<?xml version="1.0" encoding="ISO-8859-1"?>
<modeling>
 <generator>
  <i name="program" type="string">vasp </i>
  <i name="version" type="string">5.4.1  </i>
  <i name="subversion" type="string">05Feb16 (build Jan 29 2020 16:04:39) complex                          parallel </i>
  <i name="platform" type="string">IFC91_ompi </i>
  <i name="date" type="string">2020 06 15 </i>
  <i name="time" type="string">12:24:30 </i>
 </generator>
 <incar>
  <i type="string" name="SYSTEM"> automatically generated by mexm</i>
  <i type="int" name="ISTART">     0</i>
  <i type="string" name="PREC">accurate               ! avoid wrap aro</i>
  <i type="string" name="ALGO"> Fast                   ! blocked Davids</i>
  <i type="int" name="ISPIN">     1</i>
  <i type="int" name="ICHARG">     2</i>
  <i type="int" name="NELM">    70</i>
  <i type="int" name="IBRION">     2</i>
  <i name="EDIFF">      0.00001000</i>
  <i name="EDIFFG">     -0.01000000</i>
  <i type="int" name="NSW">   300</i>
  <i type="int" name="ISIF">     3</i>
  <i type="int" name="ISYM">     1</i>
  <i name="ENCUT">    300.00000000</i>
  <i name="POTIM">      0.15000000</i>
  <i type="string" name="LREAL"> Auto                  ! unpublished met</i>
  <i type="int" name="ISMEAR">     1</i>
  <i name="SIGMA">      0.15000000</i>
  <i type="logical" name="LWAVE"> F  </i>
  <i type="logical" name="LCHARG"> F  </i>
  <i type="logical" name="LVTOT"> F  </i>
  <v type="int" name="KPOINT_BSE">    -1     0     0     0</v>
  <i type="int" name="NELM">    70</i>
 </incar>
 <kpoints>
  <generation param="Gamma">
   <v type="int" name="divisions">       3        3        3 </v>
   <v name="usershift">      0.00000000       0.00000000       0.00000000 </v>
   <v name="genvec1">      0.33333333      -0.00000000       0.00000000 </v>
   <v name="genvec2">      0.00000000       0.33333333       0.00000000 </v>
   <v name="genvec3">     -0.00000000       0.00000000       0.33333333 </v>
   <v name="shift">      0.00000000       0.00000000       0.00000000 </v>
  </generation>
  <varray name="kpointlist" >
   <v>       0.00000000       0.00000000       0.00000000 </v>
   <v>       0.33333333      -0.00000000      -0.00000000 </v>
   <v>      -0.00000000       0.33333333       0.00000000 </v>
   <v>       0.33333333       0.33333333      -0.00000000 </v>
   <v>      -0.33333333       0.33333333       0.00000000 </v>
   <v>      -0.00000000       0.00000000       0.33333333 </v>
   <v>       0.33333333      -0.00000000       0.33333333 </v>
   <v>      -0.33333333       0.00000000       0.33333333 </v>
   <v>       0.00000000       0.33333333       0.33333333 </v>
   <v>       0.33333333       0.33333333       0.33333333 </v>
   <v>      -0.33333333       0.33333333       0.33333333 </v>
   <v>      -0.00000000      -0.33333333       0.33333333 </v>
   <v>       0.33333333      -0.33333333       0.33333333 </v>
   <v>      -0.33333333      -0.33333333       0.33333333 </v>
  </varray>
  <varray name="weights" >
   <v>       0.03703704 </v>
   <v>       0.07407407 </v>
   <v>       0.07407407 </v>
   <v>       0.07407407 </v>
   <v>       0.07407407 </v>
   <v>       0.07407407 </v>
   <v>       0.07407407 </v>
   <v>       0.07407407 </v>
   <v>       0.07407407 </v>
   <v>       0.07407407 </v>
   <v>       0.07407407 </v>
   <v>       0.07407407 </v>
   <v>       0.07407407 </v>
   <v>       0.07407407 </v>
  </varray>
 </kpoints>
 <parameters>
  <separator name="general" >
   <i type="string" name="SYSTEM">automatically generated by mexm</i>
   <i type="logical" name="LCOMPAT"> F  </i>
  </separator>
  <separator name="electronic" >
   <i type="string" name="PREC">accura</i>
   <i name="ENMAX">    300.00000000</i>
   <i name="ENAUG">    461.25700000</i>
   <i name="EDIFF">      0.00001000</i>
   <i type="int" name="IALGO">    68</i>
   <i type="int" name="IWAVPR">    11</i>
   <i type="int" name="NBANDS">   172</i>
   <i name="NELECT">    286.00000000</i>
   <i type="int" name="TURBO">     0</i>
   <i type="int" name="IRESTART">     0</i>
   <i type="int" name="NREBOOT">     0</i>
   <i type="int" name="NMIN">     0</i>
   <i name="EREF">      0.00000000</i>
   <separator name="electronic smearing" >
    <i type="int" name="ISMEAR">     1</i>
    <i name="SIGMA">      0.15000000</i>
    <i name="KSPACING">      0.50000000</i>
    <i type="logical" name="KGAMMA"> T  </i>
   </separator>
   <separator name="electronic projectors" >
    <i type="logical" name="LREAL"> T  </i>
    <v name="ROPT">     -0.00025000     -0.00025000     -0.00025000     -0.00025000</v>
    <i type="int" name="LMAXPAW">  -100</i>
    <i type="int" name="LMAXMIX">     2</i>
    <i type="logical" name="NLSPLINE"> F  </i>
   </separator>
   <separator name="electronic startup" >
    <i type="int" name="ISTART">     0</i>
    <i type="int" name="ICHARG">     2</i>
    <i type="int" name="INIWAV">     1</i>
   </separator>
   <separator name="electronic spin" >
    <i type="int" name="ISPIN">     1</i>
    <i type="logical" name="LNONCOLLINEAR"> F  </i>
    <v name="MAGMOM">      1.00000000      1.00000000      1.00000000      1.00000000      1.00000000      1.00000000      1.00000000      1.00000000      1.00000000      1.00000000      1.00000000      1.00000000      1.00000000      1.00000000      1.00000000      1.00000000      1.00000000      1.00000000      1.00000000      1.00000000
      1.00000000      1.00000000      1.00000000      1.00000000      1.00000000      1.00000000      1.00000000      1.00000000      1.00000000      1.00000000      1.00000000      1.00000000      1.00000000      1.00000000      1.00000000      1.00000000</v>
    <i name="NUPDOWN">     -1.00000000</i>
    <i type="logical" name="LSORBIT"> F  </i>
    <v name="SAXIS">      0.00000000      0.00000000      1.00000000</v>
    <i type="logical" name="LSPIRAL"> F  </i>
    <v name="QSPIRAL">      0.00000000      0.00000000      0.00000000</v>
    <i type="logical" name="LZEROZ"> F  </i>
   </separator>
   <separator name="electronic exchange-correlation" >
    <i type="logical" name="LASPH"> F  </i>
    <i type="logical" name="LMETAGGA"> F  </i>
   </separator>
   <separator name="electronic convergence" >
    <i type="int" name="NELM">    70</i>
    <i type="int" name="NELMDL">    -5</i>
    <i type="int" name="NELMIN">     2</i>
    <i name="ENINI">    300.00000000</i>
    <separator name="electronic convergence detail" >
     <i type="logical" name="LDIAG"> T  </i>
     <i type="logical" name="LSUBROT"> F  </i>
     <i name="WEIMIN">      0.00100000</i>
     <i name="EBREAK">      0.00000001</i>
     <i name="DEPER">      0.30000000</i>
     <i type="int" name="NRMM">     4</i>
     <i name="TIME">      0.40000000</i>
    </separator>
   </separator>
   <separator name="electronic mixer" >
    <i name="AMIX">      0.40000000</i>
    <i name="BMIX">      1.00000000</i>
    <i name="AMIN">      0.10000000</i>
    <i name="AMIX_MAG">      1.60000000</i>
    <i name="BMIX_MAG">      1.00000000</i>
    <separator name="electronic mixer details" >
     <i type="int" name="IMIX">     4</i>
     <i type="logical" name="MIXFIRST"> F  </i>
     <i type="int" name="MAXMIX">   -45</i>
     <i name="WC">    100.00000000</i>
     <i type="int" name="INIMIX">     1</i>
     <i type="int" name="MIXPRE">     1</i>
     <i type="int" name="MREMOVE">     5</i>
    </separator>
   </separator>
   <separator name="electronic dipolcorrection" >
    <i type="logical" name="LDIPOL"> F  </i>
    <i type="logical" name="LMONO"> F  </i>
    <i type="int" name="IDIPOL">     0</i>
    <i name="EPSILON">      1.00000000</i>
    <v name="DIPOL">   -100.00000000   -100.00000000   -100.00000000</v>
    <i name="EFIELD">      0.00000000</i>
   </separator>
  </separator>
  <separator name="grids" >
   <i type="int" name="NGX">    40</i>
   <i type="int" name="NGY">    60</i>
   <i type="int" name="NGZ">    60</i>
   <i type="int" name="NGXF">    80</i>
   <i type="int" name="NGYF">   120</i>
   <i type="int" name="NGZF">   120</i>
   <i type="logical" name="ADDGRID"> F  </i>
  </separator>
  <separator name="ionic" >
   <i type="int" name="NSW">   300</i>
   <i type="int" name="IBRION">     2</i>
   <i type="int" name="ISIF">     3</i>
   <i name="PSTRESS">      0.00000000</i>
   <i name="EDIFFG">     -0.01000000</i>
   <i type="int" name="NFREE">     1</i>
   <i name="POTIM">      0.15000000</i>
   <i name="SMASS">     -3.00000000</i>
   <i name="SCALEE">      1.00000000</i>
  </separator>
  <separator name="ionic md" >
   <i name="TEBEG">      0.00010000</i>
   <i name="TEEND">      0.00010000</i>
   <i type="int" name="NBLOCK">     1</i>
   <i type="int" name="KBLOCK">   300</i>
   <i type="int" name="NPACO">   256</i>
   <i name="APACO">     16.00000000</i>
  </separator>
  <separator name="symmetry" >
   <i type="int" name="ISYM">     1</i>
   <i name="SYMPREC">      0.00001000</i>
  </separator>
  <separator name="dos" >
   <i type="logical" name="LORBIT"> F  </i>
   <v name="RWIGS">     -1.00000000     -1.00000000     -1.00000000     -1.00000000</v>
   <i type="int" name="NEDOS">   301</i>
   <i name="EMIN">     10.00000000</i>
   <i name="EMAX">    -10.00000000</i>
   <i name="EFERMI">      0.00000000</i>
  </separator>
  <separator name="writing" >
   <i type="int" name="NWRITE">     2</i>
   <i type="logical" name="LWAVE"> F  </i>
   <i type="logical" name="LCHARG"> F  </i>
   <i type="logical" name="LPARD"> F  </i>
   <i type="logical" name="LVTOT"> F  </i>
   <i type="logical" name="LVHAR"> F  </i>
   <i type="logical" name="LELF"> F  </i>
   <i type="logical" name="LOPTICS"> F  </i>
   <v name="STM">      0.00000000      0.00000000      0.00000000      0.00000000      0.00000000      0.00000000      0.00000000</v>
  </separator>
  <separator name="performance" >
   <i type="int" name="NPAR">     4</i>
   <i type="int" name="NSIM">     4</i>
   <i type="int" name="NBLK">    -1</i>
   <i type="logical" name="LPLANE"> T  </i>
   <i type="logical" name="LSCALAPACK"> T  </i>
   <i type="logical" name="LSCAAWARE"> F  </i>
   <i type="logical" name="LSCALU"> F  </i>
   <i type="logical" name="LASYNC"> F  </i>
   <i type="logical" name="LORBITALREAL"> F  </i>
  </separator>
  <separator name="miscellaneous" >
   <i type="int" name="IDIOT">     3</i>
   <i type="logical" name="LMUSIC"> F  </i>
   <v name="POMASS">     92.91000000    180.94800000    178.49000000     91.22400000</v>
   <v name="DARWINR">      0.00000000      0.00000000      0.00000000      0.00000000</v>
   <v name="DARWINV">      1.00000000      1.00000000      1.00000000      1.00000000</v>
   <i type="logical" name="LCORR"> T  </i>
  </separator>
  <i type="logical" name="GGA_COMPAT"> T  </i>
  <i type="logical" name="LBERRY"> F  </i>
  <i type="int" name="ICORELEVEL">     0</i>
  <i type="logical" name="LDAU"> F  </i>
  <i type="int" name="I_CONSTRAINED_M">     0</i>
  <separator name="electronic exchange-correlation" >
   <i type="string" name="GGA">--</i>
   <i type="int" name="VOSKOWN">     0</i>
   <i type="logical" name="LHFCALC"> F  </i>
   <i type="string" name="PRECFOCK"></i>
   <i type="logical" name="LSYMGRAD"> F  </i>
   <i type="logical" name="LHFONE"> F  </i>
   <i type="logical" name="LRHFCALC"> F  </i>
   <i type="logical" name="LTHOMAS"> F  </i>
   <i type="logical" name="LMODELHF"> F  </i>
   <i name="ENCUT4O">     -1.00000000</i>
   <i type="int" name="EXXOEP">     0</i>
   <i type="int" name="FOURORBIT">     0</i>
   <i name="AEXX">      0.00000000</i>
   <i name="HFALPHA">      0.00000000</i>
   <i name="MCALPHA">      0.00000000</i>
   <i name="ALDAX">      1.00000000</i>
   <i name="AGGAX">      1.00000000</i>
   <i name="ALDAC">      1.00000000</i>
   <i name="AGGAC">      1.00000000</i>
   <i type="int" name="NKREDX">     1</i>
   <i type="int" name="NKREDY">     1</i>
   <i type="int" name="NKREDZ">     1</i>
   <i type="logical" name="SHIFTRED"> F  </i>
   <i type="logical" name="ODDONLY"> F  </i>
   <i type="logical" name="EVENONLY"> F  </i>
   <i type="int" name="LMAXFOCK">     0</i>
   <i type="int" name="NMAXFOCKAE">     0</i>
   <i type="logical" name="LFOCKAEDFT"> F  </i>
   <i name="HFSCREEN">      0.00000000</i>
   <i name="HFSCREENC">      0.00000000</i>
   <i type="int" name="NBANDSGWLOW">     0</i>
  </separator>
  <separator name="vdW DFT" >
   <i type="logical" name="LUSE_VDW"> F  </i>
   <i name="Zab_VDW">     -0.84910000</i>
   <i name="PARAM1">      0.12340000</i>
   <i name="PARAM2">      1.00000000</i>
   <i name="PARAM3">      0.00000000</i>
  </separator>
  <separator name="model GW" >
   <i type="int" name="MODEL_GW">     0</i>
   <i name="MODEL_EPS0">     12.37631845</i>
   <i name="MODEL_ALPHA">      1.00000000</i>
  </separator>
  <separator name="linear response parameters" >
   <i type="logical" name="LEPSILON"> F  </i>
   <i type="logical" name="LRPA"> F  </i>
   <i type="logical" name="LNABLA"> F  </i>
   <i type="logical" name="LVEL"> F  </i>
   <i type="int" name="KINTER">     0</i>
   <i name="CSHIFT">      0.10000000</i>
   <i name="OMEGAMAX">     -1.00000000</i>
   <i name="DEG_THRESHOLD">      0.00200000</i>
  </separator>
  <separator name="orbital magnetization" >
   <i type="logical" name="NUCIND"> F  </i>
   <v name="MAGPOS">      0.00000000      0.00000000      0.00000000</v>
   <i type="logical" name="LNICSALL"> T  </i>
   <i type="logical" name="ORBITALMAG"> F  </i>
   <i type="logical" name="LMAGBLOCH"> F  </i>
   <i type="logical" name="LCHIMAG"> F  </i>
   <i type="logical" name="LGAUGE"> T  </i>
   <i type="int" name="MAGATOM">     0</i>
   <v name="MAGDIPOL">      0.00000000      0.00000000      0.00000000</v>
   <v name="AVECCONST">      0.00000000      0.00000000      0.00000000</v>
  </separator>
  <separator name="response functions" >
   <i type="logical" name="LADDER"> F  </i>
   <i type="logical" name="LFXC"> F  </i>
   <i type="logical" name="LHARTREE"> T  </i>
   <i type="int" name="IBSE">     0</i>
   <v type="int" name="KPOINT">    -1     0     0     0</v>
   <i type="logical" name="LTCTE"> F  </i>
   <i type="logical" name="LTETE"> F  </i>
   <i type="logical" name="LTRIPLET"> F  </i>
   <i type="logical" name="LFXCEPS"> F  </i>
   <i type="logical" name="LFXHEG"> F  </i>
   <i type="int" name="NATURALO">     0</i>
   <i type="logical" name="L2ORDER"> F  </i>
   <i type="logical" name="LUSEW"> F  </i>
   <i name="ENCUTGW">     -2.00000000</i>
   <i name="ENCUTGWSOFT">     -2.00000000</i>
   <i name="ENCUTLF">     -1.00000000</i>
   <i type="int" name="LMAXMP2">    -1</i>
   <i name="SCISSOR">      0.00000000</i>
   <i type="int" name="NOMEGA">     0</i>
   <i type="int" name="NOMEGAR">     0</i>
   <i type="int" name="NBANDSGW">    -1</i>
   <i type="int" name="NBANDSO">    -1</i>
   <i type="int" name="NBANDSV">    -1</i>
   <i type="int" name="NELM">    70</i>
   <i type="int" name="NELMHF">     1</i>
   <i type="int" name="DIM">     3</i>
   <i type="int" name="ANTIRES">     0</i>
   <i name="OMEGAMAX">    -30.00000000</i>
   <i name="OMEGAMIN">    -30.00000000</i>
   <i name="OMEGATL">   -200.00000000</i>
   <i type="int" name="OMEGAGRID">     0</i>
   <i name="CSHIFT">     -0.10000000</i>
   <i type="logical" name="SELFENERGY"> F  </i>
   <i type="logical" name="LSPECTRAL"> F  </i>
   <i type="logical" name="LSPECTRALGW"> F  </i>
   <i type="logical" name="LSINGLES"> F  </i>
   <i type="logical" name="LFERMIGW"> F  </i>
   <i type="logical" name="ODDONLYGW"> F  </i>
   <i type="logical" name="EVENONLYGW"> F  </i>
   <i type="int" name="NKREDLFX">     1</i>
   <i type="int" name="NKREDLFY">     1</i>
   <i type="int" name="NKREDLFZ">     1</i>
   <i type="int" name="MAXMEM">  1800</i>
   <i type="int" name="TELESCOPE">     0</i>
   <i type="int" name="TAUPAR">     1</i>
   <i type="int" name="OMEGAPAR">    -1</i>
   <i name="LAMBDA">      1.00000000</i>
  </separator>
  <separator name="External order field" >
   <i name="OFIELD_KAPPA">      0.00000000</i>
   <v name="OFIELD_K">      0.00000000      0.00000000      0.00000000</v>
   <i name="OFIELD_Q6_NEAR">      0.00000000</i>
   <i name="OFIELD_Q6_FAR">      0.00000000</i>
   <i name="OFIELD_A">      0.00000000</i>
  </separator>
 </parameters>
 <atominfo>
  <atoms>      36 </atoms>
  <types>       4 </types>
  <array name="atoms" >
   <dimension dim="1">ion</dimension>
   <field type="string">element</field>
   <field type="int">atomtype</field>
   <set>
    <rc><c>Nb</c><c>   1</c></rc>
    <rc><c>Nb</c><c>   1</c></rc>
    <rc><c>Nb</c><c>   1</c></rc>
    <rc><c>Nb</c><c>   1</c></rc>
    <rc><c>Ta</c><c>   2</c></rc>
    <rc><c>Ta</c><c>   2</c></rc>
    <rc><c>Ta</c><c>   2</c></rc>
    <rc><c>Ta</c><c>   2</c></rc>
    <rc><c>Ta</c><c>   2</c></rc>
    <rc><c>Ta</c><c>   2</c></rc>
    <rc><c>Ta</c><c>   2</c></rc>
    <rc><c>Ta</c><c>   2</c></rc>
    <rc><c>Ta</c><c>   2</c></rc>
    <rc><c>Ta</c><c>   2</c></rc>
    <rc><c>Hf</c><c>   3</c></rc>
    <rc><c>Hf</c><c>   3</c></rc>
    <rc><c>Hf</c><c>   3</c></rc>
    <rc><c>Hf</c><c>   3</c></rc>
    <rc><c>Hf</c><c>   3</c></rc>
    <rc><c>Hf</c><c>   3</c></rc>
    <rc><c>Hf</c><c>   3</c></rc>
    <rc><c>Hf</c><c>   3</c></rc>
    <rc><c>Hf</c><c>   3</c></rc>
    <rc><c>Hf</c><c>   3</c></rc>
    <rc><c>Zr</c><c>   4</c></rc>
    <rc><c>Zr</c><c>   4</c></rc>
    <rc><c>Zr</c><c>   4</c></rc>
    <rc><c>Zr</c><c>   4</c></rc>
    <rc><c>Zr</c><c>   4</c></rc>
    <rc><c>Zr</c><c>   4</c></rc>
    <rc><c>Zr</c><c>   4</c></rc>
    <rc><c>Zr</c><c>   4</c></rc>
    <rc><c>Zr</c><c>   4</c></rc>
    <rc><c>Zr</c><c>   4</c></rc>
    <rc><c>Zr</c><c>   4</c></rc>
    <rc><c>Zr</c><c>   4</c></rc>
   </set>
  </array>
  <array name="atomtypes" >
   <dimension dim="1">type</dimension>
   <field type="int">atomspertype</field>
   <field type="string">element</field>
   <field>mass</field>
   <field>valence</field>
   <field type="string">pseudopotential</field>
   <set>
    <rc><c>   4</c><c>Nb</c><c>     92.91000000</c><c>     13.00000000</c><c>  PAW_PBE Nb_sv 25May2007               </c></rc>
    <rc><c>  10</c><c>Ta</c><c>    180.94800000</c><c>      5.00000000</c><c>  PAW_PBE Ta 17Jan2003                  </c></rc>
    <rc><c>  10</c><c>Hf</c><c>    178.49000000</c><c>      4.00000000</c><c>  PAW_PBE Hf 20Jan2003                  </c></rc>
    <rc><c>  12</c><c>Zr</c><c>     91.22400000</c><c>     12.00000000</c><c>  PAW_PBE Zr_sv 04Jan2005               </c></rc>
   </set>
  </array>
 </atominfo>
 <structure name="initialpos" >
  <crystal>
   <varray name="basis" >
    <v>       7.01343915       0.00899392       0.05484647 </v>
    <v>       0.01375776      10.26836131       0.00452939 </v>
    <v>       0.07903478       0.00417023      10.31186935 </v>
   </varray>
   <i name="volume">    742.57910685 </i>
   <varray name="rec_basis" >
    <v>       0.14259219      -0.00019057      -0.00109281 </v>
    <v>      -0.00012459       0.09738671      -0.00003843 </v>
    <v>      -0.00075836      -0.00004176       0.09698146 </v>
   </varray>
  </crystal>
  <varray name="positions" >
   <v>       0.74374000       0.15896100       0.16629600 </v>
   <v>       0.26059700       0.82731100       0.83974900 </v>
   <v>       0.54049000       0.33619800       0.01364300 </v>
   <v>       0.50517100       0.98817400       0.01432000 </v>
   <v>       0.00619200       0.67450900       0.00849400 </v>
   <v>       0.74963200       0.82907600       0.15657600 </v>
   <v>       0.97920900       0.98643300       0.31634500 </v>
   <v>       0.24951100       0.83544100       0.16222800 </v>
   <v>       0.77426000       0.15127300       0.49503700 </v>
   <v>       0.49669000       0.67541100       0.01006400 </v>
   <v>       0.24052200       0.51630000       0.51114100 </v>
   <v>       0.02941400       0.67758700       0.67295700 </v>
   <v>       0.74173700       0.51205200       0.15013900 </v>
   <v>       0.23677700       0.82763400       0.49783200 </v>
   <v>       0.47500000       0.00433400       0.65010300 </v>
   <v>       0.28806600       0.17317000       0.85515900 </v>
   <v>       0.00107000       0.99578900       0.99743100 </v>
   <v>       0.02084200       0.99774300       0.68090400 </v>
   <v>       0.00087600       0.66629700       0.32468300 </v>
   <v>       0.51048600       0.99418800       0.33141600 </v>
   <v>       0.48638900       0.32268600       0.64330300 </v>
   <v>       0.97796800       0.32851500       0.99728400 </v>
   <v>       0.74559300       0.51208800       0.83479700 </v>
   <v>       0.46669800       0.67848000       0.66189500 </v>
   <v>       0.72324600       0.16322000       0.83255000 </v>
   <v>       0.51399000       0.33425500       0.33911900 </v>
   <v>       0.01406400       0.32802100       0.67134700 </v>
   <v>       0.26337800       0.49370000       0.15431900 </v>
   <v>       0.97535400       0.34626900       0.32943400 </v>
   <v>       0.49683100       0.66604900       0.33509500 </v>
   <v>       0.20805200       0.15686300       0.47213500 </v>
   <v>       0.75639300       0.51747400       0.52790100 </v>
   <v>       0.75863400       0.83419700       0.51054600 </v>
   <v>       0.26452100       0.50041300       0.83727900 </v>
   <v>       0.25670200       0.16340700       0.16446600 </v>
   <v>       0.74188800       0.82648400       0.83400700 </v>
  </varray>
 </structure>
 <calculation>
  <scstep>
   <time name="dav">    0.96    0.96</time>
   <time name="total">    1.16    1.26</time>
   <energy>
    <i name="alphaZ">   1433.41829135 </i>
    <i name="ewald"> -18552.97151820 </i>
    <i name="hartreedc">  -6025.95263532 </i>
    <i name="XCdc">   -370.76922141 </i>
    <i name="pawpsdc">  20112.21527367 </i>
    <i name="pawaedc"> -18481.24915609 </i>
    <i name="eentropy">      0.00271240 </i>
    <i name="bandstr">    -76.15021331 </i>
    <i name="atom">  23695.91158506 </i>
    <i name="e_fr_energy">   1734.45511814 </i>
    <i name="e_wo_entrp">   1734.45240574 </i>
    <i name="e_0_energy">   1734.45421401 </i>
   </energy>
  </scstep>
  <scstep>
   <time name="dav">    0.98    0.98</time>
   <time name="total">    0.98    1.03</time>
   <energy>
    <i name="e_fr_energy">    -80.11867551 </i>
    <i name="e_wo_entrp">    -80.10468571 </i>
    <i name="e_0_energy">    -80.11401224 </i>
   </energy>
  </scstep>
  <scstep>
   <time name="dav">    1.39    1.49</time>
   <time name="total">    1.39    1.50</time>
   <energy>
    <i name="e_fr_energy">   -336.16045929 </i>
    <i name="e_wo_entrp">   -336.14625691 </i>
    <i name="e_0_energy">   -336.15572516 </i>
   </energy>
  </scstep>
  <scstep>
   <time name="dav">    1.61    1.63</time>
   <time name="total">    1.62    1.65</time>
   <energy>
    <i name="e_fr_energy">   -368.55435337 </i>
    <i name="e_wo_entrp">   -368.56146325 </i>
    <i name="e_0_energy">   -368.55672333 </i>
   </energy>
  </scstep>
  <scstep>
   <time name="dav">    1.37    1.39</time>
   <time name="total">    1.42    1.45</time>
   <energy>
    <i name="e_fr_energy">   -371.96105644 </i>
    <i name="e_wo_entrp">   -371.97077861 </i>
    <i name="e_0_energy">   -371.96429716 </i>
   </energy>
  </scstep>
  <scstep>
   <time name="diag">    0.08    0.08</time>
   <time name="diis">    0.76    0.76</time>
   <time name="orth">    0.01    0.01</time>
   <time name="total">    0.92    0.94</time>
   <energy>
    <i name="e_fr_energy">   -361.89909533 </i>
    <i name="e_wo_entrp">   -361.91633934 </i>
    <i name="e_0_energy">   -361.90484333 </i>
   </energy>
  </scstep>
  <scstep>
   <time name="diag">    0.12    0.12</time>
   <time name="diis">    0.77    0.77</time>
   <time name="orth">    0.01    0.01</time>
   <time name="total">    0.99    1.01</time>
   <energy>
    <i name="e_fr_energy">   -363.87651562 </i>
    <i name="e_wo_entrp">   -363.87937199 </i>
    <i name="e_0_energy">   -363.87746774 </i>
   </energy>
  </scstep>
  <scstep>
   <time name="diag">    0.08    0.08</time>
   <time name="diis">    0.77    0.78</time>
   <time name="orth">    0.01    0.01</time>
   <time name="total">    0.93    0.95</time>
   <energy>
    <i name="e_fr_energy">   -357.63066319 </i>
    <i name="e_wo_entrp">   -357.65960528 </i>
    <i name="e_0_energy">   -357.64031055 </i>
   </energy>
  </scstep>
  <scstep>
   <time name="diag">    0.08    0.08</time>
   <time name="diis">    0.76    0.77</time>
   <time name="orth">    0.01    0.01</time>
   <time name="total">    0.92    0.94</time>
   <energy>
    <i name="e_fr_energy">   -357.40650449 </i>
    <i name="e_wo_entrp">   -357.42745879 </i>
    <i name="e_0_energy">   -357.41348926 </i>
   </energy>
  </scstep>
  <scstep>
   <time name="diag">    0.08    0.08</time>
   <time name="diis">    0.77    0.77</time>
   <time name="orth">    0.01    0.01</time>
   <time name="total">    0.93    0.95</time>
   <energy>
    <i name="e_fr_energy">   -357.37614886 </i>
    <i name="e_wo_entrp">   -357.39838083 </i>
    <i name="e_0_energy">   -357.38355952 </i>
   </energy>
  </scstep>
  <scstep>
   <time name="diag">    0.08    0.08</time>
   <time name="diis">    0.83    0.84</time>
   <time name="orth">    0.01    0.01</time>
   <time name="total">    0.99    1.02</time>
   <energy>
    <i name="e_fr_energy">   -357.34646817 </i>
    <i name="e_wo_entrp">   -357.37006725 </i>
    <i name="e_0_energy">   -357.35433453 </i>
   </energy>
  </scstep>
  <scstep>
   <time name="diag">    0.08    0.08</time>
   <time name="diis">    0.78    0.78</time>
   <time name="orth">    0.01    0.01</time>
   <time name="total">    0.93    0.95</time>
   <energy>
    <i name="e_fr_energy">   -357.34561412 </i>
    <i name="e_wo_entrp">   -357.36932040 </i>
    <i name="e_0_energy">   -357.35351621 </i>
   </energy>
  </scstep>
  <scstep>
   <time name="diag">    0.08    0.08</time>
   <time name="diis">    0.78    0.78</time>
   <time name="orth">    0.01    0.01</time>
   <time name="total">    0.93    0.97</time>
   <energy>
    <i name="e_fr_energy">   -357.34447307 </i>
    <i name="e_wo_entrp">   -357.36815181 </i>
    <i name="e_0_energy">   -357.35236598 </i>
   </energy>
  </scstep>
  <scstep>
   <time name="diag">    0.08    0.08</time>
   <time name="diis">    0.81    0.81</time>
   <time name="orth">    0.01    0.01</time>
   <time name="total">    0.96    1.00</time>
   <energy>
    <i name="e_fr_energy">   -357.34496739 </i>
    <i name="e_wo_entrp">   -357.36861085 </i>
    <i name="e_0_energy">   -357.35284854 </i>
   </energy>
  </scstep>
  <scstep>
   <time name="diag">    0.12    0.13</time>
   <time name="diis">    0.82    0.84</time>
   <time name="orth">    0.01    0.01</time>
   <time name="total">    1.03    1.10</time>
   <energy>
    <i name="e_fr_energy">   -357.34534864 </i>
    <i name="e_wo_entrp">   -357.36889372 </i>
    <i name="e_0_energy">   -357.35319700 </i>
   </energy>
  </scstep>
  <scstep>
   <time name="diag">    0.09    0.10</time>
   <time name="diis">    0.67    0.72</time>
   <time name="orth">    0.01    0.01</time>
   <time name="total">    0.85    0.91</time>
   <energy>
    <i name="e_fr_energy">   -357.34546174 </i>
    <i name="e_wo_entrp">   -357.36906519 </i>
    <i name="e_0_energy">   -357.35332955 </i>
   </energy>
  </scstep>
  <scstep>
   <time name="diag">    0.08    0.08</time>
   <time name="diis">    0.66    0.66</time>
   <time name="orth">    0.01    0.01</time>
   <time name="total">    0.82    0.86</time>
   <energy>
    <i name="e_fr_energy">   -357.34550151 </i>
    <i name="e_wo_entrp">   -357.36911969 </i>
    <i name="e_0_energy">   -357.35337423 </i>
   </energy>
  </scstep>
  <scstep>
   <time name="diag">    0.08    0.08</time>
   <time name="diis">    0.61    0.62</time>
   <time name="orth">    0.01    0.01</time>
   <time name="total">    0.77    0.79</time>
   <energy>
    <i name="e_fr_energy">   -357.34554137 </i>
    <i name="e_wo_entrp">   -357.36919405 </i>
    <i name="e_0_energy">   -357.35342559 </i>
   </energy>
  </scstep>
  <scstep>
   <time name="diag">    0.08    0.08</time>
   <time name="diis">    0.53    0.53</time>
   <time name="orth">    0.01    0.01</time>
   <time name="total">    0.70    0.73</time>
   <energy>
    <i name="e_fr_energy">   -357.34555893 </i>
    <i name="e_wo_entrp">   -357.36920778 </i>
    <i name="e_0_energy">   -357.35344188 </i>
   </energy>
  </scstep>
  <scstep>
   <time name="diag">    0.08    0.08</time>
   <time name="diis">    0.45    0.45</time>
   <time name="orth">    0.01    0.01</time>
   <time name="total">    0.61    0.62</time>
   <energy>
    <i name="e_fr_energy">   -357.34556534 </i>
    <i name="e_wo_entrp">   -357.36921490 </i>
    <i name="e_0_energy">   -357.35344853 </i>
   </energy>
  </scstep>
  <scstep>
   <time name="diag">    0.08    0.08</time>
   <time name="diis">    0.44    0.44</time>
   <time name="orth">    0.01    0.01</time>
   <time name="total">    0.56    0.57</time>
   <energy>
    <i name="alphaZ">   1433.41829135 </i>
    <i name="ewald"> -18552.97151820 </i>
    <i name="hartreedc">  -5793.46909820 </i>
    <i name="XCdc">   -369.79063859 </i>
    <i name="pawpsdc">  33416.99663893 </i>
    <i name="pawaedc"> -31772.73612508 </i>
    <i name="eentropy">      0.02364724 </i>
    <i name="bandstr">  -2414.72835078 </i>
    <i name="atom">  23695.91158506 </i>
    <i name="e_fr_energy">   -357.34556827 </i>
    <i name="e_wo_entrp">   -357.36921551 </i>
    <i name="e_0_energy">   -357.35345068 </i>
   </energy>
  </scstep>
  <structure>
   <crystal>
    <varray name="basis" >
     <v>       7.01343915       0.00899392       0.05484647 </v>
     <v>       0.01375776      10.26836131       0.00452939 </v>
     <v>       0.07903478       0.00417023      10.31186935 </v>
    </varray>
    <i name="volume">    742.57910685 </i>
    <varray name="rec_basis" >
     <v>       0.14259219      -0.00019057      -0.00109281 </v>
     <v>      -0.00012459       0.09738671      -0.00003843 </v>
     <v>      -0.00075836      -0.00004176       0.09698146 </v>
    </varray>
   </crystal>
   <varray name="positions" >
    <v>       0.74374000       0.15896100       0.16629600 </v>
    <v>       0.26059700       0.82731100       0.83974900 </v>
    <v>       0.54049000       0.33619800       0.01364300 </v>
    <v>       0.50517100       0.98817400       0.01432000 </v>
    <v>       0.00619200       0.67450900       0.00849400 </v>
    <v>       0.74963200       0.82907600       0.15657600 </v>
    <v>       0.97920900       0.98643300       0.31634500 </v>
    <v>       0.24951100       0.83544100       0.16222800 </v>
    <v>       0.77426000       0.15127300       0.49503700 </v>
    <v>       0.49669000       0.67541100       0.01006400 </v>
    <v>       0.24052200       0.51630000       0.51114100 </v>
    <v>       0.02941400       0.67758700       0.67295700 </v>
    <v>       0.74173700       0.51205200       0.15013900 </v>
    <v>       0.23677700       0.82763400       0.49783200 </v>
    <v>       0.47500000       0.00433400       0.65010300 </v>
    <v>       0.28806600       0.17317000       0.85515900 </v>
    <v>       0.00107000       0.99578900       0.99743100 </v>
    <v>       0.02084200       0.99774300       0.68090400 </v>
    <v>       0.00087600       0.66629700       0.32468300 </v>
    <v>       0.51048600       0.99418800       0.33141600 </v>
    <v>       0.48638900       0.32268600       0.64330300 </v>
    <v>       0.97796800       0.32851500       0.99728400 </v>
    <v>       0.74559300       0.51208800       0.83479700 </v>
    <v>       0.46669800       0.67848000       0.66189500 </v>
    <v>       0.72324600       0.16322000       0.83255000 </v>
    <v>       0.51399000       0.33425500       0.33911900 </v>
    <v>       0.01406400       0.32802100       0.67134700 </v>
    <v>       0.26337800       0.49370000       0.15431900 </v>
    <v>       0.97535400       0.34626900       0.32943400 </v>
    <v>       0.49683100       0.66604900       0.33509500 </v>
    <v>       0.20805200       0.15686300       0.47213500 </v>
    <v>       0.75639300       0.51747400       0.52790100 </v>
    <v>       0.75863400       0.83419700       0.51054600 </v>
    <v>       0.26452100       0.50041300       0.83727900 </v>
    <v>       0.25670200       0.16340700       0.16446600 </v>
    <v>       0.74188800       0.82648400       0.83400700 </v>
   </varray>
  </structure>
  <varray name="forces" >
   <v>      -0.00689743       0.00362216      -0.00880041 </v>
   <v>      -0.33040628       0.27127949       0.48389714 </v>
   <v>      -0.00830510       0.00446936      -0.00869843 </v>
   <v>      -0.01920795      -0.03454741       0.00042277 </v>
   <v>       0.02386205       0.01737603      -0.02163646 </v>
   <v>       0.04160258       0.00648011       0.01786057 </v>
   <v>      -0.02837272      -0.02251272       0.04527381 </v>
   <v>      -0.02600629       0.03113306       0.01155797 </v>
   <v>       0.00270508      -0.00315291      -0.01410774 </v>
   <v>      -0.01504928       0.00401009      -0.08739201 </v>
   <v>      -0.47755999      -0.34759017      -0.36362497 </v>
   <v>       0.07274429      -0.04834088       0.07964707 </v>
   <v>       0.03129710       0.00156432       0.02503851 </v>
   <v>      -0.45126448       0.26916330      -0.45950651 </v>
   <v>       0.03291624       0.06312064       0.01583158 </v>
   <v>      -0.03044619       0.01516406       0.01202467 </v>
   <v>       0.01046961       0.00879702      -0.03193481 </v>
   <v>       0.02929946      -0.00657934      -0.00555486 </v>
   <v>       0.02216821       0.00178934      -0.00224986 </v>
   <v>      -0.01314130      -0.05102895       0.03480955 </v>
   <v>       0.01591624      -0.01675241       0.00589118 </v>
   <v>      -0.01135464       0.00524410      -0.02480096 </v>
   <v>       0.21006593      -0.12071988       0.15610376 </v>
   <v>       0.17423231       0.10027729       0.06275005 </v>
   <v>       0.02182766      -0.00143042       0.00213515 </v>
   <v>       0.00224512      -0.00341608       0.01720351 </v>
   <v>       0.01362744      -0.00676204      -0.02647824 </v>
   <v>      -0.02563276      -0.00646288      -0.00682341 </v>
   <v>       0.00225389      -0.00442126       0.02644368 </v>
   <v>      -0.03041147       0.02529355      -0.02089898 </v>
   <v>       0.02671478      -0.00297468      -0.00398034 </v>
   <v>       0.37411035      -0.18509416      -0.13262897 </v>
   <v>       0.33347147       0.16491526      -0.15742422 </v>
   <v>      -0.17569199      -0.22988095       0.23859058 </v>
   <v>      -0.01106907       0.01660301       0.01297124 </v>
   <v>       0.21928712       0.08136490       0.12808841 </v>
  </varray>
  <varray name="stress" >
   <v>       8.01624161      -0.27784650       0.95539747 </v>
   <v>      -0.27784653       6.41933574       0.42659291 </v>
   <v>       0.95539745       0.42659288       7.79202521 </v>
  </varray>
  <energy>
   <i name="e_fr_energy">   -357.34556827 </i>
   <i name="e_wo_entrp">   -357.35345068 </i>
   <i name="e_0_energy">      0.02364724 </i>
  </energy>
  <time name="totalsc">   22.04   22.94</time>
 </calculation>
 <calculation>
  <scstep>
   <time name="dav">    1.00    1.01</time>
   <time name="total">    1.14    1.20</time>
   <energy>
    <i name="alphaZ">   1427.49800566 </i>
    <i name="ewald"> -18526.62407938 </i>
    <i name="hartreedc">  -5786.36811319 </i>
    <i name="XCdc">   -370.91637759 </i>
    <i name="pawpsdc">  33417.01418825 </i>
    <i name="pawaedc"> -31772.75253491 </i>
    <i name="eentropy">      0.02338600 </i>
    <i name="bandstr">  -2441.19821896 </i>
    <i name="atom">  23695.91158506 </i>
    <i name="e_fr_energy">   -357.41215906 </i>
    <i name="e_wo_entrp">   -357.43554506 </i>
    <i name="e_0_energy">   -357.41995439 </i>
   </energy>
  </scstep>
  <scstep>
   <time name="diag">    0.18    0.18</time>
   <time name="diis">    0.79    0.80</time>
   <time name="orth">    0.01    0.01</time>
   <time name="total">    1.26    1.30</time>
   <energy>
    <i name="e_fr_energy">   -357.39547584 </i>
    <i name="e_wo_entrp">   -357.41942051 </i>
    <i name="e_0_energy">   -357.40345740 </i>
   </energy>
  </scstep>
  <scstep>
   <time name="diag">    0.08    0.10</time>
   <time name="diis">    0.67    0.86</time>
   <time name="orth">    0.01    0.01</time>
   <time name="total">    0.84    1.09</time>
   <energy>
    <i name="e_fr_energy">   -357.39092291 </i>
    <i name="e_wo_entrp">   -357.41488891 </i>
    <i name="e_0_energy">   -357.39891157 </i>
   </energy>
  </scstep>
  <scstep>
   <time name="diag">    0.10    0.11</time>
   <time name="diis">    0.71    0.84</time>
   <time name="orth">    0.01    0.01</time>
   <time name="total">    0.91    1.09</time>
   <energy>
    <i name="e_fr_energy">   -357.38413358 </i>
    <i name="e_wo_entrp">   -357.40799583 </i>
    <i name="e_0_energy">   -357.39208767 </i>
   </energy>
  </scstep>
  <scstep>
   <time name="diag">    0.08    0.08</time>
   <time name="diis">    0.71    0.84</time>
   <time name="orth">    0.01    0.02</time>
   <time name="total">    0.86    1.02</time>
   <energy>
    <i name="e_fr_energy">   -357.38367646 </i>
    <i name="e_wo_entrp">   -357.40752647 </i>
    <i name="e_0_energy">   -357.39162646 </i>
   </energy>
  </scstep>
  <scstep>
   <time name="diag">    0.07    0.09</time>
   <time name="diis">    0.78    0.87</time>
   <time name="orth">    0.01    0.01</time>
   <time name="total">    0.93    1.06</time>
   <energy>
    <i name="e_fr_energy">   -357.38373741 </i>
    <i name="e_wo_entrp">   -357.40776346 </i>
    <i name="e_0_energy">   -357.39174610 </i>
   </energy>
  </scstep>
  <scstep>
   <time name="diag">    0.08    0.08</time>
   <time name="diis">    0.72    0.78</time>
   <time name="orth">    0.01    0.01</time>
   <time name="total">    0.88    0.98</time>
   <energy>
    <i name="e_fr_energy">   -357.38373847 </i>
    <i name="e_wo_entrp">   -357.40759843 </i>
    <i name="e_0_energy">   -357.39169179 </i>
   </energy>
  </scstep>
  <scstep>
   <time name="diag">    0.08    0.08</time>
   <time name="diis">    0.65    0.71</time>
   <time name="orth">    0.01    0.01</time>
   <time name="total">    0.81    0.90</time>
   <energy>
    <i name="e_fr_energy">   -357.38375533 </i>
    <i name="e_wo_entrp">   -357.40764876 </i>
    <i name="e_0_energy">   -357.39171981 </i>
   </energy>
  </scstep>
  <scstep>
   <time name="diag">    0.08    0.10</time>
   <time name="diis">    0.57    0.64</time>
   <time name="orth">    0.02    0.02</time>
   <time name="total">    0.75    0.86</time>
   <energy>
    <i name="e_fr_energy">   -357.38376770 </i>
    <i name="e_wo_entrp">   -357.40766233 </i>
    <i name="e_0_energy">   -357.39173258 </i>
   </energy>
  </scstep>
  <scstep>
   <time name="diag">    0.11    0.14</time>
   <time name="diis">    0.51    0.53</time>
   <time name="orth">    0.01    0.01</time>
   <time name="total">    0.66    0.74</time>
   <energy>
    <i name="alphaZ">   1427.49800566 </i>
    <i name="ewald"> -18526.62407938 </i>
    <i name="hartreedc">  -5801.93718595 </i>
    <i name="XCdc">   -370.23468969 </i>
    <i name="pawpsdc">  33217.42303768 </i>
    <i name="pawaedc"> -31573.23922340 </i>
    <i name="eentropy">      0.02389693 </i>
    <i name="bandstr">  -2426.20512136 </i>
    <i name="atom">  23695.91158506 </i>
    <i name="e_fr_energy">   -357.38377444 </i>
    <i name="e_wo_entrp">   -357.40767137 </i>
    <i name="e_0_energy">   -357.39174009 </i>
   </energy>
  </scstep>
  <structure>
   <crystal>
    <varray name="basis" >
     <v>       7.02392417       0.00864595       0.05617534 </v>
     <v>       0.01324751      10.28064308       0.00535461 </v>
     <v>       0.08098833       0.00499078      10.32685541 </v>
    </varray>
    <i name="volume">    745.65881726 </i>
    <varray name="rec_basis" >
     <v>       0.14237971      -0.00018289      -0.00111652 </v>
     <v>      -0.00011936       0.09727036      -0.00004607 </v>
     <v>      -0.00077445      -0.00004944       0.09684100 </v>
    </varray>
   </crystal>
   <varray name="positions" >
    <v>       0.74372589       0.15896612       0.16628372 </v>
    <v>       0.25990674       0.82769368       0.84043166 </v>
    <v>       0.54047299       0.33620432       0.01363088 </v>
    <v>       0.50513145       0.98812534       0.01432083 </v>
    <v>       0.00624154       0.67453346       0.00846336 </v>
    <v>       0.74971756       0.82908505       0.15660061 </v>
    <v>       0.97914979       0.98640130       0.31640887 </v>
    <v>       0.24945706       0.83548492       0.16224449 </v>
    <v>       0.77426581       0.15126856       0.49501717 </v>
    <v>       0.49666031       0.67541673       0.00994150 </v>
    <v>       0.23954317       0.51581115       0.51063607 </v>
    <v>       0.02956300       0.67751869       0.67306802 </v>
    <v>       0.74180119       0.51205413       0.15017380 </v>
    <v>       0.23585225       0.82801444       0.49719183 </v>
    <v>       0.47506751       0.00442290       0.65012482 </v>
    <v>       0.28800294       0.17319142       0.85517620 </v>
    <v>       0.00109209       0.99580140       0.99738606 </v>
    <v>       0.02090257       0.99773368       0.68089589 </v>
    <v>       0.00092178       0.66629948       0.32467960 </v>
    <v>       0.51045847       0.99411608       0.33146503 </v>
    <v>       0.48642180       0.32266236       0.64331110 </v>
    <v>       0.97794495       0.32852243       0.99724931 </v>
    <v>       0.74602438       0.51191738       0.83501387 </v>
    <v>       0.46705630       0.67862099       0.66198110 </v>
    <v>       0.72329102       0.16321794       0.83255276 </v>
    <v>       0.51399437       0.33425017       0.33914312 </v>
    <v>       0.01409256       0.32801146       0.67130969 </v>
    <v>       0.26332523       0.49369094       0.15430971 </v>
    <v>       0.97535825       0.34626275       0.32947109 </v>
    <v>       0.49676850       0.66608472       0.33506598 </v>
    <v>       0.20810720       0.15685876       0.47212912 </v>
    <v>       0.75716766       0.51721252       0.52771085 </v>
    <v>       0.75932422       0.83442893       0.51032128 </v>
    <v>       0.26415528       0.50008918       0.83761595 </v>
    <v>       0.25667891       0.16343041       0.16448432 </v>
    <v>       0.74233829       0.82659821       0.83418433 </v>
   </varray>
  </structure>
  <varray name="forces" >
   <v>      -0.01939588       0.00140153      -0.00768484 </v>
   <v>      -0.28771069       0.21516258       0.43280154 </v>
   <v>       0.00786736       0.00452649       0.00873511 </v>
   <v>      -0.02036788      -0.03698029       0.01719968 </v>
   <v>       0.01883867       0.02554242       0.00303815 </v>
   <v>       0.03097373      -0.00023650       0.00944551 </v>
   <v>      -0.03049800      -0.01275902       0.03077562 </v>
   <v>      -0.01891020       0.02465942       0.00846741 </v>
   <v>       0.00456471      -0.00828737      -0.01642104 </v>
   <v>      -0.01201505       0.01343349      -0.07387306 </v>
   <v>      -0.43637311      -0.29204546      -0.29932491 </v>
   <v>       0.10687319      -0.04130119       0.05283145 </v>
   <v>       0.01370021       0.00704280       0.00525564 </v>
   <v>      -0.41083096       0.23442213      -0.40573166 </v>
   <v>       0.02505301       0.04060214       0.00226958 </v>
   <v>      -0.01749373       0.01439121       0.01063220 </v>
   <v>       0.00543756       0.01270463      -0.01843771 </v>
   <v>       0.03806949       0.00106915      -0.00247565 </v>
   <v>       0.01917883       0.00143053      -0.02765613 </v>
   <v>      -0.00333126      -0.04481254       0.02630590 </v>
   <v>       0.00701520      -0.00524893      -0.00373981 </v>
   <v>      -0.02787159      -0.00547485      -0.00962060 </v>
   <v>       0.18582284      -0.09324480       0.13951044 </v>
   <v>       0.09024448       0.09620408       0.03175520 </v>
   <v>       0.01020001      -0.00183803       0.00691120 </v>
   <v>       0.00755542      -0.00938749       0.01001708 </v>
   <v>       0.02158052      -0.02270560      -0.02571470 </v>
   <v>      -0.01332351       0.00037413      -0.01039335 </v>
   <v>      -0.00867253      -0.00905022       0.01676700 </v>
   <v>      -0.04214645       0.02500914      -0.01385858 </v>
   <v>       0.02011374      -0.00988929      -0.00178889 </v>
   <v>       0.36682033      -0.15719329      -0.10441971 </v>
   <v>       0.31555118       0.15050587      -0.12976719 </v>
   <v>      -0.14739084      -0.19224923       0.21372468 </v>
   <v>      -0.00212927       0.01067273       0.00940582 </v>
   <v>       0.20300046       0.06354963       0.11505868 </v>
  </varray>
  <varray name="stress" >
   <v>       2.52087715      -0.22317215       0.74989347 </v>
   <v>      -0.22317214       1.06044531       0.30182841 </v>
   <v>       0.74989347       0.30182841       2.29990273 </v>
  </varray>
  <energy>
   <i name="e_fr_energy">   -357.38377444 </i>
   <i name="e_wo_entrp">   -357.39174009 </i>
   <i name="e_0_energy">      0.02389693 </i>
  </energy>
  <time name="totalsc">   10.67   11.96</time>
 </calculation>
 <calculation>
  <scstep>
   <time name="dav">    1.04    1.06</time>
   <time name="total">    1.19    1.26</time>
   <energy>
    <i name="alphaZ">   1411.13952272 </i>
    <i name="ewald"> -18452.64696921 </i>
    <i name="hartreedc">  -5782.75803982 </i>
    <i name="XCdc">   -373.36755964 </i>
    <i name="pawpsdc">  33217.22047515 </i>
    <i name="pawaedc"> -31573.12691196 </i>
    <i name="eentropy">      0.02341308 </i>
    <i name="bandstr">  -2500.02931213 </i>
    <i name="atom">  23695.91158506 </i>
    <i name="e_fr_energy">   -357.63379675 </i>
    <i name="e_wo_entrp">   -357.65720982 </i>
    <i name="e_0_energy">   -357.64160111 </i>
   </energy>
  </scstep>
  <scstep>
   <time name="diag">    0.08    0.08</time>
   <time name="diis">    0.76    0.76</time>
   <time name="orth">    0.01    0.01</time>
   <time name="total">    0.93    0.94</time>
   <energy>
    <i name="e_fr_energy">   -357.51164238 </i>
    <i name="e_wo_entrp">   -357.53513425 </i>
    <i name="e_0_energy">   -357.51947300 </i>
   </energy>
  </scstep>
  <scstep>
   <time name="diag">    0.08    0.08</time>
   <time name="diis">    0.80    0.80</time>
   <time name="orth">    0.01    0.01</time>
   <time name="total">    0.96    0.98</time>
   <energy>
    <i name="e_fr_energy">   -357.47077483 </i>
    <i name="e_wo_entrp">   -357.49487714 </i>
    <i name="e_0_energy">   -357.47880893 </i>
   </energy>
  </scstep>
  <scstep>
   <time name="diag">    0.08    0.08</time>
   <time name="diis">    0.79    0.80</time>
   <time name="orth">    0.01    0.01</time>
   <time name="total">    0.95    0.97</time>
   <energy>
    <i name="e_fr_energy">   -357.41848294 </i>
    <i name="e_wo_entrp">   -357.44274744 </i>
    <i name="e_0_energy">   -357.42657111 </i>
   </energy>
  </scstep>
  <scstep>
   <time name="diag">    0.08    0.08</time>
   <time name="diis">    0.78    0.79</time>
   <time name="orth">    0.01    0.01</time>
   <time name="total">    0.94    0.96</time>
   <energy>
    <i name="e_fr_energy">   -357.41428493 </i>
    <i name="e_wo_entrp">   -357.43839643 </i>
    <i name="e_0_energy">   -357.42232209 </i>
   </energy>
  </scstep>
  <scstep>
   <time name="diag">    0.09    0.09</time>
   <time name="diis">    0.85    0.86</time>
   <time name="orth">    0.01    0.01</time>
   <time name="total">    1.02    1.04</time>
   <energy>
    <i name="e_fr_energy">   -357.41493420 </i>
    <i name="e_wo_entrp">   -357.43954237 </i>
    <i name="e_0_energy">   -357.42313692 </i>
   </energy>
  </scstep>
  <scstep>
   <time name="diag">    0.08    0.08</time>
   <time name="diis">    0.88    0.88</time>
   <time name="orth">    0.01    0.01</time>
   <time name="total">    1.03    1.05</time>
   <energy>
    <i name="e_fr_energy">   -357.41503445 </i>
    <i name="e_wo_entrp">   -357.43925304 </i>
    <i name="e_0_energy">   -357.42310731 </i>
   </energy>
  </scstep>
  <scstep>
   <time name="diag">    0.10    0.13</time>
   <time name="diis">    0.86    0.87</time>
   <time name="orth">    0.01    0.01</time>
   <time name="total">    1.05    1.09</time>
   <energy>
    <i name="e_fr_energy">   -357.41526373 </i>
    <i name="e_wo_entrp">   -357.43955139 </i>
    <i name="e_0_energy">   -357.42335962 </i>
   </energy>
  </scstep>
  <scstep>
   <time name="diag">    0.09    0.10</time>
   <time name="diis">    0.82    0.82</time>
   <time name="orth">    0.01    0.01</time>
   <time name="total">    1.03    1.04</time>
   <energy>
    <i name="e_fr_energy">   -357.41542022 </i>
    <i name="e_wo_entrp">   -357.43970456 </i>
    <i name="e_0_energy">   -357.42351500 </i>
   </energy>
  </scstep>
  <scstep>
   <time name="diag">    0.08    0.08</time>
   <time name="diis">    0.73    0.74</time>
   <time name="orth">    0.01    0.01</time>
   <time name="total">    0.89    0.91</time>
   <energy>
    <i name="e_fr_energy">   -357.41553940 </i>
    <i name="e_wo_entrp">   -357.43983247 </i>
    <i name="e_0_energy">   -357.42363709 </i>
   </energy>
  </scstep>
  <scstep>
   <time name="diag">    0.08    0.08</time>
   <time name="diis">    0.69    0.69</time>
   <time name="orth">    0.01    0.01</time>
   <time name="total">    0.88    0.89</time>
   <energy>
    <i name="e_fr_energy">   -357.41557607 </i>
    <i name="e_wo_entrp">   -357.43986564 </i>
    <i name="e_0_energy">   -357.42367259 </i>
   </energy>
  </scstep>
  <scstep>
   <time name="diag">    0.13    0.13</time>
   <time name="diis">    0.62    0.62</time>
   <time name="orth">    0.01    0.01</time>
   <time name="total">    0.83    0.86</time>
   <energy>
    <i name="e_fr_energy">   -357.41558620 </i>
    <i name="e_wo_entrp">   -357.43987367 </i>
    <i name="e_0_energy">   -357.42368202 </i>
   </energy>
  </scstep>
  <scstep>
   <time name="diag">    0.08    0.08</time>
   <time name="diis">    0.53    0.53</time>
   <time name="orth">    0.01    0.01</time>
   <time name="total">    0.66    0.67</time>
   <energy>
    <i name="alphaZ">   1411.13952272 </i>
    <i name="ewald"> -18452.64696921 </i>
    <i name="hartreedc">  -5825.30996767 </i>
    <i name="XCdc">   -371.50684276 </i>
    <i name="pawpsdc">  32671.68829050 </i>
    <i name="pawaedc"> -31028.63146143 </i>
    <i name="eentropy">      0.02428561 </i>
    <i name="bandstr">  -2458.08402610 </i>
    <i name="atom">  23695.91158506 </i>
    <i name="e_fr_energy">   -357.41558327 </i>
    <i name="e_wo_entrp">   -357.43986888 </i>
    <i name="e_0_energy">   -357.42367848 </i>
   </energy>
  </scstep>
  <structure>
   <crystal>
    <varray name="basis" >
     <v>       7.05320136       0.00767430       0.05988593 </v>
     <v>       0.01182275      10.31493730       0.00765888 </v>
     <v>       0.08644318       0.00728201      10.36870079 </v>
    </varray>
    <i name="volume">    754.30278679 </i>
    <varray name="rec_basis" >
     <v>       0.14178980      -0.00016164      -0.00118198 </v>
     <v>      -0.00010491       0.09694695      -0.00006721 </v>
     <v>      -0.00081885      -0.00007068       0.09645097 </v>
    </varray>
   </crystal>
   <varray name="positions" >
    <v>       0.74368658       0.15898041       0.16624949 </v>
    <v>       0.25798178       0.82876075       0.84233522 </v>
    <v>       0.54042556       0.33622194       0.01359709 </v>
    <v>       0.50502117       0.98798963       0.01432315 </v>
    <v>       0.00637969       0.67460169       0.00837790 </v>
    <v>       0.74995608       0.82911029       0.15666919 </v>
    <v>       0.97898466       0.98631285       0.31658699 </v>
    <v>       0.24930667       0.83560741       0.16229047 </v>
    <v>       0.77428204       0.15125618       0.49496188 </v>
    <v>       0.49657764       0.67543273       0.00959995 </v>
    <v>       0.23681432       0.51444778       0.50922864 </v>
    <v>       0.02997832       0.67732817       0.67337755 </v>
    <v>       0.74198013       0.51206009       0.15027081 </v>
    <v>       0.23327447       0.82907553       0.49540711 </v>
    <v>       0.47525572       0.00467083       0.65018562 </v>
    <v>       0.28782710       0.17325115       0.85522418 </v>
    <v>       0.00115370       0.99583599       0.99726073 </v>
    <v>       0.02107146       0.99770768       0.68087324 </v>
    <v>       0.00104942       0.66630641       0.32467010 </v>
    <v>       0.51038166       0.99391549       0.33160178 </v>
    <v>       0.48651324       0.32259642       0.64333370 </v>
    <v>       0.97788069       0.32854314       0.99715260 </v>
    <v>       0.74722692       0.51144154       0.83561846 </v>
    <v>       0.46805523       0.67901421       0.66222103 </v>
    <v>       0.72341652       0.16321221       0.83256043 </v>
    <v>       0.51400654       0.33423670       0.33921039 </v>
    <v>       0.01417222       0.32798486       0.67120565 </v>
    <v>       0.26317810       0.49366567       0.15428382 </v>
    <v>       0.97537005       0.34624531       0.32957452 </v>
    <v>       0.49659427       0.66618433       0.33498510 </v>
    <v>       0.20826112       0.15684695       0.47211271 </v>
    <v>       0.75932760       0.51648337       0.52718046 </v>
    <v>       0.76124886       0.83507588       0.50969443 </v>
    <v>       0.26313531       0.49918594       0.83855565 </v>
    <v>       0.25661451       0.16349571       0.16453539 </v>
    <v>       0.74359366       0.82691676       0.83467858 </v>
   </varray>
  </structure>
  <varray name="forces" >
   <v>      -0.05657922      -0.00406979      -0.00829934 </v>
   <v>      -0.17369874       0.06776966       0.30571481 </v>
   <v>       0.04940335       0.00272375       0.05619253 </v>
   <v>      -0.02218786      -0.04350749       0.06006113 </v>
   <v>       0.00469663       0.04757699       0.06404572 </v>
   <v>       0.00131129      -0.01892525      -0.01423390 </v>
   <v>      -0.03567653       0.01275520      -0.01044395 </v>
   <v>       0.00100843       0.00611225       0.00034026 </v>
   <v>       0.01082037      -0.02269016      -0.02150372 </v>
   <v>      -0.00237710       0.03822218      -0.03867279 </v>
   <v>      -0.33451057      -0.15236185      -0.13507035 </v>
   <v>       0.19249717      -0.02259638      -0.01422521 </v>
   <v>      -0.03431032       0.02486339      -0.04943498 </v>
   <v>      -0.30810867       0.14997233      -0.27217546 </v>
   <v>       0.00934229      -0.01655372      -0.03001108 </v>
   <v>       0.01832236       0.01036057       0.00774469 </v>
   <v>      -0.00942166       0.02196177       0.01818223 </v>
   <v>       0.05945569       0.01922631       0.00601284 </v>
   <v>       0.01203773       0.00024353      -0.09777507 </v>
   <v>       0.02320311      -0.02986207       0.00236270 </v>
   <v>      -0.01516981       0.02574997      -0.02615081 </v>
   <v>      -0.07125793      -0.03425290       0.03179229 </v>
   <v>       0.12294653      -0.01692702       0.09575967 </v>
   <v>      -0.12479489       0.08395225      -0.04122221 </v>
   <v>      -0.02374084      -0.00327473       0.02218317 </v>
   <v>       0.02079750      -0.02412322      -0.01301555 </v>
   <v>       0.04352254      -0.06248247      -0.02448140 </v>
   <v>       0.02278446       0.01901325      -0.02152124 </v>
   <v>      -0.03708242      -0.02488553      -0.00931806 </v>
   <v>      -0.07263648       0.02535195       0.00313050 </v>
   <v>      -0.00002401      -0.02771331       0.00387798 </v>
   <v>       0.34981482      -0.08374800      -0.03076634 </v>
   <v>       0.26848132       0.11352540      -0.05409923 </v>
   <v>      -0.07057499      -0.09168360       0.15374460 </v>
   <v>       0.02462215      -0.00488081      -0.00048185 </v>
   <v>       0.15708430       0.01515754       0.08175742 </v>
  </varray>
  <varray name="stress" >
   <v>     -12.68629233      -0.03586121       0.20542481 </v>
   <v>      -0.03586126     -13.78739371      -0.06051695 </v>
   <v>       0.20542484      -0.06051692     -12.91347382 </v>
  </varray>
  <energy>
   <i name="e_fr_energy">   -357.41558327 </i>
   <i name="e_wo_entrp">   -357.42367848 </i>
   <i name="e_0_energy">      0.02428561 </i>
  </energy>
  <time name="totalsc">   13.91   14.31</time>
 </calculation>
 <calculation>
  <scstep>
   <time name="dav">    0.94    0.95</time>
   <time name="total">    1.20    1.26</time>
   <energy>
    <i name="alphaZ">   1412.10764678 </i>
    <i name="ewald"> -18455.24976251 </i>
    <i name="hartreedc">  -5828.29886118 </i>
    <i name="XCdc">   -371.31510843 </i>
    <i name="pawpsdc">  32671.16121069 </i>
    <i name="pawaedc"> -31028.12049988 </i>
    <i name="eentropy">      0.02397572 </i>
    <i name="bandstr">  -2453.65654031 </i>
    <i name="atom">  23695.91158506 </i>
    <i name="e_fr_energy">   -357.43635406 </i>
    <i name="e_wo_entrp">   -357.46032978 </i>
    <i name="e_0_energy">   -357.44434596 </i>
   </energy>
  </scstep>
  <scstep>
   <time name="diag">    0.08    0.08</time>
   <time name="diis">    0.75    0.75</time>
   <time name="orth">    0.01    0.01</time>
   <time name="total">    0.95    0.97</time>
   <energy>
    <i name="e_fr_energy">   -357.43991643 </i>
    <i name="e_wo_entrp">   -357.46392892 </i>
    <i name="e_0_energy">   -357.44792059 </i>
   </energy>
  </scstep>
  <scstep>
   <time name="diag">    0.08    0.08</time>
   <time name="diis">    0.79    0.80</time>
   <time name="orth">    0.02    0.02</time>
   <time name="total">    0.99    1.00</time>
   <energy>
    <i name="e_fr_energy">   -357.43916838 </i>
    <i name="e_wo_entrp">   -357.46306673 </i>
    <i name="e_0_energy">   -357.44713449 </i>
   </energy>
  </scstep>
  <scstep>
   <time name="diag">    0.11    0.13</time>
   <time name="diis">    0.84    0.85</time>
   <time name="orth">    0.01    0.01</time>
   <time name="total">    1.04    1.08</time>
   <energy>
    <i name="e_fr_energy">   -357.43894524 </i>
    <i name="e_wo_entrp">   -357.46290331 </i>
    <i name="e_0_energy">   -357.44693127 </i>
   </energy>
  </scstep>
  <scstep>
   <time name="diag">    0.08    0.08</time>
   <time name="diis">    0.80    0.81</time>
   <time name="orth">    0.01    0.01</time>
   <time name="total">    0.96    0.98</time>
   <energy>
    <i name="e_fr_energy">   -357.43891211 </i>
    <i name="e_wo_entrp">   -357.46287157 </i>
    <i name="e_0_energy">   -357.44689860 </i>
   </energy>
  </scstep>
  <scstep>
   <time name="diag">    0.08    0.08</time>
   <time name="diis">    0.75    0.75</time>
   <time name="orth">    0.01    0.01</time>
   <time name="total">    0.90    0.94</time>
   <energy>
    <i name="e_fr_energy">   -357.43890547 </i>
    <i name="e_wo_entrp">   -357.46284039 </i>
    <i name="e_0_energy">   -357.44688378 </i>
   </energy>
  </scstep>
  <scstep>
   <time name="diag">    0.08    0.08</time>
   <time name="diis">    0.65    0.65</time>
   <time name="orth">    0.01    0.01</time>
   <time name="total">    0.80    0.82</time>
   <energy>
    <i name="e_fr_energy">   -357.43891062 </i>
    <i name="e_wo_entrp">   -357.46284615 </i>
    <i name="e_0_energy">   -357.44688913 </i>
   </energy>
  </scstep>
  <scstep>
   <time name="diag">    0.08    0.08</time>
   <time name="diis">    0.39    0.39</time>
   <time name="orth">    0.01    0.01</time>
   <time name="total">    0.51    0.53</time>
   <energy>
    <i name="alphaZ">   1412.10764678 </i>
    <i name="ewald"> -18455.24976251 </i>
    <i name="hartreedc">  -5825.68824692 </i>
    <i name="XCdc">   -371.42643179 </i>
    <i name="pawpsdc">  32698.14423810 </i>
    <i name="pawaedc"> -31055.20260048 </i>
    <i name="eentropy">      0.02395292 </i>
    <i name="bandstr">  -2456.05929638 </i>
    <i name="atom">  23695.91158506 </i>
    <i name="e_fr_energy">   -357.43891521 </i>
    <i name="e_wo_entrp">   -357.46286813 </i>
    <i name="e_0_energy">   -357.44689951 </i>
   </energy>
  </scstep>
  <structure>
   <crystal>
    <varray name="basis" >
     <v>       7.05252087       0.00736788       0.06098782 </v>
     <v>       0.01137472      10.31044436       0.00823015 </v>
     <v>       0.08806706       0.00784863      10.36713518 </v>
    </varray>
    <i name="volume">    753.78564585 </i>
    <varray name="rec_basis" >
     <v>       0.14180385      -0.00015548      -0.00120448 </v>
     <v>      -0.00010070       0.09698920      -0.00007257 </v>
     <v>      -0.00083412      -0.00007608       0.09646581 </v>
    </varray>
   </crystal>
   <varray name="positions" >
    <v>       0.74361545       0.15898142       0.16623440 </v>
    <v>       0.25726399       0.82910365       0.84308178 </v>
    <v>       0.54046477       0.33622872       0.01362830 </v>
    <v>       0.50496667       0.98792051       0.01436759 </v>
    <v>       0.00642207       0.67465516       0.00840084 </v>
    <v>       0.75002319       0.82910343       0.15667769 </v>
    <v>       0.97890121       0.98629785       0.31662861 </v>
    <v>       0.24926639       0.83564556       0.16230336 </v>
    <v>       0.77429828       0.15123622       0.49493101 </v>
    <v>       0.49655273       0.67546507       0.00947795 </v>
    <v>       0.23570855       0.51396177       0.50874604 </v>
    <v>       0.03029810       0.67725910       0.67345112 </v>
    <v>       0.74199308       0.51207992       0.15026176 </v>
    <v>       0.23223949       0.82947739       0.49472071 </v>
    <v>       0.47531773       0.00472698       0.65018047 </v>
    <v>       0.28779823       0.17327513       0.85524290 </v>
    <v>       0.00116042       0.99586154       0.99723952 </v>
    <v>       0.02118129       0.99771452       0.68087099 </v>
    <v>       0.00109824       0.66630854       0.32459639 </v>
    <v>       0.51038530       0.99383847       0.33164098 </v>
    <v>       0.48652237       0.32259710       0.64332099 </v>
    <v>       0.97778673       0.32852388       0.99714955 </v>
    <v>       0.74768781       0.51129811       0.83585341 </v>
    <v>       0.46819688       0.67918382       0.66225767 </v>
    <v>       0.72342549       0.16320825       0.83257879 </v>
    <v>       0.51403222       0.33421537       0.33921931 </v>
    <v>       0.01424089       0.32793192       0.67115903 </v>
    <v>       0.26316214       0.49367259       0.15426094 </v>
    <v>       0.97533380       0.34622237       0.32959643 </v>
    <v>       0.49646879       0.66623030       0.33496557 </v>
    <v>       0.20830341       0.15682347       0.47211102 </v>
    <v>       0.76029533       0.51622144       0.52701001 </v>
    <v>       0.76206514       0.83533667       0.50948084 </v>
    <v>       0.26277804       0.49887038       0.83892631 </v>
    <v>       0.25662309       0.16351009       0.16454894 </v>
    <v>       0.74410568       0.82701531       0.83487275 </v>
   </varray>
  </structure>
  <varray name="forces" >
   <v>      -0.06335872       0.00068525      -0.00535599 </v>
   <v>      -0.13061307       0.03093221       0.25560351 </v>
   <v>       0.04137610      -0.00081647       0.05803807 </v>
   <v>      -0.02112668      -0.03364534       0.05920904 </v>
   <v>       0.00204312       0.04109783       0.07070484 </v>
   <v>      -0.01055425      -0.02473559      -0.00882490 </v>
   <v>      -0.02683977       0.02800757      -0.02117745 </v>
   <v>       0.00657669       0.00017057       0.01184626 </v>
   <v>       0.00069059      -0.01757393      -0.01448885 </v>
   <v>      -0.00158177       0.03493837      -0.03774612 </v>
   <v>      -0.29622048      -0.12995259      -0.10025934 </v>
   <v>       0.18893854      -0.02346569      -0.02122433 </v>
   <v>      -0.03941492       0.02717523      -0.04359995 </v>
   <v>      -0.26418050       0.13710398      -0.23975124 </v>
   <v>       0.01178342      -0.03246902      -0.03253292 </v>
   <v>       0.01904275       0.00896807       0.00278631 </v>
   <v>      -0.01597740       0.03615845       0.02532560 </v>
   <v>       0.05801047       0.03380492       0.01272865 </v>
   <v>       0.00479739      -0.00709216      -0.11406457 </v>
   <v>       0.02410697      -0.02372461      -0.00005643 </v>
   <v>      -0.01593976       0.03950777      -0.02754494 </v>
   <v>      -0.06577382      -0.04559725       0.04179699 </v>
   <v>       0.09935137       0.00402987       0.06809475 </v>
   <v>      -0.15978929       0.07138353      -0.05810377 </v>
   <v>      -0.02503084      -0.00592421       0.01621296 </v>
   <v>       0.01805883      -0.02545712      -0.01668111 </v>
   <v>       0.04619672      -0.07595488      -0.01572490 </v>
   <v>       0.02639244       0.01960849      -0.01419083 </v>
   <v>      -0.03755015      -0.03142115      -0.02049506 </v>
   <v>      -0.07541128       0.02116086       0.01237096 </v>
   <v>       0.00589787      -0.02387050       0.00708573 </v>
   <v>       0.33511966      -0.06340091      -0.01345291 </v>
   <v>       0.23932494       0.09637247      -0.02709130 </v>
   <v>      -0.04467659      -0.06709745       0.13197791 </v>
   <v>       0.02769883      -0.00410126      -0.00065737 </v>
   <v>       0.13863263       0.00519467       0.05924271 </v>
  </varray>
  <varray name="stress" >
   <v>     -12.07964411       0.03587868       0.03301121 </v>
   <v>       0.03587866     -12.89646360      -0.14078483 </v>
   <v>       0.03301121      -0.14078490     -12.27047923 </v>
  </varray>
  <energy>
   <i name="e_fr_energy">   -357.43891521 </i>
   <i name="e_wo_entrp">   -357.44689951 </i>
   <i name="e_0_energy">      0.02395292 </i>
  </energy>
  <time name="totalsc">    8.93    9.22</time>
 </calculation>
 <calculation>
  <scstep>
   <time name="dav">    0.91    0.91</time>
   <time name="total">    1.08    1.13</time>
   <energy>
    <i name="alphaZ">   1415.01840316 </i>
    <i name="ewald"> -18462.05655848 </i>
    <i name="hartreedc">  -5835.55102948 </i>
    <i name="XCdc">   -370.84735756 </i>
    <i name="pawpsdc">  32697.83889897 </i>
    <i name="pawaedc"> -31054.87953710 </i>
    <i name="eentropy">      0.02224108 </i>
    <i name="bandstr">  -2442.92235733 </i>
    <i name="atom">  23695.91158506 </i>
    <i name="e_fr_energy">   -357.46571167 </i>
    <i name="e_wo_entrp">   -357.48795275 </i>
    <i name="e_0_energy">   -357.47312536 </i>
   </energy>
  </scstep>
  <scstep>
   <time name="diag">    0.08    0.08</time>
   <time name="diis">    0.76    0.76</time>
   <time name="orth">    0.01    0.01</time>
   <time name="total">    0.92    0.95</time>
   <energy>
    <i name="e_fr_energy">   -357.49852646 </i>
    <i name="e_wo_entrp">   -357.52084950 </i>
    <i name="e_0_energy">   -357.50596747 </i>
   </energy>
  </scstep>
  <scstep>
   <time name="diag">    0.08    0.08</time>
   <time name="diis">    0.79    0.79</time>
   <time name="orth">    0.01    0.01</time>
   <time name="total">    0.95    0.96</time>
   <energy>
    <i name="e_fr_energy">   -357.49095544 </i>
    <i name="e_wo_entrp">   -357.51293916 </i>
    <i name="e_0_energy">   -357.49828335 </i>
   </energy>
  </scstep>
  <scstep>
   <time name="diag">    0.08    0.08</time>
   <time name="diis">    0.75    0.88</time>
   <time name="orth">    0.01    0.01</time>
   <time name="total">    0.94    1.09</time>
   <energy>
    <i name="e_fr_energy">   -357.48910605 </i>
    <i name="e_wo_entrp">   -357.51130373 </i>
    <i name="e_0_energy">   -357.49650528 </i>
   </energy>
  </scstep>
  <scstep>
   <time name="diag">    0.08    0.08</time>
   <time name="diis">    0.81    0.82</time>
   <time name="orth">    0.01    0.01</time>
   <time name="total">    0.97    1.01</time>
   <energy>
    <i name="e_fr_energy">   -357.48878314 </i>
    <i name="e_wo_entrp">   -357.51098186 </i>
    <i name="e_0_energy">   -357.49618271 </i>
   </energy>
  </scstep>
  <scstep>
   <time name="diag">    0.08    0.08</time>
   <time name="diis">    0.88    0.88</time>
   <time name="orth">    0.01    0.01</time>
   <time name="total">    1.04    1.06</time>
   <energy>
    <i name="e_fr_energy">   -357.48874328 </i>
    <i name="e_wo_entrp">   -357.51086372 </i>
    <i name="e_0_energy">   -357.49611676 </i>
   </energy>
  </scstep>
  <scstep>
   <time name="diag">    0.08    0.08</time>
   <time name="diis">    0.81    0.82</time>
   <time name="orth">    0.01    0.01</time>
   <time name="total">    0.97    1.00</time>
   <energy>
    <i name="e_fr_energy">   -357.48877000 </i>
    <i name="e_wo_entrp">   -357.51089738 </i>
    <i name="e_0_energy">   -357.49614579 </i>
   </energy>
  </scstep>
  <scstep>
   <time name="diag">    0.08    0.08</time>
   <time name="diis">    0.75    0.75</time>
   <time name="orth">    0.01    0.01</time>
   <time name="total">    0.91    0.94</time>
   <energy>
    <i name="e_fr_energy">   -357.48880404 </i>
    <i name="e_wo_entrp">   -357.51098276 </i>
    <i name="e_0_energy">   -357.49619695 </i>
   </energy>
  </scstep>
  <scstep>
   <time name="diag">    0.08    0.08</time>
   <time name="diis">    0.71    0.72</time>
   <time name="orth">    0.01    0.01</time>
   <time name="total">    0.90    0.93</time>
   <energy>
    <i name="e_fr_energy">   -357.48881751 </i>
    <i name="e_wo_entrp">   -357.51096771 </i>
    <i name="e_0_energy">   -357.49620091 </i>
   </energy>
  </scstep>
  <scstep>
   <time name="diag">    0.09    0.09</time>
   <time name="diis">    0.53    0.55</time>
   <time name="orth">    0.01    0.01</time>
   <time name="total">    0.67    0.71</time>
   <energy>
    <i name="alphaZ">   1415.01840316 </i>
    <i name="ewald"> -18462.05655848 </i>
    <i name="hartreedc">  -5828.31871438 </i>
    <i name="XCdc">   -371.15906539 </i>
    <i name="pawpsdc">  32790.20705200 </i>
    <i name="pawaedc"> -31147.07266583 </i>
    <i name="eentropy">      0.02215010 </i>
    <i name="bandstr">  -2450.04101303 </i>
    <i name="atom">  23695.91158506 </i>
    <i name="e_fr_energy">   -357.48882678 </i>
    <i name="e_wo_entrp">   -357.51097688 </i>
    <i name="e_0_energy">   -357.49621015 </i>
   </energy>
  </scstep>
  <structure>
   <crystal>
    <varray name="basis" >
     <v>       7.05047941       0.00644860       0.06429348 </v>
     <v>       0.01003061      10.29696551       0.00994397 </v>
     <v>       0.09293868       0.00954851      10.36243836 </v>
    </varray>
    <i name="volume">    752.23507494 </i>
    <varray name="rec_basis" >
     <v>       0.14184605      -0.00013695      -0.00127206 </v>
     <v>      -0.00008802       0.09711616      -0.00008870 </v>
     <v>      -0.00088000      -0.00009234       0.09651036 </v>
    </varray>
   </crystal>
   <varray name="positions" >
    <v>       0.74340206       0.15898445       0.16618916 </v>
    <v>       0.25510996       0.83013259       0.84532201 </v>
    <v>       0.54058238       0.33624904       0.01372195 </v>
    <v>       0.50480311       0.98771306       0.01450094 </v>
    <v>       0.00654924       0.67481566       0.00846966 </v>
    <v>       0.75022455       0.82908284       0.15670317 </v>
    <v>       0.97865080       0.98625279       0.31675353 </v>
    <v>       0.24914553       0.83576008       0.16234204 </v>
    <v>       0.77434703       0.15117631       0.49483837 </v>
    <v>       0.49647811       0.67556216       0.00911191 </v>
    <v>       0.23239114       0.51250308       0.50729846 </v>
    <v>       0.03125746       0.67705181       0.67367179 </v>
    <v>       0.74203196       0.51213947       0.15023461 </v>
    <v>       0.22913478       0.83068351       0.49266148 </v>
    <v>       0.47550379       0.00489549       0.65016496 </v>
    <v>       0.28771160       0.17334707       0.85529904 </v>
    <v>       0.00118061       0.99593825       0.99717585 </v>
    <v>       0.02151082       0.99773505       0.68086420 </v>
    <v>       0.00124475       0.66631495       0.32437522 </v>
    <v>       0.51039615       0.99360730       0.33175863 </v>
    <v>       0.48654980       0.32259914       0.64328287 </v>
    <v>       0.97750482       0.32846607       0.99714046 </v>
    <v>       0.74907043       0.51086761       0.83655825 </v>
    <v>       0.46862186       0.67969289       0.66236753 </v>
    <v>       0.72345237       0.16319638       0.83263387 </v>
    <v>       0.51410925       0.33415136       0.33924609 </v>
    <v>       0.01444697       0.32777304       0.67101911 </v>
    <v>       0.26311429       0.49369335       0.15419228 </v>
    <v>       0.97522502       0.34615353       0.32966220 </v>
    <v>       0.49609232       0.66636826       0.33490703 </v>
    <v>       0.20843029       0.15675301       0.47210593 </v>
    <v>       0.76319888       0.51543541       0.52649833 </v>
    <v>       0.76451440       0.83611947       0.50883970 </v>
    <v>       0.26170583       0.49792318       0.84003865 </v>
    <v>       0.25664885       0.16355324       0.16458958 </v>
    <v>       0.74564176       0.82731110       0.83545515 </v>
   </varray>
  </structure>
  <varray name="forces" >
   <v>      -0.08672611       0.01410915       0.00473711 </v>
   <v>       0.00214889      -0.07628507       0.11018102 </v>
   <v>       0.01550280      -0.01155310       0.06420893 </v>
   <v>      -0.01764587      -0.00114797       0.05426167 </v>
   <v>      -0.00697854       0.01941875       0.08591574 </v>
   <v>      -0.05045598      -0.04157104       0.00734619 </v>
   <v>       0.00015506       0.07792956      -0.05526105 </v>
   <v>       0.02719227      -0.01663595       0.04710323 </v>
   <v>      -0.03042720      -0.00052656       0.00679531 </v>
   <v>       0.00228572       0.02399577      -0.03721241 </v>
   <v>      -0.18068801      -0.06759744      -0.00301577 </v>
   <v>       0.17887080      -0.02295946      -0.03665317 </v>
   <v>      -0.05798148       0.03582707      -0.02660363 </v>
   <v>      -0.13017920       0.10218774      -0.14776536 </v>
   <v>       0.02408954      -0.07832942      -0.03663029 </v>
   <v>       0.02544352       0.00286807      -0.01221332 </v>
   <v>      -0.03706456       0.08030913       0.04744980 </v>
   <v>       0.05127685       0.07544863       0.03173871 </v>
   <v>      -0.01763424      -0.02835597      -0.16378675 </v>
   <v>       0.02778509      -0.00630340      -0.00540743 </v>
   <v>      -0.01610163       0.07838057      -0.02840204 </v>
   <v>      -0.04867409      -0.07985644       0.07151446 </v>
   <v>       0.02736400       0.06691476      -0.01539599 </v>
   <v>      -0.25484855       0.03375892      -0.09828451 </v>
   <v>      -0.03190189      -0.01385991      -0.00226189 </v>
   <v>       0.00953093      -0.02737095      -0.02834159 </v>
   <v>       0.05376409      -0.11532280       0.01229864 </v>
   <v>       0.04186374       0.01864378       0.00726745 </v>
   <v>      -0.04066297      -0.05527703      -0.05775215 </v>
   <v>      -0.08198228       0.00760631       0.04049617 </v>
   <v>       0.02367353      -0.01142362       0.01508903 </v>
   <v>       0.28184526      -0.00479471       0.03557213 </v>
   <v>       0.14511973       0.04336272       0.05423977 </v>
   <v>       0.03529984       0.00514210       0.07023099 </v>
   <v>       0.04003795      -0.00067719      -0.00053535 </v>
   <v>       0.07670302      -0.02605499      -0.01092365 </v>
  </varray>
  <varray name="stress" >
   <v>      -9.68902512       0.26206360      -0.42644873 </v>
   <v>       0.26206360      -9.66486228      -0.38437308 </v>
   <v>      -0.42644874      -0.38437308      -9.78816602 </v>
  </varray>
  <energy>
   <i name="e_fr_energy">   -357.48882678 </i>
   <i name="e_wo_entrp">   -357.49621015 </i>
   <i name="e_0_energy">      0.02215010 </i>
  </energy>
  <time name="totalsc">   10.83   11.37</time>
 </calculation>
 <calculation>
  <scstep>
   <time name="dav">    0.90    0.91</time>
   <time name="total">    1.04    1.10</time>
   <energy>
    <i name="alphaZ">   1420.86879001 </i>
    <i name="ewald"> -18471.18915346 </i>
    <i name="hartreedc">  -5852.12952523 </i>
    <i name="XCdc">   -369.97834931 </i>
    <i name="pawpsdc">  32791.03611538 </i>
    <i name="pawaedc"> -31147.86313849 </i>
    <i name="eentropy">      0.01549766 </i>
    <i name="bandstr">  -2424.06487165 </i>
    <i name="atom">  23695.91158506 </i>
    <i name="e_fr_energy">   -357.39305002 </i>
    <i name="e_wo_entrp">   -357.40854768 </i>
    <i name="e_0_energy">   -357.39821591 </i>
   </energy>
  </scstep>
  <scstep>
   <time name="diag">    0.08    0.08</time>
   <time name="diis">    0.74    0.74</time>
   <time name="orth">    0.01    0.01</time>
   <time name="total">    0.89    0.91</time>
   <energy>
    <i name="e_fr_energy">   -357.53599840 </i>
    <i name="e_wo_entrp">   -357.55220337 </i>
    <i name="e_0_energy">   -357.54140006 </i>
   </energy>
  </scstep>
  <scstep>
   <time name="diag">    0.08    0.08</time>
   <time name="diis">    0.68    0.82</time>
   <time name="orth">    0.01    0.01</time>
   <time name="total">    0.84    0.99</time>
   <energy>
    <i name="e_fr_energy">   -357.50359569 </i>
    <i name="e_wo_entrp">   -357.51855099 </i>
    <i name="e_0_energy">   -357.50858079 </i>
   </energy>
  </scstep>
  <scstep>
   <time name="diag">    0.08    0.08</time>
   <time name="diis">    0.87    0.88</time>
   <time name="orth">    0.01    0.01</time>
   <time name="total">    1.04    1.06</time>
   <energy>
    <i name="e_fr_energy">   -357.49702316 </i>
    <i name="e_wo_entrp">   -357.51271033 </i>
    <i name="e_0_energy">   -357.50225222 </i>
   </energy>
  </scstep>
  <scstep>
   <time name="diag">    0.09    0.09</time>
   <time name="diis">    0.84    0.84</time>
   <time name="orth">    0.01    0.01</time>
   <time name="total">    1.01    1.02</time>
   <energy>
    <i name="e_fr_energy">   -357.49601056 </i>
    <i name="e_wo_entrp">   -357.51166358 </i>
    <i name="e_0_energy">   -357.50122823 </i>
   </energy>
  </scstep>
  <scstep>
   <time name="diag">    0.09    0.09</time>
   <time name="diis">    0.83    0.84</time>
   <time name="orth">    0.07    0.07</time>
   <time name="total">    1.07    1.09</time>
   <energy>
    <i name="e_fr_energy">   -357.49577971 </i>
    <i name="e_wo_entrp">   -357.51122983 </i>
    <i name="e_0_energy">   -357.50092975 </i>
   </energy>
  </scstep>
  <scstep>
   <time name="diag">    0.09    0.10</time>
   <time name="diis">    0.80    0.89</time>
   <time name="orth">    0.01    0.01</time>
   <time name="total">    0.98    1.09</time>
   <energy>
    <i name="e_fr_energy">   -357.49585314 </i>
    <i name="e_wo_entrp">   -357.51135361 </i>
    <i name="e_0_energy">   -357.50101996 </i>
   </energy>
  </scstep>
  <scstep>
   <time name="diag">    0.08    0.08</time>
   <time name="diis">    0.86    0.87</time>
   <time name="orth">    0.01    0.01</time>
   <time name="total">    1.03    1.07</time>
   <energy>
    <i name="e_fr_energy">   -357.49598159 </i>
    <i name="e_wo_entrp">   -357.51159601 </i>
    <i name="e_0_energy">   -357.50118640 </i>
   </energy>
  </scstep>
  <scstep>
   <time name="diag">    0.08    0.08</time>
   <time name="diis">    0.80    0.80</time>
   <time name="orth">    0.01    0.01</time>
   <time name="total">    0.96    0.98</time>
   <energy>
    <i name="e_fr_energy">   -357.49602333 </i>
    <i name="e_wo_entrp">   -357.51156602 </i>
    <i name="e_0_energy">   -357.50120422 </i>
   </energy>
  </scstep>
  <scstep>
   <time name="diag">    0.08    0.08</time>
   <time name="diis">    0.69    0.69</time>
   <time name="orth">    0.01    0.01</time>
   <time name="total">    0.85    0.87</time>
   <energy>
    <i name="e_fr_energy">   -357.49605299 </i>
    <i name="e_wo_entrp">   -357.51160020 </i>
    <i name="e_0_energy">   -357.50123539 </i>
   </energy>
  </scstep>
  <scstep>
[...]
       <r>    6.4734    1.0000 </r>
       <r>    6.5532    1.0000 </r>
       <r>    6.5684    1.0000 </r>
       <r>    6.6117    1.0000 </r>
       <r>    6.6335    1.0000 </r>
       <r>    6.6798    1.0000 </r>
       <r>    6.7078    1.0000 </r>
       <r>    6.7515    1.0000 </r>
       <r>    6.7974    1.0000 </r>
       <r>    6.8590    1.0003 </r>
       <r>    6.8903    1.0009 </r>
       <r>    6.9103    1.0017 </r>
       <r>    6.9416    1.0039 </r>
       <r>    7.0021    1.0145 </r>
       <r>    7.0298    1.0224 </r>
       <r>    7.0567    1.0304 </r>
       <r>    7.0969    1.0349 </r>
       <r>    7.1119    1.0308 </r>
       <r>    7.1604    0.9742 </r>
       <r>    7.2109    0.8150 </r>
       <r>    7.2509    0.6176 </r>
       <r>    7.2903    0.3975 </r>
       <r>    7.3128    0.2787 </r>
       <r>    7.3639    0.0741 </r>
       <r>    7.3799    0.0336 </r>
       <r>    7.4243   -0.0266 </r>
       <r>    7.4963   -0.0278 </r>
       <r>    7.5256   -0.0189 </r>
       <r>    7.5684   -0.0086 </r>
       <r>    7.5950   -0.0047 </r>
       <r>    7.6107   -0.0032 </r>
       <r>    7.7176   -0.0001 </r>
       <r>    7.7527   -0.0000 </r>
       <r>    7.7905   -0.0000 </r>
       <r>    7.8403   -0.0000 </r>
       <r>    7.8740   -0.0000 </r>
       <r>    7.8969   -0.0000 </r>
       <r>    7.9168   -0.0000 </r>
       <r>    7.9672   -0.0000 </r>
       <r>    8.0011   -0.0000 </r>
       <r>    8.0519   -0.0000 </r>
       <r>    8.1160   -0.0000 </r>
       <r>    8.1684   -0.0000 </r>
       <r>    8.1947   -0.0000 </r>
       <r>    8.2391   -0.0000 </r>
       <r>    8.4455   -0.0000 </r>
       <r>    8.5518   -0.0000 </r>
       <r>    8.6278   -0.0000 </r>
       <r>    9.0235   -0.0000 </r>
      </set>
     </set>
    </set>
   </array>
  </eigenvalues>
  <separator name="orbital magnetization" >
   <v name="MAGDIPOLOUT">      0.00000000      0.00000000      0.00000000</v>
  </separator>
  <dos>
   <i name="efermi">      7.27195174 </i>
   <total>
    <array>
     <dimension dim="1">gridpoints</dimension>
     <dimension dim="2">spin</dimension>
     <field>energy</field>
     <field>total</field>
     <field>integrated</field>
     <set>
      <set comment="spin 1">
       <r>   -49.7406     0.0000     0.0000 </r>
       <r>   -49.5353     0.0000     0.0000 </r>
       <r>   -49.3301     0.0000     0.0000 </r>
       <r>   -49.1248     0.0000     0.0000 </r>
       <r>   -48.9195     0.0000     0.0000 </r>
       <r>   -48.7142     0.0000     0.0000 </r>
       <r>   -48.5089     0.0000     0.0000 </r>
       <r>   -48.3036    -0.0000    -0.0000 </r>
       <r>   -48.0983    -0.0000    -0.0000 </r>
       <r>   -47.8931    -0.0000    -0.0000 </r>
       <r>   -47.6878    -0.0000    -0.0000 </r>
       <r>   -47.4825    -0.0000    -0.0000 </r>
       <r>   -47.2772    -0.0558    -0.0115 </r>
       <r>   -47.0719    -0.7250    -0.1603 </r>
       <r>   -46.8666    23.3649     4.6362 </r>
       <r>   -46.6613    17.2256     8.1724 </r>
       <r>   -46.4561    -0.8129     8.0055 </r>
       <r>   -46.2508    -0.0268     8.0000 </r>
       <r>   -46.0455    -0.0000     8.0000 </r>
       <r>   -45.8402    -0.0000     8.0000 </r>
       <r>   -45.6349     0.0000     8.0000 </r>
       <r>   -45.4296     0.0000     8.0000 </r>
       <r>   -45.2243     0.0000     8.0000 </r>
       <r>   -45.0191     0.0000     8.0000 </r>
       <r>   -44.8138     0.0000     8.0000 </r>
       <r>   -44.6085     0.0000     8.0000 </r>
       <r>   -44.4032     0.0000     8.0000 </r>
       <r>   -44.1979     0.0000     8.0000 </r>
       <r>   -43.9926     0.0000     8.0000 </r>
       <r>   -43.7873     0.0000     8.0000 </r>
       <r>   -43.5821     0.0000     8.0000 </r>
       <r>   -43.3768     0.0000     8.0000 </r>
       <r>   -43.1715     0.0000     8.0000 </r>
       <r>   -42.9662     0.0000     8.0000 </r>
       <r>   -42.7609     0.0000     8.0000 </r>
       <r>   -42.5556     0.0000     8.0000 </r>
       <r>   -42.3503    -0.0000     8.0000 </r>
       <r>   -42.1451    -0.0000     8.0000 </r>
       <r>   -41.9398    -0.0000     8.0000 </r>
       <r>   -41.7345    -0.0000     8.0000 </r>
       <r>   -41.5292    -0.0013     7.9997 </r>
       <r>   -41.3239    -0.5278     7.8914 </r>
       <r>   -41.1186     3.0417     8.5158 </r>
       <r>   -40.9133    83.0135    25.5573 </r>
       <r>   -40.7080    33.5680    32.4484 </r>
       <r>   -40.5028    -2.1576    32.0054 </r>
       <r>   -40.2975    -0.0265    32.0000 </r>
       <r>   -40.0922    -0.0000    32.0000 </r>
       <r>   -39.8869    -0.0000    32.0000 </r>
       <r>   -39.6816     0.0000    32.0000 </r>
       <r>   -39.4763     0.0000    32.0000 </r>
       <r>   -39.2710     0.0000    32.0000 </r>
       <r>   -39.0658     0.0000    32.0000 </r>
       <r>   -38.8605     0.0000    32.0000 </r>
       <r>   -38.6552     0.0000    32.0000 </r>
       <r>   -38.4499     0.0000    32.0000 </r>
       <r>   -38.2446     0.0000    32.0000 </r>
       <r>   -38.0393     0.0000    32.0000 </r>
       <r>   -37.8340     0.0000    32.0000 </r>
       <r>   -37.6288     0.0000    32.0000 </r>
       <r>   -37.4235     0.0000    32.0000 </r>
       <r>   -37.2182     0.0000    32.0000 </r>
       <r>   -37.0129     0.0000    32.0000 </r>
       <r>   -36.8076     0.0000    32.0000 </r>
       <r>   -36.6023     0.0000    32.0000 </r>
       <r>   -36.3970     0.0000    32.0000 </r>
       <r>   -36.1918     0.0000    32.0000 </r>
       <r>   -35.9865     0.0000    32.0000 </r>
       <r>   -35.7812     0.0000    32.0000 </r>
       <r>   -35.5759     0.0000    32.0000 </r>
       <r>   -35.3706     0.0000    32.0000 </r>
       <r>   -35.1653     0.0000    32.0000 </r>
       <r>   -34.9600     0.0000    32.0000 </r>
       <r>   -34.7548     0.0000    32.0000 </r>
       <r>   -34.5495     0.0000    32.0000 </r>
       <r>   -34.3442     0.0000    32.0000 </r>
       <r>   -34.1389     0.0000    32.0000 </r>
       <r>   -33.9336     0.0000    32.0000 </r>
       <r>   -33.7283     0.0000    32.0000 </r>
       <r>   -33.5230     0.0000    32.0000 </r>
       <r>   -33.3178     0.0000    32.0000 </r>
       <r>   -33.1125     0.0000    32.0000 </r>
       <r>   -32.9072     0.0000    32.0000 </r>
       <r>   -32.7019     0.0000    32.0000 </r>
       <r>   -32.4966     0.0000    32.0000 </r>
       <r>   -32.2913     0.0000    32.0000 </r>
       <r>   -32.0860     0.0000    32.0000 </r>
       <r>   -31.8808     0.0000    32.0000 </r>
       <r>   -31.6755     0.0000    32.0000 </r>
       <r>   -31.4702     0.0000    32.0000 </r>
       <r>   -31.2649     0.0000    32.0000 </r>
       <r>   -31.0596     0.0000    32.0000 </r>
       <r>   -30.8543     0.0000    32.0000 </r>
       <r>   -30.6490     0.0000    32.0000 </r>
       <r>   -30.4437     0.0000    32.0000 </r>
       <r>   -30.2385     0.0000    32.0000 </r>
       <r>   -30.0332     0.0000    32.0000 </r>
       <r>   -29.8279     0.0000    32.0000 </r>
       <r>   -29.6226     0.0000    32.0000 </r>
       <r>   -29.4173     0.0000    32.0000 </r>
       <r>   -29.2120     0.0000    32.0000 </r>
       <r>   -29.0067     0.0000    32.0000 </r>
       <r>   -28.8015     0.0000    32.0000 </r>
       <r>   -28.5962     0.0000    32.0000 </r>
       <r>   -28.3909     0.0000    32.0000 </r>
       <r>   -28.1856     0.0000    32.0000 </r>
       <r>   -27.9803     0.0000    32.0000 </r>
       <r>   -27.7750     0.0000    32.0000 </r>
       <r>   -27.5697     0.0000    32.0000 </r>
       <r>   -27.3645     0.0000    32.0000 </r>
       <r>   -27.1592     0.0000    32.0000 </r>
       <r>   -26.9539     0.0000    32.0000 </r>
       <r>   -26.7486     0.0000    32.0000 </r>
       <r>   -26.5433     0.0000    32.0000 </r>
       <r>   -26.3380     0.0000    32.0000 </r>
       <r>   -26.1327     0.0000    32.0000 </r>
       <r>   -25.9275     0.0000    32.0000 </r>
       <r>   -25.7222     0.0000    32.0000 </r>
       <r>   -25.5169     0.0000    32.0000 </r>
       <r>   -25.3116     0.0000    32.0000 </r>
       <r>   -25.1063     0.0000    32.0000 </r>
       <r>   -24.9010     0.0000    32.0000 </r>
       <r>   -24.6957    -0.0000    32.0000 </r>
       <r>   -24.4905    -0.0000    32.0000 </r>
       <r>   -24.2852    -0.0000    32.0000 </r>
       <r>   -24.0799    -0.0000    32.0000 </r>
       <r>   -23.8746    -0.0000    32.0000 </r>
       <r>   -23.6693    -0.0236    31.9952 </r>
       <r>   -23.4640    -0.5921    31.8736 </r>
       <r>   -23.2587    11.6234    34.2597 </r>
       <r>   -23.0535    37.3584    41.9289 </r>
       <r>   -22.8482    50.9308    52.3843 </r>
       <r>   -22.6429    15.5606    55.5786 </r>
       <r>   -22.4376     2.2636    56.0433 </r>
       <r>   -22.2323    -0.2106    56.0001 </r>
       <r>   -22.0270    -0.0004    56.0000 </r>
       <r>   -21.8217    -0.0000    56.0000 </r>
       <r>   -21.6164    -0.0000    56.0000 </r>
       <r>   -21.4112     0.0000    56.0000 </r>
       <r>   -21.2059     0.0000    56.0000 </r>
       <r>   -21.0006     0.0000    56.0000 </r>
       <r>   -20.7953    -0.0000    56.0000 </r>
       <r>   -20.5900    -0.0000    56.0000 </r>
       <r>   -20.3847    -0.0000    56.0000 </r>
       <r>   -20.1794    -0.0000    56.0000 </r>
       <r>   -19.9742    -0.0002    56.0000 </r>
       <r>   -19.7689    -0.1116    55.9771 </r>
       <r>   -19.5636    -0.5279    55.8687 </r>
       <r>   -19.3583    29.2652    61.8764 </r>
       <r>   -19.1530    88.8628    80.1187 </r>
       <r>   -18.9477   136.6989   108.1811 </r>
       <r>   -18.7424    85.5655   125.7465 </r>
       <r>   -18.5372    12.0796   128.2263 </r>
       <r>   -18.3319    -1.0976   128.0010 </r>
       <r>   -18.1266    -0.0047   128.0000 </r>
       <r>   -17.9213    -0.0000   128.0000 </r>
       <r>   -17.7160    -0.0000   128.0000 </r>
       <r>   -17.5107     0.0000   128.0000 </r>
       <r>   -17.3054     0.0000   128.0000 </r>
       <r>   -17.1002     0.0000   128.0000 </r>
       <r>   -16.8949     0.0000   128.0000 </r>
       <r>   -16.6896     0.0000   128.0000 </r>
       <r>   -16.4843     0.0000   128.0000 </r>
       <r>   -16.2790     0.0000   128.0000 </r>
       <r>   -16.0737     0.0000   128.0000 </r>
       <r>   -15.8684     0.0000   128.0000 </r>
       <r>   -15.6632     0.0000   128.0000 </r>
       <r>   -15.4579     0.0000   128.0000 </r>
       <r>   -15.2526     0.0000   128.0000 </r>
       <r>   -15.0473     0.0000   128.0000 </r>
       <r>   -14.8420     0.0000   128.0000 </r>
       <r>   -14.6367     0.0000   128.0000 </r>
       <r>   -14.4314     0.0000   128.0000 </r>
       <r>   -14.2262     0.0000   128.0000 </r>
       <r>   -14.0209     0.0000   128.0000 </r>
       <r>   -13.8156     0.0000   128.0000 </r>
       <r>   -13.6103     0.0000   128.0000 </r>
       <r>   -13.4050     0.0000   128.0000 </r>
       <r>   -13.1997     0.0000   128.0000 </r>
       <r>   -12.9944     0.0000   128.0000 </r>
       <r>   -12.7891     0.0000   128.0000 </r>
       <r>   -12.5839     0.0000   128.0000 </r>
       <r>   -12.3786     0.0000   128.0000 </r>
       <r>   -12.1733     0.0000   128.0000 </r>
       <r>   -11.9680     0.0000   128.0000 </r>
       <r>   -11.7627     0.0000   128.0000 </r>
       <r>   -11.5574     0.0000   128.0000 </r>
       <r>   -11.3521     0.0000   128.0000 </r>
       <r>   -11.1469     0.0000   128.0000 </r>
       <r>   -10.9416     0.0000   128.0000 </r>
       <r>   -10.7363     0.0000   128.0000 </r>
       <r>   -10.5310     0.0000   128.0000 </r>
       <r>   -10.3257     0.0000   128.0000 </r>
       <r>   -10.1204     0.0000   128.0000 </r>
       <r>    -9.9151     0.0000   128.0000 </r>
       <r>    -9.7099     0.0000   128.0000 </r>
       <r>    -9.5046     0.0000   128.0000 </r>
       <r>    -9.2993     0.0000   128.0000 </r>
       <r>    -9.0940     0.0000   128.0000 </r>
       <r>    -8.8887     0.0000   128.0000 </r>
       <r>    -8.6834     0.0000   128.0000 </r>
       <r>    -8.4781     0.0000   128.0000 </r>
       <r>    -8.2729     0.0000   128.0000 </r>
       <r>    -8.0676     0.0000   128.0000 </r>
       <r>    -7.8623     0.0000   128.0000 </r>
       <r>    -7.6570     0.0000   128.0000 </r>
       <r>    -7.4517     0.0000   128.0000 </r>
       <r>    -7.2464     0.0000   128.0000 </r>
       <r>    -7.0411     0.0000   128.0000 </r>
       <r>    -6.8359     0.0000   128.0000 </r>
       <r>    -6.6306     0.0000   128.0000 </r>
       <r>    -6.4253     0.0000   128.0000 </r>
       <r>    -6.2200     0.0000   128.0000 </r>
       <r>    -6.0147     0.0000   128.0000 </r>
       <r>    -5.8094     0.0000   128.0000 </r>
       <r>    -5.6041     0.0000   128.0000 </r>
       <r>    -5.3989     0.0000   128.0000 </r>
       <r>    -5.1936     0.0000   128.0000 </r>
       <r>    -4.9883     0.0000   128.0000 </r>
       <r>    -4.7830     0.0000   128.0000 </r>
       <r>    -4.5777     0.0000   128.0000 </r>
       <r>    -4.3724     0.0000   128.0000 </r>
       <r>    -4.1671     0.0000   128.0000 </r>
       <r>    -3.9619     0.0000   128.0000 </r>
       <r>    -3.7566     0.0000   128.0000 </r>
       <r>    -3.5513     0.0000   128.0000 </r>
       <r>    -3.3460     0.0000   128.0000 </r>
       <r>    -3.1407     0.0000   128.0000 </r>
       <r>    -2.9354     0.0000   128.0000 </r>
       <r>    -2.7301     0.0000   128.0000 </r>
       <r>    -2.5248     0.0000   128.0000 </r>
       <r>    -2.3196     0.0000   128.0000 </r>
       <r>    -2.1143     0.0000   128.0000 </r>
       <r>    -1.9090     0.0000   128.0000 </r>
       <r>    -1.7037     0.0000   128.0000 </r>
       <r>    -1.4984     0.0000   128.0000 </r>
       <r>    -1.2931     0.0000   128.0000 </r>
       <r>    -1.0878     0.0000   128.0000 </r>
       <r>    -0.8826    -0.0000   128.0000 </r>
       <r>    -0.6773    -0.0000   128.0000 </r>
       <r>    -0.4720    -0.0000   128.0000 </r>
       <r>    -0.2667    -0.0000   128.0000 </r>
       <r>    -0.0614    -0.0000   128.0000 </r>
       <r>     0.1439    -0.0005   127.9999 </r>
       <r>     0.3492    -0.0130   127.9972 </r>
       <r>     0.5544     0.2211   128.0426 </r>
       <r>     0.7597     1.0535   128.2589 </r>
       <r>     0.9650     1.7103   128.6100 </r>
       <r>     1.1703     1.9960   129.0198 </r>
       <r>     1.3756     3.6270   129.7643 </r>
       <r>     1.5809     3.5196   130.4868 </r>
       <r>     1.7862     1.9439   130.8859 </r>
       <r>     1.9914     5.0444   131.9215 </r>
       <r>     2.1967     3.1533   132.5688 </r>
       <r>     2.4020     5.2911   133.6550 </r>
       <r>     2.6073     6.3069   134.9497 </r>
       <r>     2.8126     7.8732   136.5660 </r>
       <r>     3.0179     7.2661   138.0576 </r>
       <r>     3.2232     8.8856   139.8817 </r>
       <r>     3.4284     7.7409   141.4708 </r>
       <r>     3.6337    14.6376   144.4757 </r>
       <r>     3.8390    20.5793   148.7003 </r>
       <r>     4.0443    23.4464   153.5136 </r>
       <r>     4.2496    25.4284   158.7336 </r>
       <r>     4.4549    27.5627   164.3919 </r>
       <r>     4.6602    34.4263   171.4591 </r>
       <r>     4.8654    40.9487   179.8653 </r>
       <r>     5.0707    37.4783   187.5591 </r>
       <r>     5.2760    36.8829   195.1306 </r>
       <r>     5.4813    32.3333   201.7682 </r>
       <r>     5.6866    26.2579   207.1586 </r>
       <r>     5.8919    26.5312   212.6051 </r>
       <r>     6.0972    50.1493   222.9000 </r>
       <r>     6.3025    56.7394   234.5478 </r>
       <r>     6.5077    55.7359   245.9896 </r>
       <r>     6.7130    53.8013   257.0343 </r>
       <r>     6.9183    54.3327   268.1880 </r>
       <r>     7.1236    53.8516   279.2430 </r>
       <r>     7.3289    45.6742   288.6193 </r>
       <r>     7.5342    48.5947   298.5951 </r>
       <r>     7.7395    47.1436   308.2730 </r>
       <r>     7.9447    43.1319   317.1274 </r>
       <r>     8.1500    36.7501   324.6717 </r>
       <r>     8.3553    33.0723   331.4610 </r>
       <r>     8.5606    25.3916   336.6735 </r>
       <r>     8.7659    15.8273   339.9226 </r>
       <r>     8.9712    15.5739   343.1197 </r>
       <r>     9.1765     4.5693   344.0577 </r>
       <r>     9.3817    -0.2751   344.0013 </r>
       <r>     9.5870    -0.0062   344.0000 </r>
       <r>     9.7923    -0.0000   344.0000 </r>
       <r>     9.9976    -0.0000   344.0000 </r>
       <r>    10.2029     0.0000   344.0000 </r>
       <r>    10.4082     0.0000   344.0000 </r>
       <r>    10.6135     0.0000   344.0000 </r>
       <r>    10.8187     0.0000   344.0000 </r>
       <r>    11.0240     0.0000   344.0000 </r>
       <r>    11.2293     0.0000   344.0000 </r>
       <r>    11.4346     0.0000   344.0000 </r>
       <r>    11.6399     0.0000   344.0000 </r>
       <r>    11.8452     0.0000   344.0000 </r>
      </set>
     </set>
    </array>
   </total>
  </dos>
 </calculation>
 <structure name="finalpos" >
  <crystal>
   <varray name="basis" >
    <v>       7.04021320       0.02078684       0.07206148 </v>
    <v>       0.03109430      10.29040499      -0.00131538 </v>
    <v>       0.10467541      -0.00160593      10.31635171 </v>
   </varray>
   <i name="volume">    747.30075999 </i>
   <varray name="rec_basis" >
    <v>       0.14205718      -0.00042944      -0.00144146 </v>
    <v>      -0.00028711       0.09717878       0.00001804 </v>
    <v>      -0.00099233       0.00001539       0.09694356 </v>
   </varray>
  </crystal>
  <varray name="positions" >
   <v>       0.73364594       0.16006752       0.16430304 </v>
   <v>       0.25932201       0.82831033       0.84941830 </v>
   <v>       0.53714577       0.33695797       0.01174379 </v>
   <v>       0.50246822       0.98700223       0.01308504 </v>
   <v>       0.00378239       0.67649722       0.01150078 </v>
   <v>       0.74514140       0.83017595       0.15588594 </v>
   <v>       0.97111366       0.99390362       0.31819293 </v>
   <v>       0.24926198       0.83759079       0.16754404 </v>
   <v>       0.77095759       0.15449852       0.50068323 </v>
   <v>       0.49851044       0.67619053       0.00865324 </v>
   <v>       0.21876503       0.50477267       0.50108370 </v>
   <v>       0.04188837       0.67697037       0.67402962 </v>
   <v>       0.73801900       0.51222153       0.14859332 </v>
   <v>       0.22144346       0.83741641       0.48228445 </v>
   <v>       0.47638954      -0.00100000       0.65057777 </v>
   <v>       0.29109085       0.17244772       0.85490029 </v>
   <v>       0.00004405       0.99870291       0.99919954 </v>
   <v>       0.02497883      -0.00016897       0.68339116 </v>
   <v>      -0.00480593       0.66696640       0.31668949 </v>
   <v>       0.51539414       0.99340340       0.33577788 </v>
   <v>       0.48858463       0.33091156       0.64422502 </v>
   <v>       0.97720426       0.32458669       0.00040329 </v>
   <v>       0.75224119       0.51166978       0.83590187 </v>
   <v>       0.46428120       0.67419734       0.65355723 </v>
   <v>       0.72327164       0.16256983       0.83009090 </v>
   <v>       0.51140650       0.33652251       0.34018371 </v>
   <v>       0.01894491       0.32274061       0.67555202 </v>
   <v>       0.26226030       0.49494024       0.15472999 </v>
   <v>       0.97098439       0.33924839       0.32448344 </v>
   <v>       0.49542956       0.66650894       0.33646249 </v>
   <v>       0.21340034       0.15817569       0.47606033 </v>
   <v>       0.78249885       0.51338221       0.52415829 </v>
   <v>       0.77448590       0.83472470       0.51310572 </v>
   <v>       0.26317142       0.49836198       0.84449288 </v>
   <v>       0.25879901       0.16329772       0.16618661 </v>
   <v>       0.74846218       0.82523667       0.83286266 </v>
  </varray>
 </structure>
</modeling>
