       N       E                     dE             d eps       ncg     rms          rms(c)
DAV:   1     0.205545761436E+04    0.20555E+04   -0.11747E+05  5728   0.106E+03
DAV:   2    -0.813212056977E+02   -0.21368E+04   -0.20613E+04  6004   0.399E+02
DAV:   3    -0.348212933576E+03   -0.26689E+03   -0.25356E+03  8952   0.972E+01
DAV:   4    -0.379080377398E+03   -0.30867E+02   -0.29505E+02  8728   0.309E+01
DAV:   5    -0.382045051989E+03   -0.29647E+01   -0.29247E+01  8360   0.957E+00    0.651E+01
RMM:   6    -0.371186748066E+03    0.10858E+02   -0.23042E+01  7236   0.103E+01    0.309E+01
RMM:   7    -0.371423976684E+03   -0.23723E+00   -0.23203E+01  7635   0.826E+00    0.101E+01
RMM:   8    -0.367233265665E+03    0.41907E+01   -0.49245E+00  8032   0.338E+00    0.437E+00
RMM:   9    -0.367081386772E+03    0.15188E+00   -0.19938E+00  7932   0.188E+00    0.313E+00
RMM:  10    -0.367020678312E+03    0.60708E-01   -0.41382E-01  7867   0.121E+00    0.148E+00
RMM:  11    -0.366980547207E+03    0.40131E-01   -0.13345E-01  7905   0.608E-01    0.712E-01
RMM:  12    -0.366977136009E+03    0.34112E-02   -0.52854E-02  7981   0.316E-01    0.428E-01
RMM:  13    -0.366974921540E+03    0.22145E-02   -0.14611E-02  7938   0.180E-01    0.254E-01
RMM:  14    -0.366974986608E+03   -0.65068E-04   -0.58168E-03  8215   0.993E-02    0.144E-01
RMM:  15    -0.366975008637E+03   -0.22029E-04   -0.24052E-03  8183   0.622E-02    0.629E-02
RMM:  16    -0.366975014709E+03   -0.60717E-05   -0.10619E-03  7364   0.369E-02    0.345E-02
RMM:  17    -0.366975010787E+03    0.39221E-05   -0.39046E-04  6278   0.230E-02    0.182E-02
RMM:  18    -0.366975016702E+03   -0.59149E-05   -0.19774E-04  5708   0.171E-02    0.932E-03
RMM:  19    -0.366975018335E+03   -0.16330E-05   -0.70889E-05  4659   0.121E-02
   1 F= -.36697502E+03 E0= -.36697904E+03  d E =-.366975E+03
       N       E                     dE             d eps       ncg     rms          rms(c)
DAV:   1    -0.366976468091E+03   -0.14514E-02   -0.68826E-02  6224   0.752E-01    0.161E-01
RMM:   2    -0.366976571985E+03   -0.10389E-03   -0.49480E-03  7092   0.176E-01    0.657E-02
RMM:   3    -0.366976454309E+03    0.11768E-03   -0.66488E-04  7816   0.569E-02    0.473E-02
RMM:   4    -0.366976416567E+03    0.37742E-04   -0.16276E-04  7157   0.238E-02    0.268E-02
RMM:   5    -0.366976411162E+03    0.54057E-05   -0.56769E-05  5046   0.149E-02
   2 F= -.36697641E+03 E0= -.36698045E+03  d E =-.139283E-02
       N       E                     dE             d eps       ncg     rms          rms(c)
DAV:   1    -0.366979837300E+03   -0.34207E-02   -0.61640E-01  5760   0.225E+00    0.475E-01
RMM:   2    -0.366980735138E+03   -0.89784E-03   -0.42083E-02  7084   0.519E-01    0.197E-01
RMM:   3    -0.366979586232E+03    0.11489E-02   -0.57095E-03  7832   0.163E-01    0.143E-01
RMM:   4    -0.366979237983E+03    0.34825E-03   -0.14160E-03  7995   0.706E-02    0.812E-02
RMM:   5    -0.366979190887E+03    0.47096E-04   -0.53991E-04  7974   0.425E-02    0.631E-02
RMM:   6    -0.366979199529E+03   -0.86423E-05   -0.25382E-04  7425   0.250E-02    0.403E-02
RMM:   7    -0.366979210267E+03   -0.10738E-04   -0.10568E-04  6557   0.190E-02    0.211E-02
RMM:   8    -0.366979222155E+03   -0.11888E-04   -0.49363E-05  4506   0.128E-02    0.137E-02
RMM:   9    -0.366979229796E+03   -0.76414E-05   -0.27763E-05  3868   0.111E-02
   3 F= -.36697923E+03 E0= -.36698333E+03  d E =-.421146E-02
       N       E                     dE             d eps       ncg     rms          rms(c)
DAV:   1    -0.366981255080E+03   -0.20329E-02   -0.24740E+00  5600   0.451E+00    0.960E-01
RMM:   2    -0.366984561077E+03   -0.33060E-02   -0.16530E-01  7053   0.103E+00    0.394E-01
RMM:   3    -0.366979979266E+03    0.45818E-02   -0.22439E-02  7830   0.325E-01    0.282E-01
RMM:   4    -0.366978567591E+03    0.14117E-02   -0.56688E-03  8085   0.141E-01    0.159E-01
RMM:   5    -0.366978332240E+03    0.23535E-03   -0.21130E-03  8090   0.840E-02    0.122E-01
RMM:   6    -0.366978337316E+03   -0.50760E-05   -0.97220E-04  8332   0.486E-02    0.791E-02
RMM:   7    -0.366978354444E+03   -0.17128E-04   -0.39456E-04  7627   0.356E-02    0.409E-02
RMM:   8    -0.366978386612E+03   -0.32168E-04   -0.18634E-04  6863   0.211E-02    0.279E-02
RMM:   9    -0.366978404485E+03   -0.17872E-04   -0.84509E-05  5038   0.165E-02    0.190E-02
RMM:  10    -0.366978417901E+03   -0.13417E-04   -0.43765E-05  4679   0.130E-02    0.125E-02
RMM:  11    -0.366978427624E+03   -0.97223E-05   -0.16814E-05  3521   0.112E-02
   4 F= -.36697843E+03 E0= -.36698266E+03  d E =-.340929E-02
       N       E                     dE             d eps       ncg     rms          rms(c)
DAV:   1    -0.366980959249E+03   -0.25413E-02   -0.86773E-01  5608   0.267E+00    0.572E-01
RMM:   2    -0.366982291082E+03   -0.13318E-02   -0.60112E-02  7012   0.622E-01    0.236E-01
RMM:   3    -0.366980682575E+03    0.16085E-02   -0.82180E-03  7869   0.198E-01    0.171E-01
RMM:   4    -0.366980135474E+03    0.54710E-03   -0.19123E-03  7963   0.830E-02    0.986E-02
RMM:   5    -0.366980023823E+03    0.11165E-03   -0.70383E-04  7953   0.487E-02    0.744E-02
RMM:   6    -0.366979998421E+03    0.25402E-04   -0.32608E-04  7612   0.296E-02    0.469E-02
RMM:   7    -0.366979975953E+03    0.22468E-04   -0.13403E-04  7016   0.217E-02    0.233E-02
RMM:   8    -0.366979973562E+03    0.23915E-05   -0.55949E-05  4959   0.133E-02
   5 F= -.36697997E+03 E0= -.36698413E+03  d E =-.495523E-02
       N       E                     dE             d eps       ncg     rms          rms(c)
DAV:   1    -0.366981357411E+03   -0.13815E-02   -0.82828E-02  5824   0.876E-01    0.238E-01
RMM:   2    -0.366981307677E+03    0.49733E-04   -0.70749E-03  6729   0.217E-01    0.867E-02
RMM:   3    -0.366981100808E+03    0.20687E-03   -0.99202E-04  7694   0.672E-02    0.591E-02
RMM:   4    -0.366981002806E+03    0.98002E-04   -0.23048E-04  7504   0.302E-02    0.345E-02
RMM:   5    -0.366980982015E+03    0.20791E-04   -0.80057E-05  5843   0.186E-02    0.253E-02
RMM:   6    -0.366980977340E+03    0.46744E-05   -0.28285E-05  3569   0.127E-02
   6 F= -.36698098E+03 E0= -.36698519E+03  d E =-.100378E-02
       N       E                     dE             d eps       ncg     rms          rms(c)
DAV:   1    -0.366984255327E+03   -0.32733E-02   -0.48733E-01  5600   0.212E+00    0.584E-01
RMM:   2    -0.366983873097E+03    0.38223E-03   -0.41904E-02  7060   0.528E-01    0.213E-01
RMM:   3    -0.366982715103E+03    0.11580E-02   -0.62395E-03  7884   0.162E-01    0.152E-01
RMM:   4    -0.366982130813E+03    0.58429E-03   -0.15013E-03  7940   0.763E-02    0.885E-02
RMM:   5    -0.366982017108E+03    0.11370E-03   -0.57075E-04  7975   0.428E-02    0.667E-02
RMM:   6    -0.366982010804E+03    0.63044E-05   -0.22635E-04  7322   0.261E-02    0.427E-02
RMM:   7    -0.366981998786E+03    0.12018E-04   -0.12344E-04  6576   0.194E-02    0.203E-02
RMM:   8    -0.366981998964E+03   -0.17727E-06   -0.63294E-05  4600   0.147E-02
   7 F= -.36698200E+03 E0= -.36698634E+03  d E =-.202540E-02
       N       E                     dE             d eps       ncg     rms          rms(c)
DAV:   1    -0.366982009444E+03   -0.10658E-04   -0.45489E-03  5784   0.205E-01    0.527E-02
RMM:   2    -0.366982010351E+03   -0.90732E-06   -0.38344E-04  6661   0.504E-02    0.194E-02
RMM:   3    -0.366981997262E+03    0.13089E-04   -0.43873E-05  4368   0.159E-02    0.137E-02
RMM:   4    -0.366981992457E+03    0.48053E-05   -0.13035E-05  3070   0.111E-02
   8 F= -.36698199E+03 E0= -.36698634E+03  d E =-.201890E-02
       N       E                     dE             d eps       ncg     rms          rms(c)
DAV:   1    -0.366981996838E+03    0.42479E-06   -0.32247E-04  6300   0.540E-02    0.203E-02
RMM:   2    -0.366981994258E+03    0.25799E-05   -0.35333E-05  3679   0.140E-02
   9 F= -.36698199E+03 E0= -.36698635E+03  d E =-.202070E-02
       N       E                     dE             d eps       ncg     rms          rms(c)
DAV:   1    -0.366982124439E+03   -0.12760E-03   -0.75973E-03  5376   0.251E-01    0.224E-02
RMM:   2    -0.366982149101E+03   -0.24662E-04   -0.34530E-04  6699   0.521E-02    0.118E-02
RMM:   3    -0.366982145862E+03    0.32387E-05   -0.26110E-05  3499   0.156E-02
  10 F= -.36698215E+03 E0= -.36698652E+03  d E =-.151605E-03
       N       E                     dE             d eps       ncg     rms          rms(c)
DAV:   1    -0.366982336668E+03   -0.18757E-03   -0.68828E-02  5376   0.754E-01    0.704E-02
RMM:   2    -0.366982560949E+03   -0.22428E-03   -0.31227E-03  7351   0.156E-01    0.385E-02
RMM:   3    -0.366982549126E+03    0.11823E-04   -0.36524E-04  7225   0.423E-02    0.304E-02
RMM:   4    -0.366982537588E+03    0.11538E-04   -0.92951E-05  6028   0.155E-02    0.172E-02
RMM:   5    -0.366982536311E+03    0.12769E-05   -0.36984E-05  4056   0.104E-02
  11 F= -.36698254E+03 E0= -.36698696E+03  d E =-.542053E-03
       N       E                     dE             d eps       ncg     rms          rms(c)
DAV:   1    -0.366982118757E+03    0.41883E-03   -0.27433E-01  5304   0.151E+00    0.136E-01
RMM:   2    -0.366983026287E+03   -0.90753E-03   -0.12339E-02  7320   0.312E-01    0.732E-02
RMM:   3    -0.366982985271E+03    0.41016E-04   -0.13887E-03  7760   0.842E-02    0.585E-02
RMM:   4    -0.366982941477E+03    0.43794E-04   -0.32545E-04  7531   0.281E-02    0.334E-02
RMM:   5    -0.366982940219E+03    0.12587E-05   -0.13878E-04  6452   0.191E-02    0.194E-02
RMM:   6    -0.366982935217E+03    0.50020E-05   -0.55821E-05  5063   0.135E-02
  12 F= -.36698294E+03 E0= -.36698747E+03  d E =-.940959E-03
       N       E                     dE             d eps       ncg     rms          rms(c)
DAV:   1    -0.366982887114E+03    0.53105E-04   -0.21939E-02  5488   0.427E-01    0.389E-02
RMM:   2    -0.366982965283E+03   -0.78169E-04   -0.10363E-03  7444   0.890E-02    0.218E-02
RMM:   3    -0.366982960584E+03    0.46993E-05   -0.10909E-04  5602   0.247E-02    0.169E-02
RMM:   4    -0.366982959351E+03    0.12331E-05   -0.49075E-05  4645   0.112E-02
  13 F= -.36698296E+03 E0= -.36698753E+03  d E =-.965093E-03
       N       E                     dE             d eps       ncg     rms          rms(c)
DAV:   1    -0.366983354148E+03   -0.39356E-03   -0.41379E-02  5920   0.647E-01    0.183E-01
RMM:   2    -0.366983246051E+03    0.10810E-03   -0.36718E-03  7237   0.160E-01    0.658E-02
RMM:   3    -0.366983142548E+03    0.10350E-03   -0.63191E-04  7912   0.505E-02    0.472E-02
RMM:   4    -0.366983093236E+03    0.49312E-04   -0.17038E-04  7441   0.256E-02    0.249E-02
RMM:   5    -0.366983086137E+03    0.70993E-05   -0.49591E-05  4765   0.154E-02
  14 F= -.36698309E+03 E0= -.36698764E+03  d E =-.126787E-03
       N       E                     dE             d eps       ncg     rms          rms(c)
DAV:   1    -0.366983270998E+03   -0.17776E-03   -0.31524E-02  5800   0.566E-01    0.151E-01
RMM:   2    -0.366983203029E+03    0.67969E-04   -0.27401E-03  7044   0.140E-01    0.553E-02
RMM:   3    -0.366983122427E+03    0.80602E-04   -0.43532E-04  7683   0.437E-02    0.399E-02
RMM:   4    -0.366983092327E+03    0.30100E-04   -0.11969E-04  6512   0.219E-02    0.231E-02
RMM:   5    -0.366983091192E+03    0.11350E-05   -0.32217E-05  3714   0.143E-02
  15 F= -.36698309E+03 E0= -.36698764E+03  d E =-.131841E-03
       N       E                     dE             d eps       ncg     rms          rms(c)
DAV:   1    -0.366983143740E+03   -0.51413E-04   -0.12249E-02  5480   0.320E-01    0.336E-02
RMM:   2    -0.366983194197E+03   -0.50457E-04   -0.56485E-04  7414   0.655E-02    0.196E-02
RMM:   3    -0.366983191415E+03    0.27825E-05   -0.56137E-05  5113   0.197E-02
  16 F= -.36698319E+03 E0= -.36698774E+03  d E =-.100223E-03
       N       E                     dE             d eps       ncg     rms          rms(c)
DAV:   1    -0.366983047232E+03    0.14696E-03   -0.10168E-01  5272   0.923E-01    0.842E-02
RMM:   2    -0.366983408328E+03   -0.36110E-03   -0.44942E-03  7237   0.184E-01    0.446E-02
RMM:   3    -0.366983372332E+03    0.35996E-04   -0.46201E-04  7549   0.528E-02    0.366E-02
RMM:   4    -0.366983366200E+03    0.61318E-05   -0.10929E-04  6136   0.163E-02    0.248E-02
RMM:   5    -0.366983363959E+03    0.22408E-05   -0.32731E-05  4008   0.111E-02
  17 F= -.36698336E+03 E0= -.36698791E+03  d E =-.272767E-03
       N       E                     dE             d eps       ncg     rms          rms(c)
DAV:   1    -0.366982072041E+03    0.12942E-02   -0.40530E-01  5264   0.185E+00    0.162E-01
RMM:   2    -0.366983514820E+03   -0.14428E-02   -0.17644E-02  6832   0.368E-01    0.795E-02
RMM:   3    -0.366983362748E+03    0.15207E-03   -0.17290E-03  7709   0.109E-01    0.684E-02
RMM:   4    -0.366983340550E+03    0.22198E-04   -0.39596E-04  7833   0.294E-02    0.467E-02
RMM:   5    -0.366983338708E+03    0.18423E-05   -0.14090E-04  7012   0.203E-02    0.299E-02
RMM:   6    -0.366983326631E+03    0.12077E-04   -0.66354E-05  6399   0.162E-02    0.130E-02
RMM:   7    -0.366983323163E+03    0.34675E-05   -0.20064E-05  3285   0.103E-02
  18 F= -.36698332E+03 E0= -.36698788E+03  d E =-.231972E-03
       N       E                     dE             d eps       ncg     rms          rms(c)
DAV:   1    -0.366982969657E+03    0.35697E-03   -0.14821E-01  5264   0.112E+00    0.990E-02
RMM:   2    -0.366983473833E+03   -0.50418E-03   -0.63347E-03  6638   0.222E-01    0.466E-02
RMM:   3    -0.366983412640E+03    0.61193E-04   -0.56050E-04  7441   0.665E-02    0.404E-02
RMM:   4    -0.366983401534E+03    0.11106E-04   -0.11834E-04  6327   0.174E-02    0.270E-02
RMM:   5    -0.366983400829E+03    0.70410E-06   -0.35919E-05  4145   0.108E-02
  19 F= -.36698340E+03 E0= -.36698795E+03  d E =-.309638E-03
       N       E                     dE             d eps       ncg     rms          rms(c)
DAV:   1    -0.366983690785E+03   -0.28925E-03   -0.10091E-02  7096   0.344E-01    0.133E-01
RMM:   2    -0.366983591633E+03    0.99152E-04   -0.15524E-03  7799   0.979E-02    0.519E-02
RMM:   3    -0.366983509566E+03    0.82067E-04   -0.29869E-04  7297   0.292E-02    0.328E-02
RMM:   4    -0.366983485707E+03    0.23858E-04   -0.80943E-05  6443   0.205E-02    0.185E-02
RMM:   5    -0.366983476107E+03    0.95998E-05   -0.23643E-05  3163   0.127E-02
  20 F= -.36698348E+03 E0= -.36698804E+03  d E =-.752779E-04
       N       E                     dE             d eps       ncg     rms          rms(c)
DAV:   1    -0.366983648869E+03   -0.16316E-03   -0.78958E-03  6904   0.310E-01    0.112E-01
RMM:   2    -0.366983567589E+03    0.81280E-04   -0.11049E-03  7743   0.854E-02    0.437E-02
RMM:   3    -0.366983503291E+03    0.64298E-04   -0.21681E-04  7187   0.251E-02    0.282E-02
RMM:   4    -0.366983482626E+03    0.20665E-04   -0.54202E-05  5024   0.187E-02    0.175E-02
RMM:   5    -0.366983477090E+03    0.55365E-05   -0.17692E-05  3015   0.122E-02
  21 F= -.36698348E+03 E0= -.36698805E+03  d E =-.762601E-04
