<?xml version="1.0" encoding="ISO-8859-1"?>
<modeling>
 <generator>
  <i name="program" type="string">vasp </i>
  <i name="version" type="string">5.4.1  </i>
  <i name="subversion" type="string">05Feb16 (build Jan 29 2020 16:04:39) complex                          parallel </i>
  <i name="platform" type="string">IFC91_ompi </i>
  <i name="date" type="string">2020 06 15 </i>
  <i name="time" type="string">10:15:45 </i>
 </generator>
 <incar>
  <i type="string" name="SYSTEM"> automatically generated by mexm</i>
  <i type="int" name="ISTART">     0</i>
  <i type="string" name="PREC">accurate               ! avoid wrap aro</i>
  <i type="string" name="ALGO"> Fast                   ! blocked Davids</i>
  <i type="int" name="ISPIN">     1</i>
  <i type="int" name="ICHARG">     2</i>
  <i type="int" name="NELM">    70</i>
  <i type="int" name="IBRION">     2</i>
  <i name="EDIFF">      0.00001000</i>
  <i name="EDIFFG">     -0.01000000</i>
  <i type="int" name="NSW">   300</i>
  <i type="int" name="ISIF">     3</i>
  <i type="int" name="ISYM">     1</i>
  <i name="ENCUT">    300.00000000</i>
  <i name="POTIM">      0.15000000</i>
  <i type="string" name="LREAL"> Auto                  ! unpublished met</i>
  <i type="int" name="ISMEAR">     1</i>
  <i name="SIGMA">      0.15000000</i>
  <i type="logical" name="LWAVE"> F  </i>
  <i type="logical" name="LCHARG"> F  </i>
  <i type="logical" name="LVTOT"> F  </i>
  <v type="int" name="KPOINT_BSE">    -1     0     0     0</v>
  <i type="int" name="NELM">    70</i>
 </incar>
 <kpoints>
  <generation param="Gamma">
   <v type="int" name="divisions">       3        3        3 </v>
   <v name="usershift">      0.00000000       0.00000000       0.00000000 </v>
   <v name="genvec1">      0.33333333      -0.00000000      -0.00000000 </v>
   <v name="genvec2">     -0.00000000       0.33333333       0.00000000 </v>
   <v name="genvec3">     -0.00000000       0.00000000       0.33333333 </v>
   <v name="shift">      0.00000000       0.00000000       0.00000000 </v>
  </generation>
  <varray name="kpointlist" >
   <v>       0.00000000       0.00000000       0.00000000 </v>
   <v>       0.33333333      -0.00000000      -0.00000000 </v>
   <v>       0.00000000       0.33333333       0.00000000 </v>
   <v>       0.33333333       0.33333333       0.00000000 </v>
   <v>      -0.33333333       0.33333333       0.00000000 </v>
   <v>       0.00000000      -0.00000000       0.33333333 </v>
   <v>       0.33333333      -0.00000000       0.33333333 </v>
   <v>      -0.33333333      -0.00000000       0.33333333 </v>
   <v>       0.00000000       0.33333333       0.33333333 </v>
   <v>       0.33333333       0.33333333       0.33333333 </v>
   <v>      -0.33333333       0.33333333       0.33333333 </v>
   <v>      -0.00000000      -0.33333333       0.33333333 </v>
   <v>       0.33333333      -0.33333333       0.33333333 </v>
   <v>      -0.33333333      -0.33333333       0.33333333 </v>
  </varray>
  <varray name="weights" >
   <v>       0.03703704 </v>
   <v>       0.07407407 </v>
   <v>       0.07407407 </v>
   <v>       0.07407407 </v>
   <v>       0.07407407 </v>
   <v>       0.07407407 </v>
   <v>       0.07407407 </v>
   <v>       0.07407407 </v>
   <v>       0.07407407 </v>
   <v>       0.07407407 </v>
   <v>       0.07407407 </v>
   <v>       0.07407407 </v>
   <v>       0.07407407 </v>
   <v>       0.07407407 </v>
  </varray>
 </kpoints>
 <parameters>
  <separator name="general" >
   <i type="string" name="SYSTEM">automatically generated by mexm</i>
   <i type="logical" name="LCOMPAT"> F  </i>
  </separator>
  <separator name="electronic" >
   <i type="string" name="PREC">accura</i>
   <i name="ENMAX">    300.00000000</i>
   <i name="ENAUG">    461.25700000</i>
   <i name="EDIFF">      0.00001000</i>
   <i type="int" name="IALGO">    68</i>
   <i type="int" name="IWAVPR">    11</i>
   <i type="int" name="NBANDS">   160</i>
   <i name="NELECT">    264.00000000</i>
   <i type="int" name="TURBO">     0</i>
   <i type="int" name="IRESTART">     0</i>
   <i type="int" name="NREBOOT">     0</i>
   <i type="int" name="NMIN">     0</i>
   <i name="EREF">      0.00000000</i>
   <separator name="electronic smearing" >
    <i type="int" name="ISMEAR">     1</i>
    <i name="SIGMA">      0.15000000</i>
    <i name="KSPACING">      0.50000000</i>
    <i type="logical" name="KGAMMA"> T  </i>
   </separator>
   <separator name="electronic projectors" >
    <i type="logical" name="LREAL"> T  </i>
    <v name="ROPT">     -0.00025000     -0.00025000     -0.00025000     -0.00025000</v>
    <i type="int" name="LMAXPAW">  -100</i>
    <i type="int" name="LMAXMIX">     2</i>
    <i type="logical" name="NLSPLINE"> F  </i>
   </separator>
   <separator name="electronic startup" >
    <i type="int" name="ISTART">     0</i>
    <i type="int" name="ICHARG">     2</i>
    <i type="int" name="INIWAV">     1</i>
   </separator>
   <separator name="electronic spin" >
    <i type="int" name="ISPIN">     1</i>
    <i type="logical" name="LNONCOLLINEAR"> F  </i>
    <v name="MAGMOM">      1.00000000      1.00000000      1.00000000      1.00000000      1.00000000      1.00000000      1.00000000      1.00000000      1.00000000      1.00000000      1.00000000      1.00000000      1.00000000      1.00000000      1.00000000      1.00000000      1.00000000      1.00000000      1.00000000      1.00000000
      1.00000000      1.00000000      1.00000000      1.00000000      1.00000000      1.00000000      1.00000000      1.00000000      1.00000000      1.00000000      1.00000000      1.00000000      1.00000000      1.00000000      1.00000000      1.00000000</v>
    <i name="NUPDOWN">     -1.00000000</i>
    <i type="logical" name="LSORBIT"> F  </i>
    <v name="SAXIS">      0.00000000      0.00000000      1.00000000</v>
    <i type="logical" name="LSPIRAL"> F  </i>
    <v name="QSPIRAL">      0.00000000      0.00000000      0.00000000</v>
    <i type="logical" name="LZEROZ"> F  </i>
   </separator>
   <separator name="electronic exchange-correlation" >
    <i type="logical" name="LASPH"> F  </i>
    <i type="logical" name="LMETAGGA"> F  </i>
   </separator>
   <separator name="electronic convergence" >
    <i type="int" name="NELM">    70</i>
    <i type="int" name="NELMDL">    -5</i>
    <i type="int" name="NELMIN">     2</i>
    <i name="ENINI">    300.00000000</i>
    <separator name="electronic convergence detail" >
     <i type="logical" name="LDIAG"> T  </i>
     <i type="logical" name="LSUBROT"> F  </i>
     <i name="WEIMIN">      0.00100000</i>
     <i name="EBREAK">      0.00000002</i>
     <i name="DEPER">      0.30000000</i>
     <i type="int" name="NRMM">     4</i>
     <i name="TIME">      0.40000000</i>
    </separator>
   </separator>
   <separator name="electronic mixer" >
    <i name="AMIX">      0.40000000</i>
    <i name="BMIX">      1.00000000</i>
    <i name="AMIN">      0.10000000</i>
    <i name="AMIX_MAG">      1.60000000</i>
    <i name="BMIX_MAG">      1.00000000</i>
    <separator name="electronic mixer details" >
     <i type="int" name="IMIX">     4</i>
     <i type="logical" name="MIXFIRST"> F  </i>
     <i type="int" name="MAXMIX">   -45</i>
     <i name="WC">    100.00000000</i>
     <i type="int" name="INIMIX">     1</i>
     <i type="int" name="MIXPRE">     1</i>
     <i type="int" name="MREMOVE">     5</i>
    </separator>
   </separator>
   <separator name="electronic dipolcorrection" >
    <i type="logical" name="LDIPOL"> F  </i>
    <i type="logical" name="LMONO"> F  </i>
    <i type="int" name="IDIPOL">     0</i>
    <i name="EPSILON">      1.00000000</i>
    <v name="DIPOL">   -100.00000000   -100.00000000   -100.00000000</v>
    <i name="EFIELD">      0.00000000</i>
   </separator>
  </separator>
  <separator name="grids" >
   <i type="int" name="NGX">    40</i>
   <i type="int" name="NGY">    60</i>
   <i type="int" name="NGZ">    60</i>
   <i type="int" name="NGXF">    80</i>
   <i type="int" name="NGYF">   120</i>
   <i type="int" name="NGZF">   120</i>
   <i type="logical" name="ADDGRID"> F  </i>
  </separator>
  <separator name="ionic" >
   <i type="int" name="NSW">   300</i>
   <i type="int" name="IBRION">     2</i>
   <i type="int" name="ISIF">     3</i>
   <i name="PSTRESS">      0.00000000</i>
   <i name="EDIFFG">     -0.01000000</i>
   <i type="int" name="NFREE">     1</i>
   <i name="POTIM">      0.15000000</i>
   <i name="SMASS">     -3.00000000</i>
   <i name="SCALEE">      1.00000000</i>
  </separator>
  <separator name="ionic md" >
   <i name="TEBEG">      0.00010000</i>
   <i name="TEEND">      0.00010000</i>
   <i type="int" name="NBLOCK">     1</i>
   <i type="int" name="KBLOCK">   300</i>
   <i type="int" name="NPACO">   256</i>
   <i name="APACO">     16.00000000</i>
  </separator>
  <separator name="symmetry" >
   <i type="int" name="ISYM">     1</i>
   <i name="SYMPREC">      0.00001000</i>
  </separator>
  <separator name="dos" >
   <i type="logical" name="LORBIT"> F  </i>
   <v name="RWIGS">     -1.00000000     -1.00000000     -1.00000000     -1.00000000</v>
   <i type="int" name="NEDOS">   301</i>
   <i name="EMIN">     10.00000000</i>
   <i name="EMAX">    -10.00000000</i>
   <i name="EFERMI">      0.00000000</i>
  </separator>
  <separator name="writing" >
   <i type="int" name="NWRITE">     2</i>
   <i type="logical" name="LWAVE"> F  </i>
   <i type="logical" name="LCHARG"> F  </i>
   <i type="logical" name="LPARD"> F  </i>
   <i type="logical" name="LVTOT"> F  </i>
   <i type="logical" name="LVHAR"> F  </i>
   <i type="logical" name="LELF"> F  </i>
   <i type="logical" name="LOPTICS"> F  </i>
   <v name="STM">      0.00000000      0.00000000      0.00000000      0.00000000      0.00000000      0.00000000      0.00000000</v>
  </separator>
  <separator name="performance" >
   <i type="int" name="NPAR">     4</i>
   <i type="int" name="NSIM">     4</i>
   <i type="int" name="NBLK">    -1</i>
   <i type="logical" name="LPLANE"> T  </i>
   <i type="logical" name="LSCALAPACK"> T  </i>
   <i type="logical" name="LSCAAWARE"> F  </i>
   <i type="logical" name="LSCALU"> F  </i>
   <i type="logical" name="LASYNC"> F  </i>
   <i type="logical" name="LORBITALREAL"> F  </i>
  </separator>
  <separator name="miscellaneous" >
   <i type="int" name="IDIOT">     3</i>
   <i type="logical" name="LMUSIC"> F  </i>
   <v name="POMASS">    180.94800000    178.49000000     92.91000000     91.22400000</v>
   <v name="DARWINR">      0.00000000      0.00000000      0.00000000      0.00000000</v>
   <v name="DARWINV">      1.00000000      1.00000000      1.00000000      1.00000000</v>
   <i type="logical" name="LCORR"> T  </i>
  </separator>
  <i type="logical" name="GGA_COMPAT"> T  </i>
  <i type="logical" name="LBERRY"> F  </i>
  <i type="int" name="ICORELEVEL">     0</i>
  <i type="logical" name="LDAU"> F  </i>
  <i type="int" name="I_CONSTRAINED_M">     0</i>
  <separator name="electronic exchange-correlation" >
   <i type="string" name="GGA">--</i>
   <i type="int" name="VOSKOWN">     0</i>
   <i type="logical" name="LHFCALC"> F  </i>
   <i type="string" name="PRECFOCK"></i>
   <i type="logical" name="LSYMGRAD"> F  </i>
   <i type="logical" name="LHFONE"> F  </i>
   <i type="logical" name="LRHFCALC"> F  </i>
   <i type="logical" name="LTHOMAS"> F  </i>
   <i type="logical" name="LMODELHF"> F  </i>
   <i name="ENCUT4O">     -1.00000000</i>
   <i type="int" name="EXXOEP">     0</i>
   <i type="int" name="FOURORBIT">     0</i>
   <i name="AEXX">      0.00000000</i>
   <i name="HFALPHA">      0.00000000</i>
   <i name="MCALPHA">      0.00000000</i>
   <i name="ALDAX">      1.00000000</i>
   <i name="AGGAX">      1.00000000</i>
   <i name="ALDAC">      1.00000000</i>
   <i name="AGGAC">      1.00000000</i>
   <i type="int" name="NKREDX">     1</i>
   <i type="int" name="NKREDY">     1</i>
   <i type="int" name="NKREDZ">     1</i>
   <i type="logical" name="SHIFTRED"> F  </i>
   <i type="logical" name="ODDONLY"> F  </i>
   <i type="logical" name="EVENONLY"> F  </i>
   <i type="int" name="LMAXFOCK">     0</i>
   <i type="int" name="NMAXFOCKAE">     0</i>
   <i type="logical" name="LFOCKAEDFT"> F  </i>
   <i name="HFSCREEN">      0.00000000</i>
   <i name="HFSCREENC">      0.00000000</i>
   <i type="int" name="NBANDSGWLOW">     0</i>
  </separator>
  <separator name="vdW DFT" >
   <i type="logical" name="LUSE_VDW"> F  </i>
   <i name="Zab_VDW">     -0.84910000</i>
   <i name="PARAM1">      0.12340000</i>
   <i name="PARAM2">      1.00000000</i>
   <i name="PARAM3">      0.00000000</i>
  </separator>
  <separator name="model GW" >
   <i type="int" name="MODEL_GW">     0</i>
   <i name="MODEL_EPS0">     12.24971793</i>
   <i name="MODEL_ALPHA">      1.00000000</i>
  </separator>
  <separator name="linear response parameters" >
   <i type="logical" name="LEPSILON"> F  </i>
   <i type="logical" name="LRPA"> F  </i>
   <i type="logical" name="LNABLA"> F  </i>
   <i type="logical" name="LVEL"> F  </i>
   <i type="int" name="KINTER">     0</i>
   <i name="CSHIFT">      0.10000000</i>
   <i name="OMEGAMAX">     -1.00000000</i>
   <i name="DEG_THRESHOLD">      0.00200000</i>
  </separator>
  <separator name="orbital magnetization" >
   <i type="logical" name="NUCIND"> F  </i>
   <v name="MAGPOS">      0.00000000      0.00000000      0.00000000</v>
   <i type="logical" name="LNICSALL"> T  </i>
   <i type="logical" name="ORBITALMAG"> F  </i>
   <i type="logical" name="LMAGBLOCH"> F  </i>
   <i type="logical" name="LCHIMAG"> F  </i>
   <i type="logical" name="LGAUGE"> T  </i>
   <i type="int" name="MAGATOM">     0</i>
   <v name="MAGDIPOL">      0.00000000      0.00000000      0.00000000</v>
   <v name="AVECCONST">      0.00000000      0.00000000      0.00000000</v>
  </separator>
  <separator name="response functions" >
   <i type="logical" name="LADDER"> F  </i>
   <i type="logical" name="LFXC"> F  </i>
   <i type="logical" name="LHARTREE"> T  </i>
   <i type="int" name="IBSE">     0</i>
   <v type="int" name="KPOINT">    -1     0     0     0</v>
   <i type="logical" name="LTCTE"> F  </i>
   <i type="logical" name="LTETE"> F  </i>
   <i type="logical" name="LTRIPLET"> F  </i>
   <i type="logical" name="LFXCEPS"> F  </i>
   <i type="logical" name="LFXHEG"> F  </i>
   <i type="int" name="NATURALO">     0</i>
   <i type="logical" name="L2ORDER"> F  </i>
   <i type="logical" name="LUSEW"> F  </i>
   <i name="ENCUTGW">     -2.00000000</i>
   <i name="ENCUTGWSOFT">     -2.00000000</i>
   <i name="ENCUTLF">     -1.00000000</i>
   <i type="int" name="LMAXMP2">    -1</i>
   <i name="SCISSOR">      0.00000000</i>
   <i type="int" name="NOMEGA">     0</i>
   <i type="int" name="NOMEGAR">     0</i>
   <i type="int" name="NBANDSGW">    -1</i>
   <i type="int" name="NBANDSO">    -1</i>
   <i type="int" name="NBANDSV">    -1</i>
   <i type="int" name="NELM">    70</i>
   <i type="int" name="NELMHF">     1</i>
   <i type="int" name="DIM">     3</i>
   <i type="int" name="ANTIRES">     0</i>
   <i name="OMEGAMAX">    -30.00000000</i>
   <i name="OMEGAMIN">    -30.00000000</i>
   <i name="OMEGATL">   -200.00000000</i>
   <i type="int" name="OMEGAGRID">     0</i>
   <i name="CSHIFT">     -0.10000000</i>
   <i type="logical" name="SELFENERGY"> F  </i>
   <i type="logical" name="LSPECTRAL"> F  </i>
   <i type="logical" name="LSPECTRALGW"> F  </i>
   <i type="logical" name="LSINGLES"> F  </i>
   <i type="logical" name="LFERMIGW"> F  </i>
   <i type="logical" name="ODDONLYGW"> F  </i>
   <i type="logical" name="EVENONLYGW"> F  </i>
   <i type="int" name="NKREDLFX">     1</i>
   <i type="int" name="NKREDLFY">     1</i>
   <i type="int" name="NKREDLFZ">     1</i>
   <i type="int" name="MAXMEM">  1800</i>
   <i type="int" name="TELESCOPE">     0</i>
   <i type="int" name="TAUPAR">     1</i>
   <i type="int" name="OMEGAPAR">    -1</i>
   <i name="LAMBDA">      1.00000000</i>
  </separator>
  <separator name="External order field" >
   <i name="OFIELD_KAPPA">      0.00000000</i>
   <v name="OFIELD_K">      0.00000000      0.00000000      0.00000000</v>
   <i name="OFIELD_Q6_NEAR">      0.00000000</i>
   <i name="OFIELD_Q6_FAR">      0.00000000</i>
   <i name="OFIELD_A">      0.00000000</i>
  </separator>
 </parameters>
 <atominfo>
  <atoms>      36 </atoms>
  <types>       4 </types>
  <array name="atoms" >
   <dimension dim="1">ion</dimension>
   <field type="string">element</field>
   <field type="int">atomtype</field>
   <set>
    <rc><c>Ta</c><c>   1</c></rc>
    <rc><c>Ta</c><c>   1</c></rc>
    <rc><c>Ta</c><c>   1</c></rc>
    <rc><c>Ta</c><c>   1</c></rc>
    <rc><c>Ta</c><c>   1</c></rc>
    <rc><c>Ta</c><c>   1</c></rc>
    <rc><c>Ta</c><c>   1</c></rc>
    <rc><c>Ta</c><c>   1</c></rc>
    <rc><c>Ta</c><c>   1</c></rc>
    <rc><c>Ta</c><c>   1</c></rc>
    <rc><c>Ta</c><c>   1</c></rc>
    <rc><c>Ta</c><c>   1</c></rc>
    <rc><c>Hf</c><c>   2</c></rc>
    <rc><c>Hf</c><c>   2</c></rc>
    <rc><c>Hf</c><c>   2</c></rc>
    <rc><c>Hf</c><c>   2</c></rc>
    <rc><c>Hf</c><c>   2</c></rc>
    <rc><c>Hf</c><c>   2</c></rc>
    <rc><c>Hf</c><c>   2</c></rc>
    <rc><c>Hf</c><c>   2</c></rc>
    <rc><c>Hf</c><c>   2</c></rc>
    <rc><c>Hf</c><c>   2</c></rc>
    <rc><c>Hf</c><c>   2</c></rc>
    <rc><c>Nb</c><c>   3</c></rc>
    <rc><c>Nb</c><c>   3</c></rc>
    <rc><c>Nb</c><c>   3</c></rc>
    <rc><c>Nb</c><c>   3</c></rc>
    <rc><c>Zr</c><c>   4</c></rc>
    <rc><c>Zr</c><c>   4</c></rc>
    <rc><c>Zr</c><c>   4</c></rc>
    <rc><c>Zr</c><c>   4</c></rc>
    <rc><c>Zr</c><c>   4</c></rc>
    <rc><c>Zr</c><c>   4</c></rc>
    <rc><c>Zr</c><c>   4</c></rc>
    <rc><c>Zr</c><c>   4</c></rc>
    <rc><c>Zr</c><c>   4</c></rc>
   </set>
  </array>
  <array name="atomtypes" >
   <dimension dim="1">type</dimension>
   <field type="int">atomspertype</field>
   <field type="string">element</field>
   <field>mass</field>
   <field>valence</field>
   <field type="string">pseudopotential</field>
   <set>
    <rc><c>  12</c><c>Ta</c><c>    180.94800000</c><c>      5.00000000</c><c>  PAW_PBE Ta 17Jan2003                  </c></rc>
    <rc><c>  11</c><c>Hf</c><c>    178.49000000</c><c>      4.00000000</c><c>  PAW_PBE Hf 20Jan2003                  </c></rc>
    <rc><c>   4</c><c>Nb</c><c>     92.91000000</c><c>     13.00000000</c><c>  PAW_PBE Nb_sv 25May2007               </c></rc>
    <rc><c>   9</c><c>Zr</c><c>     91.22400000</c><c>     12.00000000</c><c>  PAW_PBE Zr_sv 04Jan2005               </c></rc>
   </set>
  </array>
 </atominfo>
 <structure name="initialpos" >
  <crystal>
   <varray name="basis" >
    <v>       6.99958163      -0.01161279      -0.00732783 </v>
    <v>      -0.01684552      10.25805047       0.04251537 </v>
    <v>      -0.01025098       0.04184693      10.23645109 </v>
   </varray>
   <i name="volume">    734.98307603 </i>
   <varray name="rec_basis" >
    <v>       0.14286622       0.00023402       0.00014211 </v>
    <v>       0.00016132       0.09748633      -0.00039837 </v>
    <v>       0.00010160      -0.00040473       0.09769186 </v>
   </varray>
  </crystal>
  <varray name="positions" >
   <v>       0.74503500       0.83301200       0.16793100 </v>
   <v>       0.23715600       0.16778600       0.50464700 </v>
   <v>       0.03808900       0.33327500       0.34154000 </v>
   <v>       0.27336400       0.49877500       0.83299400 </v>
   <v>       0.25141900       0.82685400       0.15157400 </v>
   <v>       0.48726600       0.32613200       0.66911500 </v>
   <v>       0.48163100       0.32443300       0.99442500 </v>
   <v>       0.27522700       0.50547200       0.50303700 </v>
   <v>       0.49232100       0.66871200       0.31546900 </v>
   <v>       0.50365100       0.99871500       0.99968000 </v>
   <v>       0.49535500       0.65511700       0.67853000 </v>
   <v>       0.74544400       0.82224800       0.82701400 </v>
   <v>       0.76123600       0.49405300       0.17089400 </v>
   <v>       0.24908400       0.82869400       0.84243800 </v>
   <v>       0.72582200       0.82838600       0.50735600 </v>
   <v>       0.73625000       0.49474100       0.83794900 </v>
   <v>       0.23069000       0.50854900       0.15795700 </v>
   <v>       0.00933600       0.68068100       0.33722400 </v>
   <v>       0.76157600       0.17633900       0.48875500 </v>
   <v>       0.46079300       0.33214300       0.33264900 </v>
   <v>       0.01329400       0.99424000       0.32944500 </v>
   <v>       0.51559300       0.67208400       0.00734700 </v>
   <v>       0.50916300       0.01512600       0.67886500 </v>
   <v>       0.25069700       0.16559900       0.15946500 </v>
   <v>       0.97864500       0.67801400       0.00281300 </v>
   <v>       0.73154300       0.18029600       0.83895900 </v>
   <v>       0.26751200       0.16285500       0.83554100 </v>
   <v>       0.73587500       0.49562100       0.49115100 </v>
   <v>       0.98870600       0.99990500       0.00048200 </v>
   <v>       0.01862800       0.32276400       0.98584500 </v>
   <v>       0.01074700       0.65751900       0.66408400 </v>
   <v>       0.48426200       0.00075500       0.32138200 </v>
   <v>       0.99013600       0.00553900       0.67421100 </v>
   <v>       0.28121500       0.82746200       0.50837100 </v>
   <v>       0.01418900       0.33745400       0.66850100 </v>
   <v>       0.74904500       0.18065700       0.17235800 </v>
  </varray>
 </structure>
 <calculation>
  <scstep>
   <time name="dav">    0.95    0.96</time>
   <time name="total">    1.07    1.29</time>
   <energy>
    <i name="alphaZ">   1326.84222322 </i>
    <i name="ewald"> -15555.82900617 </i>
    <i name="hartreedc">  -5690.66071288 </i>
    <i name="XCdc">   -707.70528079 </i>
    <i name="pawpsdc">  17602.14909108 </i>
    <i name="pawaedc"> -15821.09183285 </i>
    <i name="eentropy">      0.00006711 </i>
    <i name="bandstr">     93.33183323 </i>
    <i name="atom">  20180.56195495 </i>
    <i name="e_fr_energy">   1427.59833690 </i>
    <i name="e_wo_entrp">   1427.59826979 </i>
    <i name="e_0_energy">   1427.59831453 </i>
   </energy>
  </scstep>
  <scstep>
   <time name="dav">    0.85    0.85</time>
   <time name="total">    0.85    1.16</time>
   <energy>
    <i name="e_fr_energy">   -131.15813947 </i>
    <i name="e_wo_entrp">   -131.15363609 </i>
    <i name="e_0_energy">   -131.15663835 </i>
   </energy>
  </scstep>
  <scstep>
   <time name="dav">    1.37    1.37</time>
   <time name="total">    1.37    1.41</time>
   <energy>
    <i name="e_fr_energy">   -350.45400912 </i>
    <i name="e_wo_entrp">   -350.44626577 </i>
    <i name="e_0_energy">   -350.45142800 </i>
   </energy>
  </scstep>
  <scstep>
   <time name="dav">    1.30    1.30</time>
   <time name="total">    1.30    1.32</time>
   <energy>
    <i name="e_fr_energy">   -377.37091819 </i>
    <i name="e_wo_entrp">   -377.37101348 </i>
    <i name="e_0_energy">   -377.37094995 </i>
   </energy>
  </scstep>
  <scstep>
   <time name="dav">    1.28    1.30</time>
   <time name="total">    1.32    1.35</time>
   <energy>
    <i name="e_fr_energy">   -380.11696371 </i>
    <i name="e_wo_entrp">   -380.11988477 </i>
    <i name="e_0_energy">   -380.11793740 </i>
   </energy>
  </scstep>
  <scstep>
   <time name="diag">    0.08    0.09</time>
   <time name="diis">    0.73    0.73</time>
   <time name="orth">    0.01    0.01</time>
   <time name="total">    0.88    0.95</time>
   <energy>
    <i name="e_fr_energy">   -369.78853989 </i>
    <i name="e_wo_entrp">   -369.78580104 </i>
    <i name="e_0_energy">   -369.78762694 </i>
   </energy>
  </scstep>
  <scstep>
   <time name="diag">    0.11    0.12</time>
   <time name="diis">    0.65    0.65</time>
   <time name="orth">    0.01    0.01</time>
   <time name="total">    0.84    0.88</time>
   <energy>
    <i name="e_fr_energy">   -368.30120360 </i>
    <i name="e_wo_entrp">   -368.30730554 </i>
    <i name="e_0_energy">   -368.30323758 </i>
   </energy>
  </scstep>
  <scstep>
   <time name="diag">    0.07    0.07</time>
   <time name="diis">    0.72    0.73</time>
   <time name="orth">    0.01    0.01</time>
   <time name="total">    0.89    1.04</time>
   <energy>
    <i name="e_fr_energy">   -365.48272207 </i>
    <i name="e_wo_entrp">   -365.49746524 </i>
    <i name="e_0_energy">   -365.48763646 </i>
   </energy>
  </scstep>
  <scstep>
   <time name="diag">    0.07    0.07</time>
   <time name="diis">    0.71    0.72</time>
   <time name="orth">    0.01    0.01</time>
   <time name="total">    0.86    0.88</time>
   <energy>
    <i name="e_fr_energy">   -365.34036040 </i>
    <i name="e_wo_entrp">   -365.35338832 </i>
    <i name="e_0_energy">   -365.34470304 </i>
   </energy>
  </scstep>
  <scstep>
   <time name="diag">    0.07    0.07</time>
   <time name="diis">    0.71    0.72</time>
   <time name="orth">    0.01    0.01</time>
   <time name="total">    0.85    0.89</time>
   <energy>
    <i name="e_fr_energy">   -365.31132033 </i>
    <i name="e_wo_entrp">   -365.32723806 </i>
    <i name="e_0_energy">   -365.31662624 </i>
   </energy>
  </scstep>
  <scstep>
   <time name="diag">    0.07    0.07</time>
   <time name="diis">    0.73    0.73</time>
   <time name="orth">    0.01    0.01</time>
   <time name="total">    0.87    0.90</time>
   <energy>
    <i name="e_fr_energy">   -365.29346098 </i>
    <i name="e_wo_entrp">   -365.30873622 </i>
    <i name="e_0_energy">   -365.29855273 </i>
   </energy>
  </scstep>
  <scstep>
   <time name="diag">    0.07    0.07</time>
   <time name="diis">    0.73    0.73</time>
   <time name="orth">    0.01    0.01</time>
   <time name="total">    0.87    0.90</time>
   <energy>
    <i name="e_fr_energy">   -365.29065585 </i>
    <i name="e_wo_entrp">   -365.30625579 </i>
    <i name="e_0_energy">   -365.29585583 </i>
   </energy>
  </scstep>
  <scstep>
   <time name="diag">    0.12    0.12</time>
   <time name="diis">    0.74    0.75</time>
   <time name="orth">    0.01    0.01</time>
   <time name="total">    0.94    0.96</time>
   <energy>
    <i name="e_fr_energy">   -365.28968276 </i>
    <i name="e_wo_entrp">   -365.30560606 </i>
    <i name="e_0_energy">   -365.29499053 </i>
   </energy>
  </scstep>
  <scstep>
   <time name="diag">    0.07    0.07</time>
   <time name="diis">    0.73    0.74</time>
   <time name="orth">    0.01    0.01</time>
   <time name="total">    0.88    0.90</time>
   <energy>
    <i name="e_fr_energy">   -365.28996098 </i>
    <i name="e_wo_entrp">   -365.30573014 </i>
    <i name="e_0_energy">   -365.29521737 </i>
   </energy>
  </scstep>
  <scstep>
   <time name="diag">    0.07    0.07</time>
   <time name="diis">    0.76    0.77</time>
   <time name="orth">    0.01    0.01</time>
   <time name="total">    0.91    0.93</time>
   <energy>
    <i name="e_fr_energy">   -365.29016798 </i>
    <i name="e_wo_entrp">   -365.30601465 </i>
    <i name="e_0_energy">   -365.29545020 </i>
   </energy>
  </scstep>
  <scstep>
   <time name="diag">    0.13    0.14</time>
   <time name="diis">    0.69    0.71</time>
   <time name="orth">    0.01    0.01</time>
   <time name="total">    0.92    1.00</time>
   <energy>
    <i name="e_fr_energy">   -365.29022620 </i>
    <i name="e_wo_entrp">   -365.30604393 </i>
    <i name="e_0_energy">   -365.29549877 </i>
   </energy>
  </scstep>
  <scstep>
   <time name="diag">    0.10    0.12</time>
   <time name="diis">    0.53    0.61</time>
   <time name="orth">    0.01    0.01</time>
   <time name="total">    0.72    0.85</time>
   <energy>
    <i name="e_fr_energy">   -365.29024743 </i>
    <i name="e_wo_entrp">   -365.30607929 </i>
    <i name="e_0_energy">   -365.29552471 </i>
   </energy>
  </scstep>
  <scstep>
   <time name="diag">    0.12    0.12</time>
   <time name="diis">    0.53    0.53</time>
   <time name="orth">    0.02    0.02</time>
   <time name="total">    0.76    0.79</time>
   <energy>
    <i name="e_fr_energy">   -365.29026303 </i>
    <i name="e_wo_entrp">   -365.30609567 </i>
    <i name="e_0_energy">   -365.29554058 </i>
   </energy>
  </scstep>
  <scstep>
   <time name="diag">    0.20    0.20</time>
   <time name="diis">    0.44    0.46</time>
   <time name="orth">    0.01    0.01</time>
   <time name="total">    0.71    0.77</time>
   <energy>
    <i name="alphaZ">   1326.84222322 </i>
    <i name="ewald"> -15555.82900617 </i>
    <i name="hartreedc">  -5496.32156190 </i>
    <i name="XCdc">   -702.46759231 </i>
    <i name="pawpsdc">  30344.25252134 </i>
    <i name="pawaedc"> -28556.42704943 </i>
    <i name="eentropy">      0.01584186 </i>
    <i name="bandstr">  -1905.91759969 </i>
    <i name="atom">  20180.56195495 </i>
    <i name="e_fr_energy">   -365.29026813 </i>
    <i name="e_wo_entrp">   -365.30610998 </i>
    <i name="e_0_energy">   -365.29554875 </i>
   </energy>
  </scstep>
  <structure>
   <crystal>
    <varray name="basis" >
     <v>       6.99958163      -0.01161279      -0.00732783 </v>
     <v>      -0.01684552      10.25805047       0.04251537 </v>
     <v>      -0.01025098       0.04184693      10.23645109 </v>
    </varray>
    <i name="volume">    734.98307603 </i>
    <varray name="rec_basis" >
     <v>       0.14286622       0.00023402       0.00014211 </v>
     <v>       0.00016132       0.09748633      -0.00039837 </v>
     <v>       0.00010160      -0.00040473       0.09769186 </v>
    </varray>
   </crystal>
   <varray name="positions" >
    <v>       0.74503500       0.83301200       0.16793100 </v>
    <v>       0.23715600       0.16778600       0.50464700 </v>
    <v>       0.03808900       0.33327500       0.34154000 </v>
    <v>       0.27336400       0.49877500       0.83299400 </v>
    <v>       0.25141900       0.82685400       0.15157400 </v>
    <v>       0.48726600       0.32613200       0.66911500 </v>
    <v>       0.48163100       0.32443300       0.99442500 </v>
    <v>       0.27522700       0.50547200       0.50303700 </v>
    <v>       0.49232100       0.66871200       0.31546900 </v>
    <v>       0.50365100       0.99871500       0.99968000 </v>
    <v>       0.49535500       0.65511700       0.67853000 </v>
    <v>       0.74544400       0.82224800       0.82701400 </v>
    <v>       0.76123600       0.49405300       0.17089400 </v>
    <v>       0.24908400       0.82869400       0.84243800 </v>
    <v>       0.72582200       0.82838600       0.50735600 </v>
    <v>       0.73625000       0.49474100       0.83794900 </v>
    <v>       0.23069000       0.50854900       0.15795700 </v>
    <v>       0.00933600       0.68068100       0.33722400 </v>
    <v>       0.76157600       0.17633900       0.48875500 </v>
    <v>       0.46079300       0.33214300       0.33264900 </v>
    <v>       0.01329400       0.99424000       0.32944500 </v>
    <v>       0.51559300       0.67208400       0.00734700 </v>
    <v>       0.50916300       0.01512600       0.67886500 </v>
    <v>       0.25069700       0.16559900       0.15946500 </v>
    <v>       0.97864500       0.67801400       0.00281300 </v>
    <v>       0.73154300       0.18029600       0.83895900 </v>
    <v>       0.26751200       0.16285500       0.83554100 </v>
    <v>       0.73587500       0.49562100       0.49115100 </v>
    <v>       0.98870600       0.99990500       0.00048200 </v>
    <v>       0.01862800       0.32276400       0.98584500 </v>
    <v>       0.01074700       0.65751900       0.66408400 </v>
    <v>       0.48426200       0.00075500       0.32138200 </v>
    <v>       0.99013600       0.00553900       0.67421100 </v>
    <v>       0.28121500       0.82746200       0.50837100 </v>
    <v>       0.01418900       0.33745400       0.66850100 </v>
    <v>       0.74904500       0.18065700       0.17235800 </v>
   </varray>
  </structure>
  <varray name="forces" >
   <v>      -0.05667377      -0.03774064       0.06380089 </v>
   <v>       0.00156752       0.00867492       0.00599323 </v>
   <v>       0.00649048       0.00379574      -0.00813703 </v>
   <v>       0.00216015      -0.01279715       0.00343049 </v>
   <v>       0.03093441       0.01022720       0.00483454 </v>
   <v>       0.01776321      -0.00728025      -0.00094277 </v>
   <v>       0.00700424      -0.00398945       0.00045750 </v>
   <v>       0.00792308      -0.00749235       0.00755579 </v>
   <v>      -0.00687288      -0.00767235      -0.02990761 </v>
   <v>       0.00556052       0.00258747       0.01072716 </v>
   <v>       0.00214203       0.01820436       0.00808526 </v>
   <v>       0.00335154      -0.00380441       0.09506231 </v>
   <v>       0.00036289       0.10122263       0.00557033 </v>
   <v>      -0.00504257      -0.00347346      -0.01970339 </v>
   <v>       0.00431461       0.00293362      -0.11846415 </v>
   <v>      -0.00346191      -0.00901224      -0.01445406 </v>
   <v>      -0.00209147      -0.02441166      -0.01175021 </v>
   <v>       0.02586967       0.01272600       0.02701250 </v>
   <v>      -0.00342040       0.01686207       0.01173893 </v>
   <v>      -0.00335933       0.00519282      -0.00096685 </v>
   <v>       0.01157069      -0.00466560      -0.00678141 </v>
   <v>      -0.03322837      -0.03481664      -0.02054758 </v>
   <v>       0.00065778      -0.01000060       0.01050055 </v>
   <v>      -0.00999659       0.01564409      -0.00089104 </v>
   <v>       0.02401833      -0.01945272      -0.03547846 </v>
   <v>      -0.00487377       0.01138201      -0.01099564 </v>
   <v>       0.00131694       0.01195908      -0.00168159 </v>
   <v>      -0.00233560      -0.02232317       0.01332207 </v>
   <v>       0.03708022       0.03279547      -0.02631744 </v>
   <v>      -0.00093246      -0.00749952       0.01332328 </v>
   <v>      -0.00613915       0.01507939      -0.01228669 </v>
   <v>      -0.03548137       0.03278892       0.01901184 </v>
   <v>      -0.01145531      -0.01395983      -0.00146440 </v>
   <v>      -0.00086270       0.00213532       0.01769590 </v>
   <v>      -0.00851572       0.00305876      -0.00682576 </v>
   <v>       0.00465507      -0.07687783       0.00947351 </v>
  </varray>
  <varray name="stress" >
   <v>      -0.22770808      -0.01464663      -0.08878350 </v>
   <v>      -0.01464661      -0.31755404       0.30826077 </v>
   <v>      -0.08878351       0.30826074      -0.36704070 </v>
  </varray>
  <energy>
   <i name="e_fr_energy">   -365.29026813 </i>
   <i name="e_wo_entrp">   -365.29554875 </i>
   <i name="e_0_energy">      0.01584186 </i>
  </energy>
  <time name="totalsc">   19.77   21.17</time>
 </calculation>
 <calculation>
  <scstep>
   <time name="dav">    1.00    1.00</time>
   <time name="total">    1.59    1.67</time>
   <energy>
    <i name="alphaZ">   1327.06549468 </i>
    <i name="ewald"> -15556.48916213 </i>
    <i name="hartreedc">  -5496.84276468 </i>
    <i name="XCdc">   -702.42993944 </i>
    <i name="pawpsdc">  30344.39020024 </i>
    <i name="pawaedc"> -28556.56056423 </i>
    <i name="eentropy">      0.01584752 </i>
    <i name="bandstr">  -1905.00231260 </i>
    <i name="atom">  20180.56195495 </i>
    <i name="e_fr_energy">   -365.29124569 </i>
    <i name="e_wo_entrp">   -365.30709321 </i>
    <i name="e_0_energy">   -365.29652820 </i>
   </energy>
  </scstep>
  <scstep>
   <time name="diag">    0.07    0.07</time>
   <time name="diis">    0.76    0.76</time>
   <time name="orth">    0.01    0.01</time>
   <time name="total">    0.90    0.93</time>
   <energy>
    <i name="e_fr_energy">   -365.29130194 </i>
    <i name="e_wo_entrp">   -365.30707645 </i>
    <i name="e_0_energy">   -365.29656011 </i>
   </energy>
  </scstep>
  <scstep>
   <time name="diag">    0.07    0.07</time>
   <time name="diis">    0.65    0.65</time>
   <time name="orth">    0.01    0.01</time>
   <time name="total">    0.79    0.81</time>
   <energy>
    <i name="e_fr_energy">   -365.29128674 </i>
    <i name="e_wo_entrp">   -365.30707227 </i>
    <i name="e_0_energy">   -365.29654858 </i>
   </energy>
  </scstep>
  <scstep>
   <time name="diag">    0.07    0.07</time>
   <time name="diis">    0.47    0.47</time>
   <time name="orth">    0.01    0.01</time>
   <time name="total">    0.72    0.74</time>
   <energy>
    <i name="alphaZ">   1327.06549468 </i>
    <i name="ewald"> -15556.48916213 </i>
    <i name="hartreedc">  -5496.34185924 </i>
    <i name="XCdc">   -702.45123997 </i>
    <i name="pawpsdc">  30351.73893254 </i>
    <i name="pawaedc"> -28563.92020856 </i>
    <i name="eentropy">      0.01579328 </i>
    <i name="bandstr">  -1905.47098385 </i>
    <i name="atom">  20180.56195495 </i>
    <i name="e_fr_energy">   -365.29127831 </i>
    <i name="e_wo_entrp">   -365.30707159 </i>
    <i name="e_0_energy">   -365.29654273 </i>
   </energy>
  </scstep>
  <structure>
   <crystal>
    <varray name="basis" >
     <v>       6.99928783      -0.01163143      -0.00744260 </v>
     <v>      -0.01687322      10.25745218       0.04309594 </v>
     <v>      -0.01041827       0.04242646      10.23576072 </v>
    </varray>
    <i name="volume">    734.85941918 </i>
    <varray name="rec_basis" >
     <v>       0.14287222       0.00023441       0.00014445 </v>
     <v>       0.00016158       0.09749206      -0.00040393 </v>
     <v>       0.00010320      -0.00041030       0.09769850 </v>
    </varray>
   </crystal>
   <varray name="positions" >
    <v>       0.74491782       0.83295825       0.16802134 </v>
    <v>       0.23715928       0.16779821       0.50465543 </v>
    <v>       0.03810242       0.33328042       0.34152848 </v>
    <v>       0.27336843       0.49875693       0.83299893 </v>
    <v>       0.25148301       0.82686847       0.15158082 </v>
    <v>       0.48730270       0.32612178       0.66911374 </v>
    <v>       0.48164547       0.32442739       0.99442568 </v>
    <v>       0.27524337       0.50546140       0.50304774 </v>
    <v>       0.49230670       0.66870133       0.31542675 </v>
    <v>       0.50366253       0.99871860       0.99969516 </v>
    <v>       0.49535951       0.65514264       0.67854133 </v>
    <v>       0.74545111       0.82224209       0.82714843 </v>
    <v>       0.76123710       0.49419578       0.17090128 </v>
    <v>       0.24907352       0.82868920       0.84241015 </v>
    <v>       0.72583069       0.82839083       0.50718850 </v>
    <v>       0.73624278       0.49472836       0.83792861 </v>
    <v>       0.23068557       0.50851462       0.15794053 </v>
    <v>       0.00938959       0.68069886       0.33726216 </v>
    <v>       0.76156901       0.17636272       0.48877149 </v>
    <v>       0.46078607       0.33215032       0.33264760 </v>
    <v>       0.01331789       0.99423348       0.32943546 </v>
    <v>       0.51552413       0.67203492       0.00731810 </v>
    <v>       0.50916435       0.01511183       0.67887991 </v>
    <v>       0.25067638       0.16562105       0.15946363 </v>
    <v>       0.97869452       0.67798681       0.00276299 </v>
    <v>       0.73153294       0.18031211       0.83894338 </v>
    <v>       0.26751476       0.16287189       0.83553855 </v>
    <v>       0.73587012       0.49558942       0.49116996 </v>
    <v>       0.98878273       0.99995151       0.00044465 </v>
    <v>       0.01862607       0.32275334       0.98586388 </v>
    <v>       0.01073433       0.65754033       0.66406653 </v>
    <v>       0.48418879       0.00080107       0.32140864 </v>
    <v>       0.99011226       0.00551929       0.67420899 </v>
    <v>       0.28121326       0.82746491       0.50839601 </v>
    <v>       0.01417139       0.33745834       0.66849132 </v>
    <v>       0.74905438       0.18054849       0.17237185 </v>
   </varray>
  </structure>
  <varray name="forces" >
   <v>      -0.05215546      -0.03471191       0.05954352 </v>
   <v>       0.00118662       0.00709791       0.00689635 </v>
   <v>       0.00398734       0.00402175      -0.00738772 </v>
   <v>       0.00003411      -0.01172082       0.00231642 </v>
   <v>       0.03032699       0.01031654       0.00280603 </v>
   <v>       0.01584088      -0.00740044      -0.00120920 </v>
   <v>       0.00776404      -0.00318844       0.00252118 </v>
   <v>       0.00920591      -0.00618844       0.00725098 </v>
   <v>      -0.01011655      -0.00886581      -0.02719188 </v>
   <v>       0.00348879       0.00117501       0.00942502 </v>
   <v>       0.00434615       0.01837055       0.00787241 </v>
   <v>       0.00478950      -0.00256182       0.08808984 </v>
   <v>       0.00161253       0.09123570       0.00514160 </v>
   <v>      -0.00403511      -0.00197494      -0.01871893 </v>
   <v>       0.00227580       0.00530960      -0.11318698 </v>
   <v>      -0.00175546      -0.00739988      -0.01321259 </v>
   <v>      -0.00384276      -0.02246645      -0.01226079 </v>
   <v>       0.02740596       0.01198231       0.02531028 </v>
   <v>      -0.00405490       0.01378327       0.01043453 </v>
   <v>       0.00000080       0.00405848      -0.00240926 </v>
   <v>       0.01204072      -0.00490279      -0.00566267 </v>
   <v>      -0.03383258      -0.03214231      -0.01984149 </v>
   <v>       0.00251073      -0.01231069       0.00885591 </v>
   <v>      -0.00999471       0.01441374      -0.00118514 </v>
   <v>       0.02269708      -0.01768295      -0.03155362 </v>
   <v>      -0.00106434       0.00883812      -0.00842917 </v>
   <v>      -0.00011739       0.01061343      -0.00234962 </v>
   <v>      -0.00138314      -0.01914066       0.01317273 </v>
   <v>       0.03352975       0.02896154      -0.02350581 </v>
   <v>      -0.00257713      -0.00728652       0.01355483 </v>
   <v>      -0.00729431       0.01447666      -0.01209387 </v>
   <v>      -0.03634586       0.03122625       0.01865600 </v>
   <v>      -0.01090322      -0.01409343      -0.00155646 </v>
   <v>       0.00019623       0.00387086       0.01821257 </v>
   <v>      -0.00821803       0.00344541      -0.00647628 </v>
   <v>       0.00445102      -0.06915886       0.00817127 </v>
  </varray>
  <varray name="stress" >
   <v>      -0.13505009      -0.00960597      -0.07412412 </v>
   <v>      -0.00960597      -0.22856482       0.31165215 </v>
   <v>      -0.07412419       0.31165215      -0.28245605 </v>
  </varray>
  <energy>
   <i name="e_fr_energy">   -365.29127831 </i>
   <i name="e_wo_entrp">   -365.29654273 </i>
   <i name="e_0_energy">      0.01579328 </i>
  </energy>
  <time name="totalsc">    5.57    5.80</time>
 </calculation>
 <calculation>
  <scstep>
   <time name="dav">    0.93    0.94</time>
   <time name="total">    1.05    1.14</time>
   <energy>
    <i name="alphaZ">   1327.73566832 </i>
    <i name="ewald"> -15558.46131801 </i>
    <i name="hartreedc">  -5497.84315036 </i>
    <i name="XCdc">   -702.33927202 </i>
    <i name="pawpsdc">  30352.08128225 </i>
    <i name="pawaedc"> -28564.26472264 </i>
    <i name="eentropy">      0.01575522 </i>
    <i name="bandstr">  -1902.77978616 </i>
    <i name="atom">  20180.56195495 </i>
    <i name="e_fr_energy">   -365.29358845 </i>
    <i name="e_wo_entrp">   -365.30934367 </i>
    <i name="e_0_energy">   -365.29884019 </i>
   </energy>
  </scstep>
  <scstep>
   <time name="diag">    0.07    0.07</time>
   <time name="diis">    0.73    0.73</time>
   <time name="orth">    0.02    0.02</time>
   <time name="total">    0.88    0.90</time>
   <energy>
    <i name="e_fr_energy">   -365.29403235 </i>
    <i name="e_wo_entrp">   -365.30959280 </i>
    <i name="e_0_energy">   -365.29921917 </i>
   </energy>
  </scstep>
  <scstep>
   <time name="diag">    0.07    0.07</time>
   <time name="diis">    0.76    0.76</time>
   <time name="orth">    0.01    0.01</time>
   <time name="total">    0.95    0.98</time>
   <energy>
    <i name="e_fr_energy">   -365.29389725 </i>
    <i name="e_wo_entrp">   -365.30947515 </i>
    <i name="e_0_energy">   -365.29908988 </i>
   </energy>
  </scstep>
  <scstep>
   <time name="diag">    0.13    0.13</time>
   <time name="diis">    0.80    0.81</time>
   <time name="orth">    0.01    0.01</time>
   <time name="total">    1.01    1.04</time>
   <energy>
    <i name="e_fr_energy">   -365.29382166 </i>
    <i name="e_wo_entrp">   -365.30942124 </i>
    <i name="e_0_energy">   -365.29902152 </i>
   </energy>
  </scstep>
  <scstep>
   <time name="diag">    0.07    0.07</time>
   <time name="diis">    0.77    0.78</time>
   <time name="orth">    0.01    0.01</time>
   <time name="total">    0.91    0.94</time>
   <energy>
    <i name="e_fr_energy">   -365.29381569 </i>
    <i name="e_wo_entrp">   -365.30935058 </i>
    <i name="e_0_energy">   -365.29899399 </i>
   </energy>
  </scstep>
  <scstep>
   <time name="diag">    0.07    0.07</time>
   <time name="diis">    0.48    0.48</time>
   <time name="orth">    0.01    0.01</time>
   <time name="total">    0.59    0.61</time>
   <energy>
    <i name="alphaZ">   1327.73566832 </i>
    <i name="ewald"> -15558.46131801 </i>
    <i name="hartreedc">  -5496.26504631 </i>
    <i name="XCdc">   -702.40399452 </i>
    <i name="pawpsdc">  30374.51910288 </i>
    <i name="pawaedc"> -28586.73219082 </i>
    <i name="eentropy">      0.01556592 </i>
    <i name="bandstr">  -1904.26356290 </i>
    <i name="atom">  20180.56195495 </i>
    <i name="e_fr_energy">   -365.29382049 </i>
    <i name="e_wo_entrp">   -365.30938641 </i>
    <i name="e_0_energy">   -365.29900913 </i>
   </energy>
  </scstep>
  <structure>
   <crystal>
    <varray name="basis" >
     <v>       6.99840645      -0.01168736      -0.00778692 </v>
     <v>      -0.01695631      10.25565729       0.04483766 </v>
     <v>      -0.01092014       0.04416503      10.23368962 </v>
    </varray>
    <i name="volume">    734.48849940 </i>
    <varray name="rec_basis" >
     <v>       0.14289023       0.00023559       0.00015146 </v>
     <v>       0.00016237       0.09750927      -0.00042064 </v>
     <v>       0.00010802      -0.00042705       0.09771843 </v>
    </varray>
   </crystal>
   <varray name="positions" >
    <v>       0.74456627       0.83279698       0.16829240 </v>
    <v>       0.23716913       0.16783483       0.50468070 </v>
    <v>       0.03814267       0.33329667       0.34149393 </v>
    <v>       0.27338172       0.49870272       0.83301372 </v>
    <v>       0.25167504       0.82691190       0.15160129 </v>
    <v>       0.48741281       0.32609110       0.66910995 </v>
    <v>       0.48168888       0.32441054       0.99442772 </v>
    <v>       0.27529249       0.50542961       0.50307996 </v>
    <v>       0.49226380       0.66866933       0.31529999 </v>
    <v>       0.50369712       0.99872941       0.99974064 </v>
    <v>       0.49537303       0.65521957       0.67857531 </v>
    <v>       0.74547246       0.82222434       0.82755176 </v>
    <v>       0.76124042       0.49462416       0.17092311 </v>
    <v>       0.24904208       0.82867481       0.84232661 </v>
    <v>       0.72585674       0.82840536       0.50668595 </v>
    <v>       0.73622112       0.49469044       0.83786744 </v>
    <v>       0.23067227       0.50841148       0.15789111 </v>
    <v>       0.00955036       0.68075244       0.33737663 </v>
    <v>       0.76154804       0.17643386       0.48882097 </v>
    <v>       0.46076528       0.33217230       0.33264339 </v>
    <v>       0.01338958       0.99421393       0.32940683 </v>
    <v>       0.51531753       0.67188767       0.00723141 </v>
    <v>       0.50916839       0.01506932       0.67892463 </v>
    <v>       0.25061452       0.16568722       0.15945953 </v>
    <v>       0.97884310       0.67790526       0.00261294 </v>
    <v>       0.73150275       0.18036045       0.83889651 </v>
    <v>       0.26752304       0.16292255       0.83553121 </v>
    <v>       0.73585549       0.49549468       0.49122686 </v>
    <v>       0.98901291       0.00009105       0.00033260 </v>
    <v>       0.01862030       0.32272135       0.98592053 </v>
    <v>       0.01069633       0.65760433       0.66401412 </v>
    <v>       0.48396914       0.00093928       0.32148854 </v>
    <v>       0.99004105       0.00546014       0.67420298 </v>
    <v>       0.28120804       0.82747363       0.50847103 </v>
    <v>       0.01411855       0.33747134       0.66846227 </v>
    <v>       0.74908254       0.18022294       0.17241343 </v>
   </varray>
  </structure>
  <varray name="forces" >
   <v>      -0.03794456      -0.02746106       0.05097254 </v>
   <v>      -0.00070068       0.00290666       0.00888852 </v>
   <v>      -0.00485681       0.00546314      -0.00560471 </v>
   <v>      -0.00682386      -0.00796621      -0.00034700 </v>
   <v>       0.02685304       0.01039795      -0.00100312 </v>
   <v>       0.01073374      -0.00682463      -0.00305377 </v>
   <v>       0.01156314      -0.00156912       0.00928025 </v>
   <v>       0.00973615      -0.00302349       0.00675965 </v>
   <v>      -0.01772443      -0.01254568      -0.01784365 </v>
   <v>      -0.00084065      -0.00345697       0.00729367 </v>
   <v>       0.01145470       0.01733825       0.00527030 </v>
   <v>       0.01000439      -0.00117933       0.07054525 </v>
   <v>       0.00671616       0.06267683       0.00497651 </v>
   <v>      -0.00300987       0.00097423      -0.01597305 </v>
   <v>      -0.00269664       0.01040919      -0.10134108 </v>
   <v>       0.00418989      -0.00252715      -0.01018548 </v>
   <v>      -0.01018534      -0.01781003      -0.01202119 </v>
   <v>       0.03073368       0.00823317       0.02064330 </v>
   <v>      -0.00469996       0.00574042       0.00522150 </v>
   <v>       0.01095439       0.00173736      -0.00649068 </v>
   <v>       0.01165132      -0.00620571      -0.00298401 </v>
   <v>      -0.03452658      -0.02514263      -0.01714149 </v>
   <v>       0.00814653      -0.01964594       0.00348052 </v>
   <v>      -0.01123351       0.01601862      -0.00101895 </v>
   <v>       0.02134368      -0.01393110      -0.02571197 </v>
   <v>       0.00472057       0.00584250      -0.00400557 </v>
   <v>      -0.00013646       0.00961575      -0.00479994 </v>
   <v>       0.00118352      -0.00973238       0.01082385 </v>
   <v>       0.02448413       0.01567826      -0.01477647 </v>
   <v>      -0.00865273      -0.00519826       0.01382179 </v>
   <v>      -0.01209041       0.01263669      -0.01040088 </v>
   <v>      -0.03943636       0.02795972       0.01891414 </v>
   <v>      -0.01125411      -0.01471343      -0.00197669 </v>
   <v>       0.00449954       0.00803421       0.01864904 </v>
   <v>      -0.00534497       0.00352815      -0.00530022 </v>
   <v>       0.00318935      -0.04625799       0.00643909 </v>
  </varray>
  <varray name="stress" >
   <v>       0.57348825       0.01221519       0.05165757 </v>
   <v>       0.01221525       0.50086413       0.10319931 </v>
   <v>       0.05165759       0.10319928       0.46609230 </v>
  </varray>
  <energy>
   <i name="e_fr_energy">   -365.29382049 </i>
   <i name="e_wo_entrp">   -365.29900913 </i>
   <i name="e_0_energy">      0.01556592 </i>
  </energy>
  <time name="totalsc">    6.92    7.23</time>
 </calculation>
 <calculation>
  <scstep>
   <time name="dav">    0.86    0.87</time>
   <time name="total">    0.99    1.07</time>
   <energy>
    <i name="alphaZ">   1329.07763429 </i>
    <i name="ewald"> -15562.36832247 </i>
    <i name="hartreedc">  -5499.42516311 </i>
    <i name="XCdc">   -702.17424106 </i>
    <i name="pawpsdc">  30373.90686490 </i>
    <i name="pawaedc"> -28586.10414704 </i>
    <i name="eentropy">      0.01548488 </i>
    <i name="bandstr">  -1898.78594808 </i>
    <i name="atom">  20180.56195495 </i>
    <i name="e_fr_energy">   -365.29588274 </i>
    <i name="e_wo_entrp">   -365.31136762 </i>
    <i name="e_0_energy">   -365.30104436 </i>
   </energy>
  </scstep>
  <scstep>
   <time name="diag">    0.07    0.07</time>
   <time name="diis">    0.71    0.71</time>
   <time name="orth">    0.01    0.01</time>
   <time name="total">    0.85    0.87</time>
   <energy>
    <i name="e_fr_energy">   -365.29764824 </i>
    <i name="e_wo_entrp">   -365.31272821 </i>
    <i name="e_0_energy">   -365.30267490 </i>
   </energy>
  </scstep>
  <scstep>
   <time name="diag">    0.07    0.07</time>
   <time name="diis">    0.76    0.79</time>
   <time name="orth">    0.01    0.01</time>
   <time name="total">    0.94    0.99</time>
   <energy>
    <i name="e_fr_energy">   -365.29706690 </i>
    <i name="e_wo_entrp">   -365.31219341 </i>
    <i name="e_0_energy">   -365.30210907 </i>
   </energy>
  </scstep>
  <scstep>
   <time name="diag">    0.07    0.07</time>
   <time name="diis">    0.82    0.83</time>
   <time name="orth">    0.01    0.01</time>
   <time name="total">    0.96    0.99</time>
   <energy>
    <i name="e_fr_energy">   -365.29677133 </i>
    <i name="e_wo_entrp">   -365.31193773 </i>
    <i name="e_0_energy">   -365.30182680 </i>
   </energy>
  </scstep>
  <scstep>
   <time name="diag">    0.07    0.07</time>
   <time name="diis">    0.73    0.74</time>
   <time name="orth">    0.01    0.01</time>
   <time name="total">    0.87    0.90</time>
   <energy>
    <i name="e_fr_energy">   -365.29673663 </i>
    <i name="e_wo_entrp">   -365.31177546 </i>
    <i name="e_0_energy">   -365.30174957 </i>
   </energy>
  </scstep>
  <scstep>
   <time name="diag">    0.07    0.07</time>
   <time name="diis">    0.70    0.70</time>
   <time name="orth">    0.01    0.01</time>
   <time name="total">    0.84    0.87</time>
   <energy>
    <i name="e_fr_energy">   -365.29674902 </i>
    <i name="e_wo_entrp">   -365.31184666 </i>
    <i name="e_0_energy">   -365.30178157 </i>
   </energy>
  </scstep>
  <scstep>
   <time name="diag">    0.07    0.07</time>
   <time name="diis">    0.52    0.52</time>
   <time name="orth">    0.01    0.01</time>
   <time name="total">    0.67    0.69</time>
   <energy>
    <i name="e_fr_energy">   -365.29675719 </i>
    <i name="e_wo_entrp">   -365.31185422 </i>
    <i name="e_0_energy">   -365.30178954 </i>
   </energy>
  </scstep>
  <scstep>
   <time name="diag">    0.07    0.07</time>
   <time name="diis">    0.47    0.47</time>
   <time name="orth">    0.01    0.01</time>
   <time name="total">    0.61    0.63</time>
   <energy>
    <i name="e_fr_energy">   -365.29676737 </i>
    <i name="e_wo_entrp">   -365.31183259 </i>
    <i name="e_0_energy">   -365.30178911 </i>
   </energy>
  </scstep>
  <scstep>
   <time name="diag">    0.07    0.07</time>
   <time name="diis">    0.36    0.37</time>
   <time name="orth">    0.01    0.01</time>
   <time name="total">    0.48    0.49</time>
   <energy>
    <i name="alphaZ">   1329.07763429 </i>
    <i name="ewald"> -15562.36832247 </i>
    <i name="hartreedc">  -5496.38212950 </i>
    <i name="XCdc">   -702.29769805 </i>
    <i name="pawpsdc">  30418.56829338 </i>
    <i name="pawaedc"> -28630.71473639 </i>
    <i name="eentropy">      0.01508588 </i>
    <i name="bandstr">  -1901.75685331 </i>
    <i name="atom">  20180.56195495 </i>
    <i name="e_fr_energy">   -365.29677121 </i>
    <i name="e_wo_entrp">   -365.31185709 </i>
    <i name="e_0_energy">   -365.30179984 </i>
   </energy>
  </scstep>
  <structure>
   <crystal>
    <varray name="basis" >
     <v>       6.99664368      -0.01179922      -0.00847557 </v>
     <v>      -0.01712250      10.25206752       0.04832111 </v>
     <v>      -0.01192390       0.04764218      10.22954740 </v>
    </varray>
    <i name="volume">    733.74688842 </i>
    <varray name="rec_basis" >
     <v>       0.14292627       0.00023793       0.00016549 </v>
     <v>       0.00016395       0.09754371      -0.00045410 </v>
     <v>       0.00011765      -0.00046057       0.09775832 </v>
    </varray>
   </crystal>
   <varray name="positions" >
    <v>       0.74386312       0.83247429       0.16883465 </v>
    <v>       0.23718884       0.16790809       0.50473125 </v>
    <v>       0.03822317       0.33332920       0.34142480 </v>
    <v>       0.27340831       0.49859426       0.83304332 </v>
    <v>       0.25205915       0.82699875       0.15164222 </v>
    <v>       0.48763306       0.32602974       0.66910238 </v>
    <v>       0.48177572       0.32437684       0.99443182 </v>
    <v>       0.27539075       0.50536601       0.50314443 </v>
    <v>       0.49217797       0.66860536       0.31504643 </v>
    <v>       0.50376631       0.99875100       0.99983162 </v>
    <v>       0.49540009       0.65537345       0.67864326 </v>
    <v>       0.74551522       0.82218871       0.82835859 </v>
    <v>       0.76124707       0.49548105       0.17096663 </v>
    <v>       0.24897918       0.82864605       0.84215950 </v>
    <v>       0.72590878       0.82843459       0.50568065 </v>
    <v>       0.73617779       0.49461461       0.83774509 </v>
    <v>       0.23064567       0.50820518       0.15779229 </v>
    <v>       0.00987197       0.68085957       0.33760562 </v>
    <v>       0.76150610       0.17657616       0.48891993 </v>
    <v>       0.46072369       0.33221626       0.33263496 </v>
    <v>       0.01353297       0.99417484       0.32934956 </v>
    <v>       0.51490424       0.67159314       0.00705804 </v>
    <v>       0.50917649       0.01498427       0.67901411 </v>
    <v>       0.25049079       0.16581958       0.15945130 </v>
    <v>       0.97914025       0.67774218       0.00231284 </v>
    <v>       0.73144237       0.18045716       0.83880274 </v>
    <v>       0.26753960       0.16302389       0.83551651 </v>
    <v>       0.73582623       0.49530514       0.49134071 </v>
    <v>       0.98947334       0.00037023       0.00010841 </v>
    <v>       0.01860875       0.32265735       0.98603385 </v>
    <v>       0.01062030       0.65773238       0.66390924 </v>
    <v>       0.48352980       0.00121572       0.32164832 </v>
    <v>       0.98989861       0.00534183       0.67419096 </v>
    <v>       0.28119761       0.82749105       0.50862110 </v>
    <v>       0.01401286       0.33749737       0.66840416 </v>
    <v>       0.74913885       0.17957170       0.17249671 </v>
   </varray>
  </structure>
  <varray name="forces" >
   <v>      -0.01285212      -0.01210888       0.03375862 </v>
   <v>      -0.00480132      -0.00494960       0.01549838 </v>
   <v>      -0.02149054       0.00992357      -0.00262742 </v>
   <v>      -0.01933659       0.00031015      -0.00758910 </v>
   <v>       0.02269023       0.01004517      -0.01125258 </v>
   <v>       0.00117878      -0.00498918      -0.00517976 </v>
   <v>       0.01804511       0.00216100       0.01974254 </v>
   <v>       0.01080838       0.00429797       0.00671960 </v>
   <v>      -0.03438149      -0.02107636       0.00177177 </v>
   <v>      -0.01030501      -0.01274694      -0.00057572 </v>
   <v>       0.02558513       0.01705537       0.00140205 </v>
   <v>       0.01908404       0.00306298       0.03687147 </v>
   <v>       0.01686190       0.00739687       0.00469589 </v>
   <v>       0.00104729       0.00720878      -0.01181759 </v>
   <v>      -0.01287057       0.01987518      -0.07717123 </v>
   <v>       0.01472310       0.00755277      -0.00607688 </v>
   <v>      -0.02177729      -0.00765130      -0.01209148 </v>
   <v>       0.03860227      -0.00015923       0.01339637 </v>
   <v>      -0.00684915      -0.00948193      -0.00238221 </v>
   <v>       0.03225917      -0.00093165      -0.01450471 </v>
   <v>       0.01198648      -0.00906967       0.00381781 </v>
   <v>      -0.03712329      -0.01104096      -0.01530102 </v>
   <v>       0.02012197      -0.03547312      -0.00480559 </v>
   <v>      -0.01076226       0.01628073      -0.00212990 </v>
   <v>       0.01635262      -0.00496296      -0.01010213 </v>
   <v>       0.01801678      -0.00336870       0.00539601 </v>
   <v>      -0.00165641       0.00615122      -0.00929754 </v>
   <v>       0.00673356       0.00945401       0.00759666 </v>
   <v>       0.00861053      -0.00878315      -0.00273134 </v>
   <v>      -0.01962608      -0.00123863       0.01208358 </v>
   <v>      -0.02226299       0.00995857      -0.00774951 </v>
   <v>      -0.04648001       0.02098014       0.02016432 </v>
   <v>      -0.01302494      -0.01894696      -0.00073698 </v>
   <v>       0.01267058       0.01404484       0.02290760 </v>
   <v>      -0.00036748       0.00580765      -0.00307127 </v>
   <v>       0.00058962      -0.00458773       0.00137128 </v>
  </varray>
  <varray name="stress" >
   <v>       1.86868662       0.05781080       0.26922566 </v>
   <v>       0.05781075       1.83663707      -0.23930562 </v>
   <v>       0.26922563      -0.23930561       1.89826932 </v>
  </varray>
  <energy>
   <i name="e_fr_energy">   -365.29677121 </i>
   <i name="e_wo_entrp">   -365.30179984 </i>
   <i name="e_0_energy">      0.01508588 </i>
  </energy>
  <time name="totalsc">    8.69    9.09</time>
 </calculation>
 <calculation>
  <scstep>
   <time name="dav">    0.85    0.85</time>
   <time name="total">    0.96    1.05</time>
   <energy>
    <i name="alphaZ">   1327.99086726 </i>
    <i name="ewald"> -15557.99231841 </i>
    <i name="hartreedc">  -5495.03432270 </i>
    <i name="XCdc">   -702.48336080 </i>
    <i name="pawpsdc">  30418.81373956 </i>
    <i name="pawaedc"> -28630.93751447 </i>
    <i name="eentropy">      0.01518722 </i>
    <i name="bandstr">  -1906.23324586 </i>
    <i name="atom">  20180.56195495 </i>
    <i name="e_fr_energy">   -365.29901325 </i>
    <i name="e_wo_entrp">   -365.31420048 </i>
    <i name="e_0_energy">   -365.30407566 </i>
   </energy>
  </scstep>
  <scstep>
   <time name="diag">    0.08    0.08</time>
   <time name="diis">    0.77    0.77</time>
   <time name="orth">    0.01    0.01</time>
   <time name="total">    0.92    0.94</time>
   <energy>
    <i name="e_fr_energy">   -365.29864707 </i>
    <i name="e_wo_entrp">   -365.31386397 </i>
    <i name="e_0_energy">   -365.30371937 </i>
   </energy>
  </scstep>
  <scstep>
   <time name="diag">    0.07    0.07</time>
   <time name="diis">    0.73    0.73</time>
   <time name="orth">    0.01    0.01</time>
   <time name="total">    0.87    0.89</time>
   <energy>
    <i name="e_fr_energy">   -365.29834805 </i>
    <i name="e_wo_entrp">   -365.31357349 </i>
    <i name="e_0_energy">   -365.30342320 </i>
   </energy>
  </scstep>
  <scstep>
   <time name="diag">    0.07    0.07</time>
   <time name="diis">    0.79    0.79</time>
   <time name="orth">    0.01    0.01</time>
   <time name="total">    0.96    1.00</time>
   <energy>
    <i name="e_fr_energy">   -365.29814937 </i>
    <i name="e_wo_entrp">   -365.31335727 </i>
    <i name="e_0_energy">   -365.30321867 </i>
   </energy>
  </scstep>
  <scstep>
   <time name="diag">    0.07    0.07</time>
   <time name="diis">    0.74    0.74</time>
   <time name="orth">    0.01    0.01</time>
   <time name="total">    0.88    0.91</time>
   <energy>
    <i name="e_fr_energy">   -365.29811426 </i>
    <i name="e_wo_entrp">   -365.31333345 </i>
    <i name="e_0_energy">   -365.30318732 </i>
   </energy>
  </scstep>
  <scstep>
   <time name="diag">    0.07    0.07</time>
   <time name="diis">    0.53    0.53</time>
   <time name="orth">    0.01    0.01</time>
   <time name="total">    0.64    0.69</time>
   <energy>
    <i name="alphaZ">   1327.99086726 </i>
    <i name="ewald"> -15557.99231841 </i>
    <i name="hartreedc">  -5497.77811954 </i>
    <i name="XCdc">   -702.37138799 </i>
    <i name="pawpsdc">  30381.01653823 </i>
    <i name="pawaedc"> -28593.00438232 </i>
    <i name="eentropy">      0.01521404 </i>
    <i name="bandstr">  -1903.73647715 </i>
    <i name="atom">  20180.56195495 </i>
    <i name="e_fr_energy">   -365.29811094 </i>
    <i name="e_wo_entrp">   -365.31332498 </i>
    <i name="e_0_energy">   -365.30318229 </i>
   </energy>
  </scstep>
  <structure>
   <crystal>
    <varray name="basis" >
     <v>       6.99865272      -0.01175030      -0.00826201 </v>
     <v>      -0.01704946      10.25478159       0.04849338 </v>
     <v>      -0.01161117       0.04781429      10.23227157 </v>
    </varray>
    <i name="volume">    734.34735334 </i>
    <varray name="rec_basis" >
     <v>       0.14288523       0.00023680       0.00016103 </v>
     <v>       0.00016319       0.09751791      -0.00045551 </v>
     <v>       0.00011460      -0.00046197       0.09773230 </v>
    </varray>
   </crystal>
   <varray name="positions" >
    <v>       0.74371840       0.83240287       0.16897253 </v>
    <v>       0.23718268       0.16791371       0.50476087 </v>
    <v>       0.03819422       0.33334813       0.34140941 </v>
    <v>       0.27337445       0.49857628       0.83303802 </v>
    <v>       0.25216933       0.82702721       0.15163387 </v>
    <v>       0.48767273       0.32601261       0.66909411 </v>
    <v>       0.48182629       0.32437397       0.99445932 </v>
    <v>       0.27542889       0.50536101       0.50316448 </v>
    <v>       0.49209514       0.66856590       0.31500589 </v>
    <v>       0.50375756       0.99873738       0.99984634 </v>
    <v>       0.49545549       0.65542269       0.67865662 </v>
    <v>       0.74556044       0.82218657       0.82854552 </v>
    <v>       0.76128168       0.49563645       0.17098031 </v>
    <v>       0.24897058       0.82865101       0.84211507 </v>
    <v>       0.72589194       0.82846697       0.50540523 </v>
    <v>       0.73619966       0.49461205       0.83771607 </v>
    <v>       0.23059790       0.50815985       0.15775914 </v>
    <v>       0.01000314       0.68087752       0.33766271 </v>
    <v>       0.76148536       0.17658746       0.48893353 </v>
    <v>       0.46078059       0.33222262       0.33261391 </v>
    <v>       0.01358105       0.99415594       0.32934511 </v>
    <v>       0.51476042       0.67152825       0.00700788 </v>
    <v>       0.50921765       0.01492188       0.67902304 </v>
    <v>       0.25044850       0.16586406       0.15944688 </v>
    <v>       0.97922305       0.67770792       0.00224828 </v>
    <v>       0.73146786       0.18046902       0.83879420 </v>
    <v>       0.26753913       0.16304947       0.83550136 </v>
    <v>       0.73583467       0.49528574       0.49137030 </v>
    <v>       0.98956848       0.00040575       0.00006673 </v>
    <v>       0.01856788       0.32264469       0.98606945 </v>
    <v>       0.01056325       0.65776759       0.66388082 </v>
    <v>       0.48336319       0.00129078       0.32170255 </v>
    <v>       0.98984854       0.00529608       0.67418803 </v>
    <v>       0.28122108       0.82751290       0.50867757 </v>
    <v>       0.01399421       0.33750967       0.66839009 </v>
    <v>       0.74914956       0.17945499       0.17251277 </v>
   </varray>
  </structure>
  <varray name="forces" >
   <v>      -0.01125445      -0.01220076       0.02983791 </v>
   <v>      -0.00704194      -0.00086862       0.01463828 </v>
   <v>      -0.01670348       0.00865478       0.00064036 </v>
   <v>      -0.01568847       0.00046648      -0.01005758 </v>
   <v>       0.02107824       0.00717755      -0.01350917 </v>
   <v>      -0.00318884      -0.00476506      -0.00181658 </v>
   <v>       0.01487047       0.00148821       0.01474921 </v>
   <v>       0.01335515       0.00437352       0.00771123 </v>
   <v>      -0.03778429      -0.02140496       0.00198219 </v>
   <v>      -0.01155010      -0.01265097      -0.00252132 </v>
   <v>       0.02642285       0.01469107       0.00322148 </v>
   <v>       0.01874709      -0.00043036       0.03143479 </v>
   <v>       0.01788698       0.00059959       0.00396197 </v>
   <v>       0.00274497       0.00652674      -0.00983220 </v>
   <v>      -0.01507109       0.01753683      -0.07121488 </v>
   <v>       0.01128491       0.00878284      -0.00637262 </v>
   <v>      -0.02268529      -0.00730850      -0.01059235 </v>
   <v>       0.04072911      -0.00084864       0.01109076 </v>
   <v>      -0.00516295      -0.00970149      -0.00309656 </v>
   <v>       0.02680819      -0.00017153      -0.01359535 </v>
   <v>       0.01384147      -0.00882984       0.00280900 </v>
   <v>      -0.03326535      -0.00750392      -0.01423940 </v>
   <v>       0.02336784      -0.03296718      -0.00090782 </v>
   <v>      -0.00922228       0.01841833      -0.00245554 </v>
   <v>       0.01455683      -0.00003471      -0.00778558 </v>
   <v>       0.01258858      -0.00277619       0.00773924 </v>
   <v>       0.00402309       0.00682273      -0.00909930 </v>
   <v>       0.00470794       0.01242755       0.00717867 </v>
   <v>       0.00620320      -0.01296249      -0.00064448 </v>
   <v>      -0.01851734      -0.00278453       0.00803000 </v>
   <v>      -0.02220555       0.00954554      -0.00654767 </v>
   <v>      -0.04915647       0.02062886       0.01660443 </v>
   <v>      -0.01382302      -0.01727963       0.00063162 </v>
   <v>       0.01501575       0.01102583       0.02403044 </v>
   <v>       0.00409396       0.00496152      -0.00236242 </v>
   <v>      -0.00000570       0.00136143       0.00035923 </v>
  </varray>
  <varray name="stress" >
   <v>       0.88925950       0.06043449       0.24998552 </v>
   <v>       0.06043446       0.85190711      -0.24922095 </v>
   <v>       0.24998549      -0.24922098       0.94831023 </v>
  </varray>
  <energy>
   <i name="e_fr_energy">   -365.29811094 </i>
   <i name="e_wo_entrp">   -365.30318229 </i>
   <i name="e_0_energy">      0.01521404 </i>
  </energy>
  <time name="totalsc">    6.78    7.22</time>
 </calculation>
 <calculation>
  <scstep>
   <time name="dav">    0.84    0.85</time>
   <time name="total">    0.99    1.07</time>
   <energy>
    <i name="alphaZ">   1325.30699728 </i>
    <i name="ewald"> -15547.16678432 </i>
    <i name="hartreedc">  -5494.36848119 </i>
    <i name="XCdc">   -702.83420665 </i>
    <i name="pawpsdc">  30383.05194488 </i>
    <i name="pawaedc"> -28595.06338912 </i>
    <i name="eentropy">      0.01548554 </i>
    <i name="bandstr">  -1914.80808266 </i>
    <i name="atom">  20180.56195495 </i>
    <i name="e_fr_energy">   -365.30456131 </i>
    <i name="e_wo_entrp">   -365.32004685 </i>
    <i name="e_0_energy">   -365.30972315 </i>
   </energy>
  </scstep>
  <scstep>
   <time name="diag">    0.07    0.07</time>
   <time name="diis">    0.70    0.71</time>
   <time name="orth">    0.01    0.01</time>
   <time name="total">    0.85    0.87</time>
   <energy>
    <i name="e_fr_energy">   -365.30227848 </i>
    <i name="e_wo_entrp">   -365.31781766 </i>
    <i name="e_0_energy">   -365.30745821 </i>
   </energy>
  </scstep>
  <scstep>
   <time name="diag">    0.07    0.07</time>
   <time name="diis">    0.67    0.80</time>
   <time name="orth">    0.01    0.01</time>
   <time name="total">    0.81    0.96</time>
   <energy>
    <i name="e_fr_energy">   -365.30045889 </i>
    <i name="e_wo_entrp">   -365.31602504 </i>
    <i name="e_0_energy">   -365.30564761 </i>
   </energy>
  </scstep>
  <scstep>
   <time name="diag">    0.07    0.07</time>
   <time name="diis">    0.72    0.73</time>
   <time name="orth">    0.01    0.01</time>
   <time name="total">    0.86    0.89</time>
   <energy>
    <i name="e_fr_energy">   -365.29932918 </i>
    <i name="e_wo_entrp">   -365.31485812 </i>
    <i name="e_0_energy">   -365.30450550 </i>
   </energy>
  </scstep>
  <scstep>
   <time name="diag">    0.07    0.07</time>
   <time name="diis">    0.72    0.72</time>
   <time name="orth">    0.01    0.01</time>
   <time name="total">    0.86    0.88</time>
   <energy>
    <i name="e_fr_energy">   -365.29914932 </i>
    <i name="e_wo_entrp">   -365.31469935 </i>
    <i name="e_0_energy">   -365.30433267 </i>
   </energy>
  </scstep>
  <scstep>
   <time name="diag">    0.11    0.11</time>
   <time name="diis">    0.68    0.68</time>
   <time name="orth">    0.01    0.01</time>
   <time name="total">    0.87    0.89</time>
   <energy>
    <i name="e_fr_energy">   -365.29916758 </i>
    <i name="e_wo_entrp">   -365.31470749 </i>
    <i name="e_0_energy">   -365.30434755 </i>
   </energy>
  </scstep>
  <scstep>
   <time name="diag">    0.07    0.07</time>
   <time name="diis">    0.61    0.61</time>
   <time name="orth">    0.01    0.01</time>
   <time name="total">    0.77    0.80</time>
   <energy>
    <i name="e_fr_energy">   -365.29915740 </i>
    <i name="e_wo_entrp">   -365.31468731 </i>
    <i name="e_0_energy">   -365.30433404 </i>
   </energy>
  </scstep>
  <scstep>
   <time name="diag">    0.11    0.11</time>
   <time name="diis">    0.54    0.54</time>
   <time name="orth">    0.01    0.01</time>
   <time name="total">    0.75    0.77</time>
   <energy>
    <i name="e_fr_energy">   -365.29915809 </i>
    <i name="e_wo_entrp">   -365.31470787 </i>
    <i name="e_0_energy">   -365.30434135 </i>
   </energy>
  </scstep>
  <scstep>
   <time name="diag">    0.11    0.11</time>
   <time name="diis">    0.41    0.41</time>
   <time name="orth">    0.01    0.01</time>
   <time name="total">    0.57    0.59</time>
   <energy>
    <i name="alphaZ">   1325.30699728 </i>
    <i name="ewald"> -15547.16678432 </i>
    <i name="hartreedc">  -5500.64830900 </i>
    <i name="XCdc">   -702.58021022 </i>
    <i name="pawpsdc">  30294.00497574 </i>
    <i name="pawaedc"> -28506.07994799 </i>
    <i name="eentropy">      0.01553392 </i>
    <i name="bandstr">  -1908.71336782 </i>
    <i name="atom">  20180.56195495 </i>
    <i name="e_fr_energy">   -365.29915747 </i>
    <i name="e_wo_entrp">   -365.31469139 </i>
    <i name="e_0_energy">   -365.30433545 </i>
   </energy>
  </scstep>
  <structure>
   <crystal>
    <varray name="basis" >
     <v>       7.00362365      -0.01162924      -0.00773362 </v>
     <v>      -0.01686875      10.26149698       0.04891963 </v>
     <v>      -0.01083738       0.04824013      10.23901195 </v>
    </varray>
    <i name="volume">    735.83447506 </i>
    <varray name="rec_basis" >
     <v>       0.14278378       0.00023401       0.00015003 </v>
     <v>       0.00016131       0.09745412      -0.00045898 </v>
     <v>       0.00010708      -0.00046544       0.09766798 </v>
    </varray>
   </crystal>
   <varray name="positions" >
    <v>       0.74336039       0.83222621       0.16931358 </v>
    <v>       0.23716744       0.16792760       0.50483415 </v>
    <v>       0.03812262       0.33339494       0.34137133 </v>
    <v>       0.27329069       0.49853181       0.83302491 </v>
    <v>       0.25244186       0.82709760       0.15161321 </v>
    <v>       0.48777087       0.32597024       0.66907365 </v>
    <v>       0.48195140       0.32436685       0.99452734 </v>
    <v>       0.27552323       0.50534866       0.50321407 </v>
    <v>       0.49189025       0.66846829       0.31490562 </v>
    <v>       0.50373593       0.99870370       0.99988276 </v>
    <v>       0.49559253       0.65554450       0.67868965 </v>
    <v>       0.74567229       0.82218128       0.82900792 </v>
    <v>       0.76136730       0.49602085       0.17101416 </v>
    <v>       0.24894931       0.82866330       0.84200517 </v>
    <v>       0.72585032       0.82854708       0.50472394 </v>
    <v>       0.73625374       0.49460571       0.83764428 </v>
    <v>       0.23047975       0.50804773       0.15767715 </v>
    <v>       0.01032759       0.68092192       0.33780391 </v>
    <v>       0.76143407       0.17661541       0.48896716 </v>
    <v>       0.46092133       0.33223835       0.33256182 </v>
    <v>       0.01369997       0.99410917       0.32933409 </v>
    <v>       0.51440466       0.67136773       0.00688383 </v>
    <v>       0.50931947       0.01476757       0.67904512 </v>
    <v>       0.25034390       0.16597410       0.15943595 </v>
    <v>       0.97942787       0.67762315       0.00208860 </v>
    <v>       0.73153092       0.18049835       0.83877306 </v>
    <v>       0.26753795       0.16311273       0.83546386 </v>
    <v>       0.73585555       0.49523776       0.49144348 </v>
    <v>       0.98980384       0.00049363      -0.00003639 </v>
    <v>       0.01846680       0.32261337       0.98615752 </v>
    <v>       0.01042215       0.65785469       0.66381053 </v>
    <v>       0.48295107       0.00147645       0.32183672 </v>
    <v>       0.98972470       0.00518292       0.67418078 </v>
    <v>       0.28127912       0.82756693       0.50881726 </v>
    <v>       0.01394809       0.33754010       0.66835529 </v>
    <v>       0.74917605       0.17916629       0.17255250 </v>
   </varray>
  </structure>
  <varray name="forces" >
   <v>      -0.00665524      -0.01116151       0.02053821 </v>
   <v>      -0.01255461       0.00747098       0.00996373 </v>
   <v>      -0.00714424       0.00217514       0.00886982 </v>
   <v>      -0.00640898       0.00019790      -0.01489245 </v>
   <v>       0.01666631       0.00116631      -0.01638637 </v>
   <v>      -0.01501515      -0.00653175       0.00507548 </v>
   <v>       0.00751758      -0.00293461       0.00545601 </v>
   <v>       0.02175783       0.00387466       0.00661699 </v>
   <v>      -0.04477433      -0.01931818       0.00120908 </v>
   <v>      -0.01256916      -0.01264806      -0.00485849 </v>
   <v>       0.02657302       0.00980219       0.00724381 </v>
   <v>       0.01978737      -0.00763669       0.02064197 </v>
   <v>       0.02105686      -0.01549500       0.00318077 </v>
   <v>       0.00479695       0.00631934      -0.00408277 </v>
   <v>      -0.02184723       0.01468791      -0.06132752 </v>
   <v>       0.00418092       0.01187321      -0.00483685 </v>
   <v>      -0.02627947      -0.00496343      -0.00709675 </v>
   <v>       0.04575188      -0.00089985       0.00343117 </v>
   <v>      -0.00070351      -0.01177091      -0.00759189 </v>
   <v>       0.01456141      -0.00277175      -0.01216983 </v>
   <v>       0.01758436      -0.00640515       0.00021249 </v>
   <v>      -0.02347510       0.00377384      -0.00809826 </v>
   <v>       0.03053793      -0.02646731       0.00527705 </v>
   <v>      -0.00617935       0.02211316      -0.00242972 </v>
   <v>       0.00734963       0.01332204       0.00396446 </v>
   <v>       0.00040229      -0.00209275       0.01244557 </v>
   <v>       0.01817261       0.00795743      -0.00815180 </v>
   <v>      -0.00109368       0.01931146       0.00440352 </v>
   <v>      -0.00083968      -0.02380352       0.00762660 </v>
   <v>      -0.01513502      -0.00585106       0.00130132 </v>
   <v>      -0.02117424       0.01017628      -0.00458205 </v>
   <v>      -0.05211643       0.01911446       0.00805126 </v>
   <v>      -0.01568157      -0.01336383       0.00135503 </v>
   <v>       0.02028243       0.00473680       0.02389311 </v>
   <v>       0.01452504       0.00164345      -0.00281118 </v>
   <v>      -0.00185742       0.01439880      -0.00144152 </v>
  </varray>
  <varray name="stress" >
   <v>      -1.90012294       0.05643863       0.23439699 </v>
   <v>       0.05643866      -1.91597587      -0.23539189 </v>
   <v>       0.23439693      -0.23539194      -1.87256787 </v>
  </varray>
  <energy>
   <i name="e_fr_energy">   -365.29915747 </i>
   <i name="e_wo_entrp">   -365.30433545 </i>
   <i name="e_0_energy">      0.01553392 </i>
  </energy>
  <time name="totalsc">    8.78    9.27</time>
 </calculation>
 <calculation>
  <scstep>
   <time name="dav">    0.85    0.98</time>
   <time name="total">    1.00    1.26</time>
   <energy>
    <i name="alphaZ">   1325.21012385 </i>
    <i name="ewald"> -15546.77407961 </i>
    <i name="hartreedc">  -5500.49404125 </i>
    <i name="XCdc">   -702.59867060 </i>
    <i name="pawpsdc">  30293.45953258 </i>
    <i name="pawaedc"> -28505.59941856 </i>
    <i name="eentropy">      0.01562108 </i>
    <i name="bandstr">  -1909.08074688 </i>
    <i name="atom">  20180.56195495 </i>
    <i name="e_fr_energy">   -365.29972444 </i>
    <i name="e_wo_entrp">   -365.31534551 </i>
    <i name="e_0_energy">   -365.30493146 </i>
   </energy>
  </scstep>
  <scstep>
   <time name="diag">    0.07    0.07</time>
   <time name="diis">    0.75    0.76</time>
   <time name="orth">    0.01    0.01</time>
   <time name="total">    0.89    0.91</time>
   <energy>
    <i name="e_fr_energy">   -365.29989137 </i>
    <i name="e_wo_entrp">   -365.31550042 </i>
    <i name="e_0_energy">   -365.30509439 </i>
[...]
       <r>    6.1766    1.0000 </r>
       <r>    6.2082    1.0000 </r>
       <r>    6.2449    1.0000 </r>
       <r>    6.2909    1.0000 </r>
       <r>    6.3425    1.0000 </r>
       <r>    6.3974    1.0000 </r>
       <r>    6.4205    1.0000 </r>
       <r>    6.4501    1.0000 </r>
       <r>    6.5186    1.0001 </r>
       <r>    6.5573    1.0003 </r>
       <r>    6.5733    1.0005 </r>
       <r>    6.6184    1.0020 </r>
       <r>    6.6534    1.0050 </r>
       <r>    6.7007    1.0135 </r>
       <r>    6.7160    1.0176 </r>
       <r>    6.7505    1.0280 </r>
       <r>    6.7858    1.0353 </r>
       <r>    6.8350    1.0160 </r>
       <r>    6.8509    0.9956 </r>
       <r>    6.8838    0.9215 </r>
       <r>    6.9166    0.8005 </r>
       <r>    6.9738    0.5029 </r>
       <r>    7.0141    0.2840 </r>
       <r>    7.0533    0.1156 </r>
       <r>    7.0748    0.0511 </r>
       <r>    7.1049   -0.0059 </r>
       <r>    7.1522   -0.0352 </r>
       <r>    7.1812   -0.0325 </r>
       <r>    7.1858   -0.0314 </r>
       <r>    7.2349   -0.0170 </r>
       <r>    7.2706   -0.0086 </r>
       <r>    7.3179   -0.0028 </r>
       <r>    7.3610   -0.0008 </r>
       <r>    7.3931   -0.0003 </r>
       <r>    7.4733   -0.0000 </r>
       <r>    7.4856   -0.0000 </r>
       <r>    7.5278   -0.0000 </r>
       <r>    7.5578   -0.0000 </r>
       <r>    7.5953   -0.0000 </r>
       <r>    7.6505   -0.0000 </r>
       <r>    7.6760   -0.0000 </r>
       <r>    7.7611   -0.0000 </r>
       <r>    7.7848   -0.0000 </r>
       <r>    7.8136   -0.0000 </r>
       <r>    7.9022   -0.0000 </r>
       <r>    8.1569   -0.0000 </r>
       <r>    8.2000   -0.0000 </r>
       <r>    8.3214   -0.0000 </r>
       <r>    8.8634   -0.0000 </r>
      </set>
     </set>
    </set>
   </array>
  </eigenvalues>
  <separator name="orbital magnetization" >
   <v name="MAGDIPOLOUT">      0.00000000      0.00000000      0.00000000</v>
  </separator>
  <dos>
   <i name="efermi">      6.97431661 </i>
   <total>
    <array>
     <dimension dim="1">gridpoints</dimension>
     <dimension dim="2">spin</dimension>
     <field>energy</field>
     <field>total</field>
     <field>integrated</field>
     <set>
      <set comment="spin 1">
       <r>   -49.9702     0.0000     0.0000 </r>
       <r>   -49.7647     0.0000     0.0000 </r>
       <r>   -49.5593     0.0000     0.0000 </r>
       <r>   -49.3538     0.0000     0.0000 </r>
       <r>   -49.1484     0.0000     0.0000 </r>
       <r>   -48.9429     0.0000     0.0000 </r>
       <r>   -48.7375     0.0000     0.0000 </r>
       <r>   -48.5320    -0.0000    -0.0000 </r>
       <r>   -48.3266    -0.0000    -0.0000 </r>
       <r>   -48.1211    -0.0000    -0.0000 </r>
       <r>   -47.9157    -0.0000    -0.0000 </r>
       <r>   -47.7102    -0.0000    -0.0000 </r>
       <r>   -47.5048    -0.0513    -0.0106 </r>
       <r>   -47.2993    -0.9439    -0.2045 </r>
       <r>   -47.0939    25.4615     5.0266 </r>
       <r>   -46.8884    15.4432     8.1994 </r>
       <r>   -46.6830    -0.9597     8.0023 </r>
       <r>   -46.4775    -0.0110     8.0000 </r>
       <r>   -46.2721    -0.0000     8.0000 </r>
       <r>   -46.0666    -0.0000     8.0000 </r>
       <r>   -45.8612     0.0000     8.0000 </r>
       <r>   -45.6557     0.0000     8.0000 </r>
       <r>   -45.4503     0.0000     8.0000 </r>
       <r>   -45.2448     0.0000     8.0000 </r>
       <r>   -45.0394     0.0000     8.0000 </r>
       <r>   -44.8339     0.0000     8.0000 </r>
       <r>   -44.6285     0.0000     8.0000 </r>
       <r>   -44.4230     0.0000     8.0000 </r>
       <r>   -44.2176     0.0000     8.0000 </r>
       <r>   -44.0121     0.0000     8.0000 </r>
       <r>   -43.8067     0.0000     8.0000 </r>
       <r>   -43.6012     0.0000     8.0000 </r>
       <r>   -43.3958     0.0000     8.0000 </r>
       <r>   -43.1903     0.0000     8.0000 </r>
       <r>   -42.9849     0.0000     8.0000 </r>
       <r>   -42.7794     0.0000     8.0000 </r>
       <r>   -42.5740    -0.0000     8.0000 </r>
       <r>   -42.3685    -0.0000     8.0000 </r>
       <r>   -42.1631    -0.0000     8.0000 </r>
       <r>   -41.9576    -0.0000     8.0000 </r>
       <r>   -41.7522    -0.0015     7.9997 </r>
       <r>   -41.5467    -0.4533     7.9066 </r>
       <r>   -41.3413     4.2233     8.7742 </r>
       <r>   -41.1358    46.8490    18.3994 </r>
       <r>   -40.9304    35.6137    25.7163 </r>
       <r>   -40.7249     1.6314    26.0515 </r>
       <r>   -40.5195    -0.2500    26.0001 </r>
       <r>   -40.3140    -0.0005    26.0000 </r>
       <r>   -40.1086    -0.0000    26.0000 </r>
       <r>   -39.9031    -0.0000    26.0000 </r>
       <r>   -39.6977     0.0000    26.0000 </r>
       <r>   -39.4922     0.0000    26.0000 </r>
       <r>   -39.2868     0.0000    26.0000 </r>
       <r>   -39.0813     0.0000    26.0000 </r>
       <r>   -38.8759     0.0000    26.0000 </r>
       <r>   -38.6704     0.0000    26.0000 </r>
       <r>   -38.4650     0.0000    26.0000 </r>
       <r>   -38.2595     0.0000    26.0000 </r>
       <r>   -38.0541     0.0000    26.0000 </r>
       <r>   -37.8486     0.0000    26.0000 </r>
       <r>   -37.6432     0.0000    26.0000 </r>
       <r>   -37.4377     0.0000    26.0000 </r>
       <r>   -37.2322     0.0000    26.0000 </r>
       <r>   -37.0268     0.0000    26.0000 </r>
       <r>   -36.8213     0.0000    26.0000 </r>
       <r>   -36.6159     0.0000    26.0000 </r>
       <r>   -36.4104     0.0000    26.0000 </r>
       <r>   -36.2050     0.0000    26.0000 </r>
       <r>   -35.9995     0.0000    26.0000 </r>
       <r>   -35.7941     0.0000    26.0000 </r>
       <r>   -35.5886     0.0000    26.0000 </r>
       <r>   -35.3832     0.0000    26.0000 </r>
       <r>   -35.1777     0.0000    26.0000 </r>
       <r>   -34.9723     0.0000    26.0000 </r>
       <r>   -34.7668     0.0000    26.0000 </r>
       <r>   -34.5614     0.0000    26.0000 </r>
       <r>   -34.3559     0.0000    26.0000 </r>
       <r>   -34.1505     0.0000    26.0000 </r>
       <r>   -33.9450     0.0000    26.0000 </r>
       <r>   -33.7396     0.0000    26.0000 </r>
       <r>   -33.5341     0.0000    26.0000 </r>
       <r>   -33.3287     0.0000    26.0000 </r>
       <r>   -33.1232     0.0000    26.0000 </r>
       <r>   -32.9178     0.0000    26.0000 </r>
       <r>   -32.7123     0.0000    26.0000 </r>
       <r>   -32.5069     0.0000    26.0000 </r>
       <r>   -32.3014     0.0000    26.0000 </r>
       <r>   -32.0960     0.0000    26.0000 </r>
       <r>   -31.8905     0.0000    26.0000 </r>
       <r>   -31.6851     0.0000    26.0000 </r>
       <r>   -31.4796     0.0000    26.0000 </r>
       <r>   -31.2742     0.0000    26.0000 </r>
       <r>   -31.0687     0.0000    26.0000 </r>
       <r>   -30.8633     0.0000    26.0000 </r>
       <r>   -30.6578     0.0000    26.0000 </r>
       <r>   -30.4524     0.0000    26.0000 </r>
       <r>   -30.2469     0.0000    26.0000 </r>
       <r>   -30.0415     0.0000    26.0000 </r>
       <r>   -29.8360     0.0000    26.0000 </r>
       <r>   -29.6306     0.0000    26.0000 </r>
       <r>   -29.4251     0.0000    26.0000 </r>
       <r>   -29.2197     0.0000    26.0000 </r>
       <r>   -29.0142     0.0000    26.0000 </r>
       <r>   -28.8088     0.0000    26.0000 </r>
       <r>   -28.6033     0.0000    26.0000 </r>
       <r>   -28.3979     0.0000    26.0000 </r>
       <r>   -28.1924     0.0000    26.0000 </r>
       <r>   -27.9870     0.0000    26.0000 </r>
       <r>   -27.7815     0.0000    26.0000 </r>
       <r>   -27.5761     0.0000    26.0000 </r>
       <r>   -27.3706     0.0000    26.0000 </r>
       <r>   -27.1652     0.0000    26.0000 </r>
       <r>   -26.9597     0.0000    26.0000 </r>
       <r>   -26.7543     0.0000    26.0000 </r>
       <r>   -26.5488     0.0000    26.0000 </r>
       <r>   -26.3434     0.0000    26.0000 </r>
       <r>   -26.1379     0.0000    26.0000 </r>
       <r>   -25.9325     0.0000    26.0000 </r>
       <r>   -25.7270     0.0000    26.0000 </r>
       <r>   -25.5216     0.0000    26.0000 </r>
       <r>   -25.3161     0.0000    26.0000 </r>
       <r>   -25.1107     0.0000    26.0000 </r>
       <r>   -24.9052     0.0000    26.0000 </r>
       <r>   -24.6998    -0.0000    26.0000 </r>
       <r>   -24.4943    -0.0000    26.0000 </r>
       <r>   -24.2889    -0.0000    26.0000 </r>
       <r>   -24.0834    -0.0000    26.0000 </r>
       <r>   -23.8780    -0.0002    26.0000 </r>
       <r>   -23.6725    -0.1757    25.9639 </r>
       <r>   -23.4671    -1.2459    25.7079 </r>
       <r>   -23.2616    58.7348    37.7750 </r>
       <r>   -23.0561    61.9490    50.5025 </r>
       <r>   -22.8507    -2.3185    50.0261 </r>
       <r>   -22.6452    -0.1272    50.0000 </r>
       <r>   -22.4398    -0.0001    50.0000 </r>
       <r>   -22.2343    -0.0000    50.0000 </r>
       <r>   -22.0289     0.0000    50.0000 </r>
       <r>   -21.8234     0.0000    50.0000 </r>
       <r>   -21.6180     0.0000    50.0000 </r>
       <r>   -21.4125     0.0000    50.0000 </r>
       <r>   -21.2071     0.0000    50.0000 </r>
       <r>   -21.0016    -0.0000    50.0000 </r>
       <r>   -20.7962    -0.0000    50.0000 </r>
       <r>   -20.5907    -0.0000    50.0000 </r>
       <r>   -20.3853    -0.0000    50.0000 </r>
       <r>   -20.1798    -0.0002    50.0000 </r>
       <r>   -19.9744    -0.1254    49.9742 </r>
       <r>   -19.7689     0.3686    50.0499 </r>
       <r>   -19.5635    21.7747    54.5235 </r>
       <r>   -19.3580    58.1054    66.4614 </r>
       <r>   -19.1526   105.9095    88.2205 </r>
       <r>   -18.9471    68.4635   102.2864 </r>
       <r>   -18.7417     7.8728   103.9039 </r>
       <r>   -18.5362     0.5501   104.0169 </r>
       <r>   -18.3308    -0.0821   104.0000 </r>
       <r>   -18.1253    -0.0001   104.0000 </r>
       <r>   -17.9199    -0.0000   104.0000 </r>
       <r>   -17.7144    -0.0000   104.0000 </r>
       <r>   -17.5090     0.0000   104.0000 </r>
       <r>   -17.3035     0.0000   104.0000 </r>
       <r>   -17.0981     0.0000   104.0000 </r>
       <r>   -16.8926     0.0000   104.0000 </r>
       <r>   -16.6872     0.0000   104.0000 </r>
       <r>   -16.4817     0.0000   104.0000 </r>
       <r>   -16.2763     0.0000   104.0000 </r>
       <r>   -16.0708     0.0000   104.0000 </r>
       <r>   -15.8654     0.0000   104.0000 </r>
       <r>   -15.6599     0.0000   104.0000 </r>
       <r>   -15.4545     0.0000   104.0000 </r>
       <r>   -15.2490     0.0000   104.0000 </r>
       <r>   -15.0436     0.0000   104.0000 </r>
       <r>   -14.8381     0.0000   104.0000 </r>
       <r>   -14.6327     0.0000   104.0000 </r>
       <r>   -14.4272     0.0000   104.0000 </r>
       <r>   -14.2218     0.0000   104.0000 </r>
       <r>   -14.0163     0.0000   104.0000 </r>
       <r>   -13.8109     0.0000   104.0000 </r>
       <r>   -13.6054     0.0000   104.0000 </r>
       <r>   -13.4000     0.0000   104.0000 </r>
       <r>   -13.1945     0.0000   104.0000 </r>
       <r>   -12.9891     0.0000   104.0000 </r>
       <r>   -12.7836     0.0000   104.0000 </r>
       <r>   -12.5782     0.0000   104.0000 </r>
       <r>   -12.3727     0.0000   104.0000 </r>
       <r>   -12.1673     0.0000   104.0000 </r>
       <r>   -11.9618     0.0000   104.0000 </r>
       <r>   -11.7564     0.0000   104.0000 </r>
       <r>   -11.5509     0.0000   104.0000 </r>
       <r>   -11.3455     0.0000   104.0000 </r>
       <r>   -11.1400     0.0000   104.0000 </r>
       <r>   -10.9346     0.0000   104.0000 </r>
       <r>   -10.7291     0.0000   104.0000 </r>
       <r>   -10.5237     0.0000   104.0000 </r>
       <r>   -10.3182     0.0000   104.0000 </r>
       <r>   -10.1128     0.0000   104.0000 </r>
       <r>    -9.9073     0.0000   104.0000 </r>
       <r>    -9.7019     0.0000   104.0000 </r>
       <r>    -9.4964     0.0000   104.0000 </r>
       <r>    -9.2909     0.0000   104.0000 </r>
       <r>    -9.0855     0.0000   104.0000 </r>
       <r>    -8.8800     0.0000   104.0000 </r>
       <r>    -8.6746     0.0000   104.0000 </r>
       <r>    -8.4691     0.0000   104.0000 </r>
       <r>    -8.2637     0.0000   104.0000 </r>
       <r>    -8.0582     0.0000   104.0000 </r>
       <r>    -7.8528     0.0000   104.0000 </r>
       <r>    -7.6473     0.0000   104.0000 </r>
       <r>    -7.4419     0.0000   104.0000 </r>
       <r>    -7.2364     0.0000   104.0000 </r>
       <r>    -7.0310     0.0000   104.0000 </r>
       <r>    -6.8255     0.0000   104.0000 </r>
       <r>    -6.6201     0.0000   104.0000 </r>
       <r>    -6.4146     0.0000   104.0000 </r>
       <r>    -6.2092     0.0000   104.0000 </r>
       <r>    -6.0037     0.0000   104.0000 </r>
       <r>    -5.7983     0.0000   104.0000 </r>
       <r>    -5.5928     0.0000   104.0000 </r>
       <r>    -5.3874     0.0000   104.0000 </r>
       <r>    -5.1819     0.0000   104.0000 </r>
       <r>    -4.9765     0.0000   104.0000 </r>
       <r>    -4.7710     0.0000   104.0000 </r>
       <r>    -4.5656     0.0000   104.0000 </r>
       <r>    -4.3601     0.0000   104.0000 </r>
       <r>    -4.1547     0.0000   104.0000 </r>
       <r>    -3.9492     0.0000   104.0000 </r>
       <r>    -3.7438     0.0000   104.0000 </r>
       <r>    -3.5383     0.0000   104.0000 </r>
       <r>    -3.3329     0.0000   104.0000 </r>
       <r>    -3.1274     0.0000   104.0000 </r>
       <r>    -2.9220     0.0000   104.0000 </r>
       <r>    -2.7165     0.0000   104.0000 </r>
       <r>    -2.5111     0.0000   104.0000 </r>
       <r>    -2.3056     0.0000   104.0000 </r>
       <r>    -2.1002     0.0000   104.0000 </r>
       <r>    -1.8947     0.0000   104.0000 </r>
       <r>    -1.6893     0.0000   104.0000 </r>
       <r>    -1.4838     0.0000   104.0000 </r>
       <r>    -1.2784    -0.0000   104.0000 </r>
       <r>    -1.0729    -0.0000   104.0000 </r>
       <r>    -0.8675    -0.0000   104.0000 </r>
       <r>    -0.6620    -0.0000   104.0000 </r>
       <r>    -0.4566    -0.0000   104.0000 </r>
       <r>    -0.2511    -0.0019   103.9996 </r>
       <r>    -0.0457     0.0056   104.0008 </r>
       <r>     0.1598     0.3074   104.0639 </r>
       <r>     0.3652     1.2040   104.3113 </r>
       <r>     0.5707     1.7845   104.6779 </r>
       <r>     0.7761     2.3000   105.1505 </r>
       <r>     0.9816     3.6379   105.8979 </r>
       <r>     1.1870     3.2079   106.5569 </r>
       <r>     1.3925     3.0123   107.1758 </r>
       <r>     1.5979     4.3918   108.0781 </r>
       <r>     1.8034     3.4895   108.7950 </r>
       <r>     2.0088     3.0927   109.4304 </r>
       <r>     2.2143     7.2186   110.9135 </r>
       <r>     2.4197     8.0390   112.5651 </r>
       <r>     2.6252     8.4856   114.3085 </r>
       <r>     2.8306     6.3307   115.6091 </r>
       <r>     3.0361     8.4464   117.3445 </r>
       <r>     3.2415    13.6871   120.1565 </r>
       <r>     3.4470    20.7315   124.4158 </r>
       <r>     3.6524    21.0511   128.7408 </r>
       <r>     3.8579    23.9038   133.6518 </r>
       <r>     4.0633    30.5036   139.9188 </r>
       <r>     4.2688    31.1306   146.3146 </r>
       <r>     4.4743    38.3962   154.2031 </r>
       <r>     4.6797    37.4291   161.8930 </r>
       <r>     4.8852    33.3078   168.7361 </r>
       <r>     5.0906    34.3863   175.8008 </r>
       <r>     5.2961    31.7098   182.3156 </r>
       <r>     5.5015    14.8975   185.3763 </r>
       <r>     5.7070    34.7993   192.5258 </r>
       <r>     5.9124    58.6944   204.5846 </r>
       <r>     6.1179    60.0776   216.9276 </r>
       <r>     6.3233    57.0874   228.6563 </r>
       <r>     6.5288    54.8106   239.9172 </r>
       <r>     6.7342    57.1903   251.6669 </r>
       <r>     6.9397    52.3563   262.4236 </r>
       <r>     7.1451    45.5196   271.7756 </r>
       <r>     7.3506    49.7344   281.9936 </r>
       <r>     7.5560    48.0093   291.8571 </r>
       <r>     7.7615    36.8216   299.4222 </r>
       <r>     7.9669    29.8564   305.5562 </r>
       <r>     8.1724    22.8431   310.2493 </r>
       <r>     8.3778    19.9266   314.3432 </r>
       <r>     8.5833    11.5058   316.7071 </r>
       <r>     8.7887    12.0247   319.1776 </r>
       <r>     8.9942     4.2336   320.0474 </r>
       <r>     9.1996    -0.2240   320.0014 </r>
       <r>     9.4051    -0.0067   320.0000 </r>
       <r>     9.6105    -0.0000   320.0000 </r>
       <r>     9.8160    -0.0000   320.0000 </r>
       <r>    10.0214     0.0000   320.0000 </r>
       <r>    10.2269     0.0000   320.0000 </r>
       <r>    10.4323     0.0000   320.0000 </r>
       <r>    10.6378     0.0000   320.0000 </r>
       <r>    10.8432     0.0000   320.0000 </r>
       <r>    11.0487     0.0000   320.0000 </r>
       <r>    11.2541     0.0000   320.0000 </r>
       <r>    11.4596     0.0000   320.0000 </r>
       <r>    11.6650     0.0000   320.0000 </r>
      </set>
     </set>
    </array>
   </total>
  </dos>
 </calculation>
 <structure name="finalpos" >
  <crystal>
   <varray name="basis" >
    <v>       6.99661150      -0.01708372       0.01927218 </v>
    <v>      -0.02465787      10.26181067       0.04367694 </v>
    <v>       0.02854733       0.04312354      10.22482033 </v>
   </varray>
   <i name="volume">    734.09748070 </i>
   <varray name="rec_basis" >
    <v>       0.14292828       0.00034514      -0.00040051 </v>
    <v>       0.00023908       0.09745102      -0.00041167 </v>
    <v>      -0.00027042      -0.00041693       0.09780374 </v>
   </varray>
  </crystal>
  <varray name="positions" >
   <v>       0.74256656       0.83057141       0.17509454 </v>
   <v>       0.26228818       0.16657621       0.50826612 </v>
   <v>       0.03523757       0.33049197       0.34648803 </v>
   <v>       0.27009256       0.49926859       0.83088900 </v>
   <v>       0.24777841       0.82786539       0.15046954 </v>
   <v>       0.49076100       0.32758087       0.67185384 </v>
   <v>       0.48079000       0.32549475       0.99390976 </v>
   <v>       0.27780999       0.50500952       0.50626130 </v>
   <v>       0.48124453       0.66595329       0.31536064 </v>
   <v>       0.50402676       0.99795814       0.99997375 </v>
   <v>       0.50311876       0.65905577       0.67925123 </v>
   <v>       0.75278017       0.82064144       0.83682650 </v>
   <v>       0.75962396       0.49703010       0.17146446 </v>
   <v>       0.24838000       0.82872750       0.84052530 </v>
   <v>       0.72677975       0.82964583       0.49180810 </v>
   <v>       0.73883028       0.49655250       0.83813112 </v>
   <v>       0.22342241       0.50466041       0.15522970 </v>
   <v>       0.01903559       0.67771146       0.34045949 </v>
   <v>       0.74161473       0.17580058       0.48772498 </v>
   <v>       0.45960736       0.33582285       0.32792287 </v>
   <v>       0.01623502       0.99830717       0.33153603 </v>
   <v>       0.50977063       0.67087014       0.00776257 </v>
   <v>       0.52263361       0.00840115       0.68430582 </v>
   <v>       0.24394903       0.16933872       0.15819674 </v>
   <v>       0.98103732       0.67786136       0.00367765 </v>
   <v>       0.73472578       0.17993790       0.83950756 </v>
   <v>       0.26834411       0.16275095       0.83250093 </v>
   <v>       0.73508248       0.49607555       0.49218122 </v>
   <v>       0.98897063       0.00052597       0.00062977 </v>
   <v>       0.01518184       0.32047360       0.98393265 </v>
   <v>       0.00601613       0.66049813       0.66124774 </v>
   <v>       0.47447140       0.00292426       0.31747861 </v>
   <v>       0.99113331       0.00474227       0.67070456 </v>
   <v>       0.28337901       0.83131789       0.51196350 </v>
   <v>       0.01393354       0.33496432       0.66394791 </v>
   <v>       0.74934259       0.17859904       0.17251448 </v>
  </varray>
 </structure>
</modeling>
