<?xml version="1.0" encoding="ISO-8859-1"?>
<modeling>
 <generator>
  <i name="program" type="string">vasp </i>
  <i name="version" type="string">5.4.1  </i>
  <i name="subversion" type="string">05Feb16 (build Jan 29 2020 16:04:39) complex                          parallel </i>
  <i name="platform" type="string">IFC91_ompi </i>
  <i name="date" type="string">2020 06 15 </i>
  <i name="time" type="string">12:11:59 </i>
 </generator>
 <incar>
  <i type="string" name="SYSTEM"> automatically generated by mexm</i>
  <i type="int" name="ISTART">     0</i>
  <i type="string" name="PREC">accurate               ! avoid wrap aro</i>
  <i type="string" name="ALGO"> Fast                   ! blocked Davids</i>
  <i type="int" name="ISPIN">     1</i>
  <i type="int" name="ICHARG">     2</i>
  <i type="int" name="NELM">    70</i>
  <i type="int" name="IBRION">     2</i>
  <i name="EDIFF">      0.00001000</i>
  <i name="EDIFFG">     -0.01000000</i>
  <i type="int" name="NSW">   300</i>
  <i type="int" name="ISIF">     3</i>
  <i type="int" name="ISYM">     1</i>
  <i name="ENCUT">    300.00000000</i>
  <i name="POTIM">      0.15000000</i>
  <i type="string" name="LREAL"> Auto                  ! unpublished met</i>
  <i type="int" name="ISMEAR">     1</i>
  <i name="SIGMA">      0.15000000</i>
  <i type="logical" name="LWAVE"> F  </i>
  <i type="logical" name="LCHARG"> F  </i>
  <i type="logical" name="LVTOT"> F  </i>
  <v type="int" name="KPOINT_BSE">    -1     0     0     0</v>
  <i type="int" name="NELM">    70</i>
 </incar>
 <kpoints>
  <generation param="Gamma">
   <v type="int" name="divisions">       3        3        3 </v>
   <v name="usershift">      0.00000000       0.00000000       0.00000000 </v>
   <v name="genvec1">      0.33333333       0.00000000       0.00000000 </v>
   <v name="genvec2">     -0.00000000       0.33333333      -0.00000000 </v>
   <v name="genvec3">      0.00000000      -0.00000000       0.33333333 </v>
   <v name="shift">      0.00000000       0.00000000       0.00000000 </v>
  </generation>
  <varray name="kpointlist" >
   <v>       0.00000000       0.00000000       0.00000000 </v>
   <v>       0.33333333       0.00000000      -0.00000000 </v>
   <v>      -0.00000000       0.33333333       0.00000000 </v>
   <v>       0.33333333       0.33333333      -0.00000000 </v>
   <v>      -0.33333333       0.33333333       0.00000000 </v>
   <v>       0.00000000       0.00000000       0.33333333 </v>
   <v>       0.33333333      -0.00000000       0.33333333 </v>
   <v>      -0.33333333      -0.00000000       0.33333333 </v>
   <v>      -0.00000000       0.33333333       0.33333333 </v>
   <v>       0.33333333       0.33333333       0.33333333 </v>
   <v>      -0.33333333       0.33333333       0.33333333 </v>
   <v>      -0.00000000      -0.33333333       0.33333333 </v>
   <v>       0.33333333      -0.33333333       0.33333333 </v>
   <v>      -0.33333333      -0.33333333       0.33333333 </v>
  </varray>
  <varray name="weights" >
   <v>       0.03703704 </v>
   <v>       0.07407407 </v>
   <v>       0.07407407 </v>
   <v>       0.07407407 </v>
   <v>       0.07407407 </v>
   <v>       0.07407407 </v>
   <v>       0.07407407 </v>
   <v>       0.07407407 </v>
   <v>       0.07407407 </v>
   <v>       0.07407407 </v>
   <v>       0.07407407 </v>
   <v>       0.07407407 </v>
   <v>       0.07407407 </v>
   <v>       0.07407407 </v>
  </varray>
 </kpoints>
 <parameters>
  <separator name="general" >
   <i type="string" name="SYSTEM">automatically generated by mexm</i>
   <i type="logical" name="LCOMPAT"> F  </i>
  </separator>
  <separator name="electronic" >
   <i type="string" name="PREC">accura</i>
   <i name="ENMAX">    300.00000000</i>
   <i name="ENAUG">    461.25700000</i>
   <i name="EDIFF">      0.00001000</i>
   <i type="int" name="IALGO">    68</i>
   <i type="int" name="IWAVPR">    11</i>
   <i type="int" name="NBANDS">   172</i>
   <i name="NELECT">    287.00000000</i>
   <i type="int" name="TURBO">     0</i>
   <i type="int" name="IRESTART">     0</i>
   <i type="int" name="NREBOOT">     0</i>
   <i type="int" name="NMIN">     0</i>
   <i name="EREF">      0.00000000</i>
   <separator name="electronic smearing" >
    <i type="int" name="ISMEAR">     1</i>
    <i name="SIGMA">      0.15000000</i>
    <i name="KSPACING">      0.50000000</i>
    <i type="logical" name="KGAMMA"> T  </i>
   </separator>
   <separator name="electronic projectors" >
    <i type="logical" name="LREAL"> T  </i>
    <v name="ROPT">     -0.00025000     -0.00025000     -0.00025000     -0.00025000</v>
    <i type="int" name="LMAXPAW">  -100</i>
    <i type="int" name="LMAXMIX">     2</i>
    <i type="logical" name="NLSPLINE"> F  </i>
   </separator>
   <separator name="electronic startup" >
    <i type="int" name="ISTART">     0</i>
    <i type="int" name="ICHARG">     2</i>
    <i type="int" name="INIWAV">     1</i>
   </separator>
   <separator name="electronic spin" >
    <i type="int" name="ISPIN">     1</i>
    <i type="logical" name="LNONCOLLINEAR"> F  </i>
    <v name="MAGMOM">      1.00000000      1.00000000      1.00000000      1.00000000      1.00000000      1.00000000      1.00000000      1.00000000      1.00000000      1.00000000      1.00000000      1.00000000      1.00000000      1.00000000      1.00000000      1.00000000      1.00000000      1.00000000      1.00000000      1.00000000
      1.00000000      1.00000000      1.00000000      1.00000000      1.00000000      1.00000000      1.00000000      1.00000000      1.00000000      1.00000000      1.00000000      1.00000000      1.00000000      1.00000000      1.00000000      1.00000000</v>
    <i name="NUPDOWN">     -1.00000000</i>
    <i type="logical" name="LSORBIT"> F  </i>
    <v name="SAXIS">      0.00000000      0.00000000      1.00000000</v>
    <i type="logical" name="LSPIRAL"> F  </i>
    <v name="QSPIRAL">      0.00000000      0.00000000      0.00000000</v>
    <i type="logical" name="LZEROZ"> F  </i>
   </separator>
   <separator name="electronic exchange-correlation" >
    <i type="logical" name="LASPH"> F  </i>
    <i type="logical" name="LMETAGGA"> F  </i>
   </separator>
   <separator name="electronic convergence" >
    <i type="int" name="NELM">    70</i>
    <i type="int" name="NELMDL">    -5</i>
    <i type="int" name="NELMIN">     2</i>
    <i name="ENINI">    300.00000000</i>
    <separator name="electronic convergence detail" >
     <i type="logical" name="LDIAG"> T  </i>
     <i type="logical" name="LSUBROT"> F  </i>
     <i name="WEIMIN">      0.00100000</i>
     <i name="EBREAK">      0.00000001</i>
     <i name="DEPER">      0.30000000</i>
     <i type="int" name="NRMM">     4</i>
     <i name="TIME">      0.40000000</i>
    </separator>
   </separator>
   <separator name="electronic mixer" >
    <i name="AMIX">      0.40000000</i>
    <i name="BMIX">      1.00000000</i>
    <i name="AMIN">      0.10000000</i>
    <i name="AMIX_MAG">      1.60000000</i>
    <i name="BMIX_MAG">      1.00000000</i>
    <separator name="electronic mixer details" >
     <i type="int" name="IMIX">     4</i>
     <i type="logical" name="MIXFIRST"> F  </i>
     <i type="int" name="MAXMIX">   -45</i>
     <i name="WC">    100.00000000</i>
     <i type="int" name="INIMIX">     1</i>
     <i type="int" name="MIXPRE">     1</i>
     <i type="int" name="MREMOVE">     5</i>
    </separator>
   </separator>
   <separator name="electronic dipolcorrection" >
    <i type="logical" name="LDIPOL"> F  </i>
    <i type="logical" name="LMONO"> F  </i>
    <i type="int" name="IDIPOL">     0</i>
    <i name="EPSILON">      1.00000000</i>
    <v name="DIPOL">   -100.00000000   -100.00000000   -100.00000000</v>
    <i name="EFIELD">      0.00000000</i>
   </separator>
  </separator>
  <separator name="grids" >
   <i type="int" name="NGX">    40</i>
   <i type="int" name="NGY">    60</i>
   <i type="int" name="NGZ">    60</i>
   <i type="int" name="NGXF">    80</i>
   <i type="int" name="NGYF">   120</i>
   <i type="int" name="NGZF">   120</i>
   <i type="logical" name="ADDGRID"> F  </i>
  </separator>
  <separator name="ionic" >
   <i type="int" name="NSW">   300</i>
   <i type="int" name="IBRION">     2</i>
   <i type="int" name="ISIF">     3</i>
   <i name="PSTRESS">      0.00000000</i>
   <i name="EDIFFG">     -0.01000000</i>
   <i type="int" name="NFREE">     1</i>
   <i name="POTIM">      0.15000000</i>
   <i name="SMASS">     -3.00000000</i>
   <i name="SCALEE">      1.00000000</i>
  </separator>
  <separator name="ionic md" >
   <i name="TEBEG">      0.00010000</i>
   <i name="TEEND">      0.00010000</i>
   <i type="int" name="NBLOCK">     1</i>
   <i type="int" name="KBLOCK">   300</i>
   <i type="int" name="NPACO">   256</i>
   <i name="APACO">     16.00000000</i>
  </separator>
  <separator name="symmetry" >
   <i type="int" name="ISYM">     1</i>
   <i name="SYMPREC">      0.00001000</i>
  </separator>
  <separator name="dos" >
   <i type="logical" name="LORBIT"> F  </i>
   <v name="RWIGS">     -1.00000000     -1.00000000     -1.00000000     -1.00000000</v>
   <i type="int" name="NEDOS">   301</i>
   <i name="EMIN">     10.00000000</i>
   <i name="EMAX">    -10.00000000</i>
   <i name="EFERMI">      0.00000000</i>
  </separator>
  <separator name="writing" >
   <i type="int" name="NWRITE">     2</i>
   <i type="logical" name="LWAVE"> F  </i>
   <i type="logical" name="LCHARG"> F  </i>
   <i type="logical" name="LPARD"> F  </i>
   <i type="logical" name="LVTOT"> F  </i>
   <i type="logical" name="LVHAR"> F  </i>
   <i type="logical" name="LELF"> F  </i>
   <i type="logical" name="LOPTICS"> F  </i>
   <v name="STM">      0.00000000      0.00000000      0.00000000      0.00000000      0.00000000      0.00000000      0.00000000</v>
  </separator>
  <separator name="performance" >
   <i type="int" name="NPAR">     4</i>
   <i type="int" name="NSIM">     4</i>
   <i type="int" name="NBLK">    -1</i>
   <i type="logical" name="LPLANE"> T  </i>
   <i type="logical" name="LSCALAPACK"> T  </i>
   <i type="logical" name="LSCAAWARE"> F  </i>
   <i type="logical" name="LSCALU"> F  </i>
   <i type="logical" name="LASYNC"> F  </i>
   <i type="logical" name="LORBITALREAL"> F  </i>
  </separator>
  <separator name="miscellaneous" >
   <i type="int" name="IDIOT">     3</i>
   <i type="logical" name="LMUSIC"> F  </i>
   <v name="POMASS">    178.49000000     92.91000000    180.94800000     91.22400000</v>
   <v name="DARWINR">      0.00000000      0.00000000      0.00000000      0.00000000</v>
   <v name="DARWINV">      1.00000000      1.00000000      1.00000000      1.00000000</v>
   <i type="logical" name="LCORR"> T  </i>
  </separator>
  <i type="logical" name="GGA_COMPAT"> T  </i>
  <i type="logical" name="LBERRY"> F  </i>
  <i type="int" name="ICORELEVEL">     0</i>
  <i type="logical" name="LDAU"> F  </i>
  <i type="int" name="I_CONSTRAINED_M">     0</i>
  <separator name="electronic exchange-correlation" >
   <i type="string" name="GGA">--</i>
   <i type="int" name="VOSKOWN">     0</i>
   <i type="logical" name="LHFCALC"> F  </i>
   <i type="string" name="PRECFOCK"></i>
   <i type="logical" name="LSYMGRAD"> F  </i>
   <i type="logical" name="LHFONE"> F  </i>
   <i type="logical" name="LRHFCALC"> F  </i>
   <i type="logical" name="LTHOMAS"> F  </i>
   <i type="logical" name="LMODELHF"> F  </i>
   <i name="ENCUT4O">     -1.00000000</i>
   <i type="int" name="EXXOEP">     0</i>
   <i type="int" name="FOURORBIT">     0</i>
   <i name="AEXX">      0.00000000</i>
   <i name="HFALPHA">      0.00000000</i>
   <i name="MCALPHA">      0.00000000</i>
   <i name="ALDAX">      1.00000000</i>
   <i name="AGGAX">      1.00000000</i>
   <i name="ALDAC">      1.00000000</i>
   <i name="AGGAC">      1.00000000</i>
   <i type="int" name="NKREDX">     1</i>
   <i type="int" name="NKREDY">     1</i>
   <i type="int" name="NKREDZ">     1</i>
   <i type="logical" name="SHIFTRED"> F  </i>
   <i type="logical" name="ODDONLY"> F  </i>
   <i type="logical" name="EVENONLY"> F  </i>
   <i type="int" name="LMAXFOCK">     0</i>
   <i type="int" name="NMAXFOCKAE">     0</i>
   <i type="logical" name="LFOCKAEDFT"> F  </i>
   <i name="HFSCREEN">      0.00000000</i>
   <i name="HFSCREENC">      0.00000000</i>
   <i type="int" name="NBANDSGWLOW">     0</i>
  </separator>
  <separator name="vdW DFT" >
   <i type="logical" name="LUSE_VDW"> F  </i>
   <i name="Zab_VDW">     -0.84910000</i>
   <i name="PARAM1">      0.12340000</i>
   <i name="PARAM2">      1.00000000</i>
   <i name="PARAM3">      0.00000000</i>
  </separator>
  <separator name="model GW" >
   <i type="int" name="MODEL_GW">     0</i>
   <i name="MODEL_EPS0">     12.46675943</i>
   <i name="MODEL_ALPHA">      1.00000000</i>
  </separator>
  <separator name="linear response parameters" >
   <i type="logical" name="LEPSILON"> F  </i>
   <i type="logical" name="LRPA"> F  </i>
   <i type="logical" name="LNABLA"> F  </i>
   <i type="logical" name="LVEL"> F  </i>
   <i type="int" name="KINTER">     0</i>
   <i name="CSHIFT">      0.10000000</i>
   <i name="OMEGAMAX">     -1.00000000</i>
   <i name="DEG_THRESHOLD">      0.00200000</i>
  </separator>
  <separator name="orbital magnetization" >
   <i type="logical" name="NUCIND"> F  </i>
   <v name="MAGPOS">      0.00000000      0.00000000      0.00000000</v>
   <i type="logical" name="LNICSALL"> T  </i>
   <i type="logical" name="ORBITALMAG"> F  </i>
   <i type="logical" name="LMAGBLOCH"> F  </i>
   <i type="logical" name="LCHIMAG"> F  </i>
   <i type="logical" name="LGAUGE"> T  </i>
   <i type="int" name="MAGATOM">     0</i>
   <v name="MAGDIPOL">      0.00000000      0.00000000      0.00000000</v>
   <v name="AVECCONST">      0.00000000      0.00000000      0.00000000</v>
  </separator>
  <separator name="response functions" >
   <i type="logical" name="LADDER"> F  </i>
   <i type="logical" name="LFXC"> F  </i>
   <i type="logical" name="LHARTREE"> T  </i>
   <i type="int" name="IBSE">     0</i>
   <v type="int" name="KPOINT">    -1     0     0     0</v>
   <i type="logical" name="LTCTE"> F  </i>
   <i type="logical" name="LTETE"> F  </i>
   <i type="logical" name="LTRIPLET"> F  </i>
   <i type="logical" name="LFXCEPS"> F  </i>
   <i type="logical" name="LFXHEG"> F  </i>
   <i type="int" name="NATURALO">     0</i>
   <i type="logical" name="L2ORDER"> F  </i>
   <i type="logical" name="LUSEW"> F  </i>
   <i name="ENCUTGW">     -2.00000000</i>
   <i name="ENCUTGWSOFT">     -2.00000000</i>
   <i name="ENCUTLF">     -1.00000000</i>
   <i type="int" name="LMAXMP2">    -1</i>
   <i name="SCISSOR">      0.00000000</i>
   <i type="int" name="NOMEGA">     0</i>
   <i type="int" name="NOMEGAR">     0</i>
   <i type="int" name="NBANDSGW">    -1</i>
   <i type="int" name="NBANDSO">    -1</i>
   <i type="int" name="NBANDSV">    -1</i>
   <i type="int" name="NELM">    70</i>
   <i type="int" name="NELMHF">     1</i>
   <i type="int" name="DIM">     3</i>
   <i type="int" name="ANTIRES">     0</i>
   <i name="OMEGAMAX">    -30.00000000</i>
   <i name="OMEGAMIN">    -30.00000000</i>
   <i name="OMEGATL">   -200.00000000</i>
   <i type="int" name="OMEGAGRID">     0</i>
   <i name="CSHIFT">     -0.10000000</i>
   <i type="logical" name="SELFENERGY"> F  </i>
   <i type="logical" name="LSPECTRAL"> F  </i>
   <i type="logical" name="LSPECTRALGW"> F  </i>
   <i type="logical" name="LSINGLES"> F  </i>
   <i type="logical" name="LFERMIGW"> F  </i>
   <i type="logical" name="ODDONLYGW"> F  </i>
   <i type="logical" name="EVENONLYGW"> F  </i>
   <i type="int" name="NKREDLFX">     1</i>
   <i type="int" name="NKREDLFY">     1</i>
   <i type="int" name="NKREDLFZ">     1</i>
   <i type="int" name="MAXMEM">  1800</i>
   <i type="int" name="TELESCOPE">     0</i>
   <i type="int" name="TAUPAR">     1</i>
   <i type="int" name="OMEGAPAR">    -1</i>
   <i name="LAMBDA">      1.00000000</i>
  </separator>
  <separator name="External order field" >
   <i name="OFIELD_KAPPA">      0.00000000</i>
   <v name="OFIELD_K">      0.00000000      0.00000000      0.00000000</v>
   <i name="OFIELD_Q6_NEAR">      0.00000000</i>
   <i name="OFIELD_Q6_FAR">      0.00000000</i>
   <i name="OFIELD_A">      0.00000000</i>
  </separator>
 </parameters>
 <atominfo>
  <atoms>      36 </atoms>
  <types>       4 </types>
  <array name="atoms" >
   <dimension dim="1">ion</dimension>
   <field type="string">element</field>
   <field type="int">atomtype</field>
   <set>
    <rc><c>Hf</c><c>   1</c></rc>
    <rc><c>Hf</c><c>   1</c></rc>
    <rc><c>Hf</c><c>   1</c></rc>
    <rc><c>Hf</c><c>   1</c></rc>
    <rc><c>Hf</c><c>   1</c></rc>
    <rc><c>Hf</c><c>   1</c></rc>
    <rc><c>Hf</c><c>   1</c></rc>
    <rc><c>Hf</c><c>   1</c></rc>
    <rc><c>Hf</c><c>   1</c></rc>
    <rc><c>Nb</c><c>   2</c></rc>
    <rc><c>Nb</c><c>   2</c></rc>
    <rc><c>Nb</c><c>   2</c></rc>
    <rc><c>Nb</c><c>   2</c></rc>
    <rc><c>Ta</c><c>   3</c></rc>
    <rc><c>Ta</c><c>   3</c></rc>
    <rc><c>Ta</c><c>   3</c></rc>
    <rc><c>Ta</c><c>   3</c></rc>
    <rc><c>Ta</c><c>   3</c></rc>
    <rc><c>Ta</c><c>   3</c></rc>
    <rc><c>Ta</c><c>   3</c></rc>
    <rc><c>Ta</c><c>   3</c></rc>
    <rc><c>Ta</c><c>   3</c></rc>
    <rc><c>Ta</c><c>   3</c></rc>
    <rc><c>Ta</c><c>   3</c></rc>
    <rc><c>Zr</c><c>   4</c></rc>
    <rc><c>Zr</c><c>   4</c></rc>
    <rc><c>Zr</c><c>   4</c></rc>
    <rc><c>Zr</c><c>   4</c></rc>
    <rc><c>Zr</c><c>   4</c></rc>
    <rc><c>Zr</c><c>   4</c></rc>
    <rc><c>Zr</c><c>   4</c></rc>
    <rc><c>Zr</c><c>   4</c></rc>
    <rc><c>Zr</c><c>   4</c></rc>
    <rc><c>Zr</c><c>   4</c></rc>
    <rc><c>Zr</c><c>   4</c></rc>
    <rc><c>Zr</c><c>   4</c></rc>
   </set>
  </array>
  <array name="atomtypes" >
   <dimension dim="1">type</dimension>
   <field type="int">atomspertype</field>
   <field type="string">element</field>
   <field>mass</field>
   <field>valence</field>
   <field type="string">pseudopotential</field>
   <set>
    <rc><c>   9</c><c>Hf</c><c>    178.49000000</c><c>      4.00000000</c><c>  PAW_PBE Hf 20Jan2003                  </c></rc>
    <rc><c>   4</c><c>Nb</c><c>     92.91000000</c><c>     13.00000000</c><c>  PAW_PBE Nb_sv 25May2007               </c></rc>
    <rc><c>  11</c><c>Ta</c><c>    180.94800000</c><c>      5.00000000</c><c>  PAW_PBE Ta 17Jan2003                  </c></rc>
    <rc><c>  12</c><c>Zr</c><c>     91.22400000</c><c>     12.00000000</c><c>  PAW_PBE Zr_sv 04Jan2005               </c></rc>
   </set>
  </array>
 </atominfo>
 <structure name="initialpos" >
  <crystal>
   <varray name="basis" >
    <v>       7.06726801       0.00741762       0.04983322 </v>
    <v>       0.01143321      10.26415617       0.01172752 </v>
    <v>       0.07227064       0.01139330      10.31222851 </v>
   </varray>
   <i name="volume">    748.00556563 </i>
   <varray name="rec_basis" >
    <v>       0.14150455      -0.00015649      -0.00099153 </v>
    <v>      -0.00010150       0.09742666      -0.00010693 </v>
    <v>      -0.00068370      -0.00011004       0.09697716 </v>
   </varray>
  </crystal>
  <varray name="positions" >
   <v>       0.47723800       0.00532700       0.64842400 </v>
   <v>       0.28572500       0.17292600       0.85392900 </v>
   <v>       0.00071000       0.99537800       0.99865700 </v>
   <v>       0.02178200       0.99476600       0.68253100 </v>
   <v>       0.00155000       0.66775300       0.32412800 </v>
   <v>       0.51033200       0.99871200       0.33513800 </v>
   <v>       0.48751600       0.32034800       0.64231400 </v>
   <v>       0.97658900       0.33164500       0.99848600 </v>
   <v>       0.73815800       0.51072200       0.83051700 </v>
   <v>       0.74871500       0.15836900       0.16586500 </v>
   <v>       0.26910700       0.82928000       0.83650700 </v>
   <v>       0.54227200       0.33317800       0.01134100 </v>
   <v>       0.50754000       0.99071400       0.01405000 </v>
   <v>       0.00814800       0.66964300       0.00662100 </v>
   <v>       0.73743300       0.83387500       0.15981900 </v>
   <v>       0.97993800       0.98462300       0.31594700 </v>
   <v>       0.26086700       0.84372200       0.16684900 </v>
   <v>       0.77966800       0.15266000       0.49634600 </v>
   <v>       0.49266400       0.67596100       0.00912000 </v>
   <v>       0.46636900       0.67846800       0.66098800 </v>
   <v>       0.24172900       0.51677700       0.51111700 </v>
   <v>       0.02833500       0.67606700       0.67495600 </v>
   <v>       0.72795600       0.50785200       0.15447900 </v>
   <v>       0.23388900       0.82703100       0.49867100 </v>
   <v>       0.72629500       0.16237700       0.83205300 </v>
   <v>       0.51434500       0.33116200       0.34103800 </v>
   <v>       0.01211700       0.33177700       0.67126300 </v>
   <v>       0.27429300       0.48658000       0.15641600 </v>
   <v>       0.97785300       0.34829000       0.32760300 </v>
   <v>       0.49358700       0.66822900       0.33557800 </v>
   <v>       0.20421600       0.15734700       0.47437900 </v>
   <v>       0.75228200       0.51759900       0.52435600 </v>
   <v>       0.76072200       0.83269700       0.51008800 </v>
   <v>       0.27096300       0.49747400       0.83485700 </v>
   <v>       0.25396800       0.16290800       0.16361500 </v>
   <v>       0.73511600       0.82776500       0.83194700 </v>
  </varray>
 </structure>
 <calculation>
  <scstep>
   <time name="dav">    0.97    0.98</time>
   <time name="total">    1.22    1.34</time>
   <energy>
    <i name="alphaZ">   1438.88278523 </i>
    <i name="ewald"> -18560.77125287 </i>
    <i name="hartreedc">  -6061.94317848 </i>
    <i name="XCdc">   -385.19322211 </i>
    <i name="pawpsdc">  20177.92566552 </i>
    <i name="pawaedc"> -18531.09239067 </i>
    <i name="eentropy">     -0.00474682 </i>
    <i name="bandstr">    -98.66870440 </i>
    <i name="atom">  23750.65608077 </i>
    <i name="e_fr_energy">   1729.79103617 </i>
    <i name="e_wo_entrp">   1729.79578299 </i>
    <i name="e_0_energy">   1729.79261845 </i>
   </energy>
  </scstep>
  <scstep>
   <time name="dav">    0.97    0.97</time>
   <time name="total">    0.97    1.07</time>
   <energy>
    <i name="e_fr_energy">    -80.10742363 </i>
    <i name="e_wo_entrp">    -80.10964275 </i>
    <i name="e_0_energy">    -80.10816334 </i>
   </energy>
  </scstep>
  <scstep>
   <time name="dav">    1.33    1.34</time>
   <time name="total">    1.33    1.37</time>
   <energy>
    <i name="e_fr_energy">   -337.89584575 </i>
    <i name="e_wo_entrp">   -337.89196915 </i>
    <i name="e_0_energy">   -337.89455355 </i>
   </energy>
  </scstep>
  <scstep>
   <time name="dav">    1.50    1.51</time>
   <time name="total">    1.50    1.52</time>
   <energy>
    <i name="e_fr_energy">   -370.84665246 </i>
    <i name="e_wo_entrp">   -370.85740041 </i>
    <i name="e_0_energy">   -370.85023511 </i>
   </energy>
  </scstep>
  <scstep>
   <time name="dav">    1.50    1.51</time>
   <time name="total">    1.54    1.56</time>
   <energy>
    <i name="e_fr_energy">   -374.30937163 </i>
    <i name="e_wo_entrp">   -374.32275006 </i>
    <i name="e_0_energy">   -374.31383110 </i>
   </energy>
  </scstep>
  <scstep>
   <time name="diag">    0.13    0.14</time>
   <time name="diis">    0.81    0.81</time>
   <time name="orth">    0.01    0.01</time>
   <time name="total">    1.05    1.07</time>
   <energy>
    <i name="e_fr_energy">   -363.84033994 </i>
    <i name="e_wo_entrp">   -363.85810541 </i>
    <i name="e_0_energy">   -363.84626177 </i>
   </energy>
  </scstep>
  <scstep>
   <time name="diag">    0.08    0.08</time>
   <time name="diis">    0.87    0.87</time>
   <time name="orth">    0.01    0.01</time>
   <time name="total">    1.04    1.05</time>
   <energy>
    <i name="e_fr_energy">   -364.32201947 </i>
    <i name="e_wo_entrp">   -364.33032714 </i>
    <i name="e_0_energy">   -364.32478869 </i>
   </energy>
  </scstep>
  <scstep>
   <time name="diag">    0.08    0.08</time>
   <time name="diis">    0.78    0.78</time>
   <time name="orth">    0.01    0.01</time>
   <time name="total">    0.94    0.96</time>
   <energy>
    <i name="e_fr_energy">   -359.52590609 </i>
    <i name="e_wo_entrp">   -359.55980528 </i>
    <i name="e_0_energy">   -359.53720582 </i>
   </energy>
  </scstep>
  <scstep>
   <time name="diag">    0.08    0.08</time>
   <time name="diis">    0.80    0.80</time>
   <time name="orth">    0.01    0.01</time>
   <time name="total">    0.97    0.99</time>
   <energy>
    <i name="e_fr_energy">   -359.31867065 </i>
    <i name="e_wo_entrp">   -359.34789839 </i>
    <i name="e_0_energy">   -359.32841323 </i>
   </energy>
  </scstep>
  <scstep>
   <time name="diag">    0.09    0.09</time>
   <time name="diis">    0.81    0.81</time>
   <time name="orth">    0.01    0.01</time>
   <time name="total">    1.02    1.04</time>
   <energy>
    <i name="e_fr_energy">   -359.27167305 </i>
    <i name="e_wo_entrp">   -359.30443344 </i>
    <i name="e_0_energy">   -359.28259318 </i>
   </energy>
  </scstep>
  <scstep>
   <time name="diag">    0.08    0.08</time>
   <time name="diis">    0.77    0.77</time>
   <time name="orth">    0.01    0.01</time>
   <time name="total">    0.93    0.95</time>
   <energy>
    <i name="e_fr_energy">   -359.25943134 </i>
    <i name="e_wo_entrp">   -359.29303239 </i>
    <i name="e_0_energy">   -359.27063169 </i>
   </energy>
  </scstep>
  <scstep>
   <time name="diag">    0.08    0.08</time>
   <time name="diis">    0.79    0.79</time>
   <time name="orth">    0.01    0.01</time>
   <time name="total">    0.95    0.97</time>
   <energy>
    <i name="e_fr_energy">   -359.26032298 </i>
    <i name="e_wo_entrp">   -359.29440258 </i>
    <i name="e_0_energy">   -359.27168285 </i>
   </energy>
  </scstep>
  <scstep>
   <time name="diag">    0.11    0.11</time>
   <time name="diis">    0.82    0.83</time>
   <time name="orth">    0.01    0.01</time>
   <time name="total">    1.01    1.02</time>
   <energy>
    <i name="e_fr_energy">   -359.26069047 </i>
    <i name="e_wo_entrp">   -359.29465291 </i>
    <i name="e_0_energy">   -359.27201129 </i>
   </energy>
  </scstep>
  <scstep>
   <time name="diag">    0.09    0.09</time>
   <time name="diis">    0.81    0.82</time>
   <time name="orth">    0.01    0.01</time>
   <time name="total">    0.98    1.00</time>
   <energy>
    <i name="e_fr_energy">   -359.26125232 </i>
    <i name="e_wo_entrp">   -359.29516968 </i>
    <i name="e_0_energy">   -359.27255811 </i>
   </energy>
  </scstep>
  <scstep>
   <time name="diag">    0.08    0.08</time>
   <time name="diis">    0.91    0.93</time>
   <time name="orth">    0.01    0.01</time>
   <time name="total">    1.07    1.10</time>
   <energy>
    <i name="e_fr_energy">   -359.26162978 </i>
    <i name="e_wo_entrp">   -359.29557006 </i>
    <i name="e_0_energy">   -359.27294320 </i>
   </energy>
  </scstep>
  <scstep>
   <time name="diag">    0.08    0.09</time>
   <time name="diis">    0.73    0.76</time>
   <time name="orth">    0.01    0.01</time>
   <time name="total">    0.91    1.02</time>
   <energy>
    <i name="e_fr_energy">   -359.26179593 </i>
    <i name="e_wo_entrp">   -359.29583043 </i>
    <i name="e_0_energy">   -359.27314076 </i>
   </energy>
  </scstep>
  <scstep>
   <time name="diag">    0.13    0.13</time>
   <time name="diis">    0.62    0.63</time>
   <time name="orth">    0.01    0.01</time>
   <time name="total">    0.83    0.88</time>
   <energy>
    <i name="e_fr_energy">   -359.26187131 </i>
    <i name="e_wo_entrp">   -359.29591414 </i>
    <i name="e_0_energy">   -359.27321892 </i>
   </energy>
  </scstep>
  <scstep>
   <time name="diag">    0.10    0.10</time>
   <time name="diis">    0.62    0.62</time>
   <time name="orth">    0.01    0.01</time>
   <time name="total">    0.83    0.85</time>
   <energy>
    <i name="e_fr_energy">   -359.26191043 </i>
    <i name="e_wo_entrp">   -359.29597652 </i>
    <i name="e_0_energy">   -359.27326579 </i>
   </energy>
  </scstep>
  <scstep>
   <time name="diag">    0.08    0.08</time>
   <time name="diis">    0.51    0.51</time>
   <time name="orth">    0.01    0.01</time>
   <time name="total">    0.69    0.72</time>
   <energy>
    <i name="e_fr_energy">   -359.26193126 </i>
    <i name="e_wo_entrp">   -359.29600055 </i>
    <i name="e_0_energy">   -359.27328769 </i>
   </energy>
  </scstep>
  <scstep>
   <time name="diag">    0.08    0.08</time>
   <time name="diis">    0.47    0.48</time>
   <time name="orth">    0.01    0.01</time>
   <time name="total">    0.64    0.66</time>
   <energy>
    <i name="e_fr_energy">   -359.26193974 </i>
    <i name="e_wo_entrp">   -359.29601065 </i>
    <i name="e_0_energy">   -359.27329671 </i>
   </energy>
  </scstep>
  <scstep>
   <time name="diag">    0.08    0.08</time>
   <time name="diis">    0.44    0.44</time>
   <time name="orth">    0.01    0.01</time>
   <time name="total">    0.57    0.58</time>
   <energy>
    <i name="alphaZ">   1438.88278523 </i>
    <i name="ewald"> -18560.77125287 </i>
    <i name="hartreedc">  -5830.35521042 </i>
    <i name="XCdc">   -384.14812381 </i>
    <i name="pawpsdc">  33131.99547376 </i>
    <i name="pawaedc"> -31472.43965025 </i>
    <i name="eentropy">      0.03407363 </i>
    <i name="bandstr">  -2433.11612029 </i>
    <i name="atom">  23750.65608077 </i>
    <i name="e_fr_energy">   -359.26194424 </i>
    <i name="e_wo_entrp">   -359.29601787 </i>
    <i name="e_0_energy">   -359.27330212 </i>
   </energy>
  </scstep>
  <structure>
   <crystal>
    <varray name="basis" >
     <v>       7.06726801       0.00741762       0.04983322 </v>
     <v>       0.01143321      10.26415617       0.01172752 </v>
     <v>       0.07227064       0.01139330      10.31222851 </v>
    </varray>
    <i name="volume">    748.00556563 </i>
    <varray name="rec_basis" >
     <v>       0.14150455      -0.00015649      -0.00099153 </v>
     <v>      -0.00010150       0.09742666      -0.00010693 </v>
     <v>      -0.00068370      -0.00011004       0.09697716 </v>
    </varray>
   </crystal>
   <varray name="positions" >
    <v>       0.47723800       0.00532700       0.64842400 </v>
    <v>       0.28572500       0.17292600       0.85392900 </v>
    <v>       0.00071000       0.99537800       0.99865700 </v>
    <v>       0.02178200       0.99476600       0.68253100 </v>
    <v>       0.00155000       0.66775300       0.32412800 </v>
    <v>       0.51033200       0.99871200       0.33513800 </v>
    <v>       0.48751600       0.32034800       0.64231400 </v>
    <v>       0.97658900       0.33164500       0.99848600 </v>
    <v>       0.73815800       0.51072200       0.83051700 </v>
    <v>       0.74871500       0.15836900       0.16586500 </v>
    <v>       0.26910700       0.82928000       0.83650700 </v>
    <v>       0.54227200       0.33317800       0.01134100 </v>
    <v>       0.50754000       0.99071400       0.01405000 </v>
    <v>       0.00814800       0.66964300       0.00662100 </v>
    <v>       0.73743300       0.83387500       0.15981900 </v>
    <v>       0.97993800       0.98462300       0.31594700 </v>
    <v>       0.26086700       0.84372200       0.16684900 </v>
    <v>       0.77966800       0.15266000       0.49634600 </v>
    <v>       0.49266400       0.67596100       0.00912000 </v>
    <v>       0.46636900       0.67846800       0.66098800 </v>
    <v>       0.24172900       0.51677700       0.51111700 </v>
    <v>       0.02833500       0.67606700       0.67495600 </v>
    <v>       0.72795600       0.50785200       0.15447900 </v>
    <v>       0.23388900       0.82703100       0.49867100 </v>
    <v>       0.72629500       0.16237700       0.83205300 </v>
    <v>       0.51434500       0.33116200       0.34103800 </v>
    <v>       0.01211700       0.33177700       0.67126300 </v>
    <v>       0.27429300       0.48658000       0.15641600 </v>
    <v>       0.97785300       0.34829000       0.32760300 </v>
    <v>       0.49358700       0.66822900       0.33557800 </v>
    <v>       0.20421600       0.15734700       0.47437900 </v>
    <v>       0.75228200       0.51759900       0.52435600 </v>
    <v>       0.76072200       0.83269700       0.51008800 </v>
    <v>       0.27096300       0.49747400       0.83485700 </v>
    <v>       0.25396800       0.16290800       0.16361500 </v>
    <v>       0.73511600       0.82776500       0.83194700 </v>
   </varray>
  </structure>
  <varray name="forces" >
   <v>      -0.02213285       0.01105579      -0.03248590 </v>
   <v>      -0.00783351      -0.01440828      -0.00105381 </v>
   <v>      -0.01929693      -0.16837221      -0.03376244 </v>
   <v>       0.01454847       0.04133438      -0.02728420 </v>
   <v>      -0.00597528       0.00660108      -0.21488006 </v>
   <v>       0.00741268       0.02013725       0.00457550 </v>
   <v>      -0.02236929      -0.00821395      -0.03915682 </v>
   <v>      -0.00519074       0.16432998      -0.01313565 </v>
   <v>       0.24798942       0.17113991       0.27613888 </v>
   <v>      -0.01050041      -0.00681872      -0.02680662 </v>
   <v>      -0.35026030      -0.21712985       0.28995592 </v>
   <v>       0.01297028      -0.02009179      -0.01036043 </v>
   <v>       0.02084867       0.02356574       0.01212500 </v>
   <v>      -0.11922447       0.09770656       0.13891794 </v>
   <v>       0.43738073      -0.30380633      -0.25586573 </v>
   <v>      -0.00815423       0.05831352       0.04734475 </v>
   <v>      -0.37719697      -0.37499497      -0.28626485 </v>
   <v>       0.00946271       0.01300720      -0.00707870 </v>
   <v>      -0.01757306      -0.01755455       0.03340498 </v>
   <v>       0.00590019      -0.01763998      -0.01365459 </v>
   <v>      -0.01421063       0.02380444      -0.00450297 </v>
   <v>       0.02194916       0.01342905       0.07031083 </v>
   <v>       0.44904659       0.31364809      -0.29791672 </v>
   <v>      -0.01696518      -0.02394588      -0.00261838 </v>
   <v>       0.00029366       0.00819945       0.01461282 </v>
   <v>      -0.00144718      -0.01877778       0.00917432 </v>
   <v>       0.02682158      -0.05003919      -0.02999825 </v>
   <v>      -0.30027033       0.30278258      -0.17758508 </v>
   <v>      -0.02110632      -0.07047734       0.07177388 </v>
   <v>       0.01320006      -0.00631488       0.03473738 </v>
   <v>      -0.02368262       0.02587011       0.00273067 </v>
   <v>       0.02430625       0.00955275       0.02459536 </v>
   <v>       0.01456750      -0.00278413       0.01321622 </v>
   <v>      -0.23832453       0.18130162       0.20399086 </v>
   <v>       0.00347217       0.00271225      -0.01718804 </v>
   <v>       0.27154469      -0.16712191       0.24399395 </v>
  </varray>
  <varray name="stress" >
   <v>     -11.16491702      -0.38159525       0.44573021 </v>
   <v>      -0.38159532      -8.52087411      -0.33880974 </v>
   <v>       0.44573016      -0.33880978      -8.26084414 </v>
  </varray>
  <energy>
   <i name="e_fr_energy">   -359.26194424 </i>
   <i name="e_wo_entrp">   -359.27330212 </i>
   <i name="e_0_energy">      0.03407363 </i>
  </energy>
  <time name="totalsc">   22.55   23.32</time>
 </calculation>
 <calculation>
  <scstep>
   <time name="dav">    1.10    1.15</time>
   <time name="total">    1.21    1.38</time>
   <energy>
    <i name="alphaZ">   1446.45684118 </i>
    <i name="ewald"> -18598.30506377 </i>
    <i name="hartreedc">  -5835.83510524 </i>
    <i name="XCdc">   -382.73185913 </i>
    <i name="pawpsdc">  33131.91879117 </i>
    <i name="pawaedc"> -31472.36139343 </i>
    <i name="eentropy">      0.03304475 </i>
    <i name="bandstr">  -2399.18940607 </i>
    <i name="atom">  23750.65608077 </i>
    <i name="e_fr_energy">   -359.35806977 </i>
    <i name="e_wo_entrp">   -359.39111452 </i>
    <i name="e_0_energy">   -359.36908468 </i>
   </energy>
  </scstep>
  <scstep>
   <time name="diag">    0.08    0.08</time>
   <time name="diis">    0.75    0.76</time>
   <time name="orth">    0.01    0.01</time>
   <time name="total">    1.02    1.04</time>
   <energy>
    <i name="e_fr_energy">   -359.32475592 </i>
    <i name="e_wo_entrp">   -359.35905011 </i>
    <i name="e_0_energy">   -359.33618732 </i>
   </energy>
  </scstep>
  <scstep>
   <time name="diag">    0.08    0.08</time>
   <time name="diis">    0.78    0.79</time>
   <time name="orth">    0.01    0.01</time>
   <time name="total">    0.93    0.96</time>
   <energy>
    <i name="e_fr_energy">   -359.31587432 </i>
    <i name="e_wo_entrp">   -359.34821377 </i>
    <i name="e_0_energy">   -359.32665414 </i>
   </energy>
  </scstep>
  <scstep>
   <time name="diag">    0.08    0.08</time>
   <time name="diis">    0.86    0.86</time>
   <time name="orth">    0.01    0.01</time>
   <time name="total">    1.01    1.03</time>
   <energy>
    <i name="e_fr_energy">   -359.30763784 </i>
    <i name="e_wo_entrp">   -359.34143200 </i>
    <i name="e_0_energy">   -359.31890256 </i>
   </energy>
  </scstep>
  <scstep>
   <time name="diag">    0.08    0.08</time>
   <time name="diis">    0.78    0.78</time>
   <time name="orth">    0.01    0.01</time>
   <time name="total">    0.94    0.96</time>
   <energy>
    <i name="e_fr_energy">   -359.30695340 </i>
    <i name="e_wo_entrp">   -359.34070709 </i>
    <i name="e_0_energy">   -359.31820463 </i>
   </energy>
  </scstep>
  <scstep>
   <time name="diag">    0.07    0.08</time>
   <time name="diis">    0.80    0.81</time>
   <time name="orth">    0.01    0.01</time>
   <time name="total">    0.97    0.99</time>
   <energy>
    <i name="e_fr_energy">   -359.30714822 </i>
    <i name="e_wo_entrp">   -359.34073262 </i>
    <i name="e_0_energy">   -359.31834302 </i>
   </energy>
  </scstep>
  <scstep>
   <time name="diag">    0.08    0.08</time>
   <time name="diis">    0.78    0.79</time>
   <time name="orth">    0.01    0.01</time>
   <time name="total">    0.94    0.95</time>
   <energy>
    <i name="e_fr_energy">   -359.30730382 </i>
    <i name="e_wo_entrp">   -359.34099443 </i>
    <i name="e_0_energy">   -359.31853402 </i>
   </energy>
  </scstep>
  <scstep>
   <time name="diag">    0.08    0.08</time>
   <time name="diis">    0.67    0.68</time>
   <time name="orth">    0.01    0.01</time>
   <time name="total">    0.84    0.93</time>
   <energy>
    <i name="e_fr_energy">   -359.30738376 </i>
    <i name="e_wo_entrp">   -359.34108902 </i>
    <i name="e_0_energy">   -359.31861885 </i>
   </energy>
  </scstep>
  <scstep>
   <time name="diag">    0.08    0.08</time>
   <time name="diis">    0.68    0.68</time>
   <time name="orth">    0.01    0.01</time>
   <time name="total">    0.83    0.85</time>
   <energy>
    <i name="e_fr_energy">   -359.30745469 </i>
    <i name="e_wo_entrp">   -359.34112817 </i>
    <i name="e_0_energy">   -359.31867918 </i>
   </energy>
  </scstep>
  <scstep>
   <time name="diag">    0.08    0.08</time>
   <time name="diis">    0.54    0.54</time>
   <time name="orth">    0.01    0.01</time>
   <time name="total">    0.69    0.71</time>
   <energy>
    <i name="e_fr_energy">   -359.30749380 </i>
    <i name="e_wo_entrp">   -359.34117540 </i>
    <i name="e_0_energy">   -359.31872100 </i>
   </energy>
  </scstep>
  <scstep>
   <time name="diag">    0.08    0.08</time>
   <time name="diis">    0.46    0.46</time>
   <time name="orth">    0.01    0.01</time>
   <time name="total">    0.62    0.63</time>
   <energy>
    <i name="e_fr_energy">   -359.30751452 </i>
    <i name="e_wo_entrp">   -359.34119811 </i>
    <i name="e_0_energy">   -359.31874238 </i>
   </energy>
  </scstep>
  <scstep>
   <time name="diag">    0.08    0.08</time>
   <time name="diis">    0.49    0.51</time>
   <time name="orth">    0.01    0.01</time>
   <time name="total">    0.66    0.69</time>
   <energy>
    <i name="e_fr_energy">   -359.30752881 </i>
    <i name="e_wo_entrp">   -359.34121550 </i>
    <i name="e_0_energy">   -359.31875770 </i>
   </energy>
  </scstep>
  <scstep>
   <time name="diag">    0.12    0.12</time>
   <time name="diis">    0.37    0.38</time>
   <time name="orth">    0.01    0.01</time>
   <time name="total">    0.54    0.57</time>
   <energy>
    <i name="alphaZ">   1446.45684118 </i>
    <i name="ewald"> -18598.30506377 </i>
    <i name="hartreedc">  -5815.99984065 </i>
    <i name="XCdc">   -383.57940707 </i>
    <i name="pawpsdc">  33368.30087124 </i>
    <i name="pawaedc"> -31708.39017109 </i>
    <i name="eentropy">      0.03368572 </i>
    <i name="bandstr">  -2418.48052729 </i>
    <i name="atom">  23750.65608077 </i>
    <i name="e_fr_energy">   -359.30753096 </i>
    <i name="e_wo_entrp">   -359.34121668 </i>
    <i name="e_0_energy">   -359.31875954 </i>
   </energy>
  </scstep>
  <structure>
   <crystal>
    <varray name="basis" >
     <v>       7.05246177       0.00689641       0.05034672 </v>
     <v>       0.01067509      10.24773920       0.01105758 </v>
     <v>       0.07298109       0.01071413      10.29624484 </v>
    </varray>
    <i name="volume">    744.08879753 </i>
    <varray name="rec_basis" >
     <v>       0.14180178      -0.00014663      -0.00100496 </v>
     <v>      -0.00009470       0.09758271      -0.00010087 </v>
     <v>      -0.00069328      -0.00010408       0.09712781 </v>
    </varray>
   </crystal>
   <varray name="positions" >
    <v>       0.47719311       0.00534267       0.64837861 </v>
    <v>       0.28570900       0.17290570       0.85392762 </v>
    <v>       0.00067135       0.99514067       0.99861007 </v>
    <v>       0.02181209       0.99482430       0.68249250 </v>
    <v>       0.00154083       0.66776265       0.32382646 </v>
    <v>       0.51034707       0.99874038       0.33514432 </v>
    <v>       0.48747077       0.32033651       0.64225928 </v>
    <v>       0.97657819       0.33187674       0.99846735 </v>
    <v>       0.73866152       0.51096252       0.83090184 </v>
    <v>       0.74869390       0.15835944       0.16582749 </v>
    <v>       0.26838601       0.82897390       0.83691777 </v>
    <v>       0.54229876       0.33314967       0.01132636 </v>
    <v>       0.50758247       0.99074718       0.01406677 </v>
    <v>       0.00790162       0.66978073       0.00681700 </v>
    <v>       0.73833310       0.83344638       0.15945604 </v>
    <v>       0.97992049       0.98470516       0.31601344 </v>
    <v>       0.26009947       0.84319424       0.16645155 </v>
    <v>       0.77968745       0.15267834       0.49633595 </v>
    <v>       0.49262757       0.67593622       0.00916709 </v>
    <v>       0.46638132       0.67844314       0.66096881 </v>
    <v>       0.24169991       0.51681059       0.51111078 </v>
    <v>       0.02837891       0.67608579       0.67505444 </v>
    <v>       0.72887920       0.50829406       0.15405592 </v>
    <v>       0.23385435       0.82699726       0.49866753 </v>
    <v>       0.72629537       0.16238854       0.83207349 </v>
    <v>       0.51434195       0.33113551       0.34105092 </v>
    <v>       0.01217247       0.33170645       0.67122071 </v>
    <v>       0.27367992       0.48700765       0.15616924 </v>
    <v>       0.97780890       0.34819054       0.32770406 </v>
    <v>       0.49361355       0.66822002       0.33562663 </v>
    <v>       0.20416740       0.15738351       0.47438303 </v>
    <v>       0.75233140       0.51761240       0.52439026 </v>
    <v>       0.76075165       0.83269303       0.51010641 </v>
    <v>       0.27047158       0.49772968       0.83514538 </v>
    <v>       0.25397535       0.16291185       0.16359084 </v>
    <v>       0.73566899       0.82752858       0.83228703 </v>
   </varray>
  </structure>
  <varray name="forces" >
   <v>      -0.01243922       0.00302618      -0.01301550 </v>
   <v>      -0.01236303      -0.01289518      -0.00424287 </v>
   <v>      -0.01382084      -0.14008268      -0.04487714 </v>
   <v>       0.00259834       0.04121287      -0.02083965 </v>
   <v>      -0.00832190      -0.00853836      -0.19176901 </v>
   <v>      -0.00019408       0.00300475      -0.01270171 </v>
   <v>      -0.01776523       0.00624939      -0.01657591 </v>
   <v>       0.01670129       0.14162523      -0.02161049 </v>
   <v>       0.22561512       0.14744317       0.23809072 </v>
   <v>      -0.01515997       0.00245148      -0.01802755 </v>
   <v>      -0.32299498      -0.17761138       0.25893368 </v>
   <v>      -0.00832240      -0.01363439      -0.00768527 </v>
   <v>       0.01680219       0.01892712       0.00083807 </v>
   <v>      -0.10630115       0.09114015       0.12613510 </v>
   <v>       0.39709300      -0.28048423      -0.21471578 </v>
   <v>       0.00414094       0.05549984       0.04326575 </v>
   <v>      -0.35193254      -0.34770807      -0.25195835 </v>
   <v>      -0.01206469       0.01665585       0.00355224 </v>
   <v>      -0.00612724      -0.02308058       0.02347309 </v>
   <v>       0.02618703      -0.01671063       0.00197356 </v>
   <v>      -0.01177282      -0.00564602      -0.02032686 </v>
   <v>      -0.00690809       0.00494707       0.07206469 </v>
   <v>       0.41620454       0.28436583      -0.24990322 </v>
   <v>      -0.00561904      -0.00080511      -0.01343632 </v>
   <v>       0.00596392       0.00605435       0.00078204 </v>
   <v>      -0.00940046      -0.00188453      -0.00961736 </v>
   <v>       0.02224838      -0.04199413      -0.01535839 </v>
   <v>      -0.28525637       0.27315351      -0.14531729 </v>
   <v>      -0.01154848      -0.06233265       0.06147363 </v>
   <v>       0.02211174      -0.01384326       0.02671410 </v>
   <v>      -0.00570715       0.03195059      -0.00030755 </v>
   <v>       0.02836606      -0.00093871       0.02028742 </v>
   <v>       0.00378008      -0.00178528       0.01379315 </v>
   <v>      -0.22162905       0.14873317       0.17817511 </v>
   <v>       0.00839326       0.01167184      -0.00784267 </v>
   <v>       0.24944286      -0.13813721       0.21057653 </v>
  </varray>
  <varray name="stress" >
   <v>      -4.38860553      -0.32290546       0.35174079 </v>
   <v>      -0.32290549      -1.82649259      -0.34743623 </v>
   <v>       0.35174078      -0.34743621      -1.65499227 </v>
  </varray>
  <energy>
   <i name="e_fr_energy">   -359.30753096 </i>
   <i name="e_wo_entrp">   -359.31875954 </i>
   <i name="e_0_energy">      0.03368572 </i>
  </energy>
  <time name="totalsc">   12.99   13.54</time>
 </calculation>
 <calculation>
  <scstep>
   <time name="dav">    1.08    1.08</time>
   <time name="total">    1.24    1.29</time>
   <energy>
    <i name="alphaZ">   1460.23174405 </i>
    <i name="ewald"> -18665.89461464 </i>
    <i name="hartreedc">  -5826.13888424 </i>
    <i name="XCdc">   -381.02038425 </i>
    <i name="pawpsdc">  33368.49875149 </i>
    <i name="pawaedc"> -31708.58692051 </i>
    <i name="eentropy">      0.03141709 </i>
    <i name="bandstr">  -2357.28093883 </i>
    <i name="atom">  23750.65608077 </i>
    <i name="e_fr_energy">   -359.50374907 </i>
    <i name="e_wo_entrp">   -359.53516616 </i>
    <i name="e_0_energy">   -359.51422143 </i>
   </energy>
  </scstep>
  <scstep>
   <time name="diag">    0.08    0.08</time>
   <time name="diis">    0.76    0.76</time>
   <time name="orth">    0.01    0.01</time>
   <time name="total">    0.91    0.93</time>
   <energy>
    <i name="e_fr_energy">   -359.39354857 </i>
    <i name="e_wo_entrp">   -359.42690712 </i>
    <i name="e_0_energy">   -359.40466809 </i>
   </energy>
  </scstep>
  <scstep>
   <time name="diag">    0.08    0.08</time>
   <time name="diis">    0.76    0.78</time>
   <time name="orth">    0.01    0.01</time>
   <time name="total">    0.92    0.97</time>
   <energy>
    <i name="e_fr_energy">   -359.36519648 </i>
    <i name="e_wo_entrp">   -359.39525001 </i>
    <i name="e_0_energy">   -359.37521432 </i>
   </energy>
  </scstep>
  <scstep>
   <time name="diag">    0.08    0.08</time>
   <time name="diis">    0.78    0.79</time>
   <time name="orth">    0.01    0.01</time>
   <time name="total">    0.94    0.97</time>
   <energy>
    <i name="e_fr_energy">   -359.33904849 </i>
    <i name="e_wo_entrp">   -359.37181293 </i>
    <i name="e_0_energy">   -359.34996997 </i>
   </energy>
  </scstep>
  <scstep>
   <time name="diag">    0.08    0.08</time>
   <time name="diis">    0.77    0.78</time>
   <time name="orth">    0.01    0.01</time>
   <time name="total">    0.94    0.96</time>
   <energy>
    <i name="e_fr_energy">   -359.33688468 </i>
    <i name="e_wo_entrp">   -359.36957823 </i>
    <i name="e_0_energy">   -359.34778253 </i>
   </energy>
  </scstep>
  <scstep>
   <time name="diag">    0.08    0.08</time>
   <time name="diis">    0.81    0.82</time>
   <time name="orth">    0.01    0.01</time>
   <time name="total">    0.97    0.98</time>
   <energy>
    <i name="e_fr_energy">   -359.33743336 </i>
    <i name="e_wo_entrp">   -359.36982529 </i>
    <i name="e_0_energy">   -359.34823067 </i>
   </energy>
  </scstep>
  <scstep>
   <time name="diag">    0.08    0.08</time>
   <time name="diis">    0.83    0.84</time>
   <time name="orth">    0.01    0.01</time>
   <time name="total">    0.99    1.01</time>
   <energy>
    <i name="e_fr_energy">   -359.33787178 </i>
    <i name="e_wo_entrp">   -359.37044709 </i>
    <i name="e_0_energy">   -359.34873022 </i>
   </energy>
  </scstep>
  <scstep>
   <time name="diag">    0.09    0.14</time>
   <time name="diis">    0.81    0.85</time>
   <time name="orth">    0.01    0.01</time>
   <time name="total">    0.98    1.11</time>
   <energy>
    <i name="e_fr_energy">   -359.33810873 </i>
    <i name="e_wo_entrp">   -359.37071457 </i>
    <i name="e_0_energy">   -359.34897735 </i>
   </energy>
  </scstep>
  <scstep>
   <time name="diag">    0.08    0.08</time>
   <time name="diis">    0.73    0.73</time>
   <time name="orth">    0.01    0.01</time>
   <time name="total">    0.89    0.90</time>
   <energy>
    <i name="e_fr_energy">   -359.33829755 </i>
    <i name="e_wo_entrp">   -359.37085233 </i>
    <i name="e_0_energy">   -359.34914914 </i>
   </energy>
  </scstep>
  <scstep>
   <time name="diag">    0.08    0.08</time>
   <time name="diis">    0.62    0.62</time>
   <time name="orth">    0.01    0.01</time>
   <time name="total">    0.77    0.79</time>
   <energy>
    <i name="e_fr_energy">   -359.33840783 </i>
    <i name="e_wo_entrp">   -359.37097500 </i>
    <i name="e_0_energy">   -359.34926355 </i>
   </energy>
  </scstep>
  <scstep>
   <time name="diag">    0.10    0.10</time>
   <time name="diis">    0.74    0.75</time>
   <time name="orth">    0.01    0.01</time>
   <time name="total">    1.00    1.02</time>
   <energy>
    <i name="e_fr_energy">   -359.33846417 </i>
    <i name="e_wo_entrp">   -359.37103277 </i>
    <i name="e_0_energy">   -359.34932037 </i>
   </energy>
  </scstep>
  <scstep>
   <time name="diag">    0.08    0.08</time>
   <time name="diis">    0.53    0.54</time>
   <time name="orth">    0.01    0.01</time>
   <time name="total">    0.72    0.77</time>
   <energy>
    <i name="e_fr_energy">   -359.33849875 </i>
    <i name="e_wo_entrp">   -359.37107373 </i>
    <i name="e_0_energy">   -359.34935708 </i>
   </energy>
  </scstep>
  <scstep>
   <time name="diag">    0.08    0.08</time>
   <time name="diis">    0.44    0.45</time>
   <time name="orth">    0.01    0.01</time>
   <time name="total">    0.58    0.59</time>
   <energy>
    <i name="alphaZ">   1460.23174405 </i>
    <i name="ewald"> -18665.89461464 </i>
    <i name="hartreedc">  -5790.47705666 </i>
    <i name="XCdc">   -382.54640901 </i>
    <i name="pawpsdc">  33807.98881526 </i>
    <i name="pawaedc"> -32147.36001077 </i>
    <i name="eentropy">      0.03257081 </i>
    <i name="bandstr">  -2391.96962107 </i>
    <i name="atom">  23750.65608077 </i>
    <i name="e_fr_energy">   -359.33850126 </i>
    <i name="e_wo_entrp">   -359.37107206 </i>
    <i name="e_0_energy">   -359.34935819 </i>
   </energy>
  </scstep>
  <structure>
   <crystal>
    <varray name="basis" >
     <v>       7.02579845       0.00595782       0.05127146 </v>
     <v>       0.00930985      10.21817523       0.00985113 </v>
     <v>       0.07426049       0.00949107      10.26746115 </v>
    </varray>
    <i name="volume">    737.06953436 </i>
    <varray name="rec_basis" >
     <v>       0.14234020      -0.00012869      -0.00102937 </v>
     <v>      -0.00008233       0.09786499      -0.00008987 </v>
     <v>      -0.00071071      -0.00009325       0.09740029 </v>
    </varray>
   </crystal>
   <varray name="positions" >
    <v>       0.47711212       0.00537093       0.64829674 </v>
    <v>       0.28568014       0.17286907       0.85392513 </v>
    <v>       0.00060156       0.99471259       0.99852541 </v>
    <v>       0.02186642       0.99492946       0.68242305 </v>
    <v>       0.00152435       0.66778002       0.32328259 </v>
    <v>       0.51037427       0.99879156       0.33515571 </v>
    <v>       0.48738915       0.32031578       0.64216058 </v>
    <v>       0.97655872       0.33229472       0.99843375 </v>
    <v>       0.73957015       0.51139644       0.83159592 </v>
    <v>       0.74865582       0.15834220       0.16575984 </v>
    <v>       0.26708477       0.82842178       0.83765869 </v>
    <v>       0.54234704       0.33309856       0.01129996 </v>
    <v>       0.50765911       0.99080703       0.01409703 </v>
    <v>       0.00745698       0.67002915       0.00717055 </v>
    <v>       0.73995742       0.83267330       0.15880126 </v>
    <v>       0.97988889       0.98485337       0.31613328 </v>
    <v>       0.25871437       0.84224221       0.16573472 </v>
    <v>       0.77972256       0.15271141       0.49631782 </v>
    <v>       0.49256182       0.67589153       0.00925201 </v>
    <v>       0.46640355       0.67839830       0.66093418 </v>
    <v>       0.24164742       0.51687118       0.51109958 </v>
    <v>       0.02845814       0.67611971       0.67523200 </v>
    <v>       0.73054537       0.50909143       0.15329280 </v>
    <v>       0.23379181       0.82693641       0.49866127 </v>
    <v>       0.72629604       0.16240935       0.83211046 </v>
    <v>       0.51433643       0.33108773       0.34107422 </v>
    <v>       0.01227258       0.33157920       0.67114442 </v>
    <v>       0.27257369       0.48777892       0.15572430 </v>
    <v>       0.97772929       0.34801116       0.32788632 </v>
    <v>       0.49366145       0.66820384       0.33571435 </v>
    <v>       0.20407971       0.15744935       0.47439030 </v>
    <v>       0.75242055       0.51763657       0.52445206 </v>
    <v>       0.76080515       0.83268588       0.51013961 </v>
    <v>       0.26958476       0.49819083       0.83566558 </v>
    <v>       0.25398862       0.16291878       0.16354726 </v>
    <v>       0.73666680       0.82710223       0.83290023 </v>
   </varray>
  </structure>
  <varray name="forces" >
   <v>       0.00553058      -0.01198777       0.02209109 </v>
   <v>      -0.02123674      -0.01099469      -0.00973190 </v>
   <v>      -0.00215479      -0.08503428      -0.06522774 </v>
   <v>      -0.01972102       0.04073506      -0.00975073 </v>
   <v>      -0.01290830      -0.03635222      -0.14453456 </v>
   <v>      -0.01385342      -0.02758399      -0.04281815 </v>
   <v>      -0.00832810       0.03267448       0.02507394 </v>
   <v>       0.05859883       0.09798144      -0.03725737 </v>
   <v>       0.18318918       0.10211705       0.16503446 </v>
   <v>      -0.02398447       0.01988035      -0.00207901 </v>
   <v>      -0.27164914      -0.10531325       0.20193634 </v>
   <v>      -0.04687293      -0.00316662      -0.00152244 </v>
   <v>       0.00828916       0.01067154      -0.01946927 </v>
   <v>      -0.07945039       0.07659653       0.09567592 </v>
   <v>       0.31893679      -0.23417721      -0.13656633 </v>
   <v>       0.02676593       0.05129859       0.03636856 </v>
   <v>      -0.30307398      -0.29616599      -0.18669830 </v>
   <v>      -0.05295337       0.02287358       0.02370560 </v>
   <v>       0.01544039      -0.03324109       0.00431233 </v>
   <v>       0.06433248      -0.01321719       0.03068229 </v>
   <v>      -0.00782957      -0.05940041      -0.05033387 </v>
   <v>      -0.06138265      -0.01193883       0.07453804 </v>
   <v>       0.35278599       0.22872433      -0.15846561 </v>
   <v>       0.01617583       0.04209364      -0.03468067 </v>
   <v>       0.01616202       0.00194523      -0.02416388 </v>
   <v>      -0.02324749       0.02853761      -0.04428021 </v>
   <v>       0.01363287      -0.02616861       0.01155172 </v>
   <v>      -0.25657571       0.21841631      -0.08575943 </v>
   <v>       0.00498729      -0.04766635       0.04281743 </v>
   <v>       0.03864033      -0.02737852       0.01222180 </v>
   <v>       0.02731791       0.04254836      -0.00701140 </v>
   <v>       0.03555115      -0.01931621       0.01185325 </v>
   <v>      -0.01618494      -0.00018171       0.01525866 </v>
   <v>      -0.19105739       0.08866618       0.13053128 </v>
   <v>       0.01809204       0.02760735       0.00926119 </v>
   <v>       0.20803563      -0.08408270       0.14743698 </v>
  </varray>
  <varray name="stress" >
   <v>       8.31543210      -0.20033717       0.17492696 </v>
   <v>      -0.20033718      10.75743969      -0.35886198 </v>
   <v>       0.17492696      -0.35886196      10.72931778 </v>
  </varray>
  <energy>
   <i name="e_fr_energy">   -359.33850126 </i>
   <i name="e_wo_entrp">   -359.34935819 </i>
   <i name="e_0_energy">      0.03257081 </i>
  </energy>
  <time name="totalsc">   13.40   13.89</time>
 </calculation>
 <calculation>
  <scstep>
   <time name="dav">    0.89    0.90</time>
   <time name="total">    1.08    1.14</time>
   <energy>
    <i name="alphaZ">   1458.21122627 </i>
    <i name="ewald"> -18664.13310978 </i>
    <i name="hartreedc">  -5781.35851700 </i>
    <i name="XCdc">   -382.94922716 </i>
    <i name="pawpsdc">  33808.52504935 </i>
    <i name="pawaedc"> -32147.88436162 </i>
    <i name="eentropy">      0.03103845 </i>
    <i name="bandstr">  -2400.47208084 </i>
    <i name="atom">  23750.65608077 </i>
    <i name="e_fr_energy">   -359.37390156 </i>
    <i name="e_wo_entrp">   -359.40494001 </i>
    <i name="e_0_energy">   -359.38424771 </i>
   </energy>
  </scstep>
  <scstep>
   <time name="diag">    0.08    0.08</time>
   <time name="diis">    0.73    0.74</time>
   <time name="orth">    0.01    0.01</time>
   <time name="total">    0.89    0.91</time>
   <energy>
    <i name="e_fr_energy">   -359.37939112 </i>
    <i name="e_wo_entrp">   -359.41123737 </i>
    <i name="e_0_energy">   -359.39000654 </i>
   </energy>
  </scstep>
  <scstep>
   <time name="diag">    0.08    0.08</time>
   <time name="diis">    0.74    0.77</time>
   <time name="orth">    0.01    0.01</time>
   <time name="total">    0.89    0.94</time>
   <energy>
    <i name="e_fr_energy">   -359.37682847 </i>
    <i name="e_wo_entrp">   -359.40851745 </i>
    <i name="e_0_energy">   -359.38739147 </i>
   </energy>
  </scstep>
  <scstep>
   <time name="diag">    0.08    0.08</time>
   <time name="diis">    0.83    0.84</time>
   <time name="orth">    0.01    0.01</time>
   <time name="total">    0.99    1.01</time>
   <energy>
    <i name="e_fr_energy">   -359.37581904 </i>
    <i name="e_wo_entrp">   -359.40742294 </i>
    <i name="e_0_energy">   -359.38635367 </i>
   </energy>
  </scstep>
  <scstep>
   <time name="diag">    0.08    0.08</time>
   <time name="diis">    0.76    0.76</time>
   <time name="orth">    0.01    0.01</time>
   <time name="total">    0.91    0.93</time>
   <energy>
    <i name="e_fr_energy">   -359.37568717 </i>
    <i name="e_wo_entrp">   -359.40738440 </i>
    <i name="e_0_energy">   -359.38625291 </i>
   </energy>
  </scstep>
  <scstep>
   <time name="diag">    0.07    0.08</time>
   <time name="diis">    0.77    0.78</time>
   <time name="orth">    0.01    0.01</time>
   <time name="total">    0.93    0.95</time>
   <energy>
    <i name="e_fr_energy">   -359.37564790 </i>
    <i name="e_wo_entrp">   -359.40739511 </i>
    <i name="e_0_energy">   -359.38623031 </i>
   </energy>
  </scstep>
  <scstep>
   <time name="diag">    0.08    0.08</time>
   <time name="diis">    0.70    0.71</time>
   <time name="orth">    0.01    0.01</time>
   <time name="total">    0.89    0.91</time>
   <energy>
    <i name="e_fr_energy">   -359.37564073 </i>
    <i name="e_wo_entrp">   -359.40728077 </i>
    <i name="e_0_energy">   -359.38618741 </i>
   </energy>
  </scstep>
  <scstep>
   <time name="diag">    0.08    0.08</time>
   <time name="diis">    0.54    0.54</time>
   <time name="orth">    0.01    0.01</time>
   <time name="total">    0.70    0.72</time>
   <energy>
    <i name="e_fr_energy">   -359.37563792 </i>
    <i name="e_wo_entrp">   -359.40731915 </i>
    <i name="e_0_energy">   -359.38619833 </i>
   </energy>
  </scstep>
  <scstep>
   <time name="diag">    0.07    0.08</time>
   <time name="diis">    0.50    0.51</time>
   <time name="orth">    0.01    0.01</time>
   <time name="total">    0.64    0.70</time>
   <energy>
    <i name="alphaZ">   1458.21122627 </i>
    <i name="ewald"> -18664.13310978 </i>
    <i name="hartreedc">  -5785.96684410 </i>
    <i name="XCdc">   -382.73406337 </i>
    <i name="pawpsdc">  33733.73303290 </i>
    <i name="pawaedc"> -32073.09418088 </i>
    <i name="eentropy">      0.03167835 </i>
    <i name="bandstr">  -2396.07945812 </i>
    <i name="atom">  23750.65608077 </i>
    <i name="e_fr_energy">   -359.37563796 </i>
    <i name="e_wo_entrp">   -359.40731631 </i>
    <i name="e_0_energy">   -359.38619741 </i>
   </energy>
  </scstep>
  <structure>
   <crystal>
    <varray name="basis" >
     <v>       7.02500902       0.00529724       0.05200268 </v>
     <v>       0.00835142      10.22565751       0.00866547 </v>
     <v>       0.07526345       0.00829117      10.27533025 </v>
    </varray>
    <i name="volume">    738.09082816 </i>
    <varray name="rec_basis" >
     <v>       0.14235638      -0.00011538      -0.00104262 </v>
     <v>      -0.00007316       0.09779335      -0.00007837 </v>
     <v>      -0.00072039      -0.00008189       0.09732582 </v>
    </varray>
   </crystal>
   <varray name="positions" >
    <v>       0.47708758       0.00536629       0.64829192 </v>
    <v>       0.28562368       0.17283736       0.85391051 </v>
    <v>       0.00056746       0.99440338       0.99839600 </v>
    <v>       0.02184967       0.99503369       0.68237885 </v>
    <v>       0.00149269       0.66773617       0.32283895 </v>
    <v>       0.51035831       0.99877496       0.33510034 </v>
    <v>       0.48733555       0.32035306       0.64215265 </v>
    <v>       0.97667169       0.33261795       0.99836554 </v>
    <v>       0.74034646       0.51173222       0.83213281 </v>
    <v>       0.74858946       0.15836289       0.16572735 </v>
    <v>       0.26594698       0.82802912       0.83827343 </v>
    <v>       0.54227144       0.33307163       0.01128666 </v>
    <v>       0.50771029       0.99084856       0.01408270 </v>
    <v>       0.00709526       0.67024734       0.00746225 </v>
    <v>       0.74133483       0.83200001       0.15831679 </v>
    <v>       0.97992966       0.98499144       0.31623713 </v>
    <v>       0.25748095       0.84140272       0.16515868 </v>
    <v>       0.77962817       0.15275852       0.49634390 </v>
    <v>       0.49256475       0.67582459       0.00929538 </v>
    <v>       0.46654590       0.67835966       0.66096169 </v>
    <v>       0.24160897       0.51681350       0.51102361 </v>
    <v>       0.02836504       0.67611766       0.67541623 </v>
    <v>       0.73201080       0.50976731       0.15272878 </v>
    <v>       0.23379813       0.82696948       0.49860924 </v>
    <v>       0.72633011       0.16242129       0.83209238 </v>
    <v>       0.51428654       0.33110735       0.34102204 </v>
    <v>       0.01234473       0.33148596       0.67112707 </v>
    <v>       0.27155689       0.48842920       0.15540960 </v>
    <v>       0.97770394       0.34786440       0.32802712 </v>
    <v>       0.49376229       0.66815775       0.33576988 </v>
    <v>       0.20409757       0.15753879       0.47438325 </v>
    <v>       0.75253318       0.51761970       0.52449568 </v>
    <v>       0.76079503       0.83268248       0.51017597 </v>
    <v>       0.26879696       0.49851989       0.83608110 </v>
    <v>       0.25403169       0.16296104       0.16354095 </v>
    <v>       0.73753432       0.82679468       0.83337658 </v>
   </varray>
  </structure>
  <varray name="forces" >
   <v>       0.00453334      -0.02450605       0.03336548 </v>
   <v>      -0.00391296      -0.00824833      -0.00362963 </v>
   <v>       0.00581490      -0.05134915      -0.05953653 </v>
   <v>      -0.01911777       0.02506258      -0.00965114 </v>
   <v>      -0.00842996      -0.04102465      -0.10111174 </v>
   <v>      -0.00737808      -0.05116711      -0.07153060 </v>
   <v>      -0.00889145       0.04354123       0.04317262 </v>
   <v>       0.04943235       0.05954844      -0.03568763 </v>
   <v>       0.13983140       0.07482125       0.12154193 </v>
   <v>      -0.03601423       0.01788593      -0.00115121 </v>
   <v>      -0.21026914      -0.07975363       0.14465892 </v>
   <v>      -0.03248060       0.01252808       0.02415399 </v>
   <v>      -0.00046033      -0.02093658      -0.00219152 </v>
   <v>      -0.05781783       0.07430971       0.07935236 </v>
   <v>       0.24011109      -0.17687461      -0.09465787 </v>
   <v>       0.02311391       0.03862741       0.02181545 </v>
   <v>      -0.24249052      -0.23638687      -0.15103787 </v>
   <v>      -0.06194855       0.01316885       0.02147978 </v>
   <v>       0.03405764      -0.01745149       0.01225492 </v>
   <v>       0.03119355      -0.00093641       0.03524718 </v>
   <v>      -0.00292482      -0.04977003      -0.03254613 </v>
   <v>      -0.04509949      -0.01023528       0.04482064 </v>
   <v>       0.26238202       0.17503691      -0.12494108 </v>
   <v>       0.02094431       0.03770445      -0.02226925 </v>
   <v>       0.00303578       0.00202291      -0.02176568 </v>
   <v>      -0.01704515       0.04428527      -0.06962541 </v>
   <v>       0.01348285      -0.01302836       0.01722535 </v>
   <v>      -0.20249520       0.18048656      -0.06051256 </v>
   <v>      -0.00229335      -0.03757398       0.02980014 </v>
   <v>       0.03731549      -0.02909568      -0.00388730 </v>
   <v>       0.03084837       0.02925321      -0.01248729 </v>
   <v>       0.03970032      -0.01521033       0.02441356 </v>
   <v>      -0.01658667       0.00296253       0.01810065 </v>
   <v>      -0.15111594       0.06626484       0.08842623 </v>
   <v>       0.03008936       0.02319836       0.01285104 </v>
   <v>       0.16088535      -0.05715998       0.10554020 </v>
  </varray>
  <varray name="stress" >
   <v>       6.71844097      -0.09744744       0.09925090 </v>
   <v>      -0.09744743       8.79428612      -0.35905457 </v>
   <v>       0.09925087      -0.35905458       8.76136992 </v>
  </varray>
  <energy>
   <i name="e_fr_energy">   -359.37563796 </i>
   <i name="e_wo_entrp">   -359.38619741 </i>
   <i name="e_0_energy">      0.03167835 </i>
  </energy>
  <time name="totalsc">    9.43    9.78</time>
 </calculation>
 <calculation>
  <scstep>
   <time name="dav">    0.88    0.89</time>
   <time name="total">    1.02    1.09</time>
   <energy>
    <i name="alphaZ">   1452.17686096 </i>
    <i name="ewald"> -18656.98596075 </i>
    <i name="hartreedc">  -5760.30369375 </i>
    <i name="XCdc">   -383.93184833 </i>
    <i name="pawpsdc">  33733.32809529 </i>
    <i name="pawaedc"> -32072.72758863 </i>
    <i name="eentropy">      0.02650645 </i>
    <i name="bandstr">  -2421.64928837 </i>
    <i name="atom">  23750.65608077 </i>
    <i name="e_fr_energy">   -359.41083637 </i>
    <i name="e_wo_entrp">   -359.43734282 </i>
    <i name="e_0_energy">   -359.41967185 </i>
   </energy>
  </scstep>
  <scstep>
   <time name="diag">    0.08    0.08</time>
   <time name="diis">    0.75    0.75</time>
   <time name="orth">    0.01    0.01</time>
   <time name="total">    0.90    0.92</time>
   <energy>
    <i name="e_fr_energy">   -359.45905925 </i>
    <i name="e_wo_entrp">   -359.48753791 </i>
    <i name="e_0_energy">   -359.46855213 </i>
   </energy>
  </scstep>
  <scstep>
   <time name="diag">    0.08    0.08</time>
   <time name="diis">    0.77    0.78</time>
   <time name="orth">    0.01    0.01</time>
   <time name="total">    0.93    0.95</time>
   <energy>
    <i name="e_fr_energy">   -359.44150950 </i>
    <i name="e_wo_entrp">   -359.46989143 </i>
    <i name="e_0_energy">   -359.45097015 </i>
   </energy>
  </scstep>
  <scstep>
   <time name="diag">    0.08    0.08</time>
   <time name="diis">    0.83    0.84</time>
   <time name="orth">    0.01    0.01</time>
   <time name="total">    0.99    1.01</time>
   <energy>
    <i name="e_fr_energy">   -359.43224775 </i>
    <i name="e_wo_entrp">   -359.46028950 </i>
    <i name="e_0_energy">   -359.44159500 </i>
   </energy>
  </scstep>
  <scstep>
   <time name="diag">    0.09    0.09</time>
   <time name="diis">    0.76    0.77</time>
   <time name="orth">    0.01    0.01</time>
   <time name="total">    0.93    0.95</time>
   <energy>
    <i name="e_fr_energy">   -359.43117490 </i>
    <i name="e_wo_entrp">   -359.45954003 </i>
    <i name="e_0_energy">   -359.44062995 </i>
   </energy>
  </scstep>
  <scstep>
   <time name="diag">    0.08    0.08</time>
   <time name="diis">    0.81    0.82</time>
   <time name="orth">    0.01    0.01</time>
   <time name="total">    0.97    0.98</time>
   <energy>
    <i name="e_fr_energy">   -359.43082066 </i>
    <i name="e_wo_entrp">   -359.45927358 </i>
    <i name="e_0_energy">   -359.44030497 </i>
   </energy>
  </scstep>
  <scstep>
   <time name="diag">    0.13    0.13</time>
   <time name="diis">    0.94    0.95</time>
   <time name="orth">    0.01    0.01</time>
   <time name="total">    1.15    1.17</time>
   <energy>
    <i name="e_fr_energy">   -359.43083162 </i>
    <i name="e_wo_entrp">   -359.45902453 </i>
    <i name="e_0_energy">   -359.44022925 </i>
   </energy>
  </scstep>
  <scstep>
   <time name="diag">    0.08    0.08</time>
   <time name="diis">    0.76    0.77</time>
   <time name="orth">    0.03    0.03</time>
   <time name="total">    0.94    0.95</time>
   <energy>
    <i name="e_fr_energy">   -359.43085395 </i>
    <i name="e_wo_entrp">   -359.45915414 </i>
    <i name="e_0_energy">   -359.44028735 </i>
   </energy>
  </scstep>
  <scstep>
   <time name="diag">    0.18    0.18</time>
   <time name="diis">    0.74    0.74</time>
   <time name="orth">    0.01    0.01</time>
   <time name="total">    1.00    1.02</time>
   <energy>
    <i name="e_fr_energy">   -359.43087950 </i>
    <i name="e_wo_entrp">   -359.45917812 </i>
    <i name="e_0_energy">   -359.44031237 </i>
   </energy>
  </scstep>
  <scstep>
   <time name="diag">    0.08    0.08</time>
   <time name="diis">    0.63    0.63</time>
   <time name="orth">    0.01    0.01</time>
   <time name="total">    0.79    0.82</time>
   <energy>
    <i name="e_fr_energy">   -359.43088999 </i>
    <i name="e_wo_entrp">   -359.45919164 </i>
    <i name="e_0_energy">   -359.44032388 </i>
   </energy>
  </scstep>
  <scstep>
   <time name="diag">    0.08    0.08</time>
   <time name="diis">    0.57    0.57</time>
   <time name="orth">    0.01    0.01</time>
   <time name="total">    0.74    0.77</time>
   <energy>
    <i name="e_fr_energy">   -359.43089173 </i>
    <i name="e_wo_entrp">   -359.45918482 </i>
    <i name="e_0_energy">   -359.44032276 </i>
   </energy>
  </scstep>
  <scstep>
   <time name="diag">    0.08    0.08</time>
   <time name="diis">    0.44    0.45</time>
   <time name="orth">    0.01    0.01</time>
   <time name="total">    0.57    0.58</time>
   <energy>
    <i name="alphaZ">   1452.17686096 </i>
    <i name="ewald"> -18656.98596075 </i>
    <i name="hartreedc">  -5773.59902750 </i>
    <i name="XCdc">   -383.31224566 </i>
    <i name="pawpsdc">  33513.38486713 </i>
    <i name="pawaedc"> -31853.40038156 </i>
    <i name="eentropy">      0.02829209 </i>
    <i name="bandstr">  -2408.37937603 </i>
    <i name="atom">  23750.65608077 </i>
    <i name="e_fr_energy">   -359.43089055 </i>
    <i name="e_wo_entrp">   -359.45918263 </i>
    <i name="e_0_energy">   -359.44032124 </i>
   </energy>
  </scstep>
  <structure>
   <crystal>
    <varray name="basis" >
     <v>       7.02264073       0.00331553       0.05419636 </v>
     <v>       0.00547611      10.24810435       0.00510847 </v>
     <v>       0.07827234       0.00469147      10.29893752 </v>
    </varray>
    <i name="volume">    741.15788550 </i>
    <varray name="rec_basis" >
     <v>       0.14240496      -0.00007556      -0.00108225 </v>
     <v>      -0.00004573       0.09757907      -0.00004410 </v>
     <v>      -0.00074936      -0.00004800       0.09710311 </v>
    </varray>
   </crystal>
   <varray name="positions" >
    <v>       0.47701393       0.00535236       0.64827748 </v>
    <v>       0.28545428       0.17274229       0.85386666 </v>
    <v>       0.00046509       0.99347638       0.99800796 </v>
    <v>       0.02179947       0.99534610       0.68224637 </v>
    <v>       0.00139784       0.66760456       0.32150904 </v>
    <v>       0.51031044       0.99872517       0.33493434 </v>
    <v>       0.48717475       0.32046482       0.64212892 </v>
    <v>       0.97701081       0.33358690       0.99816116 </v>
    <v>       0.74267560       0.51273915       0.83374219 </v>
    <v>       0.74839038       0.15842489       0.16562996 </v>
    <v>       0.26253284       0.82685200       0.84011633 </v>
    <v>       0.54204461       0.33299086       0.01124682 </v>
    <v>       0.50786386       0.99097307       0.01403976 </v>
    <v>       0.00600995       0.67090146       0.00833683 </v>
    <v>       0.74546745       0.82998170       0.15686398 </v>
    <v>       0.98005201       0.98540539       0.31654849 </v>
    <v>       0.25378016       0.83888566       0.16343184 </v>
    <v>       0.77934496       0.15289971       0.49642209 </v>
    <v>       0.49257352       0.67562393       0.00942535 </v>
    <v>       0.46697297       0.67824385       0.66104413 </v>
    <v>       0.24149364       0.51664053       0.51079587 </v>
    <v>       0.02808565       0.67611155       0.67596853 </v>
    <v>       0.73640809       0.51179354       0.15103792 </v>
    <v>       0.23381713       0.82706859       0.49845326 </v>
    <v>       0.72643232       0.16245709       0.83203817 </v>
    <v>       0.51413690       0.33116613       0.34086563 </v>
    <v>       0.01256120       0.33120646       0.67107501 </v>
    <v>       0.26850657       0.49037830       0.15446667 </v>
    <v>       0.97762777       0.34742448       0.32844913 </v>
    <v>       0.49406480       0.66801961       0.33593630 </v>
    <v>       0.20415122       0.15780689       0.47436214 </v>
    <v>       0.75287106       0.51756917       0.52462642 </v>
    <v>       0.76076466       0.83267229       0.51028497 </v>
    <v>       0.26643328       0.49950633       0.83732699 </v>
    <v>       0.25416091       0.16308772       0.16352206 </v>
    <v>       0.74013686       0.82587306       0.83480422 </v>
   </varray>
  </structure>
  <varray name="forces" >
   <v>       0.00259674      -0.05602613       0.06269293 </v>
   <v>       0.04461207      -0.00215835       0.01325889 </v>
   <v>       0.03211350       0.04790791      -0.04050406 </v>
   <v>      -0.01570836      -0.01878657      -0.01065552 </v>
   <v>       0.00563186      -0.05541154       0.03894739 </v>
   <v>       0.01145679      -0.11325703      -0.14542155 </v>
   <v>      -0.01074952       0.07385392       0.09425891 </v>
   <v>       0.02581476      -0.05764375      -0.03164891 </v>
   <v>       0.01396876      -0.00813766      -0.00672723 </v>
   <v>      -0.07446393       0.01669774       0.00135772 </v>
   <v>      -0.03708122      -0.00567650      -0.01600357 </v>
   <v>       0.00701525       0.05072138       0.09500634 </v>
   <v>      -0.03122748      -0.10154782       0.04424288 </v>
   <v>       0.01779489       0.06148570       0.01196627 </v>
   <v>       0.01114667      -0.00753372       0.03628243 </v>
   <v>       0.01268305       0.00504477      -0.01590385 </v>
   <v>      -0.06982563      -0.06817096      -0.04773571 </v>
   <v>      -0.09445828      -0.01605315       0.01380930 </v>
   <v>       0.08834952       0.02544192       0.03527253 </v>
   <v>      -0.06312609       0.03329405       0.04214473 </v>
   <v>       0.01123948      -0.02265903       0.01599001 </v>
   <v>      -0.00061015      -0.00904259      -0.04633404 </v>
   <v>       0.00470264       0.01893047      -0.01802720 </v>
   <v>       0.03967305       0.02670948       0.01031960 </v>
   <v>      -0.03423295       0.00410235      -0.01584831 </v>
   <v>       0.00097464       0.08486408      -0.13534870 </v>
   <v>       0.01364174       0.02729705       0.03360193 </v>
   <v>      -0.05066405       0.07482736       0.01365953 </v>
   <v>      -0.02668222      -0.00741974      -0.00874433 </v>
   <v>       0.03202488      -0.03342796      -0.04777283 </v>
   <v>       0.04781222      -0.01095021      -0.02771654 </v>
   <v>       0.05204242      -0.00282902       0.05692790 </v>
   <v>      -0.01976962       0.01322720       0.02522800 </v>
   <v>      -0.03414298      -0.00018382      -0.03359969 </v>
   <v>       0.06551022       0.01111158       0.02405418 </v>
   <v>       0.02193732       0.02139863      -0.02102944 </v>
  </varray>
  <varray name="stress" >
   <v>       1.70640140       0.26304100      -0.16170690 </v>
   <v>       0.26304100       2.99311645      -0.36902073 </v>
   <v>      -0.16170690      -0.36902070       2.80391266 </v>
  </varray>
  <energy>
   <i name="e_fr_energy">   -359.43089055 </i>
   <i name="e_wo_entrp">   -359.44032124 </i>
   <i name="e_0_energy">      0.02829209 </i>
  </energy>
  <time name="totalsc">   12.52   13.16</time>
 </calculation>
 <calculation>
  <scstep>
   <time name="dav">    1.01    1.02</time>
   <time name="total">    1.11    1.27</time>
   <energy>
    <i name="alphaZ">   1451.19240575 </i>
    <i name="ewald"> -18655.54679538 </i>
    <i name="hartreedc">  -5769.61234839 </i>
    <i name="XCdc">   -383.50808344 </i>
    <i name="pawpsdc">  33512.60345921 </i>
    <i name="pawaedc"> -31852.65489138 </i>
    <i name="eentropy">      0.02739451 </i>
    <i name="bandstr">  -2412.58893630 </i>
    <i name="atom">  23750.65608077 </i>
    <i name="e_fr_energy">   -359.43171466 </i>
    <i name="e_wo_entrp">   -359.45910917 </i>
    <i name="e_0_energy">   -359.44084617 </i>
   </energy>
  </scstep>
  <scstep>
   <time name="diag">    0.08    0.08</time>
   <time name="diis">    0.77    0.78</time>
   <time name="orth">    0.01    0.01</time>
   <time name="total">    0.93    0.95</time>
   <energy>
    <i name="e_fr_energy">   -359.43292943 </i>
    <i name="e_wo_entrp">   -359.46065616 </i>
    <i name="e_0_energy">   -359.44217167 </i>
   </energy>
  </scstep>
  <scstep>
   <time name="diag">    0.08    0.08</time>
   <time name="diis">    0.75    0.76</time>
   <time name="orth">    0.01    0.01</time>
   <time name="total">    0.91    0.93</time>
   <energy>
    <i name="e_fr_energy">   -359.43236445 </i>
    <i name="e_wo_entrp">   -359.46006594 </i>
    <i name="e_0_energy">   -359.44159828 </i>
   </energy>
  </scstep>
  <scstep>
   <time name="diag">    0.08    0.08</time>
   <time name="diis">    0.83    0.84</time>
   <time name="orth">    0.01    0.01</time>
   <time name="total">    0.99    1.01</time>
   <energy>
    <i name="e_fr_energy">   -359.43213211 </i>
    <i name="e_wo_entrp">   -359.45975569 </i>
    <i name="e_0_energy">   -359.44133997 </i>
   </energy>
  </scstep>
  <scstep>
[...]
       <r>    6.5019    1.0000 </r>
       <r>    6.5558    1.0000 </r>
       <r>    6.5935    1.0000 </r>
       <r>    6.6455    1.0000 </r>
       <r>    6.6630    1.0000 </r>
       <r>    6.6828    1.0000 </r>
       <r>    6.7564    1.0000 </r>
       <r>    6.7715    1.0000 </r>
       <r>    6.8282    1.0000 </r>
       <r>    6.8699    1.0002 </r>
       <r>    6.9062    1.0007 </r>
       <r>    6.9323    1.0016 </r>
       <r>    6.9607    1.0034 </r>
       <r>    7.0124    1.0109 </r>
       <r>    7.0515    1.0213 </r>
       <r>    7.0896    1.0323 </r>
       <r>    7.1168    1.0354 </r>
       <r>    7.1353    1.0315 </r>
       <r>    7.1879    0.9696 </r>
       <r>    7.2192    0.8808 </r>
       <r>    7.2397    0.7996 </r>
       <r>    7.2947    0.5143 </r>
       <r>    7.3327    0.3058 </r>
       <r>    7.3810    0.0995 </r>
       <r>    7.4105    0.0223 </r>
       <r>    7.4366   -0.0161 </r>
       <r>    7.4692   -0.0344 </r>
       <r>    7.4967   -0.0340 </r>
       <r>    7.5504   -0.0191 </r>
       <r>    7.5585   -0.0168 </r>
       <r>    7.6177   -0.0050 </r>
       <r>    7.6796   -0.0009 </r>
       <r>    7.7233   -0.0002 </r>
       <r>    7.7730   -0.0000 </r>
       <r>    7.7937   -0.0000 </r>
       <r>    7.8368   -0.0000 </r>
       <r>    7.8955   -0.0000 </r>
       <r>    7.9373   -0.0000 </r>
       <r>    7.9816   -0.0000 </r>
       <r>    7.9851   -0.0000 </r>
       <r>    8.0700   -0.0000 </r>
       <r>    8.1064   -0.0000 </r>
       <r>    8.1778   -0.0000 </r>
       <r>    8.2080   -0.0000 </r>
       <r>    8.2710   -0.0000 </r>
       <r>    8.4825   -0.0000 </r>
       <r>    8.5764   -0.0000 </r>
       <r>    8.6623   -0.0000 </r>
       <r>    9.1445   -0.0000 </r>
      </set>
     </set>
    </set>
   </array>
  </eigenvalues>
  <separator name="orbital magnetization" >
   <v name="MAGDIPOLOUT">      0.00000000      0.00000000      0.00000000</v>
  </separator>
  <dos>
   <i name="efermi">      7.29722460 </i>
   <total>
    <array>
     <dimension dim="1">gridpoints</dimension>
     <dimension dim="2">spin</dimension>
     <field>energy</field>
     <field>total</field>
     <field>integrated</field>
     <set>
      <set comment="spin 1">
       <r>   -49.7218     0.0000     0.0000 </r>
       <r>   -49.5163     0.0000     0.0000 </r>
       <r>   -49.3107     0.0000     0.0000 </r>
       <r>   -49.1051     0.0000     0.0000 </r>
       <r>   -48.8996     0.0000     0.0000 </r>
       <r>   -48.6940     0.0000     0.0000 </r>
       <r>   -48.4884     0.0000     0.0000 </r>
       <r>   -48.2829    -0.0000    -0.0000 </r>
       <r>   -48.0773    -0.0000    -0.0000 </r>
       <r>   -47.8717    -0.0000    -0.0000 </r>
       <r>   -47.6662    -0.0000    -0.0000 </r>
       <r>   -47.4606    -0.0000    -0.0000 </r>
       <r>   -47.2550    -0.0537    -0.0110 </r>
       <r>   -47.0495    -0.7221    -0.1595 </r>
       <r>   -46.8439    22.9832     4.5651 </r>
       <r>   -46.6384    17.6028     8.1836 </r>
       <r>   -46.4328    -0.8682     8.0051 </r>
       <r>   -46.2272    -0.0249     8.0000 </r>
       <r>   -46.0217    -0.0000     8.0000 </r>
       <r>   -45.8161    -0.0000     8.0000 </r>
       <r>   -45.6105     0.0000     8.0000 </r>
       <r>   -45.4050     0.0000     8.0000 </r>
       <r>   -45.1994     0.0000     8.0000 </r>
       <r>   -44.9938     0.0000     8.0000 </r>
       <r>   -44.7883     0.0000     8.0000 </r>
       <r>   -44.5827     0.0000     8.0000 </r>
       <r>   -44.3771     0.0000     8.0000 </r>
       <r>   -44.1716     0.0000     8.0000 </r>
       <r>   -43.9660     0.0000     8.0000 </r>
       <r>   -43.7604     0.0000     8.0000 </r>
       <r>   -43.5549     0.0000     8.0000 </r>
       <r>   -43.3493     0.0000     8.0000 </r>
       <r>   -43.1437     0.0000     8.0000 </r>
       <r>   -42.9382     0.0000     8.0000 </r>
       <r>   -42.7326     0.0000     8.0000 </r>
       <r>   -42.5271     0.0000     8.0000 </r>
       <r>   -42.3215    -0.0000     8.0000 </r>
       <r>   -42.1159    -0.0000     8.0000 </r>
       <r>   -41.9104    -0.0000     8.0000 </r>
       <r>   -41.7048    -0.0000     8.0000 </r>
       <r>   -41.4992    -0.0007     7.9999 </r>
       <r>   -41.2937    -0.3705     7.9237 </r>
       <r>   -41.0881     0.9486     8.1187 </r>
       <r>   -40.8825    75.1330    23.5634 </r>
       <r>   -40.6770    43.5838    32.5227 </r>
       <r>   -40.4714    -2.4976    32.0093 </r>
       <r>   -40.2658    -0.0451    32.0000 </r>
       <r>   -40.0603    -0.0000    32.0000 </r>
       <r>   -39.8547    -0.0000    32.0000 </r>
       <r>   -39.6491     0.0000    32.0000 </r>
       <r>   -39.4436     0.0000    32.0000 </r>
       <r>   -39.2380     0.0000    32.0000 </r>
       <r>   -39.0325     0.0000    32.0000 </r>
       <r>   -38.8269     0.0000    32.0000 </r>
       <r>   -38.6213     0.0000    32.0000 </r>
       <r>   -38.4158     0.0000    32.0000 </r>
       <r>   -38.2102     0.0000    32.0000 </r>
       <r>   -38.0046     0.0000    32.0000 </r>
       <r>   -37.7991     0.0000    32.0000 </r>
       <r>   -37.5935     0.0000    32.0000 </r>
       <r>   -37.3879     0.0000    32.0000 </r>
       <r>   -37.1824     0.0000    32.0000 </r>
       <r>   -36.9768     0.0000    32.0000 </r>
       <r>   -36.7712     0.0000    32.0000 </r>
       <r>   -36.5657     0.0000    32.0000 </r>
       <r>   -36.3601     0.0000    32.0000 </r>
       <r>   -36.1545     0.0000    32.0000 </r>
       <r>   -35.9490     0.0000    32.0000 </r>
       <r>   -35.7434     0.0000    32.0000 </r>
       <r>   -35.5378     0.0000    32.0000 </r>
       <r>   -35.3323     0.0000    32.0000 </r>
       <r>   -35.1267     0.0000    32.0000 </r>
       <r>   -34.9212     0.0000    32.0000 </r>
       <r>   -34.7156     0.0000    32.0000 </r>
       <r>   -34.5100     0.0000    32.0000 </r>
       <r>   -34.3045     0.0000    32.0000 </r>
       <r>   -34.0989     0.0000    32.0000 </r>
       <r>   -33.8933     0.0000    32.0000 </r>
       <r>   -33.6878     0.0000    32.0000 </r>
       <r>   -33.4822     0.0000    32.0000 </r>
       <r>   -33.2766     0.0000    32.0000 </r>
       <r>   -33.0711     0.0000    32.0000 </r>
       <r>   -32.8655     0.0000    32.0000 </r>
       <r>   -32.6599     0.0000    32.0000 </r>
       <r>   -32.4544     0.0000    32.0000 </r>
       <r>   -32.2488     0.0000    32.0000 </r>
       <r>   -32.0432     0.0000    32.0000 </r>
       <r>   -31.8377     0.0000    32.0000 </r>
       <r>   -31.6321     0.0000    32.0000 </r>
       <r>   -31.4265     0.0000    32.0000 </r>
       <r>   -31.2210     0.0000    32.0000 </r>
       <r>   -31.0154     0.0000    32.0000 </r>
       <r>   -30.8099     0.0000    32.0000 </r>
       <r>   -30.6043     0.0000    32.0000 </r>
       <r>   -30.3987     0.0000    32.0000 </r>
       <r>   -30.1932     0.0000    32.0000 </r>
       <r>   -29.9876     0.0000    32.0000 </r>
       <r>   -29.7820     0.0000    32.0000 </r>
       <r>   -29.5765     0.0000    32.0000 </r>
       <r>   -29.3709     0.0000    32.0000 </r>
       <r>   -29.1653     0.0000    32.0000 </r>
       <r>   -28.9598     0.0000    32.0000 </r>
       <r>   -28.7542     0.0000    32.0000 </r>
       <r>   -28.5486     0.0000    32.0000 </r>
       <r>   -28.3431     0.0000    32.0000 </r>
       <r>   -28.1375     0.0000    32.0000 </r>
       <r>   -27.9319     0.0000    32.0000 </r>
       <r>   -27.7264     0.0000    32.0000 </r>
       <r>   -27.5208     0.0000    32.0000 </r>
       <r>   -27.3152     0.0000    32.0000 </r>
       <r>   -27.1097     0.0000    32.0000 </r>
       <r>   -26.9041     0.0000    32.0000 </r>
       <r>   -26.6986     0.0000    32.0000 </r>
       <r>   -26.4930     0.0000    32.0000 </r>
       <r>   -26.2874     0.0000    32.0000 </r>
       <r>   -26.0819     0.0000    32.0000 </r>
       <r>   -25.8763     0.0000    32.0000 </r>
       <r>   -25.6707     0.0000    32.0000 </r>
       <r>   -25.4652     0.0000    32.0000 </r>
       <r>   -25.2596     0.0000    32.0000 </r>
       <r>   -25.0540     0.0000    32.0000 </r>
       <r>   -24.8485     0.0000    32.0000 </r>
       <r>   -24.6429    -0.0000    32.0000 </r>
       <r>   -24.4373    -0.0000    32.0000 </r>
       <r>   -24.2318    -0.0000    32.0000 </r>
       <r>   -24.0262    -0.0000    32.0000 </r>
       <r>   -23.8206    -0.0000    32.0000 </r>
       <r>   -23.6151    -0.0353    31.9927 </r>
       <r>   -23.4095    -0.4669    31.8968 </r>
       <r>   -23.2040    12.2506    34.4151 </r>
       <r>   -22.9984    47.3919    44.1572 </r>
       <r>   -22.7928    43.2272    53.0432 </r>
       <r>   -22.5873    14.5151    56.0270 </r>
       <r>   -22.3817    -0.0645    56.0137 </r>
       <r>   -22.1761    -0.0666    56.0000 </r>
       <r>   -21.9706    -0.0000    56.0000 </r>
       <r>   -21.7650    -0.0000    56.0000 </r>
       <r>   -21.5594     0.0000    56.0000 </r>
       <r>   -21.3539     0.0000    56.0000 </r>
       <r>   -21.1483     0.0000    56.0000 </r>
       <r>   -20.9427     0.0000    56.0000 </r>
       <r>   -20.7372    -0.0000    56.0000 </r>
       <r>   -20.5316    -0.0000    56.0000 </r>
       <r>   -20.3260    -0.0000    56.0000 </r>
       <r>   -20.1205    -0.0000    56.0000 </r>
       <r>   -19.9149    -0.0003    55.9999 </r>
       <r>   -19.7093    -0.1636    55.9663 </r>
       <r>   -19.5038    -0.1105    55.9436 </r>
       <r>   -19.2982    36.4869    63.4440 </r>
       <r>   -19.0927    83.7884    80.6680 </r>
       <r>   -18.8871   138.4064   109.1195 </r>
       <r>   -18.6815    86.2901   126.8577 </r>
       <r>   -18.4760     6.3142   128.1557 </r>
       <r>   -18.2704    -0.7549   128.0005 </r>
       <r>   -18.0648    -0.0024   128.0000 </r>
       <r>   -17.8593    -0.0000   128.0000 </r>
       <r>   -17.6537    -0.0000   128.0000 </r>
       <r>   -17.4481     0.0000   128.0000 </r>
       <r>   -17.2426     0.0000   128.0000 </r>
       <r>   -17.0370     0.0000   128.0000 </r>
       <r>   -16.8314     0.0000   128.0000 </r>
       <r>   -16.6259     0.0000   128.0000 </r>
       <r>   -16.4203     0.0000   128.0000 </r>
       <r>   -16.2147     0.0000   128.0000 </r>
       <r>   -16.0092     0.0000   128.0000 </r>
       <r>   -15.8036     0.0000   128.0000 </r>
       <r>   -15.5980     0.0000   128.0000 </r>
       <r>   -15.3925     0.0000   128.0000 </r>
       <r>   -15.1869     0.0000   128.0000 </r>
       <r>   -14.9814     0.0000   128.0000 </r>
       <r>   -14.7758     0.0000   128.0000 </r>
       <r>   -14.5702     0.0000   128.0000 </r>
       <r>   -14.3647     0.0000   128.0000 </r>
       <r>   -14.1591     0.0000   128.0000 </r>
       <r>   -13.9535     0.0000   128.0000 </r>
       <r>   -13.7480     0.0000   128.0000 </r>
       <r>   -13.5424     0.0000   128.0000 </r>
       <r>   -13.3368     0.0000   128.0000 </r>
       <r>   -13.1313     0.0000   128.0000 </r>
       <r>   -12.9257     0.0000   128.0000 </r>
       <r>   -12.7201     0.0000   128.0000 </r>
       <r>   -12.5146     0.0000   128.0000 </r>
       <r>   -12.3090     0.0000   128.0000 </r>
       <r>   -12.1034     0.0000   128.0000 </r>
       <r>   -11.8979     0.0000   128.0000 </r>
       <r>   -11.6923     0.0000   128.0000 </r>
       <r>   -11.4867     0.0000   128.0000 </r>
       <r>   -11.2812     0.0000   128.0000 </r>
       <r>   -11.0756     0.0000   128.0000 </r>
       <r>   -10.8701     0.0000   128.0000 </r>
       <r>   -10.6645     0.0000   128.0000 </r>
       <r>   -10.4589     0.0000   128.0000 </r>
       <r>   -10.2534     0.0000   128.0000 </r>
       <r>   -10.0478     0.0000   128.0000 </r>
       <r>    -9.8422     0.0000   128.0000 </r>
       <r>    -9.6367     0.0000   128.0000 </r>
       <r>    -9.4311     0.0000   128.0000 </r>
       <r>    -9.2255     0.0000   128.0000 </r>
       <r>    -9.0200     0.0000   128.0000 </r>
       <r>    -8.8144     0.0000   128.0000 </r>
       <r>    -8.6088     0.0000   128.0000 </r>
       <r>    -8.4033     0.0000   128.0000 </r>
       <r>    -8.1977     0.0000   128.0000 </r>
       <r>    -7.9921     0.0000   128.0000 </r>
       <r>    -7.7866     0.0000   128.0000 </r>
       <r>    -7.5810     0.0000   128.0000 </r>
       <r>    -7.3755     0.0000   128.0000 </r>
       <r>    -7.1699     0.0000   128.0000 </r>
       <r>    -6.9643     0.0000   128.0000 </r>
       <r>    -6.7588     0.0000   128.0000 </r>
       <r>    -6.5532     0.0000   128.0000 </r>
       <r>    -6.3476     0.0000   128.0000 </r>
       <r>    -6.1421     0.0000   128.0000 </r>
       <r>    -5.9365     0.0000   128.0000 </r>
       <r>    -5.7309     0.0000   128.0000 </r>
       <r>    -5.5254     0.0000   128.0000 </r>
       <r>    -5.3198     0.0000   128.0000 </r>
       <r>    -5.1142     0.0000   128.0000 </r>
       <r>    -4.9087     0.0000   128.0000 </r>
       <r>    -4.7031     0.0000   128.0000 </r>
       <r>    -4.4975     0.0000   128.0000 </r>
       <r>    -4.2920     0.0000   128.0000 </r>
       <r>    -4.0864     0.0000   128.0000 </r>
       <r>    -3.8808     0.0000   128.0000 </r>
       <r>    -3.6753     0.0000   128.0000 </r>
       <r>    -3.4697     0.0000   128.0000 </r>
       <r>    -3.2642     0.0000   128.0000 </r>
       <r>    -3.0586     0.0000   128.0000 </r>
       <r>    -2.8530     0.0000   128.0000 </r>
       <r>    -2.6475     0.0000   128.0000 </r>
       <r>    -2.4419     0.0000   128.0000 </r>
       <r>    -2.2363     0.0000   128.0000 </r>
       <r>    -2.0308     0.0000   128.0000 </r>
       <r>    -1.8252     0.0000   128.0000 </r>
       <r>    -1.6196     0.0000   128.0000 </r>
       <r>    -1.4141     0.0000   128.0000 </r>
       <r>    -1.2085     0.0000   128.0000 </r>
       <r>    -1.0029     0.0000   128.0000 </r>
       <r>    -0.7974    -0.0000   128.0000 </r>
       <r>    -0.5918    -0.0000   128.0000 </r>
       <r>    -0.3862    -0.0000   128.0000 </r>
       <r>    -0.1807    -0.0000   128.0000 </r>
       <r>     0.0249    -0.0000   128.0000 </r>
       <r>     0.2305    -0.0027   127.9994 </r>
       <r>     0.4360     0.0151   128.0026 </r>
       <r>     0.6416     0.3824   128.0812 </r>
       <r>     0.8471     1.3449   128.3576 </r>
       <r>     1.0527     1.8010   128.7278 </r>
       <r>     1.2583     2.3641   129.2138 </r>
       <r>     1.4638     4.0946   130.0555 </r>
       <r>     1.6694     2.5672   130.5833 </r>
       <r>     1.8750     3.1997   131.2410 </r>
       <r>     2.0805     4.1963   132.1036 </r>
       <r>     2.2861     4.3204   132.9917 </r>
       <r>     2.4917     4.8787   133.9946 </r>
       <r>     2.6972     6.9512   135.4235 </r>
       <r>     2.9028     7.6403   136.9941 </r>
       <r>     3.1084     8.0667   138.6524 </r>
       <r>     3.3139     8.8680   140.4753 </r>
       <r>     3.5195     8.5338   142.2296 </r>
       <r>     3.7251    17.2509   145.7757 </r>
       <r>     3.9306    22.6486   150.4315 </r>
       <r>     4.1362    23.0978   155.1796 </r>
       <r>     4.3418    27.3049   160.7925 </r>
       <r>     4.5473    29.6028   166.8778 </r>
       <r>     4.7529    39.1712   174.9301 </r>
       <r>     4.9584    38.6450   182.8741 </r>
       <r>     5.1640    37.0390   190.4880 </r>
       <r>     5.3696    34.6586   197.6126 </r>
       <r>     5.5751    30.8383   203.9519 </r>
       <r>     5.7807    22.1583   208.5068 </r>
       <r>     5.9863    34.6199   215.6235 </r>
       <r>     6.1918    56.9034   227.3208 </r>
       <r>     6.3974    57.2868   239.0970 </r>
       <r>     6.6030    54.1621   250.2308 </r>
       <r>     6.8085    52.4229   261.0071 </r>
       <r>     7.0141    57.0783   272.7404 </r>
       <r>     7.2197    52.3854   283.5090 </r>
       <r>     7.4252    46.1081   292.9873 </r>
       <r>     7.6308    50.7488   303.4194 </r>
       <r>     7.8364    47.0112   313.0833 </r>
       <r>     8.0419    37.1356   320.7171 </r>
       <r>     8.2475    32.7348   327.4462 </r>
       <r>     8.4530    29.4283   333.4956 </r>
       <r>     8.6586    21.8829   337.9940 </r>
       <r>     8.8642    13.0726   340.6812 </r>
       <r>     9.0697    13.3672   343.4290 </r>
       <r>     9.2753     2.9439   344.0342 </r>
       <r>     9.4809    -0.1607   344.0012 </r>
       <r>     9.6864    -0.0057   344.0000 </r>
       <r>     9.8920    -0.0000   344.0000 </r>
       <r>    10.0976    -0.0000   344.0000 </r>
       <r>    10.3031     0.0000   344.0000 </r>
       <r>    10.5087     0.0000   344.0000 </r>
       <r>    10.7143     0.0000   344.0000 </r>
       <r>    10.9198     0.0000   344.0000 </r>
       <r>    11.1254     0.0000   344.0000 </r>
       <r>    11.3310     0.0000   344.0000 </r>
       <r>    11.5365     0.0000   344.0000 </r>
       <r>    11.7421     0.0000   344.0000 </r>
       <r>    11.9477     0.0000   344.0000 </r>
      </set>
     </set>
    </array>
   </total>
  </dos>
 </calculation>
 <structure name="finalpos" >
  <crystal>
   <varray name="basis" >
    <v>       7.01344005       0.00899432       0.05484725 </v>
    <v>       0.01375691      10.26835893       0.00452835 </v>
    <v>       0.07903247       0.00416957      10.31186789 </v>
   </varray>
   <i name="volume">    742.57892509 </i>
   <varray name="rec_basis" >
    <v>       0.14259217      -0.00019055      -0.00109278 </v>
    <v>      -0.00012459       0.09738673      -0.00003842 </v>
    <v>      -0.00075837      -0.00004175       0.09698147 </v>
   </varray>
  </crystal>
  <varray name="positions" >
   <v>       0.47500046       0.00433395       0.65010274 </v>
   <v>       0.28806603       0.17317004       0.85515936 </v>
   <v>       0.00106991       0.99578925       0.99743128 </v>
   <v>       0.02084231       0.99774257       0.68090419 </v>
   <v>       0.00087600       0.66629712       0.32468306 </v>
   <v>       0.51048582       0.99418757       0.33141560 </v>
   <v>       0.48638943       0.32268585       0.64330349 </v>
   <v>       0.97796826       0.32851459       0.99728404 </v>
   <v>       0.74559278       0.51208771       0.83479690 </v>
   <v>       0.74374044       0.15896117       0.16629550 </v>
   <v>       0.26059703       0.82731107       0.83974895 </v>
   <v>       0.54049048       0.33619840       0.01364315 </v>
   <v>       0.50517108       0.98817424       0.01432035 </v>
   <v>       0.00619163       0.67450926       0.00849355 </v>
   <v>       0.74963209       0.82907556       0.15657555 </v>
   <v>       0.97920946       0.98643308       0.31634453 </v>
   <v>       0.24951052       0.83544128       0.16222805 </v>
   <v>       0.77425989       0.15127266       0.49503665 </v>
   <v>       0.49669028       0.67541085       0.01006424 </v>
   <v>       0.46669845       0.67848017       0.66189501 </v>
   <v>       0.24052243       0.51630035       0.51114122 </v>
   <v>       0.02941381       0.67758654       0.67295684 </v>
   <v>       0.74173678       0.51205227       0.15013883 </v>
   <v>       0.23677741       0.82763436       0.49783222 </v>
   <v>       0.72324572       0.16321982       0.83255012 </v>
   <v>       0.51399038       0.33425484       0.33911896 </v>
   <v>       0.01406370       0.32802098       0.67134743 </v>
   <v>       0.26337753       0.49370033       0.15431852 </v>
   <v>       0.97535418       0.34626880       0.32943423 </v>
   <v>       0.49683139       0.66604900       0.33509539 </v>
   <v>       0.20805173       0.15686333       0.47213470 </v>
   <v>       0.75639338       0.51747427       0.52790059 </v>
   <v>       0.75863449       0.83419664       0.51054554 </v>
   <v>       0.26452136       0.50041337       0.83727857 </v>
   <v>       0.25670235       0.16340715       0.16446621 </v>
   <v>       0.74188804       0.82648358       0.83400742 </v>
  </varray>
 </structure>
</modeling>
