 vasp.5.4.1 05Feb16 (build Jan 29 2020 16:04:39) complex                        
  
 executed on           IFC91_ompi date 2020.04.29  02:57:15
 running on  160 total cores
 distrk:  each k-point on   20 cores,    8 groups
 distr:  one band on NCORES_PER_BAND=   5 cores,    4 groups


--------------------------------------------------------------------------------------------------------


 INCAR:
 POTCAR:    PAW_PBE Au 04Oct2007                  
 POTCAR:    PAW_PBE Pt 04Feb2005                  

 ----------------------------------------------------------------------------- 
|                                                                             |
|           W    W    AA    RRRRR   N    N  II  N    N   GGGG   !!!           |
|           W    W   A  A   R    R  NN   N  II  NN   N  G    G  !!!           |
|           W    W  A    A  R    R  N N  N  II  N N  N  G       !!!           |
|           W WW W  AAAAAA  RRRRR   N  N N  II  N  N N  G  GGG   !            |
|           WW  WW  A    A  R   R   N   NN  II  N   NN  G    G                |
|           W    W  A    A  R    R  N    N  II  N    N   GGGG   !!!           |
|                                                                             |
|      For optimal performance we recommend to set                            |
|        NCORE= 4 - approx SQRT( number of cores)                             |
|      NCORE specifies how many cores store one orbital (NPAR=cpu/NCORE).     |
|      This setting can  greatly improve the performance of VASP for DFT.     |
|      The default, NPAR=number of cores might be grossly inefficient         |
|      on modern multi-core architectures or massively parallel machines.     |
|      Do your own testing !!!!                                               |
|      Unfortunately you need to use the default for GW and RPA calculations. |
|      (for HF NCORE is supported but not extensively tested yet)             |
|                                                                             |
 ----------------------------------------------------------------------------- 


 ----------------------------------------------------------------------------- 
|                                                                             |
|           W    W    AA    RRRRR   N    N  II  N    N   GGGG   !!!           |
|           W    W   A  A   R    R  NN   N  II  NN   N  G    G  !!!           |
|           W    W  A    A  R    R  N N  N  II  N N  N  G       !!!           |
|           W WW W  AAAAAA  RRRRR   N  N N  II  N  N N  G  GGG   !            |
|           WW  WW  A    A  R   R   N   NN  II  N   NN  G    G                |
|           W    W  A    A  R    R  N    N  II  N    N   GGGG   !!!           |
|                                                                             |
|      You have enabled k-point parallelism (KPAR>1).                         |
|      This developmental code was originally  written by Paul Kent at ORNL,  |
|      and carefully double checked in Vienna.                                |
|      GW as well as linear response parallelism added by Martijn Marsman     |
|      and Georg Kresse.                                                      |
|      Carefully verify results versus KPAR=1.                                |
|      Report problems to Paul Kent and Vienna.                               |
|                                                                             |
 ----------------------------------------------------------------------------- 

 POTCAR:    PAW_PBE Au 04Oct2007                  
   VRHFIN =Au: s1d10                                                            
   LEXCH  = PE                                                                  
   EATOM  =   926.0867 eV,   68.0654 Ry                                         
                                                                                
   TITEL  = PAW_PBE Au 04Oct2007                                                
   LULTRA =        F    use ultrasoft PP ?                                      
   IUNSCR =        1    unscreen: 0-lin 1-nonlin 2-no                           
   RPACOR =    2.330    partial core radius                                     
   POMASS =  196.966; ZVAL   =   11.000    mass and valenz                      
   RCORE  =    2.500    outmost cutoff radius                                   
   RWIGS  =    2.840; RWIGS  =    1.503    wigner-seitz radius (au A)           
   ENMAX  =  229.943; ENMIN  =  172.457 eV                                      
   ICORE  =        3    local potential                                         
   LCOR   =        T    correct aug charges                                     
   LPAW   =        T    paw PP                                                  
   EAUG   =  356.670                                                            
   DEXC   =    0.000                                                            
   RMAX   =    2.562    core radius for proj-oper                               
   RAUG   =    1.300    factor for augmentation sphere                          
   RDEP   =    2.598    radius for radial grids                                 
   RDEPT  =    2.193    core radius for aug-charge                              
                                                                                
   Atomic configuration                                                         
   16 entries                                                                   
     n  l   j            E        occ.                                          
     1  0  0.50    -80748.5001   2.0000                                         
     2  0  0.50    -14244.7466   2.0000                                         
     2  1  1.50    -12310.9591   6.0000                                         
     3  0  0.50     -3362.1768   2.0000                                         
     3  1  1.50     -2801.5463   6.0000                                         
     3  2  2.50     -2203.8206  10.0000                                         
     4  0  0.50      -729.8168   2.0000                                         
     4  1  1.50      -546.0527   6.0000                                         
     4  2  2.50      -325.7302  10.0000                                         
     4  3  3.50       -81.1472  14.0000                                         
     5  0  0.50      -108.3201   2.0000                                         
     5  1  1.50       -59.7479   6.0000                                         
     5  2  2.50        -6.8783  10.0000                                         
     6  0  0.50        -5.7602   1.0000                                         
     6  1  1.50        -6.8029   0.0000                                         
     5  3  2.50        -1.3606   0.0000                                         
   Description                                                                  
     l       E           TYP  RCUT    TYP  RCUT                                 
     2     -6.8782861     23  2.500                                             
     2     -8.2388687     23  2.500                                             
     0     -5.7601759     23  2.500                                             
     0     -0.8493231     23  2.500                                             
     1     -2.7211652     23  2.500                                             
     1     27.2116520     23  2.500                                             
     3     -1.3605826     23  2.500                                             
  local pseudopotential read in
  partial core-charges read in
  partial kinetic energy density read in
  atomic valenz-charges read in
  non local Contribution for L=           2  read in
    real space projection operators read in
  non local Contribution for L=           2  read in
    real space projection operators read in
  non local Contribution for L=           0  read in
    real space projection operators read in
  non local Contribution for L=           0  read in
    real space projection operators read in
  non local Contribution for L=           1  read in
    real space projection operators read in
  non local Contribution for L=           1  read in
    real space projection operators read in
    PAW grid and wavefunctions read in
 
   number of l-projection  operators is LMAX  =           6
   number of lm-projection operators is LMMAX =          18
 
 POTCAR:    PAW_PBE Pt 04Feb2005                  
   VRHFIN =Pt: s1d9                                                             
   LEXCH  = PE                                                                  
   EATOM  =   729.1176 eV,   53.5886 Ry                                         
                                                                                
   TITEL  = PAW_PBE Pt 04Feb2005                                                
   LULTRA =        F    use ultrasoft PP ?                                      
   IUNSCR =        1    unscreen: 0-lin 1-nonlin 2-no                           
   RPACOR =    2.330    partial core radius                                     
   POMASS =  195.080; ZVAL   =   10.000    mass and valenz                      
   RCORE  =    2.600    outmost cutoff radius                                   
   RWIGS  =    2.750; RWIGS  =    1.455    wigner-seitz radius (au A)           
   ENMAX  =  230.283; ENMIN  =  172.712 eV                                      
   ICORE  =        3    local potential                                         
   LCOR   =        T    correct aug charges                                     
   LPAW   =        T    paw PP                                                  
   EAUG   =  358.966                                                            
   DEXC   =    0.000                                                            
   RMAX   =    2.658    core radius for proj-oper                               
   RAUG   =    1.300    factor for augmentation sphere                          
   RDEP   =    2.761    radius for radial grids                                 
   RDEPT  =    2.203    core radius for aug-charge                              
                                                                                
   Atomic configuration                                                         
   16 entries                                                                   
     n  l   j            E        occ.                                          
     1  0  0.50    -78401.1885   2.0000                                         
     2  0  0.50    -13770.7750   2.0000                                         
     2  1  1.50    -11931.0468   6.0000                                         
     3  0  0.50     -3234.7234   2.0000                                         
     3  1  1.50     -2699.2216   6.0000                                         
     3  2  2.50     -2119.5714  10.0000                                         
     4  0  0.50      -695.1528   2.0000                                         
     4  1  1.50      -519.6034   6.0000                                         
     4  2  2.50      -306.6786  10.0000                                         
     4  3  3.50       -70.1041  14.0000                                         
     5  0  0.50      -101.7747   2.0000                                         
     5  1  1.50       -55.9873   6.0000                                         
     5  2  2.50        -6.1423   9.0000                                         
     6  0  0.50        -5.6573   1.0000                                         
     6  1  1.50        -6.8029   0.0000                                         
     5  3  2.50        -1.3606   0.0000                                         
   Description                                                                  
     l       E           TYP  RCUT    TYP  RCUT                                 
     2     -6.1423404     23  2.500                                             
     2     -7.5029230     23  2.500                                             
     0     -5.6573207     23  2.500                                             
     0      0.7416693     23  2.500                                             
     1     -2.7211652     23  2.600                                             
     1     20.4087390     23  2.600                                             
     3     -1.3605826     23  2.500                                             
  local pseudopotential read in
  partial core-charges read in
  partial kinetic energy density read in
  atomic valenz-charges read in
  non local Contribution for L=           2  read in
    real space projection operators read in
  non local Contribution for L=           2  read in
    real space projection operators read in
  non local Contribution for L=           0  read in
    real space projection operators read in
  non local Contribution for L=           0  read in
    real space projection operators read in
  non local Contribution for L=           1  read in
    real space projection operators read in
  non local Contribution for L=           1  read in
    real space projection operators read in
    PAW grid and wavefunctions read in
 
   number of l-projection  operators is LMAX  =           6
   number of lm-projection operators is LMMAX =          18
 
 Optimization of the real space projectors (new method)

 maximal supplied QI-value         = 15.12
 optimisation between [QCUT,QGAM] = [  8.77, 17.69] = [ 21.53, 87.61] Ry 
 Optimized for a Real-space Cutoff    1.59 Angstroem

   l    n(q)    QCUT    max X(q) W(low)/X(q) W(high)/X(q)  e(spline) 
   2      7     8.768    60.898    0.15E-03    0.45E-03    0.12E-06
   2      7     8.768    58.894    0.16E-03    0.46E-03    0.13E-06
   0      8     8.768   109.617    0.91E-04    0.16E-03    0.56E-07
   0      8     8.768    75.026    0.88E-04    0.16E-03    0.54E-07
   1      8     8.768    16.344    0.19E-03    0.33E-04    0.82E-07
   1      8     8.768    10.160    0.16E-03    0.16E-04    0.64E-07
 Optimization of the real space projectors (new method)

 maximal supplied QI-value         = 14.36
 optimisation between [QCUT,QGAM] = [  8.76, 17.67] = [ 21.49, 87.39] Ry 
 Optimized for a Real-space Cutoff    1.74 Angstroem

   l    n(q)    QCUT    max X(q) W(low)/X(q) W(high)/X(q)  e(spline) 
   2      8     8.761    66.195    0.23E-03    0.27E-03    0.23E-06
   2      8     8.761    64.643    0.23E-03    0.28E-03    0.23E-06
   0      9     8.761    95.520    0.88E-04    0.75E-04    0.11E-06
   0      9     8.761    63.403    0.85E-04    0.73E-04    0.10E-06
   1      9     8.761    19.961    0.51E-04    0.44E-04    0.11E-06
   1      9     8.761    13.289    0.41E-04    0.39E-04    0.91E-07
  PAW_PBE Au 04Oct2007                  :
 energy of atom  1       EATOM= -926.0867
 kinetic energy error for atom=    0.0454 (will be added to EATOM!!)
  PAW_PBE Pt 04Feb2005                  :
 energy of atom  2       EATOM= -729.1176
 kinetic energy error for atom=    0.0416 (will be added to EATOM!!)
 
 
 POSCAR: generated by pypospack                  
  positions in direct lattice
  No initial velocities read in
 exchange correlation table for  LEXCH =        8
   RHO(1)=    0.500       N(1)  =     2000
   RHO(2)=  100.500       N(2)  =     4000
 


--------------------------------------------------------------------------------------------------------


 ion  position               nearest neighbor table
   1  0.749  0.753  0.002-   2 2.84  14 2.84  23 2.84  21 2.85  25 2.85  10 2.87  13 2.87  27 2.87
                            17 2.89  16 2.90  31 2.91  30 2.92
   2  0.998  1.000  0.999-   1 2.84  22 2.85  30 2.86  10 2.86  26 2.87   3 2.87  27 2.87   4 2.88
                             5 2.88   6 2.88  20 2.89  23 2.90
   3  0.252  0.249  0.001-  12 2.85  13 2.85   6 2.86  25 2.86   5 2.86   2 2.87   7 2.89  28 2.90
                             4 2.90  20 2.91   9 2.93  21 2.93
   4  0.252  0.999  0.249-  14 2.84  22 2.84  29 2.85  19 2.85  18 2.85  25 2.86  23 2.86  24 2.87
                            28 2.88   2 2.88   5 2.88   3 2.90
   5  0.999  0.248  0.251-  11 2.83  26 2.85  27 2.85   3 2.86  31 2.87  19 2.87   7 2.87   8 2.88
                             2 2.88   4 2.88  21 2.91  18 2.92
   6  0.002  0.248  0.751-  30 2.84   3 2.86   9 2.86  11 2.87  19 2.88   2 2.88  20 2.88  16 2.89
                            26 2.89  18 2.90   8 2.94  21 2.95
   7  0.249  0.501  0.250-  32 2.80   8 2.82  21 2.84  13 2.84  14 2.86   5 2.87  23 2.88  24 2.88
                             3 2.89  22 2.92  28 2.93  19 2.94
   8  0.003  0.501  0.498-   7 2.82   9 2.85  24 2.86  31 2.87   5 2.88  11 2.88  16 2.88  23 2.90
                            15 2.90  10 2.90  19 2.92   6 2.94
   9  0.249  0.501  0.749-   8 2.85  17 2.85   6 2.86  10 2.87  32 2.87  13 2.88  12 2.89  22 2.90
                            21 2.91  19 2.92   3 2.93  24 2.93
  10  0.001  0.752  0.750-  22 2.84  20 2.84  24 2.85   2 2.86  18 2.86   1 2.87   9 2.87  15 2.88
                            16 2.88   8 2.90  30 2.90  21 2.93
  11  0.751  0.249  0.500-  28 2.81   5 2.83  12 2.85  29 2.85  27 2.85   6 2.87  30 2.87   8 2.88
                            32 2.89  16 2.89  18 2.90  31 2.91
  12  0.500  0.249  0.749-  30 2.83  19 2.83  11 2.85   3 2.85  20 2.85  16 2.85  29 2.86  26 2.88
                            25 2.88   9 2.89  13 2.90  32 2.93
  13  0.500  0.500  0.002-   7 2.84  31 2.84   3 2.85  16 2.85   1 2.87  26 2.87  14 2.88   9 2.88
                            12 2.90  22 2.91  28 2.92  17 2.94
  14  0.499  0.751  0.251-  24 2.83  15 2.84   1 2.84   4 2.84  27 2.84   7 2.86  22 2.87  13 2.88
                            29 2.88  32 2.89  31 2.90  25 2.93
  15  0.748  0.751  0.498-  23 2.83  14 2.84  18 2.85  17 2.85  29 2.88  10 2.88  27 2.89  32 2.89
                            31 2.90   8 2.90  30 2.90  16 2.94
  16  0.750  0.499  0.752-  13 2.85  12 2.85  21 2.87  10 2.88   8 2.88  11 2.89   6 2.89   1 2.90
                            17 2.91  26 2.93  32 2.93  15 2.94
  17  0.497  0.752  0.748-  20 2.81  24 2.84   9 2.85  15 2.85  22 2.86  30 2.87  29 2.89   1 2.89
                            25 2.89  16 2.91  32 2.94  13 2.94
  18  0.003  0.995  0.500-  24 2.80  20 2.84  15 2.85  23 2.85   4 2.85  10 2.86  19 2.86  30 2.87
                            27 2.88   6 2.90  11 2.90   5 2.92
  19  0.255  0.244  0.499-  29 2.79  32 2.83  28 2.83  12 2.83   4 2.85  18 2.86   5 2.87  20 2.88
                             6 2.88   9 2.92   8 2.92   7 2.94
  20  0.254  0.997  0.747-  29 2.80  17 2.81  24 2.83  18 2.84  10 2.84  12 2.85  25 2.87  19 2.88
                             6 2.88  22 2.89   2 2.89   3 2.91
  21  0.997  0.504  0.007-  31 2.78  23 2.82   7 2.84   1 2.85  22 2.86  16 2.87  26 2.88   9 2.91
                             5 2.91   3 2.93  10 2.93   6 2.95
  22  0.247  0.753  0.000-  10 2.84  23 2.84   4 2.84   2 2.85  21 2.86  17 2.86  14 2.87  20 2.89
                            25 2.89   9 2.90  13 2.91   7 2.92
  23  0.998  0.751  0.250-  21 2.82  15 2.83   1 2.84  22 2.84  18 2.85  24 2.86  31 2.86   4 2.86
                            27 2.88   7 2.88   8 2.90   2 2.90
  24  0.250  0.754  0.498-  18 2.80  14 2.83  20 2.83  29 2.84  17 2.84  10 2.85  23 2.86   8 2.86
                             4 2.87   7 2.88  32 2.90   9 2.93
  25  0.503  0.003  0.999-  26 2.80  30 2.82  27 2.84   1 2.85   3 2.86   4 2.86  20 2.87  28 2.87
                            12 2.88  22 2.89  17 2.89  14 2.93
  26  0.748  0.248  0.005-  28 2.79  25 2.80  31 2.84   5 2.85   2 2.87  13 2.87  27 2.87  12 2.88
                            30 2.88  21 2.88   6 2.89  16 2.93
  27  0.747  0.001  0.252-  28 2.80  29 2.82  25 2.84  14 2.84  11 2.85   5 2.85   2 2.87  26 2.87
                             1 2.87  18 2.88  23 2.88  15 2.89
  28  0.506  0.248  0.253-  26 2.79  27 2.80  11 2.81  32 2.82  31 2.83  19 2.83  29 2.87  25 2.87
                             4 2.88   3 2.90  13 2.92   7 2.93
  29  0.499  0.002  0.500-  19 2.79  20 2.80  27 2.82  24 2.84  30 2.85  11 2.85   4 2.85  12 2.86
                            28 2.87  15 2.88  14 2.88  17 2.89
  30  0.748  0.004  0.749-  25 2.82  12 2.83   6 2.84  29 2.85   2 2.86  17 2.87  18 2.87  11 2.87
                            26 2.88  10 2.90  15 2.90   1 2.92
  31  0.751  0.498  0.248-  21 2.78  28 2.83  13 2.84  26 2.84  32 2.84  23 2.86   5 2.87   8 2.87
                            15 2.90  14 2.90  11 2.91   1 2.91
  32  0.497  0.497  0.493-   7 2.80  28 2.82  19 2.83  31 2.84   9 2.87  11 2.89  14 2.89  15 2.89
                            24 2.90  16 2.93  12 2.93  17 2.94
 
  LATTYP: Found a triclinic cell.
 ALAT       =    11.3906985773
 B/A-ratio  =     0.7015508471
 C/A-ratio  =     1.0107240877
 COS(alpha) =     0.0015290717
 COS(beta)  =     0.5022263990
 COS(gamma) =     0.6990666242
  
  Lattice vectors:
  
 A1 = (   7.9773140850,   0.0151363355,  -8.1308206818)
 A2 = (   7.9911090382,  -0.0228678450,   0.0141216367)
 A3 = (   0.0085383188,  -8.1743982807,  -8.1070915802)


Analysis of symmetry for initial positions (statically):
=====================================================================
 Subroutine PRICEL returns:
 Original cell was already a primitive cell.
 

 Routine SETGRP: Setting up the symmetry group for a 
 triclinic supercell.


 Subroutine GETGRP returns: Found  1 space group operations
 (whereof  1 operations were pure point group operations)
 out of a pool of  2 trial point group operations.


The static configuration has the point symmetry C_1 .


Analysis of symmetry for dynamics (positions and initial velocities):
=====================================================================
 Subroutine PRICEL returns:
 Original cell was already a primitive cell.
 

 Routine SETGRP: Setting up the symmetry group for a 
 triclinic supercell.


 Subroutine GETGRP returns: Found  1 space group operations
 (whereof  1 operations were pure point group operations)
 out of a pool of  2 trial point group operations.


The dynamic configuration has the point symmetry C_1 .


 Subroutine INISYM returns: Found  1 space group operations
 (whereof  1 operations are pure point group operations),
 and found     1 'primitive' translations

 
 
 KPOINTS: k-points                                

Automatic generation of k-mesh.
Space group operators:
 irot       det(A)        alpha          n_x          n_y          n_z        tau_x        tau_y        tau_z
    1     1.000000     0.000001     1.000000     0.000000     0.000000     0.000000     0.000000     0.000000
 
 Subroutine IBZKPT returns following result:
 ===========================================
 
 Found     14 irreducible k-points:
 
 Following reciprocal coordinates:
            Coordinates               Weight
  0.000000  0.000000  0.000000      1.000000
  0.333333 -0.000000  0.000000      2.000000
 -0.000000  0.333333  0.000000      2.000000
  0.333333  0.333333  0.000000      2.000000
 -0.333333  0.333333  0.000000      2.000000
  0.000000  0.000000  0.333333      2.000000
  0.333333  0.000000  0.333333      2.000000
 -0.333333  0.000000  0.333333      2.000000
 -0.000000  0.333333  0.333333      2.000000
  0.333333  0.333333  0.333333      2.000000
 -0.333333  0.333333  0.333333      2.000000
 -0.000000 -0.333333  0.333333      2.000000
  0.333333 -0.333333  0.333333      2.000000
 -0.333333 -0.333333  0.333333      2.000000
 
 Following cartesian coordinates:
            Coordinates               Weight
  0.000000  0.000000  0.000000      1.000000
  0.206471  0.000560 -0.000347      2.000000
  0.000573  0.200911  0.000936      2.000000
  0.207045  0.201471  0.000589      2.000000
 -0.205898  0.200351  0.001284      2.000000
 -0.000355  0.000933  0.202574      2.000000
  0.206116  0.001493  0.202227      2.000000
 -0.206827  0.000373  0.202922      2.000000
  0.000218  0.201844  0.203511      2.000000
  0.206689  0.202404  0.203164      2.000000
 -0.206253  0.201284  0.203858      2.000000
 -0.000929 -0.199979  0.201638      2.000000
  0.205543 -0.199419  0.201291      2.000000
 -0.207400 -0.200539  0.201985      2.000000
 


--------------------------------------------------------------------------------------------------------




 Dimension of arrays:
   k-points           NKPTS =     14   k-points in BZ     NKDIM =     14   number of bands    NBANDS=    204
   number of dos      NEDOS =    301   number of ions     NIONS =     32
   non local maximal  LDIM  =      6   non local SUM 2l+1 LMDIM =     18
   total plane-waves  NPLWV = 110592
   max r-space proj   IRMAX =   4630   max aug-charges    IRDMAX=  12851
   dimension x,y,z NGX =    48 NGY =   48 NGZ =   48
   dimension x,y,z NGXF=    96 NGYF=   96 NGZF=   96
   support grid    NGXF=    96 NGYF=   96 NGZF=   96
   ions per type =              17  15
 NGX,Y,Z   is equivalent  to a cutoff of   9.99,  9.72,  9.80 a.u.
 NGXF,Y,Z  is equivalent  to a cutoff of  19.97, 19.43, 19.59 a.u.


 I would recommend the setting:
   dimension x,y,z NGX =    45 NGY =   46 NGZ =   46
 SYSTEM =  automatically generated by mexm         
 POSCAR =  generated by pypospack                  

 Startparameter for this run:
   NWRITE =      2    write-flag & timer
   PREC   = accura    normal or accurate (medium, high low for compatibility)
   ISTART =      0    job   : 0-new  1-cont  2-samecut
   ICHARG =      2    charge: 1-file 2-atom 10-const
   ISPIN  =      1    spin polarized calculation?
   LNONCOLLINEAR =      F non collinear calculations
   LSORBIT =      F    spin-orbit coupling
   INIWAV =      1    electr: 0-lowe 1-rand  2-diag
   LASPH  =      F    aspherical Exc in radial PAW
   METAGGA=      F    non-selfconsistent MetaGGA calc.

 Electronic Relaxation 1
   ENCUT  =  300.0 eV  22.05 Ry    4.70 a.u.  11.29 11.60 11.50*2*pi/ulx,y,z
   ENINI  =  300.0     initial cutoff
   ENAUG  =  359.0 eV  augmentation charge cutoff
   NELM   =     70;   NELMIN=  2; NELMDL= -5     # of ELM steps 
   EDIFF  = 0.1E-04   stopping-criterion for ELM
   LREAL  =      T    real-space projection
   NLSPLINE    = F    spline interpolate recip. space projectors
   LCOMPAT=      F    compatible to vasp.4.4
   GGA_COMPAT  = T    GGA compatible to vasp.4.4-vasp.4.6
   LMAXPAW     = -100 max onsite density
   LMAXMIX     =    2 max onsite mixed and CHGCAR
   VOSKOWN=      0    Vosko Wilk Nusair interpolation
   ROPT   =   -0.00025  -0.00025
 Ionic relaxation
   EDIFFG = -.1E-01   stopping-criterion for IOM
   NSW    =    300    number of steps for IOM
   NBLOCK =      1;   KBLOCK =    300    inner block; outer block 
   IBRION =      2    ionic relax: 0-MD 1-quasi-New 2-CG
   NFREE  =      1    steps in history (QN), initial steepest desc. (CG)
   ISIF   =      3    stress and relaxation
   IWAVPR =     11    prediction:  0-non 1-charg 2-wave 3-comb
   ISYM   =      1    0-nonsym 1-usesym 2-fastsym
   LCORR  =      T    Harris-Foulkes like correction to forces

   POTIM  = 0.1500    time-step for ionic-motion
   TEIN   =    0.0    initial temperature
   TEBEG  =    0.0;   TEEND  =   0.0 temperature during run
   SMASS  =  -3.00    Nose mass-parameter (am)
   estimated Nose-frequenzy (Omega)   =  0.10E-29 period in steps =****** mass=  -0.146E-26a.u.
   SCALEE = 1.0000    scale energy and forces
   NPACO  =    256;   APACO  = 16.0  distance and # of slots for P.C.
   PSTRESS=    0.0 pullay stress

  Mass of Ions in am
   POMASS = 196.97195.08
  Ionic Valenz
   ZVAL   =  11.00 10.00
  Atomic Wigner-Seitz radii
   RWIGS  =  -1.00 -1.00
  virtual crystal weights 
   VCA    =   1.00  1.00
   NELECT =     337.0000    total number of electrons
   NUPDOWN=      -1.0000    fix difference up-down

 DOS related values:
   EMIN   =  10.00;   EMAX   =-10.00  energy-range for DOS
   EFERMI =   0.00
   ISMEAR =     1;   SIGMA  =   0.15  broadening in eV -4-tet -1-fermi 0-gaus

 Electronic relaxation 2 (details)
   IALGO  =     68    algorithm
   LDIAG  =      T    sub-space diagonalisation (order eigenvalues)
   LSUBROT=      F    optimize rotation matrix (better conditioning)
   TURBO    =      0    0=normal 1=particle mesh
   IRESTART =      0    0=no restart 2=restart with 2 vectors
   NREBOOT  =      0    no. of reboots
   NMIN     =      0    reboot dimension
   EREF     =   0.00    reference energy to select bands
   IMIX   =      4    mixing-type and parameters
     AMIX     =   0.40;   BMIX     =  1.00
     AMIX_MAG =   1.60;   BMIX_MAG =  1.00
     AMIN     =   0.10
     WC   =   100.;   INIMIX=   1;  MIXPRE=   1;  MAXMIX= -45

 Intra band minimization:
   WEIMIN = 0.0010     energy-eigenvalue tresh-hold
   EBREAK =  0.12E-07  absolut break condition
   DEPER  =   0.30     relativ break condition  

   TIME   =   0.40     timestep for ELM

  volume/ion in A,a.u.               =      16.70       112.72
  Fermi-wavevector in a.u.,A,eV,Ry     =   1.403786  2.652772 26.811862  1.970616
  Thomas-Fermi vector in A             =   2.526413
 
 Write flags
   LWAVE  =      F    write WAVECAR
   LCHARG =      F    write CHGCAR
   LVTOT  =      F    write LOCPOT, total local potential
   LVHAR  =      F    write LOCPOT, Hartree potential only
   LELF   =      F    write electronic localiz. function (ELF)
   LORBIT =      0    0 simple, 1 ext, 2 COOP (PROOUT)


 Dipole corrections
   LMONO  =      F    monopole corrections only (constant potential shift)
   LDIPOL =      F    correct potential (dipole corrections)
   IDIPOL =      0    1-x, 2-y, 3-z, 4-all directions 
   EPSILON=  1.0000000 bulk dielectric constant

 Exchange correlation treatment:
   GGA     =    --    GGA type
   LEXCH   =     8    internal setting for exchange type
   VOSKOWN=      0    Vosko Wilk Nusair interpolation
   LHFCALC =     F    Hartree Fock is set to
   LHFONE  =     F    Hartree Fock one center treatment
   AEXX    =    0.0000 exact exchange contribution

 Linear response parameters
   LEPSILON=     F    determine dielectric tensor
   LRPA    =     F    only Hartree local field effects (RPA)
   LNABLA  =     F    use nabla operator in PAW spheres
   LVEL    =     F    velocity operator in full k-point grid
   LINTERFAST=   F  fast interpolation
   KINTER  =     0    interpolate to denser k-point grid
   CSHIFT  =0.1000    complex shift for real part using Kramers Kronig
   OMEGAMAX=  -1.0    maximum frequency
   DEG_THRESHOLD= 0.2000000E-02 threshold for treating states as degnerate
   RTIME   =    0.100 relaxation time in fs

 Orbital magnetization related:
   ORBITALMAG=     F  switch on orbital magnetization
   LCHIMAG   =     F  perturbation theory with respect to B field
   DQ        =  0.001000  dq finite difference perturbation B field



--------------------------------------------------------------------------------------------------------


 conjugate gradient relaxation of ions
 charge density and potential will be updated during run
 non-spin polarized calculation
 RMM-DIIS sequential band-by-band and
  variant of blocked Davidson during initial phase
 perform sub-space diagonalisation
    before iterative eigenvector-optimisation
 modified Broyden-mixing scheme, WC =      100.0
 initial mixing is a Kerker type mixing with AMIX =  0.4000 and BMIX =      1.0000
 Hartree-type preconditioning will be used
 using additional bands           35
 real space projection scheme for non local part
 use partial core corrections
 calculate Harris-corrections to forces 
   (improved forces if not selfconsistent)
 use gradient corrections 
 use of overlap-Matrix (Vanderbilt PP)
 Methfessel and Paxton  Order N= 1 SIGMA  =   0.15


--------------------------------------------------------------------------------------------------------


  energy-cutoff  :      300.00
  volume of cell :      534.50
      direct lattice vectors                 reciprocal lattice vectors
     7.991109038 -0.022867845  0.014121637     0.125140419  0.000339344 -0.000210365
    -0.022333272  8.212402461 -0.037850738     0.000347463  0.121770608  0.000567591
     0.013794953 -0.038004180  8.144942319    -0.000215353  0.000565297  0.122778580

  length of vectors
     7.991154236  8.212520054  8.145042663     0.125141056  0.121772427  0.122780071


 
 k-points in units of 2pi/SCALE and weight: k-points                                
   0.00000000  0.00000000  0.00000000       0.037
   0.20647126  0.00055989 -0.00034708       0.074
   0.00057329  0.20091136  0.00093648       0.074
   0.20704455  0.20147125  0.00058939       0.074
  -0.20589798  0.20035147  0.00128356       0.074
  -0.00035531  0.00093269  0.20257443       0.074
   0.20611595  0.00149258  0.20222734       0.074
  -0.20682658  0.00037280  0.20292151       0.074
   0.00021797  0.20184405  0.20351090       0.074
   0.20668923  0.20240394  0.20316382       0.074
  -0.20625329  0.20128416  0.20385799       0.074
  -0.00092860 -0.19997866  0.20163795       0.074
   0.20554266 -0.19941877  0.20129086       0.074
  -0.20739986 -0.20053855  0.20198503       0.074
 
 k-points in reciprocal lattice and weights: k-points                                
   0.00000000  0.00000000  0.00000000       0.037
   0.33333333 -0.00000000  0.00000000       0.074
  -0.00000000  0.33333333  0.00000000       0.074
   0.33333333  0.33333333  0.00000000       0.074
  -0.33333333  0.33333333  0.00000000       0.074
   0.00000000  0.00000000  0.33333333       0.074
   0.33333333  0.00000000  0.33333333       0.074
  -0.33333333  0.00000000  0.33333333       0.074
  -0.00000000  0.33333333  0.33333333       0.074
   0.33333333  0.33333333  0.33333333       0.074
  -0.33333333  0.33333333  0.33333333       0.074
  -0.00000000 -0.33333333  0.33333333       0.074
   0.33333333 -0.33333333  0.33333333       0.074
  -0.33333333 -0.33333333  0.33333333       0.074
 
 position of ions in fractional coordinates (direct lattice) 
   0.74907100  0.75276300  0.00172200
   0.99820500  0.99989000  0.99923900
   0.25155600  0.24897500  0.00061700
   0.25182900  0.99852800  0.24915700
   0.99933900  0.24794500  0.25128700
   0.00183300  0.24757500  0.75074600
   0.24947700  0.50088200  0.25011200
   0.00253000  0.50063600  0.49806100
   0.24926300  0.50112700  0.74911900
   0.00063000  0.75208000  0.74994500
   0.75084700  0.24852300  0.50017100
   0.50000700  0.24902700  0.74912000
   0.49986100  0.49997800  0.00247000
   0.49938300  0.75134100  0.25062200
   0.74844500  0.75090700  0.49825600
   0.74996800  0.49874800  0.75157200
   0.49730500  0.75201000  0.74776800
   0.00255000  0.99493600  0.50020000
   0.25469000  0.24390100  0.49860200
   0.25351800  0.99719200  0.74693400
   0.99682300  0.50392200  0.00667800
   0.24709000  0.75348200  0.00023700
   0.99781500  0.75096600  0.24986300
   0.24968000  0.75375700  0.49799400
   0.50312000  0.00339800  0.99900900
   0.74785200  0.24831600  0.00476700
   0.74698100  0.00145300  0.25229000
   0.50630600  0.24773500  0.25296200
   0.49897400  0.00187600  0.50024600
   0.74781100  0.00363400  0.74932400
   0.75050200  0.49785600  0.24811400
   0.49673800  0.49664600  0.49279800
 
 position of ions in cartesian coordinates  (Angst):
   5.96912013  6.16479763 -0.00388894
   7.96821864  8.15069704  8.11499373
   2.00465951  2.03890691 -0.00084608
   1.99352971  8.18508601  1.99513061
   7.98375598  2.00382144  2.05144552
   0.01947505  2.00461214  6.10543785
   1.98586186  4.09823427  2.02171208
   0.01590739  4.09243806  4.03776440
   1.99103007  4.08128685  6.08608302
  -0.00141655  6.14786819  6.07980088
   6.00144975  2.00479206  4.07506035
   4.00038294  2.00520617  6.09917425
   3.98331168  4.09449594  0.00825233
   3.97730142  6.14937018  2.01991503
   5.97100881  6.13069936  4.04041326
   5.99230529  4.05020627  6.11322338
   3.96753906  6.13601817  6.06908585
   0.00505739  8.15174685  4.03647710
   2.03668664  1.97824000  4.05544934
   2.01392334  8.15515801  6.04956998
   7.95455918  4.11536129  0.04939488
   1.95769868  6.18223801 -0.02310018
   7.96032379  6.13492131  2.02078589
   1.98525605  6.16552034  4.03112804
   4.03419217 -0.02156604  8.14384694
   5.97068693  2.02198800  0.03998889
   5.97265450 -0.01473730  2.06538109
   4.04390332  2.01330778  2.05813382
   3.99421461 -0.01501543  4.08145014
   5.98609497 -0.01573440  6.11362352
   5.98964728  4.06200211  2.01262832
   3.96519392  4.04856912  4.00202762
 


--------------------------------------------------------------------------------------------------------


 k-point  1 :   0.0000 0.0000 0.0000  plane waves:    6313
 k-point  2 :   0.3333-0.0000 0.0000  plane waves:    6328
 k-point  3 :  -0.0000 0.3333 0.0000  plane waves:    6319
 k-point  4 :   0.3333 0.3333 0.0000  plane waves:    6304
 k-point  5 :  -0.3333 0.3333 0.0000  plane waves:    6289
 k-point  6 :   0.0000 0.0000 0.3333  plane waves:    6315
 k-point  7 :   0.3333 0.0000 0.3333  plane waves:    6305
 k-point  8 :  -0.3333 0.0000 0.3333  plane waves:    6300
 k-point  9 :  -0.0000 0.3333 0.3333  plane waves:    6300
 k-point 10 :   0.3333 0.3333 0.3333  plane waves:    6312
 k-point 11 :  -0.3333 0.3333 0.3333  plane waves:    6305
 k-point 12 :  -0.0000-0.3333 0.3333  plane waves:    6303
 k-point 13 :   0.3333-0.3333 0.3333  plane waves:    6300
 k-point 14 :  -0.3333-0.3333 0.3333  plane waves:    6292

 maximum and minimum number of plane-waves per node :      1291     1234

 maximum number of plane-waves:      6328
 maximum index in each direction: 
   IXMAX=   11   IYMAX=   11   IZMAX=   11
   IXMIN=  -11   IYMIN=  -11   IZMIN=  -11

 NGX is ok and might be reduce to  46
 NGY is ok and might be reduce to  46
 NGZ is ok and might be reduce to  46

 real space projection operators:
  total allocation   :      17508.94 KBytes
  max/ min on nodes  :       3636.98       3297.09


 parallel 3D FFT for wavefunctions:
    minimum data exchange during FFTs selected (reduces bandwidth)
 parallel 3D FFT for charge:
    minimum data exchange during FFTs selected (reduces bandwidth)


 total amount of memory used by VASP on root node    58878. kBytes
========================================================================

   base      :      30000. kBytes
   nonlr-proj:       6977. kBytes
   fftplans  :       2252. kBytes
   grid      :       3548. kBytes
   one-center:        108. kBytes
   wavefun   :      15993. kBytes
 
     INWAV:  cpu time    0.0000: real time    0.0002
 Broyden mixing: mesh for mixing (old mesh)
   NGX = 23   NGY = 23   NGZ = 23
  (NGX  = 96   NGY  = 96   NGZ  = 96)
  gives a total of  12167 points

 initial charge density was supplied:
 charge density of overlapping atoms calculated
 number of electron     337.0000000 magnetization 
 keeping initial charge density in first step


--------------------------------------------------------------------------------------------------------


 Maximum index for non-local projection operator         1017
 Maximum index for augmentation-charges          647 (set IRDMAX)


--------------------------------------------------------------------------------------------------------


 First call to EWALD:  gamma=   0.218
 Maximum number of real-space cells 3x 3x 3
 Maximum number of reciprocal cells 3x 3x 3

 FEWALD executed in parallel
    FEWALD:  cpu time    0.0291: real time    0.0292


----------------------------------------- Iteration    1(   1)  ---------------------------------------


    POTLOK:  cpu time    0.0215: real time    0.0216
    SETDIJ:  cpu time    0.0040: real time    0.0040
     EDDAV:  cpu time    0.7966: real time    0.8025
       DOS:  cpu time    0.0018: real time    0.0018
    --------------------------------------------
      LOOP:  cpu time    0.8269: real time    0.8380

 eigenvalue-minimisations  :  5712
 total energy-change (2. order) : 0.1635690E+04  (-0.1224914E+05)
 number of electron     337.0000000 magnetization 
 augmentation part      337.0000000 magnetization 

 Free energy of the ion-electron system (eV)
  ---------------------------------------------------
  alpha Z        PSCENC =      2033.97105244
  Ewald energy   TEWEN  =    -28899.84049921
  -Hartree energ DENC   =     -3311.52024242
  -exchange      EXHF   =         0.00000000
  -V(xc)+E(xc)   XCENC  =       318.55555596
  PAW double counting   =     25301.51058842   -24484.77671673
  entropy T*S    EENTRO =        -0.00747501
  eigenvalues    EBANDS =      3998.95650289
  atomic energy  EATOM  =     26678.84160970
  Solvation  Ediel_sol  =         0.00000000
  ---------------------------------------------------
  free energy    TOTEN  =      1635.69037603 eV

  energy without entropy =     1635.69785104  energy(sigma->0) =     1635.69286770


--------------------------------------------------------------------------------------------------------




----------------------------------------- Iteration    1(   2)  ---------------------------------------


     EDDAV:  cpu time    0.8445: real time    0.8491
       DOS:  cpu time    0.0010: real time    0.0010
    --------------------------------------------
      LOOP:  cpu time    0.8458: real time    0.8654

 eigenvalue-minimisations  :  6192
 total energy-change (2. order) :-0.1717879E+04  (-0.1619941E+04)
 number of electron     337.0000000 magnetization 
 augmentation part      337.0000000 magnetization 

 Free energy of the ion-electron system (eV)
  ---------------------------------------------------
  alpha Z        PSCENC =      2033.97105244
  Ewald energy   TEWEN  =    -28899.84049921
  -Hartree energ DENC   =     -3311.52024242
  -exchange      EXHF   =         0.00000000
  -V(xc)+E(xc)   XCENC  =       318.55555596
  PAW double counting   =     25301.51058842   -24484.77671673
  entropy T*S    EENTRO =         0.00048968
  eigenvalues    EBANDS =      2281.06980326
  atomic energy  EATOM  =     26678.84160970
  Solvation  Ediel_sol  =         0.00000000
  ---------------------------------------------------
  free energy    TOTEN  =       -82.18835891 eV

  energy without entropy =      -82.18884860  energy(sigma->0) =      -82.18852214


--------------------------------------------------------------------------------------------------------




----------------------------------------- Iteration    1(   3)  ---------------------------------------


     EDDAV:  cpu time    0.9306: real time    0.9329
       DOS:  cpu time    0.0010: real time    0.0010
    --------------------------------------------
      LOOP:  cpu time    0.9321: real time    0.9396

 eigenvalue-minimisations  :  6160
 total energy-change (2. order) :-0.7142136E+02  (-0.6752914E+02)
 number of electron     337.0000000 magnetization 
 augmentation part      337.0000000 magnetization 

 Free energy of the ion-electron system (eV)
  ---------------------------------------------------
  alpha Z        PSCENC =      2033.97105244
  Ewald energy   TEWEN  =    -28899.84049921
  -Hartree energ DENC   =     -3311.52024242
  -exchange      EXHF   =         0.00000000
  -V(xc)+E(xc)   XCENC  =       318.55555596
  PAW double counting   =     25301.51058842   -24484.77671673
  entropy T*S    EENTRO =         0.00715397
  eigenvalues    EBANDS =      2209.64178379
  atomic energy  EATOM  =     26678.84160970
  Solvation  Ediel_sol  =         0.00000000
  ---------------------------------------------------
  free energy    TOTEN  =      -153.60971410 eV

  energy without entropy =     -153.61686806  energy(sigma->0) =     -153.61209875


--------------------------------------------------------------------------------------------------------




----------------------------------------- Iteration    1(   4)  ---------------------------------------


     EDDAV:  cpu time    1.0490: real time    1.0586
       DOS:  cpu time    0.0013: real time    0.0013
    --------------------------------------------
      LOOP:  cpu time    1.0508: real time    1.0654

 eigenvalue-minimisations  :  6176
 total energy-change (2. order) :-0.1296135E+01  (-0.1285155E+01)
 number of electron     337.0000000 magnetization 
 augmentation part      337.0000000 magnetization 

 Free energy of the ion-electron system (eV)
  ---------------------------------------------------
  alpha Z        PSCENC =      2033.97105244
  Ewald energy   TEWEN  =    -28899.84049921
  -Hartree energ DENC   =     -3311.52024242
  -exchange      EXHF   =         0.00000000
  -V(xc)+E(xc)   XCENC  =       318.55555596
  PAW double counting   =     25301.51058842   -24484.77671673
  entropy T*S    EENTRO =         0.00661980
  eigenvalues    EBANDS =      2208.34618292
  atomic energy  EATOM  =     26678.84160970
  Solvation  Ediel_sol  =         0.00000000
  ---------------------------------------------------
  free energy    TOTEN  =      -154.90584914 eV

  energy without entropy =     -154.91246894  energy(sigma->0) =     -154.90805574


--------------------------------------------------------------------------------------------------------




----------------------------------------- Iteration    1(   5)  ---------------------------------------


     EDDAV:  cpu time    0.8929: real time    0.9492
       DOS:  cpu time    0.0011: real time    0.0011
    CHARGE:  cpu time    0.0292: real time    0.0311
    MIXING:  cpu time    0.0012: real time    0.0013
    --------------------------------------------
      LOOP:  cpu time    0.9247: real time    0.9879

 eigenvalue-minimisations  :  6112
 total energy-change (2. order) :-0.2511216E-01  (-0.2507600E-01)
 number of electron     337.0000152 magnetization 
 augmentation part      110.0610684 magnetization 

 Broyden mixing:
  rms(total) = 0.54962E+01    rms(broyden)= 0.54960E+01
  rms(prec ) = 0.59405E+01
  weight for this iteration     100.00

 Free energy of the ion-electron system (eV)
  ---------------------------------------------------
  alpha Z        PSCENC =      2033.97105244
  Ewald energy   TEWEN  =    -28899.84049921
  -Hartree energ DENC   =     -3311.52024242
  -exchange      EXHF   =         0.00000000
  -V(xc)+E(xc)   XCENC  =       318.55555596
  PAW double counting   =     25301.51058842   -24484.77671673
  entropy T*S    EENTRO =         0.00664484
  eigenvalues    EBANDS =      2208.32104571
  atomic energy  EATOM  =     26678.84160970
  Solvation  Ediel_sol  =         0.00000000
  ---------------------------------------------------
  free energy    TOTEN  =      -154.93096130 eV

  energy without entropy =     -154.93760614  energy(sigma->0) =     -154.93317625


--------------------------------------------------------------------------------------------------------




----------------------------------------- Iteration    1(   6)  ---------------------------------------


    POTLOK:  cpu time    0.0196: real time    0.0222
    SETDIJ:  cpu time    0.0358: real time    0.0379
    EDDIAG:  cpu time    0.0734: real time    0.1108
  RMM-DIIS:  cpu time    0.4208: real time    0.4548
    ORTHCH:  cpu time    0.0128: real time    0.0129
       DOS:  cpu time    0.0028: real time    0.0028
    CHARGE:  cpu time    0.0314: real time    0.0315
    MIXING:  cpu time    0.0014: real time    0.0014
    --------------------------------------------
      LOOP:  cpu time    0.5985: real time    0.6793

 eigenvalue-minimisations  :  5712
 total energy-change (2. order) : 0.9062567E+01  (-0.2799017E+01)
 number of electron     337.0000159 magnetization 
 augmentation part      113.6435600 magnetization 

 Broyden mixing:
  rms(total) = 0.35494E+01    rms(broyden)= 0.35494E+01
  rms(prec ) = 0.36761E+01
  weight for this iteration     100.00

 eigenvalues of (default mixing * dielectric matrix)
  average eigenvalue GAMMA=   1.7938
  1.7938

 Free energy of the ion-electron system (eV)
  ---------------------------------------------------
  alpha Z        PSCENC =      2033.97105244
  Ewald energy   TEWEN  =    -28899.84049921
  -Hartree energ DENC   =     -3071.40891952
  -exchange      EXHF   =         0.00000000
  -V(xc)+E(xc)   XCENC  =       308.66072192
  PAW double counting   =     27549.24708987   -26773.50998338
  entropy T*S    EENTRO =         0.00635479
  eigenvalues    EBANDS =      2028.16417919
  atomic energy  EATOM  =     26678.84160970
  Solvation  Ediel_sol  =         0.00000000
  ---------------------------------------------------
  free energy    TOTEN  =      -145.86839421 eV

  energy without entropy =     -145.87474899  energy(sigma->0) =     -145.87051247


--------------------------------------------------------------------------------------------------------




----------------------------------------- Iteration    1(   7)  ---------------------------------------


    POTLOK:  cpu time    0.0185: real time    0.0186
    SETDIJ:  cpu time    0.0061: real time    0.0061
    EDDIAG:  cpu time    0.0699: real time    0.0701
  RMM-DIIS:  cpu time    0.4043: real time    0.4066
    ORTHCH:  cpu time    0.0128: real time    0.0128
       DOS:  cpu time    0.0015: real time    0.0015
    CHARGE:  cpu time    0.0260: real time    0.0261
    MIXING:  cpu time    0.0010: real time    0.0010
    --------------------------------------------
      LOOP:  cpu time    0.5408: real time    0.5479

 eigenvalue-minimisations  :  5712
 total energy-change (2. order) :-0.7204175E+00  (-0.1069779E+01)
 number of electron     337.0000159 magnetization 
 augmentation part      115.8307531 magnetization 

 Broyden mixing:
  rms(total) = 0.18284E+01    rms(broyden)= 0.18284E+01
  rms(prec ) = 0.23684E+01
  weight for this iteration     100.00

 eigenvalues of (default mixing * dielectric matrix)
  average eigenvalue GAMMA=   1.4545
  2.2826  0.6264

 Free energy of the ion-electron system (eV)
  ---------------------------------------------------
  alpha Z        PSCENC =      2033.97105244
  Ewald energy   TEWEN  =    -28899.84049921
  -Hartree energ DENC   =     -2983.85956587
  -exchange      EXHF   =         0.00000000
  -V(xc)+E(xc)   XCENC  =       305.15393038
  PAW double counting   =     29646.32731909   -28899.91253738
  entropy T*S    EENTRO =         0.00873157
  eigenvalues    EBANDS =      1972.72114762
  atomic energy  EATOM  =     26678.84160970
  Solvation  Ediel_sol  =         0.00000000
  ---------------------------------------------------
  free energy    TOTEN  =      -146.58881166 eV

  energy without entropy =     -146.59754323  energy(sigma->0) =     -146.59172219


--------------------------------------------------------------------------------------------------------




----------------------------------------- Iteration    1(   8)  ---------------------------------------


    POTLOK:  cpu time    0.0185: real time    0.0186
    SETDIJ:  cpu time    0.0033: real time    0.0033
    EDDIAG:  cpu time    0.0704: real time    0.0706
  RMM-DIIS:  cpu time    0.4033: real time    0.4051
    ORTHCH:  cpu time    0.0128: real time    0.0128
       DOS:  cpu time    0.0010: real time    0.0010
    CHARGE:  cpu time    0.0268: real time    0.0268
    MIXING:  cpu time    0.0010: real time    0.0010
    --------------------------------------------
      LOOP:  cpu time    0.5378: real time    0.5450

 eigenvalue-minimisations  :  5712
 total energy-change (2. order) : 0.1180717E+01  (-0.4351281E+00)
 number of electron     337.0000160 magnetization 
 augmentation part      115.5698357 magnetization 

 Broyden mixing:
  rms(total) = 0.10845E+01    rms(broyden)= 0.10843E+01
  rms(prec ) = 0.17375E+01
  weight for this iteration     100.00

 eigenvalues of (default mixing * dielectric matrix)
  average eigenvalue GAMMA=   1.2291
  2.4167  0.8539  0.4167

 Free energy of the ion-electron system (eV)
  ---------------------------------------------------
  alpha Z        PSCENC =      2033.97105244
  Ewald energy   TEWEN  =    -28899.84049921
  -Hartree energ DENC   =     -2961.45541901
  -exchange      EXHF   =         0.00000000
  -V(xc)+E(xc)   XCENC  =       304.18469610
  PAW double counting   =     30707.11713412   -29970.95762097
  entropy T*S    EENTRO =        -0.01205981
  eigenvalues    EBANDS =      1962.74301177
  atomic energy  EATOM  =     26678.84160970
  Solvation  Ediel_sol  =         0.00000000
  ---------------------------------------------------
  free energy    TOTEN  =      -145.40809487 eV

  energy without entropy =     -145.39603506  energy(sigma->0) =     -145.40407493


--------------------------------------------------------------------------------------------------------




----------------------------------------- Iteration    1(   9)  ---------------------------------------


    POTLOK:  cpu time    0.0184: real time    0.0185
    SETDIJ:  cpu time    0.0033: real time    0.0033
    EDDIAG:  cpu time    0.0709: real time    0.0712
  RMM-DIIS:  cpu time    0.4042: real time    0.4054
    ORTHCH:  cpu time    0.0128: real time    0.0128
       DOS:  cpu time    0.0011: real time    0.0011
    CHARGE:  cpu time    0.0267: real time    0.0268
    MIXING:  cpu time    0.0011: real time    0.0011
    --------------------------------------------
      LOOP:  cpu time    0.5390: real time    0.5458

 eigenvalue-minimisations  :  5712
 total energy-change (2. order) : 0.4256196E+00  (-0.1883122E+00)
 number of electron     337.0000161 magnetization 
 augmentation part      115.3571817 magnetization 

 Broyden mixing:
  rms(total) = 0.66468E+00    rms(broyden)= 0.66450E+00
  rms(prec ) = 0.11282E+01
  weight for this iteration     100.00

 eigenvalues of (default mixing * dielectric matrix)
  average eigenvalue GAMMA=   1.1621
  2.5375  1.2496  0.5598  0.3014

 Free energy of the ion-electron system (eV)
  ---------------------------------------------------
  alpha Z        PSCENC =      2033.97105244
  Ewald energy   TEWEN  =    -28899.84049921
  -Hartree energ DENC   =     -2964.96326608
  -exchange      EXHF   =         0.00000000
  -V(xc)+E(xc)   XCENC  =       304.30409598
  PAW double counting   =     31018.37853993   -30284.60484522
  entropy T*S    EENTRO =         0.00808419
  eigenvalues    EBANDS =      1968.92275298
  atomic energy  EATOM  =     26678.84160970
  Solvation  Ediel_sol  =         0.00000000
  ---------------------------------------------------
  free energy    TOTEN  =      -144.98247530 eV

  energy without entropy =     -144.99055949  energy(sigma->0) =     -144.98517003


--------------------------------------------------------------------------------------------------------




----------------------------------------- Iteration    1(  10)  ---------------------------------------


    POTLOK:  cpu time    0.0184: real time    0.0185
    SETDIJ:  cpu time    0.0033: real time    0.0033
    EDDIAG:  cpu time    0.0698: real time    0.0700
  RMM-DIIS:  cpu time    0.4402: real time    0.4413
    ORTHCH:  cpu time    0.0128: real time    0.0129
       DOS:  cpu time    0.0014: real time    0.0014
    CHARGE:  cpu time    0.0272: real time    0.0273
    MIXING:  cpu time    0.0010: real time    0.0010
    --------------------------------------------
      LOOP:  cpu time    0.5748: real time    0.5817

 eigenvalue-minimisations  :  5712
 total energy-change (2. order) : 0.4208968E+00  (-0.5692742E-01)
 number of electron     337.0000160 magnetization 
 augmentation part      115.2556302 magnetization 

 Broyden mixing:
  rms(total) = 0.23238E+00    rms(broyden)= 0.23227E+00
  rms(prec ) = 0.38251E+00
  weight for this iteration     100.00

 eigenvalues of (default mixing * dielectric matrix)
  average eigenvalue GAMMA=   1.0095
  2.5067  1.2770  0.5346  0.4597  0.2693

 Free energy of the ion-electron system (eV)
  ---------------------------------------------------
  alpha Z        PSCENC =      2033.97105244
  Ewald energy   TEWEN  =    -28899.84049921
  -Hartree energ DENC   =     -2973.60190878
  -exchange      EXHF   =         0.00000000
  -V(xc)+E(xc)   XCENC  =       304.63352991
  PAW double counting   =     31218.13347180   -30485.90266018
  entropy T*S    EENTRO =         0.01247708
  eigenvalues    EBANDS =      1979.19134874
  atomic energy  EATOM  =     26678.84160970
  Solvation  Ediel_sol  =         0.00000000
  ---------------------------------------------------
  free energy    TOTEN  =      -144.56157849 eV

  energy without entropy =     -144.57405557  energy(sigma->0) =     -144.56573752


--------------------------------------------------------------------------------------------------------




----------------------------------------- Iteration    1(  11)  ---------------------------------------


    POTLOK:  cpu time    0.0184: real time    0.0185
    SETDIJ:  cpu time    0.0033: real time    0.0033
    EDDIAG:  cpu time    0.0709: real time    0.0711
  RMM-DIIS:  cpu time    0.4083: real time    0.4096
    ORTHCH:  cpu time    0.0143: real time    0.0144
       DOS:  cpu time    0.0011: real time    0.0011
    CHARGE:  cpu time    0.0284: real time    0.0285
    MIXING:  cpu time    0.0013: real time    0.0013
    --------------------------------------------
      LOOP:  cpu time    0.5466: real time    0.5531

 eigenvalue-minimisations  :  5712
 total energy-change (2. order) : 0.5758916E-01  (-0.7738925E-02)
 number of electron     337.0000160 magnetization 
 augmentation part      115.2430674 magnetization 

 Broyden mixing:
  rms(total) = 0.12102E+00    rms(broyden)= 0.12100E+00
  rms(prec ) = 0.15063E+00
  weight for this iteration     100.00

 eigenvalues of (default mixing * dielectric matrix)
  average eigenvalue GAMMA=   0.9161
  2.4684  1.2726  0.5798  0.5798  0.2979  0.2979

 Free energy of the ion-electron system (eV)
  ---------------------------------------------------
  alpha Z        PSCENC =      2033.97105244
  Ewald energy   TEWEN  =    -28899.84049921
  -Hartree energ DENC   =     -2974.58258542
  -exchange      EXHF   =         0.00000000
  -V(xc)+E(xc)   XCENC  =       304.66916906
  PAW double counting   =     31203.31800765   -30470.88153028
  entropy T*S    EENTRO =         0.01399491
  eigenvalues    EBANDS =      1979.98679182
  atomic energy  EATOM  =     26678.84160970
  Solvation  Ediel_sol  =         0.00000000
  ---------------------------------------------------
  free energy    TOTEN  =      -144.50398934 eV

  energy without entropy =     -144.51798424  energy(sigma->0) =     -144.50865431


--------------------------------------------------------------------------------------------------------




----------------------------------------- Iteration    1(  12)  ---------------------------------------


    POTLOK:  cpu time    0.0186: real time    0.0187
    SETDIJ:  cpu time    0.0038: real time    0.0038
    EDDIAG:  cpu time    0.0713: real time    0.0717
  RMM-DIIS:  cpu time    0.4040: real time    0.4054
    ORTHCH:  cpu time    0.0129: real time    0.0129
       DOS:  cpu time    0.0012: real time    0.0012
    CHARGE:  cpu time    0.0276: real time    0.0277
    MIXING:  cpu time    0.0011: real time    0.0012
    --------------------------------------------
      LOOP:  cpu time    0.5412: real time    0.5483

 eigenvalue-minimisations  :  5712
 total energy-change (2. order) : 0.3749459E-02  (-0.7129980E-03)
 number of electron     337.0000160 magnetization 
 augmentation part      115.2398840 magnetization 

 Broyden mixing:
  rms(total) = 0.75267E-01    rms(broyden)= 0.75263E-01
  rms(prec ) = 0.91767E-01
  weight for this iteration     100.00

 eigenvalues of (default mixing * dielectric matrix)
  average eigenvalue GAMMA=   0.9158
  2.4204  1.2603  0.8109  0.8109  0.4860  0.3441  0.2777

 Free energy of the ion-electron system (eV)
  ---------------------------------------------------
  alpha Z        PSCENC =      2033.97105244
  Ewald energy   TEWEN  =    -28899.84049921
  -Hartree energ DENC   =     -2974.84168034
  -exchange      EXHF   =         0.00000000
  -V(xc)+E(xc)   XCENC  =       304.67838035
  PAW double counting   =     31176.48935171   -30443.73780375
  entropy T*S    EENTRO =         0.01445306
  eigenvalues    EBANDS =      1979.92489617
  atomic energy  EATOM  =     26678.84160970
  Solvation  Ediel_sol  =         0.00000000
  ---------------------------------------------------
  free energy    TOTEN  =      -144.50023988 eV

  energy without entropy =     -144.51469294  energy(sigma->0) =     -144.50505757


--------------------------------------------------------------------------------------------------------




----------------------------------------- Iteration    1(  13)  ---------------------------------------


    POTLOK:  cpu time    0.0198: real time    0.0198
    SETDIJ:  cpu time    0.0033: real time    0.0033
    EDDIAG:  cpu time    0.0701: real time    0.0703
  RMM-DIIS:  cpu time    0.4047: real time    0.4059
    ORTHCH:  cpu time    0.0128: real time    0.0128
       DOS:  cpu time    0.0012: real time    0.0012
    CHARGE:  cpu time    0.0283: real time    0.0283
    MIXING:  cpu time    0.0012: real time    0.0012
    --------------------------------------------
      LOOP:  cpu time    0.5424: real time    0.5490

 eigenvalue-minimisations  :  5712
 total energy-change (2. order) : 0.9494620E-03  (-0.2857249E-03)
 number of electron     337.0000160 magnetization 
 augmentation part      115.2415172 magnetization 

 Broyden mixing:
  rms(total) = 0.53013E-01    rms(broyden)= 0.53010E-01
  rms(prec ) = 0.63861E-01
  weight for this iteration     100.00

 eigenvalues of (default mixing * dielectric matrix)
  average eigenvalue GAMMA=   1.0639
  2.4411  2.4411  1.2824  0.8237  0.5597  0.3912  0.2953  0.2770

 Free energy of the ion-electron system (eV)
  ---------------------------------------------------
  alpha Z        PSCENC =      2033.97105244
  Ewald energy   TEWEN  =    -28899.84049921
  -Hartree energ DENC   =     -2974.98040078
  -exchange      EXHF   =         0.00000000
  -V(xc)+E(xc)   XCENC  =       304.68240235
  PAW double counting   =     31157.22383848   -30424.23661467
  entropy T*S    EENTRO =         0.01421271
  eigenvalues    EBANDS =      1979.82510857
  atomic energy  EATOM  =     26678.84160970
  Solvation  Ediel_sol  =         0.00000000
  ---------------------------------------------------
  free energy    TOTEN  =      -144.49929042 eV

  energy without entropy =     -144.51350313  energy(sigma->0) =     -144.50402799


--------------------------------------------------------------------------------------------------------




----------------------------------------- Iteration    1(  14)  ---------------------------------------


    POTLOK:  cpu time    0.0183: real time    0.0184
    SETDIJ:  cpu time    0.0033: real time    0.0033
    EDDIAG:  cpu time    0.0712: real time    0.0714
  RMM-DIIS:  cpu time    0.4777: real time    0.4789
    ORTHCH:  cpu time    0.0127: real time    0.0128
       DOS:  cpu time    0.0012: real time    0.0012
    CHARGE:  cpu time    0.0285: real time    0.0286
    MIXING:  cpu time    0.0012: real time    0.0013
    --------------------------------------------
      LOOP:  cpu time    0.6148: real time    0.6216

 eigenvalue-minimisations  :  5712
 total energy-change (2. order) :-0.2782415E-03  (-0.2455469E-03)
 number of electron     337.0000160 magnetization 
 augmentation part      115.2458839 magnetization 

 Broyden mixing:
  rms(total) = 0.33079E-01    rms(broyden)= 0.33074E-01
  rms(prec ) = 0.54308E-01
  weight for this iteration     100.00

 eigenvalues of (default mixing * dielectric matrix)
  average eigenvalue GAMMA=   1.0073
  2.4996  2.4996  1.2798  0.9008  0.5605  0.4388  0.2843  0.3084  0.2941

 Free energy of the ion-electron system (eV)
  ---------------------------------------------------
  alpha Z        PSCENC =      2033.97105244
  Ewald energy   TEWEN  =    -28899.84049921
  -Hartree energ DENC   =     -2975.14259230
  -exchange      EXHF   =         0.00000000
  -V(xc)+E(xc)   XCENC  =       304.68530579
  PAW double counting   =     31138.09516380   -30404.82693352
  entropy T*S    EENTRO =         0.01418139
  eigenvalues    EBANDS =      1979.70314326
  atomic energy  EATOM  =     26678.84160970
  Solvation  Ediel_sol  =         0.00000000
  ---------------------------------------------------
  free energy    TOTEN  =      -144.49956866 eV

  energy without entropy =     -144.51375005  energy(sigma->0) =     -144.50429579


--------------------------------------------------------------------------------------------------------




----------------------------------------- Iteration    1(  15)  ---------------------------------------


    POTLOK:  cpu time    0.0184: real time    0.0185
    SETDIJ:  cpu time    0.0033: real time    0.0033
    EDDIAG:  cpu time    0.0696: real time    0.0697
  RMM-DIIS:  cpu time    0.4536: real time    0.4549
    ORTHCH:  cpu time    0.0127: real time    0.0128
       DOS:  cpu time    0.0103: real time    0.0103
    CHARGE:  cpu time    0.0287: real time    0.0288
    MIXING:  cpu time    0.0013: real time    0.0013
    --------------------------------------------
      LOOP:  cpu time    0.5984: real time    0.6053

 eigenvalue-minimisations  :  5712
 total energy-change (2. order) : 0.1019390E-02  (-0.9964959E-04)
 number of electron     337.0000160 magnetization 
 augmentation part      115.2459948 magnetization 

 Broyden mixing:
  rms(total) = 0.10001E-01    rms(broyden)= 0.99962E-02
  rms(prec ) = 0.14451E-01
  weight for this iteration     100.00

 eigenvalues of (default mixing * dielectric matrix)
  average eigenvalue GAMMA=   0.9652
  2.4573  2.4573  1.2677  0.9624  0.6514  0.5929  0.3798  0.3239  0.2833  0.2755

 Free energy of the ion-electron system (eV)
  ---------------------------------------------------
  alpha Z        PSCENC =      2033.97105244
  Ewald energy   TEWEN  =    -28899.84049921
  -Hartree energ DENC   =     -2975.11841104
  -exchange      EXHF   =         0.00000000
  -V(xc)+E(xc)   XCENC  =       304.68398056
  PAW double counting   =     31144.20558342   -30410.98951121
  entropy T*S    EENTRO =         0.01402082
  eigenvalues    EBANDS =      1979.73362524
  atomic energy  EATOM  =     26678.84160970
  Solvation  Ediel_sol  =         0.00000000
  ---------------------------------------------------
  free energy    TOTEN  =      -144.49854927 eV

  energy without entropy =     -144.51257009  energy(sigma->0) =     -144.50322287


--------------------------------------------------------------------------------------------------------




----------------------------------------- Iteration    1(  16)  ---------------------------------------


    POTLOK:  cpu time    0.0184: real time    0.0184
    SETDIJ:  cpu time    0.0033: real time    0.0033
    EDDIAG:  cpu time    0.0791: real time    0.0793
  RMM-DIIS:  cpu time    0.4054: real time    0.4071
    ORTHCH:  cpu time    0.0128: real time    0.0128
       DOS:  cpu time    0.0011: real time    0.0011
    CHARGE:  cpu time    0.0284: real time    0.0285
    MIXING:  cpu time    0.0013: real time    0.0013
    --------------------------------------------
      LOOP:  cpu time    0.5503: real time    0.5573

 eigenvalue-minimisations  :  5712
 total energy-change (2. order) : 0.5829679E-04  (-0.2150667E-04)
 number of electron     337.0000160 magnetization 
 augmentation part      115.2468026 magnetization 

 Broyden mixing:
  rms(total) = 0.49974E-02    rms(broyden)= 0.49960E-02
  rms(prec ) = 0.81067E-02
  weight for this iteration     100.00

 eigenvalues of (default mixing * dielectric matrix)
  average eigenvalue GAMMA=   0.9310
  2.4278  2.4278  1.2582  0.9168  0.9168  0.5846  0.4711  0.3818  0.3034  0.2811
  0.2711

 Free energy of the ion-electron system (eV)
  ---------------------------------------------------
  alpha Z        PSCENC =      2033.97105244
  Ewald energy   TEWEN  =    -28899.84049921
  -Hartree energ DENC   =     -2975.11489520
  -exchange      EXHF   =         0.00000000
  -V(xc)+E(xc)   XCENC  =       304.68379256
  PAW double counting   =     31148.22120296   -30415.04267688
  entropy T*S    EENTRO =         0.01419782
  eigenvalues    EBANDS =      1979.76772484
  atomic energy  EATOM  =     26678.84160970
  Solvation  Ediel_sol  =         0.00000000
  ---------------------------------------------------
  free energy    TOTEN  =      -144.49849097 eV

  energy without entropy =     -144.51268879  energy(sigma->0) =     -144.50322358


--------------------------------------------------------------------------------------------------------




----------------------------------------- Iteration    1(  17)  ---------------------------------------


    POTLOK:  cpu time    0.0184: real time    0.0184
    SETDIJ:  cpu time    0.0033: real time    0.0033
    EDDIAG:  cpu time    0.0698: real time    0.0699
  RMM-DIIS:  cpu time    0.2906: real time    0.2913
    ORTHCH:  cpu time    0.0129: real time    0.0133
       DOS:  cpu time    0.0010: real time    0.0010
    CHARGE:  cpu time    0.0284: real time    0.0285
    MIXING:  cpu time    0.0013: real time    0.0014
    --------------------------------------------
      LOOP:  cpu time    0.4264: real time    0.4328

 eigenvalue-minimisations  :  3951
 total energy-change (2. order) : 0.2478071E-04  (-0.3392006E-05)
 number of electron     337.0000160 magnetization 
 augmentation part      115.2464875 magnetization 

 Broyden mixing:
  rms(total) = 0.20106E-02    rms(broyden)= 0.20097E-02
  rms(prec ) = 0.31459E-02
  weight for this iteration     100.00

 eigenvalues of (default mixing * dielectric matrix)
  average eigenvalue GAMMA=   0.9291
  2.4041  2.4041  1.2625  1.1079  1.1079  0.6595  0.5702  0.4107  0.3674  0.3046
  0.2791  0.2708

 Free energy of the ion-electron system (eV)
  ---------------------------------------------------
  alpha Z        PSCENC =      2033.97105244
  Ewald energy   TEWEN  =    -28899.84049921
  -Hartree energ DENC   =     -2975.11742838
  -exchange      EXHF   =         0.00000000
  -V(xc)+E(xc)   XCENC  =       304.68391142
  PAW double counting   =     31149.34666026   -30416.17613459
  entropy T*S    EENTRO =         0.01413175
  eigenvalues    EBANDS =      1979.77823043
  atomic energy  EATOM  =     26678.84160970
  Solvation  Ediel_sol  =         0.00000000
  ---------------------------------------------------
  free energy    TOTEN  =      -144.49846619 eV

  energy without entropy =     -144.51259794  energy(sigma->0) =     -144.50317677


--------------------------------------------------------------------------------------------------------




----------------------------------------- Iteration    1(  18)  ---------------------------------------


    POTLOK:  cpu time    0.0184: real time    0.0185
    SETDIJ:  cpu time    0.0033: real time    0.0033
    EDDIAG:  cpu time    0.0692: real time    0.0699
  RMM-DIIS:  cpu time    0.2329: real time    0.2338
    ORTHCH:  cpu time    0.0141: real time    0.0141
       DOS:  cpu time    0.0010: real time    0.0010
    --------------------------------------------
      LOOP:  cpu time    0.3393: real time    0.3467

 eigenvalue-minimisations  :  3086
 total energy-change (2. order) : 0.2635126E-05  (-0.1027568E-05)
 number of electron     337.0000160 magnetization 
 augmentation part      115.2464875 magnetization 

 Free energy of the ion-electron system (eV)
  ---------------------------------------------------
  alpha Z        PSCENC =      2033.97105244
  Ewald energy   TEWEN  =    -28899.84049921
  -Hartree energ DENC   =     -2975.11308035
  -exchange      EXHF   =         0.00000000
  -V(xc)+E(xc)   XCENC  =       304.68373338
  PAW double counting   =     31149.89589063   -30416.72779789
  entropy T*S    EENTRO =         0.01421193
  eigenvalues    EBANDS =      1979.77641582
  atomic energy  EATOM  =     26678.84160970
  Solvation  Ediel_sol  =         0.00000000
  ---------------------------------------------------
  free energy    TOTEN  =      -144.49846355 eV

  energy without entropy =     -144.51267549  energy(sigma->0) =     -144.50320087


--------------------------------------------------------------------------------------------------------




 average (electrostatic) potential at core
  the test charge radii are     1.2098  1.2059
  (the norm of the test charge is              1.0000)
       1 -63.9375       2 -63.9636       3 -63.9179       4 -64.0216       5 -63.9587
       6 -64.0195       7 -64.0111       8 -63.9309       9 -63.9446      10 -63.9785
      11 -63.9760      12 -63.9960      13 -63.9103      14 -63.9173      15 -64.0331
      16 -63.9183      17 -64.0368      18 -64.2328      19 -64.1472      20 -64.1731
      21 -64.0878      22 -64.0530      23 -64.2830      24 -64.0713      25 -64.2217
      26 -64.2087      27 -64.1542      28 -64.3552      29 -64.0889      30 -64.0406
      31 -64.1160      32 -64.0653
 
 
 
 E-fermi :   9.3429     XC(G=0): -12.8514     alpha+bet :-14.5836


 k-point     1 :       0.0000    0.0000    0.0000
  band No.  band energies     occupation 
      1      -0.0143      2.00000
      2       2.3657      2.00000
      3       2.4004      2.00000
      4       2.4523      2.00000
      5       2.4868      2.00000
      6       2.5244      2.00000
      7       2.5635      2.00000
      8       2.6206      2.00000
      9       2.6428      2.00000
     10       2.6528      2.00000
     11       2.6539      2.00000
     12       2.8562      2.00000
     13       2.8671      2.00000
     14       2.9605      2.00000
     15       3.2210      2.00000
     16       3.2454      2.00000
     17       3.2793      2.00000
     18       3.7262      2.00000
     19       3.7461      2.00000
     20       3.7536      2.00000
     21       3.8247      2.00000
     22       3.8356      2.00000
     23       3.8418      2.00000
     24       3.8616      2.00000
     25       3.8751      2.00000
     26       3.8888      2.00000
     27       3.9078      2.00000
     28       3.9248      2.00000
     29       3.9302      2.00000
     30       3.9765      2.00000
     31       3.9981      2.00000
     32       4.0306      2.00000
     33       4.0708      2.00000
     34       4.1042      2.00000
     35       4.1089      2.00000
     36       4.1187      2.00000
     37       4.1542      2.00000
     38       4.2971      2.00000
     39       4.3340      2.00000
     40       4.3722      2.00000
     41       4.4065      2.00000
     42       4.5022      2.00000
     43       4.5346      2.00000
     44       4.5848      2.00000
     45       4.6128      2.00000
     46       4.6447      2.00000
     47       4.6858      2.00000
     48       4.7026      2.00000
     49       4.7335      2.00000
     50       4.7886      2.00000
     51       4.8038      2.00000
     52       4.8334      2.00000
     53       4.8558      2.00000
     54       4.8725      2.00000
     55       4.8851      2.00000
     56       4.8964      2.00000
     57       4.9184      2.00000
     58       4.9285      2.00000
     59       4.9729      2.00000
     60       4.9933      2.00000
     61       5.0170      2.00000
     62       5.0305      2.00000
     63       5.0425      2.00000
     64       5.0664      2.00000
     65       5.0958      2.00000
     66       5.1379      2.00000
     67       5.1465      2.00000
     68       5.1670      2.00000
     69       5.1873      2.00000
     70       5.2116      2.00000
     71       5.2258      2.00000
     72       5.2622      2.00000
     73       5.2703      2.00000
     74       5.2712      2.00000
     75       5.3000      2.00000
     76       5.3104      2.00000
     77       5.3464      2.00000
     78       5.3834      2.00000
     79       5.4101      2.00000
     80       5.4577      2.00000
     81       5.4859      2.00000
     82       5.6073      2.00000
     83       5.6402      2.00000
     84       5.6736      2.00000
     85       5.7229      2.00000
     86       5.8163      2.00000
     87       5.8351      2.00000
     88       5.8573      2.00000
     89       5.8854      2.00000
     90       5.9516      2.00000
     91       5.9529      2.00000
     92       6.1495      2.00000
     93       6.1848      2.00000
     94       6.1931      2.00000
     95       6.2366      2.00000
     96       6.3724      2.00000
     97       6.3952      2.00000
     98       6.4088      2.00000
     99       6.4425      2.00000
    100       6.4626      2.00000
    101       6.4969      2.00000
    102       6.5237      2.00000
    103       6.5858      2.00000
    104       6.6010      2.00000
    105       6.6035      2.00000
    106       6.6328      2.00000
    107       6.6449      2.00000
    108       6.7112      2.00000
    109       6.7485      2.00000
    110       6.7972      2.00000
    111       6.8131      2.00000
    112       6.8346      2.00000
    113       6.8552      2.00000
    114       6.8766      2.00000
    115       6.8930      2.00000
    116       6.9593      2.00000
    117       6.9907      2.00000
    118       7.0164      2.00000
    119       7.0280      2.00000
    120       7.0686      2.00000
    121       7.0914      2.00000
    122       7.1414      2.00000
    123       7.1783      2.00000
    124       7.2066      2.00000
    125       7.2406      2.00000
    126       7.3230      2.00000
    127       7.3253      2.00000
    128       7.3664      2.00000
    129       7.3793      2.00000
    130       7.3910      2.00000
    131       7.5017      2.00000
    132       7.5260      2.00000
    133       7.5821      2.00000
    134       7.5974      2.00000
    135       7.6320      2.00000
    136       7.7460      2.00000
    137       7.8169      2.00000
    138       7.8641      2.00000
    139       7.8963      2.00000
    140       7.9241      2.00000
    141       8.0552      2.00000
    142       8.1444      2.00000
    143       8.1857      2.00000
    144       8.2507      2.00000
    145       8.3374      2.00000
    146       8.4141      2.00000
    147       8.5228      2.00000
    148       8.5374      2.00000
    149       8.6716      2.00000
    150       8.7354      2.00000
    151       8.7488      2.00000
    152       8.7965      2.00000
    153       8.8173      2.00001
    154       8.8931      2.00019
    155       8.9050      2.00029
    156       8.9606      2.00186
    157       8.9848      2.00378
    158       9.0098      2.00736
    159       9.0378      2.01431
    160       9.0583      2.02199
    161       9.0791      2.03215
    162       9.0995      2.04404
    163       9.1032      2.04637
    164       9.1574      2.07088
    165       9.1796      2.06408
    166       9.2063      2.02627
    167       9.2553      1.82498
    168       9.3701      0.69791
    169       9.3995      0.40867
    170       9.5192     -0.07012
    171       9.6630     -0.01011
    172      10.1061     -0.00000
    173      10.2594     -0.00000
    174      10.2831     -0.00000
    175      10.2918     -0.00000
    176      10.3321     -0.00000
    177      10.3618     -0.00000
    178      10.4174     -0.00000
    179      10.4422     -0.00000
    180      10.5146     -0.00000
    181      10.6208     -0.00000
    182      10.6890     -0.00000
    183      10.7196     -0.00000
    184      10.8821     -0.00000
    185      11.0177     -0.00000
    186      11.3515     -0.00000
    187      13.5981      0.00000
    188      13.6928      0.00000
    189      13.7691      0.00000
    190      13.8025      0.00000
    191      14.8703      0.00000
    192      14.9651      0.00000
    193      15.1106      0.00000
    194      15.2875      0.00000
    195      15.4548      0.00000
    196      15.5220      0.00000
    197      16.1815      0.00000
    198      16.4056      0.00000
    199      16.4234      0.00000
    200      16.4699      0.00000
    201      16.5066      0.00000
    202      16.5099      0.00000
    203      16.6854      0.00000
    204      16.7338      0.00000

 k-point     2 :       0.3333   -0.0000    0.0000
  band No.  band energies     occupation 
[...]
    101       6.3178      2.00000
    102       6.3386      2.00000
    103       6.3666      2.00000
    104       6.3991      2.00000
    105       6.4088      2.00000
    106       6.4549      2.00000
    107       6.5063      2.00000
    108       6.5503      2.00000
    109       6.5825      2.00000
    110       6.6324      2.00000
    111       6.6841      2.00000
    112       6.7568      2.00000
    113       6.7994      2.00000
    114       6.8464      2.00000
    115       6.8962      2.00000
    116       6.9264      2.00000
    117       6.9717      2.00000
    118       7.0220      2.00000
    119       7.0539      2.00000
    120       7.0780      2.00000
    121       7.1228      2.00000
    122       7.1441      2.00000
    123       7.1685      2.00000
    124       7.1945      2.00000
    125       7.2423      2.00000
    126       7.2656      2.00000
    127       7.3076      2.00000
    128       7.3675      2.00000
    129       7.4091      2.00000
    130       7.4570      2.00000
    131       7.5034      2.00000
    132       7.5563      2.00000
    133       7.5950      2.00000
    134       7.6595      2.00000
    135       7.7243      2.00000
    136       7.8360      2.00000
    137       7.8520      2.00000
    138       7.8965      2.00000
    139       7.9404      2.00000
    140       7.9707      2.00000
    141       8.0083      2.00000
    142       8.0795      2.00000
    143       8.1291      2.00000
    144       8.2050      2.00000
    145       8.2782      2.00000
    146       8.3237      2.00000
    147       8.3624      2.00000
    148       8.3979      2.00000
    149       8.4891      2.00000
    150       8.5307      2.00000
    151       8.5966      2.00000
    152       8.6353      2.00000
    153       8.6967      2.00000
    154       8.7253      2.00000
    155       8.7584      2.00000
    156       8.7762      2.00000
    157       8.8262      2.00001
    158       8.8548      2.00005
    159       8.8835      2.00014
    160       8.9278      2.00070
    161       8.9673      2.00244
    162       8.9997      2.00602
    163       9.0547      2.02145
    164       9.0730      2.03015
    165       9.1342      2.06523
    166       9.1856      2.05641
    167       9.2081      2.01658
    168       9.2765      1.65473
    169       9.5771     -0.04825
    170       9.6327     -0.01886
    171       9.6680     -0.00847
    172      10.5167     -0.00000
    173      10.5496     -0.00000
    174      10.6177     -0.00000
    175      10.6692     -0.00000
    176      10.7506     -0.00000
    177      10.8261     -0.00000
    178      11.0459     -0.00000
    179      11.1458     -0.00000
    180      11.2039     -0.00000
    181      11.5710     -0.00000
    182      11.6368     -0.00000
    183      11.7716     -0.00000
    184      12.6591     -0.00000
    185      12.7924     -0.00000
    186      12.8792     -0.00000
    187      12.9101     -0.00000
    188      13.0344     -0.00000
    189      13.1089     -0.00000
    190      13.1635     -0.00000
    191      13.3778     -0.00000
    192      13.5047      0.00000
    193      13.8918      0.00000
    194      13.9967      0.00000
    195      14.2947      0.00000
    196      14.4127      0.00000
    197      14.7109      0.00000
    198      14.7327      0.00000
    199      15.2120      0.00000
    200      15.2698      0.00000
    201      15.3811      0.00000
    202      15.4274      0.00000
    203      15.5147      0.00000
    204      15.5715      0.00000


--------------------------------------------------------------------------------------------------------


 soft charge-density along one line, spin component           1
         0         1         2         3         4         5         6         7         8         9
 total charge-density along one line
 
 pseudopotential strength for first ion, spin component:           1
 -3.656  -0.001  -0.002  -0.002  -0.000  -3.900  -0.001  -0.002
 -0.001  -3.646  -0.001   0.000   0.002  -0.001  -3.890  -0.001
 -0.002  -0.001  -3.638  -0.001   0.002  -0.002  -0.001  -3.882
 -0.002   0.000  -0.001  -3.659  -0.002  -0.002   0.000  -0.001
 -0.000   0.002   0.002  -0.002  -3.641  -0.000   0.002   0.002
 -3.900  -0.001  -0.002  -0.002  -0.000  -4.126  -0.001  -0.002
 -0.001  -3.890  -0.001   0.000   0.002  -0.001  -4.116  -0.001
 -0.002  -0.001  -3.882  -0.001   0.002  -0.002  -0.001  -4.108
 -0.002   0.000  -0.001  -3.903  -0.002  -0.002   0.000  -0.001
 -0.000   0.002   0.002  -0.002  -3.885  -0.000   0.002   0.002
 -0.002   0.000  -0.001   0.001   0.001  -0.002   0.000  -0.001
 -0.003   0.001  -0.001   0.002   0.002  -0.003   0.001  -0.001
 -0.002  -0.004   0.001  -0.000   0.002  -0.002  -0.004   0.001
 -0.000  -0.002  -0.004  -0.002   0.000  -0.000  -0.002  -0.004
 -0.002  -0.000   0.001  -0.004  -0.002  -0.002  -0.000   0.001
 -0.002  -0.005   0.001  -0.000   0.003  -0.002  -0.004   0.001
 -0.000  -0.003  -0.005  -0.002   0.000  -0.000  -0.003  -0.005
 -0.002  -0.000   0.001  -0.004  -0.002  -0.002  -0.000   0.001
 total augmentation occupancy for first ion, spin component:           1
  5.382   0.042  -0.089  -0.099  -0.021  -3.375  -0.036   0.060   0.084   0.013   0.017   0.059  -0.013  -0.003  -0.021  -0.001
  0.042   5.415   0.028  -0.086  -0.021  -0.036  -3.332  -0.032   0.075   0.025  -0.023   0.027  -0.038  -0.025  -0.001  -0.003
 -0.089   0.028   5.050  -0.048   0.016   0.060  -0.032  -2.813   0.037  -0.034   0.033  -0.015   0.001  -0.026   0.007   0.000
 -0.099  -0.086  -0.048   5.219  -0.066   0.084   0.075   0.037  -3.237   0.051  -0.004  -0.026  -0.000  -0.013  -0.032  -0.000
 -0.021  -0.021   0.016  -0.066   5.023   0.013   0.025  -0.035   0.051  -2.791  -0.028   0.022   0.005   0.002  -0.012   0.002
 -3.375  -0.036   0.060   0.084   0.013   3.274   0.031  -0.040  -0.072  -0.007  -0.013  -0.048   0.013   0.002   0.018  -0.000
 -0.036  -3.332  -0.032   0.075   0.025   0.031   3.166   0.035  -0.063  -0.030   0.022  -0.021   0.036   0.025   0.001   0.000
  0.060  -0.032  -2.813   0.037  -0.035  -0.040   0.035   2.535  -0.030   0.048  -0.035   0.014  -0.001   0.026  -0.006   0.000
  0.084   0.075   0.037  -3.237   0.051  -0.072  -0.063  -0.030   3.155  -0.040  -0.001   0.024  -0.000   0.016   0.035   0.000
  0.013   0.025  -0.034   0.051  -2.791  -0.007  -0.030   0.048  -0.040   2.514   0.021  -0.014  -0.007  -0.000   0.013  -0.000
  0.017  -0.023   0.033  -0.004  -0.028  -0.013   0.022  -0.035  -0.001   0.021   2.723  -0.718   0.007   0.017   0.009  -0.001
  0.059   0.027  -0.015  -0.026   0.022  -0.048  -0.021   0.014   0.024  -0.014  -0.718   0.219   0.001  -0.001  -0.001   0.000
 -0.013  -0.038   0.001  -0.000   0.005   0.013   0.036  -0.001  -0.000  -0.007   0.007   0.001   0.204  -0.000  -0.007  -0.007
 -0.003  -0.025  -0.026  -0.013   0.002   0.002   0.025   0.026   0.016  -0.000   0.017  -0.001  -0.000   0.199   0.002  -0.000
 -0.021  -0.001   0.007  -0.032  -0.012   0.018   0.001  -0.006   0.035   0.013   0.009  -0.001  -0.007   0.002   0.201   0.000
 -0.001  -0.003   0.000  -0.000   0.002  -0.000   0.000   0.000   0.000  -0.000  -0.001   0.000  -0.007  -0.000   0.000   0.000
 -0.000  -0.002  -0.004  -0.002   0.000   0.000   0.000   0.000   0.000  -0.000  -0.001   0.000  -0.000  -0.007   0.000   0.000
 -0.001  -0.000   0.000  -0.003  -0.002  -0.000   0.000   0.000  -0.000   0.000  -0.001   0.000   0.000   0.000  -0.007   0.000


------------------------ aborting loop because EDIFF is reached ----------------------------------------


    CHARGE:  cpu time    0.0353: real time    0.0355
    FORLOC:  cpu time    0.0061: real time    0.0061
    FORNL :  cpu time    0.2241: real time    0.2252
    STRESS:  cpu time    0.6698: real time    0.6723
    FORCOR:  cpu time    0.0250: real time    0.0251
    FORHAR:  cpu time    0.0100: real time    0.0100
    MIXING:  cpu time    0.0008: real time    0.0008
    OFIELD:  cpu time    0.0000: real time    0.0000

  FORCE on cell =-STRESS in cart. coord.  units (eV):
  Direction    XX          YY          ZZ          XY          YZ          ZX
  --------------------------------------------------------------------------------------
  Alpha Z  2033.71584  2033.71584  2033.71584
  Ewald   -9612.35885 -9651.39749 -9634.98372    39.35442    55.46133   -24.69097
  Hartree   995.80546   988.15563   991.63384    16.11625    19.99422    -8.99114
  E(xc)   -1510.18271 -1510.38988 -1510.33003     0.23788     0.35385    -0.20379
  Local    1311.07315  1345.36139  1329.69015   -49.20197   -65.17673    27.86691
  n-local    44.48264    45.70502    44.80611     2.00996     1.78348    -1.79694
  augment  1942.54688  1945.97130  1945.13087    -2.87670    -4.10003     2.63188
  Kinetic  4794.99046  4802.92353  4800.38147    -5.64218    -8.32409     5.19397
  Fock        0.00000     0.00000     0.00000     0.00000     0.00000     0.00000
  -------------------------------------------------------------------------------------
  Total       0.07288     0.04534     0.04453    -0.00233    -0.00799     0.00992
  in kB       0.21843     0.13590     0.13345    -0.00699    -0.02395     0.02974
  external pressure =        0.16 kB  Pullay stress =        0.00 kB


 VOLUME and BASIS-vectors are now :
 -----------------------------------------------------------------------------
  energy-cutoff  :      300.00
  volume of cell :      534.57
      direct lattice vectors                 reciprocal lattice vectors
     7.991489090 -0.022879354  0.014142269     0.125134469  0.000339498 -0.000210670
    -0.022345363  8.212708862 -0.037861572     0.000347607  0.121766067  0.000567704
     0.013816078 -0.038014780  8.145273356    -0.000215650  0.000565414  0.122773593

  length of vectors
     7.991534355  8.212826533  8.145373782     0.125135107  0.121767887  0.122775084


 FORCES acting on ions
    electron-ion (+dipol)            ewald-force                    non-local-force                 convergence-correction
 -----------------------------------------------------------------------------------------------
   0.296E+00 -.418E+01 -.128E+01   -.751E-01 0.436E+01 0.165E+01   -.234E+00 -.159E+00 -.368E+00   0.151E-01 -.238E-01 -.451E-02
   0.229E+01 -.666E+00 -.253E-01   -.255E+01 0.562E+00 -.151E+00   0.233E+00 0.139E+00 0.173E+00   0.370E-01 -.341E-01 0.366E-03
   0.810E+00 0.175E+01 -.155E+00   -.616E+00 -.200E+01 0.114E+00   -.168E+00 0.231E+00 0.621E-01   -.295E-01 0.198E-01 -.178E-01
   -.813E+00 -.880E+00 -.349E+01   0.102E+01 0.767E+00 0.377E+01   -.201E+00 0.154E+00 -.249E+00   -.898E-02 -.392E-01 -.335E-01
   0.143E+01 0.338E+01 -.162E+01   -.179E+01 -.342E+01 0.166E+01   0.343E+00 0.150E-01 -.154E-01   0.150E-01 0.213E-01 -.210E-01
   -.165E+01 0.261E+01 0.143E+00   0.163E+01 -.298E+01 -.172E+00   0.363E-02 0.338E+00 0.949E-02   0.141E-01 0.295E-01 0.238E-01
   0.742E+00 0.604E+00 -.202E+01   -.715E+00 -.413E+00 0.219E+01   -.529E-02 -.229E+00 -.143E+00   -.215E-01 0.376E-01 -.365E-01
   -.126E+01 -.719E+00 0.171E+01   0.160E+01 0.847E+00 -.200E+01   -.341E+00 -.140E+00 0.290E+00   0.531E-03 0.716E-02 0.576E-02
   0.767E+00 -.134E+01 0.236E+01   -.773E+00 0.146E+01 -.248E+01   0.107E-01 -.137E+00 0.840E-01   -.626E-02 0.247E-01 0.369E-01
   -.246E+01 -.325E+01 0.809E+00   0.286E+01 0.365E+01 -.855E+00   -.425E+00 -.374E+00 -.987E-04   0.231E-01 -.297E-01 0.495E-01
   -.829E+00 0.438E+01 0.227E+01   0.485E+00 -.476E+01 -.250E+01   0.344E+00 0.372E+00 0.216E+00   -.126E-02 0.196E-01 0.160E-01
   0.231E+01 0.300E+01 0.223E+01   -.230E+01 -.353E+01 -.241E+01   0.700E-02 0.521E+00 0.189E+00   -.163E-01 0.174E-01 -.660E-02
   -.127E+00 0.107E+00 -.146E+01   0.329E+00 -.269E+00 0.183E+01   -.172E+00 0.117E+00 -.348E+00   -.291E-01 0.469E-01 -.223E-01
   -.123E+01 -.366E+01 -.159E+01   0.118E+01 0.380E+01 0.185E+01   0.741E-01 -.140E+00 -.252E+00   -.190E-01 -.844E-02 -.191E-01
   0.882E+00 -.230E+01 0.153E+01   -.880E+00 0.267E+01 -.185E+01   0.149E-01 -.361E+00 0.325E+00   -.151E-01 -.201E-01 0.336E-04
   -.552E+00 0.538E+00 0.116E+01   0.579E+00 -.734E+00 -.925E+00   -.300E-01 0.179E+00 -.240E+00   0.718E-02 0.174E-01 0.814E-02
   0.932E+00 -.226E+01 0.177E+01   -.140E+01 0.273E+01 -.199E+01   0.495E+00 -.453E+00 0.205E+00   -.221E-01 -.153E-01 0.202E-01
   0.350E+01 -.727E+01 -.191E+00   -.321E+01 0.692E+01 0.237E+00   -.298E+00 0.364E+00 -.462E-01   0.473E-02 -.861E-02 -.204E-02
   0.726E+01 -.264E+01 -.170E+01   -.667E+01 0.220E+01 0.155E+01   -.586E+00 0.423E+00 0.136E+00   0.179E-02 0.118E-01 0.171E-01
   0.353E+01 -.298E+01 -.231E+01   -.316E+01 0.280E+01 0.178E+01   -.370E+00 0.201E+00 0.497E+00   0.869E-02 -.222E-01 0.297E-01
   -.370E+01 0.711E+01 0.886E+01   0.338E+01 -.677E+01 -.818E+01   0.294E+00 -.374E+00 -.669E+00   0.281E-01 0.313E-01 -.676E-02
   -.395E+01 0.115E+01 0.185E+01   0.370E+01 -.912E+00 -.182E+01   0.264E+00 -.220E+00 -.286E-01   -.128E-01 -.166E-01 -.523E-02
   -.402E+00 -.386E+01 -.297E+01   0.189E+00 0.378E+01 0.297E+01   0.195E+00 0.973E-01 0.469E-01   0.172E-01 -.206E-01 -.442E-01
   -.218E+01 0.248E+01 -.148E+01   0.208E+01 -.198E+01 0.146E+01   0.888E-01 -.480E+00 0.181E-01   0.142E-01 -.138E-01 0.450E-02
   0.389E+01 0.487E+01 -.584E-02   -.350E+01 -.462E+01 -.115E+00   -.361E+00 -.213E+00 0.134E+00   -.315E-01 -.439E-01 -.139E-01
   -.612E+01 -.749E+00 0.475E+01   0.575E+01 0.556E+00 -.432E+01   0.353E+00 0.172E+00 -.420E+00   0.278E-01 0.207E-01 -.157E-01
   -.578E+01 0.350E+01 -.138E+01   0.535E+01 -.331E+01 0.152E+01   0.425E+00 -.166E+00 -.141E+00   0.696E-02 -.303E-01 -.149E-02
   0.852E+01 0.716E+00 0.321E+01   -.774E+01 -.772E+00 -.298E+01   -.769E+00 0.489E-01 -.232E+00   -.110E-01 0.619E-02 0.968E-02
   -.219E+01 0.416E+01 -.126E+00   0.193E+01 -.397E+01 0.220E+00   0.263E+00 -.163E+00 -.107E+00   -.542E-02 -.211E-01 0.134E-01
   -.239E+01 0.441E+01 0.281E+01   0.214E+01 -.408E+01 -.271E+01   0.257E+00 -.314E+00 -.112E+00   -.793E-02 -.148E-01 0.248E-02
   0.413E+00 -.329E+01 -.514E+01   -.386E+00 0.294E+01 0.477E+01   -.476E-01 0.319E+00 0.379E+00   0.206E-01 0.298E-01 -.752E-02
   -.186E+01 -.475E+01 -.853E+01   0.158E+01 0.448E+01 0.789E+01   0.289E+00 0.249E+00 0.622E+00   -.246E-02 0.211E-01 0.204E-01
 -----------------------------------------------------------------------------------------------
   0.624E-01 -.175E-01 -.149E-01   0.988E-13 -.488E-13 0.302E-13   -.523E-01 0.148E-01 0.168E-01   0.183E-02 -.235E-03 -.328E-03
 
 
 POSITION                                       TOTAL-FORCE (eV/Angst)
 -----------------------------------------------------------------------------------
      5.96941      6.16499     -0.00405         0.001694     -0.001248     -0.008810
      7.96872      8.15101      8.11529         0.005315      0.001460     -0.002998
      2.00467      2.03905     -0.00078        -0.004254      0.004514      0.003316
      1.99354      8.18543      1.99516        -0.003599      0.001997     -0.002355
      7.98425      2.00387      2.05157         0.005552     -0.000510      0.001506
      0.01940      2.00470      6.10575        -0.005052      0.001494      0.004098
      1.98595      4.09836      2.02175        -0.000215     -0.001006     -0.002627
      0.01583      4.09250      4.03795        -0.003700     -0.004682      0.001436
      1.99111      4.08142      6.08640        -0.001725     -0.000281      0.003587
     -0.00146      6.14805      6.08010        -0.002011     -0.002203      0.003342
      6.00173      2.00493      4.07522        -0.001527      0.003194     -0.000894
      4.00057      2.00542      6.09945        -0.000866      0.008172      0.001381
      3.98350      4.09467      0.00820         0.000605      0.001579     -0.003098
      3.97751      6.14955      2.01994         0.000806     -0.002123     -0.003634
      5.97132      6.13082      4.04058         0.001262     -0.005122     -0.000326
      5.99266      4.05036      6.11344         0.003963      0.000870     -0.001031
      3.96784      6.13619      6.06940         0.005311     -0.002458      0.003301
      0.00502      8.15208      4.03658        -0.002470      0.002079     -0.002402
      2.03678      1.97830      4.05558        -0.000079     -0.000965     -0.001014
      2.01404      8.15547      6.04986         0.002242      0.000325      0.002091
      7.95495      4.11552      0.04939         0.001027      0.001896     -0.000243
      1.95779      6.18252     -0.02313        -0.000927      0.003066     -0.002010
      7.96066      6.13516      2.02086        -0.001425      0.000014     -0.003144
      1.98533      6.16573      4.03131        -0.000827     -0.000716      0.001398
      4.03439     -0.02163      8.14418        -0.001885     -0.002926     -0.000388
      5.97104      2.02205      0.03999         0.004623      0.000003     -0.000325
      5.97296     -0.01477      2.06554         0.000415     -0.001620      0.003168
      4.04406      2.01336      2.05832        -0.002117     -0.001445      0.004886
      3.99442     -0.01506      4.08163        -0.000550     -0.001654      0.000880
      5.98642     -0.01575      6.11386         0.000509      0.000235     -0.001843
      5.98992      4.06213      2.01275        -0.000361     -0.000686      0.000725
      3.96540      4.04868      4.00223         0.000267     -0.001253      0.002030
 -----------------------------------------------------------------------------------
    total drift:                                0.011840     -0.002888      0.001561


--------------------------------------------------------------------------------------------------------



  FREE ENERGIE OF THE ION-ELECTRON SYSTEM (eV)
  ---------------------------------------------------
  free  energy   TOTEN  =      -144.49849482 eV

  energy  without entropy=     -144.51262300  energy(sigma->0) =     -144.50320421
 
 d Force = 0.1505642E-04[ 0.130E-04, 0.171E-04]  d Energy = 0.3126316E-04-0.162E-04
 d Force =-0.1683190E-02[-0.176E-02,-0.160E-02]  d Ewald  =-0.1210620E+01 0.121E+01


--------------------------------------------------------------------------------------------------------


    POTLOK:  cpu time    0.0234: real time    0.0235


--------------------------------------------------------------------------------------------------------


 Steepest descent step on ions:
 trial-energy change:   -0.000031  1 .order   -0.000024   -0.000029   -0.000020
  (g-gl).g = 0.289E-04      g.g   = 0.289E-04  gl.gl    = 0.000E+00
 g(Force)  = 0.171E-04   g(Stress)= 0.118E-04 ortho     = 0.000E+00
 gamma     =   0.00000
 trial     =   1.00000
 opt step  =   3.26611  (harmonic =   3.26611) maximal distance =0.00048916
 next E    =  -144.498511   (d E  =  -0.00005)


--------------------------------------------------------------------------------------------------------


  
 reached required accuracy - stopping structural energy minimisation
     LOOP+:  cpu time    2.9355: real time    3.0961
    4ORBIT:  cpu time    0.0000: real time    0.0000

 total amount of memory used by VASP on root node    58878. kBytes
========================================================================

   base      :      30000. kBytes
   nonlr-proj:       6977. kBytes
   fftplans  :       2252. kBytes
   grid      :       3548. kBytes
   one-center:        108. kBytes
   wavefun   :      15993. kBytes
 
  
  
 General timing and accounting informations for this job:
 ========================================================
  
                  Total CPU time used (sec):       18.786
                            User time (sec):       18.287
                          System time (sec):        0.499
                         Elapsed time (sec):       20.019
  
                   Maximum memory used (kb):      209784.
                   Average memory used (kb):           0.
  
                          Minor page faults:        52053
                          Major page faults:           16
                 Voluntary context switches:         2043
