       N       E                     dE             d eps       ncg     rms          rms(c)
DAV:   1     0.241697799062E+04    0.24170E+04   -0.12956E+05  6168   0.107E+03
DAV:   2    -0.157503925789E+02   -0.24327E+04   -0.23427E+04  6324   0.412E+02
DAV:   3    -0.323470175679E+03   -0.30772E+03   -0.29210E+03  9568   0.102E+02
DAV:   4    -0.360494922692E+03   -0.37025E+02   -0.35492E+02  9664   0.328E+01
DAV:   5    -0.364280793837E+03   -0.37859E+01   -0.37334E+01  8968   0.100E+01    0.608E+01
RMM:   6    -0.354437983168E+03    0.98428E+01   -0.28260E+01  7987   0.104E+01    0.279E+01
RMM:   7    -0.358398205748E+03   -0.39602E+01   -0.30475E+01  8294   0.815E+00    0.142E+01
RMM:   8    -0.350024816297E+03    0.83734E+01   -0.76506E+00  8106   0.427E+00    0.458E+00
RMM:   9    -0.349813112134E+03    0.21170E+00   -0.27099E+00  8374   0.192E+00    0.328E+00
RMM:  10    -0.349777491320E+03    0.35621E-01   -0.69088E-01  8365   0.112E+00    0.201E+00
RMM:  11    -0.349724782265E+03    0.52709E-01   -0.21310E-01  8206   0.723E-01    0.101E+00
RMM:  12    -0.349715976011E+03    0.88063E-02   -0.78741E-02  8375   0.430E-01    0.508E-01
RMM:  13    -0.349711741082E+03    0.42349E-02   -0.22254E-02  8399   0.239E-01    0.279E-01
RMM:  14    -0.349711851507E+03   -0.11043E-03   -0.93507E-03  8445   0.120E-01    0.170E-01
RMM:  15    -0.349711859786E+03   -0.82790E-05   -0.41868E-03  8629   0.691E-02    0.897E-02
RMM:  16    -0.349711859546E+03    0.24023E-06   -0.16676E-03  8259   0.435E-02    0.500E-02
RMM:  17    -0.349711849409E+03    0.10137E-04   -0.65899E-04  6917   0.277E-02    0.202E-02
RMM:  18    -0.349711866780E+03   -0.17371E-04   -0.29411E-04  6051   0.189E-02    0.123E-02
RMM:  19    -0.349711874780E+03   -0.79999E-05   -0.14246E-04  5593   0.141E-02    0.820E-03
RMM:  20    -0.349711876223E+03   -0.14433E-05   -0.58949E-05  4929   0.111E-02
   1 F= -.34971188E+03 E0= -.34971213E+03  d E =-.349712E+03
       N       E                     dE             d eps       ncg     rms          rms(c)
DAV:   1    -0.349813210544E+03   -0.10134E+00   -0.39348E+00  7552   0.636E+00    0.236E+00
RMM:   2    -0.349781989039E+03    0.31222E-01   -0.45833E-01  8193   0.170E+00    0.858E-01
RMM:   3    -0.349765294506E+03    0.16695E-01   -0.88629E-02  8493   0.513E-01    0.623E-01
RMM:   4    -0.349753531933E+03    0.11763E-01   -0.25042E-02  8505   0.309E-01    0.332E-01
RMM:   5    -0.349752035847E+03    0.14961E-02   -0.75787E-03  8405   0.174E-01    0.252E-01
RMM:   6    -0.349752434274E+03   -0.39843E-03   -0.33991E-03  8832   0.917E-02    0.168E-01
RMM:   7    -0.349752522428E+03   -0.88153E-04   -0.13331E-03  8800   0.683E-02    0.924E-02
RMM:   8    -0.349752623938E+03   -0.10151E-03   -0.78820E-04  8051   0.378E-02    0.636E-02
RMM:   9    -0.349752712084E+03   -0.88146E-04   -0.22753E-04  6943   0.275E-02    0.475E-02
RMM:  10    -0.349752815540E+03   -0.10346E-03   -0.17532E-04  6503   0.203E-02    0.257E-02
RMM:  11    -0.349752863759E+03   -0.48218E-04   -0.12121E-04  5615   0.179E-02    0.114E-02
RMM:  12    -0.349752873348E+03   -0.95898E-05   -0.53139E-05  5027   0.140E-02
   2 F= -.34975287E+03 E0= -.34975313E+03  d E =-.409971E-01
       N       E                     dE             d eps       ncg     rms          rms(c)
DAV:   1    -0.350080869305E+03   -0.32801E+00   -0.19304E+01  7192   0.141E+01    0.531E+00
RMM:   2    -0.349921760340E+03    0.15911E+00   -0.22209E+00  8155   0.377E+00    0.189E+00
RMM:   3    -0.349842225661E+03    0.79535E-01   -0.42913E-01  8490   0.113E+00    0.138E+00
RMM:   4    -0.349784247509E+03    0.57978E-01   -0.12228E-01  8513   0.689E-01    0.732E-01
RMM:   5    -0.349777402648E+03    0.68449E-02   -0.36897E-02  8390   0.383E-01    0.561E-01
RMM:   6    -0.349779081178E+03   -0.16785E-02   -0.16017E-02  9017   0.202E-01    0.352E-01
RMM:   7    -0.349779701242E+03   -0.62006E-03   -0.67939E-03  9520   0.149E-01    0.194E-01
RMM:   8    -0.349780079157E+03   -0.37792E-03   -0.34141E-03  9973   0.794E-02    0.143E-01
RMM:   9    -0.349780470034E+03   -0.39088E-03   -0.10892E-03  9108   0.547E-02    0.106E-01
RMM:  10    -0.349780919096E+03   -0.44906E-03   -0.83591E-04  8846   0.413E-02    0.527E-02
RMM:  11    -0.349781065154E+03   -0.14606E-03   -0.51499E-04  7662   0.322E-02    0.236E-02
RMM:  12    -0.349781092703E+03   -0.27549E-04   -0.22468E-04  6713   0.217E-02    0.138E-02
RMM:  13    -0.349781101664E+03   -0.89605E-05   -0.78528E-05  5719   0.158E-02
   3 F= -.34978110E+03 E0= -.34978140E+03  d E =-.692254E-01
       N       E                     dE             d eps       ncg     rms          rms(c)
DAV:   1    -0.349800109860E+03   -0.19017E-01   -0.35188E+00  5872   0.517E+00    0.536E-01
RMM:   2    -0.349816241091E+03   -0.16131E-01   -0.15917E-01  7679   0.102E+00    0.416E-01
RMM:   3    -0.349809655485E+03    0.65856E-02   -0.16655E-02  8217   0.311E-01    0.212E-01
RMM:   4    -0.349809375005E+03    0.28048E-03   -0.36480E-03  9149   0.861E-02    0.146E-01
RMM:   5    -0.349809217328E+03    0.15768E-03   -0.11613E-03  8634   0.559E-02    0.980E-02
RMM:   6    -0.349809176362E+03    0.40965E-04   -0.58173E-04  8504   0.471E-02    0.442E-02
RMM:   7    -0.349809163104E+03    0.13259E-04   -0.22918E-04  7629   0.228E-02    0.290E-02
RMM:   8    -0.349809157027E+03    0.60765E-05   -0.69903E-05  5528   0.149E-02
   4 F= -.34980916E+03 E0= -.34980955E+03  d E =-.280554E-01
       N       E                     dE             d eps       ncg     rms          rms(c)
DAV:   1    -0.349766780682E+03    0.42382E-01   -0.31728E+01  5712   0.155E+01    0.162E+00
RMM:   2    -0.349904290557E+03   -0.13751E+00   -0.14372E+00  7366   0.315E+00    0.112E+00
RMM:   3    -0.349859293759E+03    0.44997E-01   -0.15626E-01  8377   0.973E-01    0.664E-01
RMM:   4    -0.349855995296E+03    0.32985E-02   -0.31272E-02  9156   0.259E-01    0.451E-01
RMM:   5    -0.349854793732E+03    0.12016E-02   -0.10578E-02  8883   0.171E-01    0.315E-01
RMM:   6    -0.349854368314E+03    0.42542E-03   -0.55615E-03  8493   0.149E-01    0.137E-01
RMM:   7    -0.349854303250E+03    0.65064E-04   -0.22095E-03  9736   0.699E-02    0.917E-02
RMM:   8    -0.349854293528E+03    0.97223E-05   -0.81793E-04  9036   0.380E-02    0.598E-02
RMM:   9    -0.349854309024E+03   -0.15497E-04   -0.31829E-04  7821   0.262E-02    0.353E-02
RMM:  10    -0.349854314316E+03   -0.52920E-05   -0.18848E-04  7167   0.208E-02    0.178E-02
RMM:  11    -0.349854314149E+03    0.16735E-06   -0.81743E-05  6095   0.150E-02
   5 F= -.34985431E+03 E0= -.34985510E+03  d E =-.732125E-01
       N       E                     dE             d eps       ncg     rms          rms(c)
DAV:   1    -0.349850771429E+03    0.35429E-02   -0.21708E+00  5872   0.404E+00    0.416E-01
RMM:   2    -0.349859811647E+03   -0.90402E-02   -0.95567E-02  7531   0.797E-01    0.286E-01
RMM:   3    -0.349856665154E+03    0.31465E-02   -0.98550E-03  8213   0.238E-01    0.161E-01
RMM:   4    -0.349856493208E+03    0.17195E-03   -0.22019E-03  9240   0.666E-02    0.109E-01
RMM:   5    -0.349856408781E+03    0.84427E-04   -0.73478E-04  8525   0.431E-02    0.732E-02
RMM:   6    -0.349856393267E+03    0.15514E-04   -0.36827E-04  8538   0.366E-02    0.350E-02
RMM:   7    -0.349856383474E+03    0.97932E-05   -0.14311E-04  6847   0.182E-02    0.228E-02
RMM:   8    -0.349856380182E+03    0.32918E-05   -0.51765E-05  5199   0.135E-02
   6 F= -.34985638E+03 E0= -.34985730E+03  d E =-.752785E-01
       N       E                     dE             d eps       ncg     rms          rms(c)
DAV:   1    -0.349943131967E+03   -0.86748E-01   -0.27727E+00  7736   0.562E+00    0.244E+00
RMM:   2    -0.349905298716E+03    0.37833E-01   -0.45296E-01  8268   0.159E+00    0.926E-01
RMM:   3    -0.349883394572E+03    0.21904E-01   -0.93381E-02  8502   0.469E-01    0.646E-01
RMM:   4    -0.349871202387E+03    0.12192E-01   -0.28704E-02  8500   0.329E-01    0.348E-01
RMM:   5    -0.349869044262E+03    0.21581E-02   -0.82612E-03  8407   0.185E-01    0.257E-01
RMM:   6    -0.349869274546E+03   -0.23028E-03   -0.34006E-03  8865   0.882E-02    0.169E-01
RMM:   7    -0.349869342019E+03   -0.67473E-04   -0.13417E-03  8766   0.680E-02    0.902E-02
RMM:   8    -0.349869378483E+03   -0.36463E-04   -0.81601E-04  7948   0.378E-02    0.655E-02
RMM:   9    -0.349869424386E+03   -0.45904E-04   -0.23497E-04  7015   0.286E-02    0.487E-02
RMM:  10    -0.349869477524E+03   -0.53138E-04   -0.20676E-04  7007   0.219E-02    0.242E-02
RMM:  11    -0.349869477517E+03    0.78871E-08   -0.13625E-04  5667   0.183E-02    0.115E-02
RMM:  12    -0.349869476100E+03    0.14167E-05   -0.47182E-05  4846   0.134E-02
   7 F= -.34986948E+03 E0= -.34987045E+03  d E =-.130959E-01
       N       E                     dE             d eps       ncg     rms          rms(c)
DAV:   1    -0.349875555623E+03   -0.60781E-02   -0.21107E-01  7744   0.155E+00    0.672E-01
RMM:   2    -0.349872684038E+03    0.28716E-02   -0.33835E-02  8262   0.437E-01    0.253E-01
RMM:   3    -0.349871036910E+03    0.16471E-02   -0.69315E-03  8489   0.129E-01    0.176E-01
RMM:   4    -0.349870114377E+03    0.92253E-03   -0.21345E-03  8477   0.899E-02    0.941E-02
RMM:   5    -0.349869953426E+03    0.16095E-03   -0.61633E-04  8228   0.502E-02    0.695E-02
RMM:   6    -0.349869959366E+03   -0.59406E-05   -0.24368E-04  7329   0.249E-02    0.470E-02
RMM:   7    -0.349869953616E+03    0.57503E-05   -0.95040E-05  6492   0.193E-02
   8 F= -.34986995E+03 E0= -.34987094E+03  d E =-.135734E-01
       N       E                     dE             d eps       ncg     rms          rms(c)
DAV:   1    -0.349872842002E+03   -0.28826E-02   -0.31697E-01  5800   0.160E+00    0.171E-01
RMM:   2    -0.349873767015E+03   -0.92501E-03   -0.13769E-02  7991   0.320E-01    0.885E-02
RMM:   3    -0.349873679979E+03    0.87036E-04   -0.14759E-03  8228   0.859E-02    0.682E-02
RMM:   4    -0.349873629094E+03    0.50885E-04   -0.35032E-04  8256   0.292E-02    0.447E-02
RMM:   5    -0.349873619350E+03    0.97443E-05   -0.14913E-04  7057   0.200E-02    0.277E-02
RMM:   6    -0.349873612005E+03    0.73444E-05   -0.61665E-05  6082   0.141E-02
   9 F= -.34987361E+03 E0= -.34987465E+03  d E =-.365839E-02
       N       E                     dE             d eps       ncg     rms          rms(c)
DAV:   1    -0.349874137518E+03   -0.51817E-03   -0.28513E+00  5712   0.481E+00    0.499E-01
RMM:   2    -0.349882471446E+03   -0.83339E-02   -0.12234E-01  7805   0.953E-01    0.245E-01
RMM:   3    -0.349881661869E+03    0.80958E-03   -0.12662E-02  8182   0.254E-01    0.189E-01
RMM:   4    -0.349881216541E+03    0.44533E-03   -0.29399E-03  9427   0.839E-02    0.120E-01
RMM:   5    -0.349881181534E+03    0.35007E-04   -0.13507E-03  8869   0.577E-02    0.784E-02
RMM:   6    -0.349881155565E+03    0.25969E-04   -0.57137E-04  8887   0.418E-02    0.423E-02
RMM:   7    -0.349881163088E+03   -0.75235E-05   -0.21596E-04  7096   0.218E-02    0.262E-02
RMM:   8    -0.349881170839E+03   -0.77508E-05   -0.80968E-05  5673   0.163E-02
  10 F= -.34988117E+03 E0= -.34988234E+03  d E =-.112172E-01
       N       E                     dE             d eps       ncg     rms          rms(c)
DAV:   1    -0.349852741125E+03    0.28422E-01   -0.11413E+01  5720   0.962E+00    0.101E+00
RMM:   2    -0.349886013689E+03   -0.33273E-01   -0.48891E-01  7784   0.191E+00    0.489E-01
RMM:   3    -0.349882691774E+03    0.33219E-02   -0.50672E-02  8185   0.510E-01    0.375E-01
RMM:   4    -0.349880870290E+03    0.18215E-02   -0.11885E-02  9474   0.170E-01    0.233E-01
RMM:   5    -0.349880747818E+03    0.12247E-03   -0.53874E-03  9196   0.114E-01    0.154E-01
RMM:   6    -0.349880640292E+03    0.10753E-03   -0.22274E-03  9307   0.815E-02    0.848E-02
RMM:   7    -0.349880668592E+03   -0.28299E-04   -0.91711E-04  9710   0.439E-02    0.525E-02
RMM:   8    -0.349880691878E+03   -0.23286E-04   -0.31540E-04  8228   0.249E-02    0.351E-02
RMM:   9    -0.349880716611E+03   -0.24733E-04   -0.18298E-04  7103   0.200E-02    0.208E-02
RMM:  10    -0.349880731193E+03   -0.14582E-04   -0.80787E-05  5998   0.152E-02    0.108E-02
RMM:  11    -0.349880735955E+03   -0.47621E-05   -0.30670E-05  4740   0.122E-02
  11 F= -.34988074E+03 E0= -.34988213E+03  d E =-.107823E-01
       N       E                     dE             d eps       ncg     rms          rms(c)
DAV:   1    -0.349875690000E+03    0.50412E-02   -0.31795E+00  5712   0.508E+00    0.530E-01
RMM:   2    -0.349885212035E+03   -0.95220E-02   -0.13692E-01  7788   0.101E+00    0.261E-01
RMM:   3    -0.349884293825E+03    0.91821E-03   -0.13937E-02  8230   0.274E-01    0.206E-01
RMM:   4    -0.349883746091E+03    0.54773E-03   -0.30802E-03  9263   0.879E-02    0.133E-01
RMM:   5    -0.349883678605E+03    0.67486E-04   -0.13914E-03  8629   0.594E-02    0.857E-02
RMM:   6    -0.349883609075E+03    0.69530E-04   -0.59772E-04  8699   0.449E-02    0.438E-02
RMM:   7    -0.349883600657E+03    0.84185E-05   -0.23602E-04  7385   0.224E-02    0.273E-02
RMM:   8    -0.349883596387E+03    0.42702E-05   -0.70055E-05  5523   0.157E-02
  12 F= -.34988360E+03 E0= -.34988488E+03  d E =-.136428E-01
       N       E                     dE             d eps       ncg     rms          rms(c)
DAV:   1    -0.349885019326E+03   -0.14187E-02   -0.13910E+00  5720   0.340E+00    0.362E-01
RMM:   2    -0.349889368968E+03   -0.43496E-02   -0.58302E-02  7545   0.662E-01    0.179E-01
RMM:   3    -0.349888572908E+03    0.79606E-03   -0.57375E-03  8072   0.192E-01    0.139E-01
RMM:   4    -0.349888307485E+03    0.26542E-03   -0.13741E-03  8554   0.581E-02    0.864E-02
RMM:   5    -0.349888276207E+03    0.31277E-04   -0.57884E-04  8406   0.394E-02    0.567E-02
RMM:   6    -0.349888245094E+03    0.31114E-04   -0.24555E-04  8086   0.291E-02    0.310E-02
RMM:   7    -0.349888237287E+03    0.78069E-05   -0.94790E-05  5987   0.153E-02
  13 F= -.34988824E+03 E0= -.34988962E+03  d E =-.464090E-02
       N       E                     dE             d eps       ncg     rms          rms(c)
DAV:   1    -0.349864922590E+03    0.23323E-01   -0.12528E+01  5712   0.102E+01    0.109E+00
RMM:   2    -0.349904494029E+03   -0.39571E-01   -0.53043E-01  7629   0.199E+00    0.543E-01
RMM:   3    -0.349898003556E+03    0.64905E-02   -0.54024E-02  8197   0.581E-01    0.427E-01
RMM:   4    -0.349895622856E+03    0.23807E-02   -0.12937E-02  8655   0.178E-01    0.268E-01
RMM:   5    -0.349895343002E+03    0.27985E-03   -0.55128E-03  8464   0.123E-01    0.174E-01
RMM:   6    -0.349895087491E+03    0.25551E-03   -0.23449E-03  8687   0.890E-02    0.940E-02
RMM:   7    -0.349895056751E+03    0.30740E-04   -0.98260E-04  9574   0.448E-02    0.624E-02
RMM:   8    -0.349895054383E+03    0.23683E-05   -0.33428E-04  8092   0.257E-02    0.403E-02
RMM:   9    -0.349895062349E+03   -0.79662E-05   -0.18212E-04  6983   0.206E-02    0.245E-02
RMM:  10    -0.349895062756E+03   -0.40691E-06   -0.86366E-05  5769   0.164E-02
  14 F= -.34989506E+03 E0= -.34989666E+03  d E =-.114664E-01
       N       E                     dE             d eps       ncg     rms          rms(c)
DAV:   1    -0.349903466115E+03   -0.84038E-02   -0.12513E+00  6268   0.341E+00    0.890E-01
RMM:   2    -0.349902275721E+03    0.11904E-02   -0.93815E-02  7084   0.790E-01    0.338E-01
RMM:   3    -0.349899865809E+03    0.24099E-02   -0.14382E-02  8310   0.255E-01    0.248E-01
RMM:   4    -0.349898173596E+03    0.16922E-02   -0.41772E-03  8485   0.116E-01    0.135E-01
RMM:   5    -0.349898002676E+03    0.17092E-03   -0.12551E-03  8292   0.708E-02    0.102E-01
RMM:   6    -0.349898051088E+03   -0.48412E-04   -0.56765E-04  8441   0.389E-02    0.564E-02
RMM:   7    -0.349898090949E+03   -0.39861E-04   -0.22736E-04  7290   0.282E-02    0.274E-02
RMM:   8    -0.349898116165E+03   -0.25215E-04   -0.10758E-04  5740   0.168E-02    0.208E-02
RMM:   9    -0.349898128888E+03   -0.12723E-04   -0.44801E-05  4686   0.134E-02    0.162E-02
RMM:  10    -0.349898143908E+03   -0.15020E-04   -0.25968E-05  4357   0.112E-02    0.926E-03
RMM:  11    -0.349898153952E+03   -0.10044E-04   -0.16625E-05  3830   0.111E-02    0.355E-03
RMM:  12    -0.349898156946E+03   -0.29940E-05   -0.16376E-05  3919   0.996E-03
  15 F= -.34989816E+03 E0= -.34989976E+03  d E =-.309419E-02
       N       E                     dE             d eps       ncg     rms          rms(c)
DAV:   1    -0.349900359393E+03   -0.22054E-02   -0.40812E-01  6320   0.195E+00    0.506E-01
RMM:   2    -0.349899964467E+03    0.39493E-03   -0.30195E-02  6919   0.451E-01    0.190E-01
RMM:   3    -0.349899202231E+03    0.76224E-03   -0.45265E-03  8253   0.145E-01    0.137E-01
RMM:   4    -0.349898672647E+03    0.52958E-03   -0.13097E-03  8469   0.648E-02    0.746E-02
RMM:   5    -0.349898627762E+03    0.44885E-04   -0.39140E-04  8149   0.394E-02    0.570E-02
RMM:   6    -0.349898654688E+03   -0.26926E-04   -0.17500E-04  7336   0.221E-02    0.324E-02
RMM:   7    -0.349898675857E+03   -0.21170E-04   -0.69690E-05  5897   0.165E-02    0.164E-02
RMM:   8    -0.349898689517E+03   -0.13659E-04   -0.45053E-05  4488   0.127E-02    0.111E-02
RMM:   9    -0.349898696152E+03   -0.66353E-05   -0.19818E-05  3969   0.104E-02
  16 F= -.34989870E+03 E0= -.34990030E+03  d E =-.363340E-02
       N       E                     dE             d eps       ncg     rms          rms(c)
DAV:   1    -0.349898748668E+03   -0.59152E-04   -0.15636E-02  6344   0.382E-01    0.950E-02
RMM:   2    -0.349898734208E+03    0.14461E-04   -0.11305E-03  6802   0.887E-02    0.349E-02
RMM:   3    -0.349898709043E+03    0.25164E-04   -0.15506E-04  7146   0.283E-02    0.252E-02
RMM:   4    -0.349898694046E+03    0.14997E-04   -0.44451E-05  4508   0.142E-02    0.146E-02
RMM:   5    -0.349898695047E+03   -0.10008E-05   -0.12584E-05  3307   0.111E-02
  17 F= -.34989870E+03 E0= -.34990030E+03  d E =-.363229E-02
       N       E                     dE             d eps       ncg     rms          rms(c)
DAV:   1    -0.349898933489E+03   -0.23944E-03   -0.40829E-01  5776   0.183E+00    0.133E-01
RMM:   2    -0.349900141585E+03   -0.12081E-02   -0.14622E-02  7248   0.346E-01    0.706E-02
RMM:   3    -0.349900085223E+03    0.56362E-04   -0.15201E-03  8147   0.101E-01    0.567E-02
RMM:   4    -0.349900068243E+03    0.16980E-04   -0.32464E-04  8757   0.263E-02    0.387E-02
RMM:   5    -0.349900068733E+03   -0.49032E-06   -0.12021E-04  6907   0.179E-02    0.236E-02
RMM:   6    -0.349900061486E+03    0.72475E-05   -0.47116E-05  5358   0.146E-02
  18 F= -.34990006E+03 E0= -.34990162E+03  d E =-.136644E-02
       N       E                     dE             d eps       ncg     rms          rms(c)
DAV:   1    -0.349892253395E+03    0.78153E-02   -0.36751E+00  5712   0.550E+00    0.398E-01
RMM:   2    -0.349903107956E+03   -0.10855E-01   -0.13178E-01  7156   0.104E+00    0.206E-01
RMM:   3    -0.349902617172E+03    0.49078E-03   -0.13585E-02  8175   0.306E-01    0.168E-01
RMM:   4    -0.349902470116E+03    0.14706E-03   -0.27813E-03  9969   0.771E-02    0.117E-01
RMM:   5    -0.349902472219E+03   -0.21031E-05   -0.10678E-03  9050   0.525E-02    0.733E-02
RMM:   6    -0.349902409963E+03    0.62257E-04   -0.45659E-04  8926   0.422E-02    0.283E-02
RMM:   7    -0.349902411686E+03   -0.17237E-05   -0.15826E-04  7146   0.189E-02    0.190E-02
RMM:   8    -0.349902410738E+03    0.94876E-06   -0.57032E-05  5466   0.141E-02
  19 F= -.34990241E+03 E0= -.34990384E+03  d E =-.371569E-02
       N       E                     dE             d eps       ncg     rms          rms(c)
DAV:   1    -0.349901223587E+03    0.11881E-02   -0.50373E-01  5744   0.203E+00    0.145E-01
RMM:   2    -0.349902727211E+03   -0.15036E-02   -0.18139E-02  7307   0.384E-01    0.771E-02
RMM:   3    -0.349902670717E+03    0.56494E-04   -0.19380E-03  8151   0.112E-01    0.613E-02
RMM:   4    -0.349902653433E+03    0.17284E-04   -0.42162E-04  8968   0.294E-02    0.424E-02
RMM:   5    -0.349902654509E+03   -0.10758E-05   -0.15810E-04  7197   0.209E-02    0.267E-02
RMM:   6    -0.349902645024E+03    0.94851E-05   -0.70174E-05  6638   0.168E-02
  20 F= -.34990265E+03 E0= -.34990402E+03  d E =-.394998E-02
       N       E                     dE             d eps       ncg     rms          rms(c)
DAV:   1    -0.349903778789E+03   -0.11243E-02   -0.34715E-01  5768   0.175E+00    0.317E-01
RMM:   2    -0.349904445671E+03   -0.66688E-03   -0.20619E-02  7132   0.374E-01    0.123E-01
RMM:   3    -0.349904109209E+03    0.33646E-03   -0.24036E-03  8175   0.114E-01    0.996E-02
RMM:   4    -0.349903880037E+03    0.22917E-03   -0.55903E-04  8244   0.419E-02    0.585E-02
RMM:   5    -0.349903844697E+03    0.35340E-04   -0.22765E-04  7778   0.270E-02    0.417E-02
RMM:   6    -0.349903833525E+03    0.11171E-04   -0.10248E-04  6795   0.182E-02    0.240E-02
RMM:   7    -0.349903827731E+03    0.57943E-05   -0.45388E-05  4634   0.130E-02
  21 F= -.34990383E+03 E0= -.34990516E+03  d E =-.118271E-02
       N       E                     dE             d eps       ncg     rms          rms(c)
DAV:   1    -0.349904244762E+03   -0.41124E-03   -0.80480E-01  5712   0.267E+00    0.481E-01
RMM:   2    -0.349905747393E+03   -0.15026E-02   -0.47719E-02  7091   0.568E-01    0.185E-01
RMM:   3    -0.349904970534E+03    0.77686E-03   -0.54361E-03  8180   0.171E-01    0.151E-01
RMM:   4    -0.349904452330E+03    0.51820E-03   -0.12852E-03  8353   0.636E-02    0.879E-02
RMM:   5    -0.349904380335E+03    0.71994E-04   -0.53446E-04  8474   0.403E-02    0.630E-02
RMM:   6    -0.349904363053E+03    0.17283E-04   -0.22938E-04  7837   0.267E-02    0.359E-02
RMM:   7    -0.349904356648E+03    0.64047E-05   -0.10679E-04  6366   0.177E-02    0.216E-02
RMM:   8    -0.349904353510E+03    0.31381E-05   -0.51539E-05  4948   0.134E-02
  22 F= -.34990435E+03 E0= -.34990562E+03  d E =-.170849E-02
       N       E                     dE             d eps       ncg     rms          rms(c)
DAV:   1    -0.349905038640E+03   -0.68199E-03   -0.10350E-01  6216   0.959E-01    0.198E-01
RMM:   2    -0.349905199158E+03   -0.16052E-03   -0.65989E-03  7408   0.209E-01    0.837E-02
RMM:   3    -0.349905024768E+03    0.17439E-03   -0.86435E-04  8212   0.657E-02    0.616E-02
RMM:   4    -0.349904940679E+03    0.84089E-04   -0.25529E-04  8105   0.276E-02    0.345E-02
RMM:   5    -0.349904927163E+03    0.13517E-04   -0.87041E-05  6793   0.183E-02    0.236E-02
RMM:   6    -0.349904929693E+03   -0.25301E-05   -0.32105E-05  4052   0.109E-02
  23 F= -.34990493E+03 E0= -.34990618E+03  d E =-.576183E-03
       N       E                     dE             d eps       ncg     rms          rms(c)
DAV:   1    -0.349906293610E+03   -0.13664E-02   -0.92691E-01  5712   0.287E+00    0.566E-01
RMM:   2    -0.349908034346E+03   -0.17407E-02   -0.58068E-02  7165   0.621E-01    0.232E-01
RMM:   3    -0.349906424945E+03    0.16094E-02   -0.67612E-03  8170   0.187E-01    0.168E-01
RMM:   4    -0.349905758094E+03    0.66685E-03   -0.18321E-03  8324   0.747E-02    0.980E-02
RMM:   5    -0.349905655468E+03    0.10263E-03   -0.67609E-04  8460   0.473E-02    0.695E-02
RMM:   6    -0.349905671720E+03   -0.16252E-04   -0.28267E-04  7872   0.288E-02    0.454E-02
RMM:   7    -0.349905681426E+03   -0.97062E-05   -0.12694E-04  6766   0.192E-02    0.260E-02
RMM:   8    -0.349905694100E+03   -0.12674E-04   -0.71064E-05  5357   0.145E-02    0.163E-02
RMM:   9    -0.349905704528E+03   -0.10428E-04   -0.34573E-05  4488   0.121E-02    0.105E-02
RMM:  10    -0.349905712158E+03   -0.76298E-05   -0.16864E-05  3854   0.105E-02
  24 F= -.34990571E+03 E0= -.34990691E+03  d E =-.135865E-02
       N       E                     dE             d eps       ncg     rms          rms(c)
DAV:   1    -0.349905923768E+03   -0.21924E-03   -0.15645E-02  6048   0.367E-01    0.719E-02
RMM:   2    -0.349905947372E+03   -0.23604E-04   -0.10264E-03  7033   0.808E-02    0.262E-02
RMM:   3    -0.349905931218E+03    0.16153E-04   -0.10206E-04  6773   0.243E-02    0.207E-02
RMM:   4    -0.349905922893E+03    0.83251E-05   -0.23103E-05  3895   0.112E-02
  25 F= -.34990592E+03 E0= -.34990712E+03  d E =-.210736E-03
       N       E                     dE             d eps       ncg     rms          rms(c)
DAV:   1    -0.349906307586E+03   -0.37637E-03   -0.14063E-01  5744   0.110E+00    0.218E-01
RMM:   2    -0.349906517777E+03   -0.21019E-03   -0.93888E-03  7387   0.246E-01    0.841E-02
RMM:   3    -0.349906380197E+03    0.13758E-03   -0.10640E-03  8138   0.740E-02    0.677E-02
RMM:   4    -0.349906288638E+03    0.91559E-04   -0.28349E-04  8055   0.289E-02    0.411E-02
RMM:   5    -0.349906280226E+03    0.84117E-05   -0.11304E-04  7148   0.187E-02    0.297E-02
RMM:   6    -0.349906287790E+03   -0.75635E-05   -0.48509E-05  4871   0.128E-02
  26 F= -.34990629E+03 E0= -.34990750E+03  d E =-.575632E-03
       N       E                     dE             d eps       ncg     rms          rms(c)
DAV:   1    -0.349906321770E+03   -0.41544E-04   -0.34674E-02  5792   0.546E-01    0.107E-01
RMM:   2    -0.349906372694E+03   -0.50924E-04   -0.22971E-03  7473   0.122E-01    0.414E-02
RMM:   3    -0.349906341633E+03    0.31061E-04   -0.26723E-04  7396   0.366E-02    0.328E-02
RMM:   4    -0.349906323953E+03    0.17680E-04   -0.76141E-05  6201   0.159E-02    0.199E-02
RMM:   5    -0.349906324437E+03   -0.48398E-06   -0.26714E-05  3920   0.111E-02
  27 F= -.34990632E+03 E0= -.34990755E+03  d E =-.612279E-03
       N       E                     dE             d eps       ncg     rms          rms(c)
DAV:   1    -0.349906612802E+03   -0.28885E-03   -0.18772E-02  6336   0.417E-01    0.120E-01
RMM:   2    -0.349906605515E+03    0.72866E-05   -0.15302E-03  7735   0.101E-01    0.449E-02
RMM:   3    -0.349906573498E+03    0.32017E-04   -0.27349E-04  7497   0.323E-02    0.349E-02
RMM:   4    -0.349906539730E+03    0.33768E-04   -0.75711E-05  6784   0.172E-02    0.182E-02
RMM:   5    -0.349906534214E+03    0.55161E-05   -0.22270E-05  3618   0.113E-02
  28 F= -.34990653E+03 E0= -.34990777E+03  d E =-.209777E-03
       N       E                     dE             d eps       ncg     rms          rms(c)
DAV:   1    -0.349907571509E+03   -0.10318E-02   -0.16767E-01  5896   0.125E+00    0.337E-01
RMM:   2    -0.349907497657E+03    0.73852E-04   -0.13458E-02  7442   0.303E-01    0.128E-01
RMM:   3    -0.349907095155E+03    0.40250E-03   -0.20152E-03  8199   0.942E-02    0.964E-02
RMM:   4    -0.349906828717E+03    0.26644E-03   -0.56156E-04  8384   0.440E-02    0.538E-02
RMM:   5    -0.349906793930E+03    0.34787E-04   -0.19191E-04  7687   0.261E-02    0.408E-02
RMM:   6    -0.349906786934E+03    0.69956E-05   -0.85907E-05  6635   0.162E-02
  29 F= -.34990679E+03 E0= -.34990804E+03  d E =-.462497E-03
       N       E                     dE             d eps       ncg     rms          rms(c)
DAV:   1    -0.349906818681E+03   -0.24751E-04   -0.10521E-02  6072   0.316E-01    0.783E-02
RMM:   2    -0.349906820981E+03   -0.23000E-05   -0.83470E-04  7627   0.755E-02    0.318E-02
RMM:   3    -0.349906786408E+03    0.34572E-04   -0.11761E-04  6710   0.230E-02    0.229E-02
RMM:   4    -0.349906771642E+03    0.14767E-04   -0.35556E-05  4788   0.133E-02    0.154E-02
RMM:   5    -0.349906768473E+03    0.31689E-05   -0.12336E-05  3310   0.101E-02
  30 F= -.34990677E+03 E0= -.34990803E+03  d E =-.444036E-03
       N       E                     dE             d eps       ncg     rms          rms(c)
DAV:   1    -0.349906780167E+03   -0.85252E-05   -0.13191E-03  6664   0.110E-01    0.360E-02
RMM:   2    -0.349906774037E+03    0.61301E-05   -0.11495E-04  7013   0.277E-02    0.147E-02
RMM:   3    -0.349906771331E+03    0.27060E-05   -0.19789E-05  3554   0.101E-02
  31 F= -.34990677E+03 E0= -.34990802E+03  d E =-.446894E-03
       N       E                     dE             d eps       ncg     rms          rms(c)
DAV:   1    -0.349906778476E+03   -0.44388E-05   -0.11552E-03  6016   0.103E-01    0.305E-02
RMM:   2    -0.349906772351E+03    0.61252E-05   -0.10987E-04  7170   0.268E-02    0.125E-02
RMM:   3    -0.349906768774E+03    0.35770E-05   -0.13146E-05  2997   0.926E-03
  32 F= -.34990677E+03 E0= -.34990802E+03  d E =-.444337E-03
       N       E                     dE             d eps       ncg     rms          rms(c)
DAV:   1    -0.349906769328E+03    0.30224E-05   -0.28810E-04  6176   0.511E-02    0.149E-02
RMM:   2    -0.349906766482E+03    0.28457E-05   -0.25677E-05  3319   0.144E-02
  33 F= -.34990677E+03 E0= -.34990802E+03  d E =-.442045E-03
       N       E                     dE             d eps       ncg     rms          rms(c)
DAV:   1    -0.349906841092E+03   -0.71764E-04   -0.11082E-02  5776   0.301E-01    0.225E-02
RMM:   2    -0.349906875261E+03   -0.34170E-04   -0.43173E-04  7061   0.588E-02    0.122E-02
RMM:   3    -0.349906872517E+03    0.27445E-05   -0.30773E-05  3983   0.174E-02
  34 F= -.34990687E+03 E0= -.34990813E+03  d E =-.106034E-03
       N       E                     dE             d eps       ncg     rms          rms(c)
DAV:   1    -0.349906878737E+03   -0.34757E-05   -0.10029E-01  5720   0.902E-01    0.689E-02
RMM:   2    -0.349907181753E+03   -0.30302E-03   -0.39263E-03  7673   0.175E-01    0.408E-02
RMM:   3    -0.349907168854E+03    0.12899E-04   -0.42799E-04  7722   0.489E-02    0.322E-02
RMM:   4    -0.349907157086E+03    0.11768E-04   -0.10407E-04  6329   0.163E-02    0.182E-02
RMM:   5    -0.349907156884E+03    0.20219E-06   -0.44342E-05  4624   0.108E-02
  35 F= -.34990716E+03 E0= -.34990841E+03  d E =-.390401E-03
       N       E                     dE             d eps       ncg     rms          rms(c)
DAV:   1    -0.349906443704E+03    0.71338E-03   -0.40015E-01  5712   0.180E+00    0.134E-01
RMM:   2    -0.349907674347E+03   -0.12306E-02   -0.15575E-02  7635   0.351E-01    0.784E-02
RMM:   3    -0.349907621784E+03    0.52563E-04   -0.16568E-03  8169   0.973E-02    0.621E-02
RMM:   4    -0.349907573929E+03    0.47855E-04   -0.36163E-04  8996   0.299E-02    0.354E-02
RMM:   5    -0.349907575709E+03   -0.17804E-05   -0.16903E-04  6903   0.218E-02    0.207E-02
RMM:   6    -0.349907570582E+03    0.51273E-05   -0.67907E-05  5582   0.153E-02
  36 F= -.34990757E+03 E0= -.34990883E+03  d E =-.804100E-03
       N       E                     dE             d eps       ncg     rms          rms(c)
DAV:   1    -0.349903377163E+03    0.41985E-02   -0.16024E+00  5712   0.361E+00    0.268E-01
RMM:   2    -0.349908303872E+03   -0.49267E-02   -0.62385E-02  7576   0.703E-01    0.157E-01
RMM:   3    -0.349908060802E+03    0.24307E-03   -0.64709E-03  8210   0.196E-01    0.124E-01
RMM:   4    -0.349907865432E+03    0.19537E-03   -0.13708E-03  9455   0.585E-02    0.721E-02
RMM:   5    -0.349907868923E+03   -0.34902E-05   -0.68807E-04  8626   0.428E-02    0.428E-02
RMM:   6    -0.349907845871E+03    0.23052E-04   -0.24758E-04  7552   0.272E-02    0.180E-02
RMM:   7    -0.349907845458E+03    0.41250E-06   -0.78137E-05  5596   0.141E-02
  37 F= -.34990785E+03 E0= -.34990913E+03  d E =-.107898E-02
       N       E                     dE             d eps       ncg     rms          rms(c)
DAV:   1    -0.349908476821E+03   -0.63095E-03   -0.17858E-01  6128   0.126E+00    0.295E-01
RMM:   2    -0.349908489718E+03   -0.12897E-04   -0.12084E-02  7170   0.280E-01    0.114E-01
RMM:   3    -0.349908186266E+03    0.30345E-03   -0.16923E-03  8269   0.902E-02    0.842E-02
RMM:   4    -0.349908013932E+03    0.17233E-03   -0.51059E-04  8398   0.399E-02    0.470E-02
RMM:   5    -0.349907995713E+03    0.18219E-04   -0.17132E-04  7583   0.249E-02    0.349E-02
RMM:   6    -0.349908006676E+03   -0.10963E-04   -0.68835E-05  5872   0.143E-02    0.213E-02
RMM:   7    -0.349908014579E+03   -0.79037E-05   -0.29951E-05  3982   0.115E-02
  38 F= -.34990801E+03 E0= -.34990927E+03  d E =-.169121E-03
       N       E                     dE             d eps       ncg     rms          rms(c)
DAV:   1    -0.349908042683E+03   -0.36007E-04   -0.15506E-02  6176   0.372E-01    0.829E-02
RMM:   2    -0.349908044817E+03   -0.21340E-05   -0.10329E-03  7152   0.819E-02    0.317E-02
RMM:   3    -0.349908019637E+03    0.25180E-04   -0.12796E-04  6865   0.254E-02    0.232E-02
RMM:   4    -0.349908009551E+03    0.10086E-04   -0.38596E-05  4624   0.137E-02    0.139E-02
RMM:   5    -0.349908010664E+03   -0.11136E-05   -0.12662E-05  3314   0.103E-02
  39 F= -.34990801E+03 E0= -.34990927E+03  d E =-.165206E-03
       N       E                     dE             d eps       ncg     rms          rms(c)
DAV:   1    -0.349908073255E+03   -0.63704E-04   -0.11366E-01  5720   0.966E-01    0.137E-01
RMM:   2    -0.349908320295E+03   -0.24704E-03   -0.51068E-03  8126   0.191E-01    0.625E-02
RMM:   3    -0.349908290089E+03    0.30206E-04   -0.60072E-04  8196   0.529E-02    0.454E-02
RMM:   4    -0.349908250653E+03    0.39436E-04   -0.15581E-04  7200   0.212E-02    0.262E-02
RMM:   5    -0.349908244121E+03    0.65318E-05   -0.66222E-05  6257   0.130E-02
  40 F= -.34990824E+03 E0= -.34990948E+03  d E =-.233457E-03
       N       E                     dE             d eps       ncg     rms          rms(c)
DAV:   1    -0.349908006224E+03    0.24443E-03   -0.23561E-01  5712   0.139E+00    0.188E-01
RMM:   2    -0.349908495252E+03   -0.48903E-03   -0.10472E-02  8108   0.274E-01    0.862E-02
RMM:   3    -0.349908422273E+03    0.72980E-04   -0.11810E-03  8163   0.756E-02    0.634E-02
RMM:   4    -0.349908347986E+03    0.74286E-04   -0.32156E-04  8050   0.298E-02    0.378E-02
RMM:   5    -0.349908336620E+03    0.11366E-04   -0.14180E-04  7025   0.196E-02    0.259E-02
RMM:   6    -0.349908328806E+03    0.78143E-05   -0.53076E-05  5020   0.126E-02
  41 F= -.34990833E+03 E0= -.34990953E+03  d E =-.318141E-03
       N       E                     dE             d eps       ncg     rms          rms(c)
DAV:   1    -0.349908324475E+03    0.12145E-04   -0.47805E-03  6248   0.199E-01    0.303E-02
RMM:   2    -0.349908333081E+03   -0.86063E-05   -0.22720E-04  7555   0.404E-02    0.136E-02
RMM:   3    -0.349908329522E+03    0.35592E-05   -0.18290E-05  3526   0.131E-02
  42 F= -.34990833E+03 E0= -.34990953E+03  d E =-.318858E-03
       N       E                     dE             d eps       ncg     rms          rms(c)
DAV:   1    -0.349908259504E+03    0.73577E-04   -0.68963E-02  5736   0.757E-01    0.743E-02
RMM:   2    -0.349908438092E+03   -0.17859E-03   -0.27225E-03  7918   0.146E-01    0.370E-02
RMM:   3    -0.349908418367E+03    0.19725E-04   -0.25799E-04  7806   0.399E-02    0.297E-02
RMM:   4    -0.349908405584E+03    0.12784E-04   -0.60926E-05  5896   0.135E-02    0.177E-02
RMM:   5    -0.349908404685E+03    0.89808E-06   -0.23337E-05  3728   0.931E-03
  43 F= -.34990840E+03 E0= -.34990958E+03  d E =-.751633E-04
       N       E                     dE             d eps       ncg     rms          rms(c)
DAV:   1    -0.349908249042E+03    0.15654E-03   -0.89181E-02  5712   0.859E-01    0.830E-02
RMM:   2    -0.349908497177E+03   -0.24813E-03   -0.35663E-03  7873   0.166E-01    0.437E-02
RMM:   3    -0.349908472415E+03    0.24762E-04   -0.36986E-04  7874   0.449E-02    0.342E-02
RMM:   4    -0.349908459200E+03    0.13215E-04   -0.88806E-05  6434   0.155E-02    0.205E-02
RMM:   5    -0.349908460231E+03   -0.10307E-05   -0.37675E-05  4479   0.108E-02
  44 F= -.34990846E+03 E0= -.34990962E+03  d E =-.130709E-03
       N       E                     dE             d eps       ncg     rms          rms(c)
DAV:   1    -0.349907591467E+03    0.86773E-03   -0.35719E-01  5712   0.172E+00    0.167E-01
RMM:   2    -0.349908575450E+03   -0.98398E-03   -0.14114E-02  7894   0.332E-01    0.859E-02
RMM:   3    -0.349908481650E+03    0.93800E-04   -0.14360E-03  8164   0.892E-02    0.673E-02
RMM:   4    -0.349908422504E+03    0.59146E-04   -0.33050E-04  8713   0.297E-02    0.404E-02
RMM:   5    -0.349908422003E+03    0.50115E-06   -0.16107E-04  7377   0.221E-02    0.252E-02
RMM:   6    -0.349908421117E+03    0.88578E-06   -0.63342E-05  6028   0.151E-02
  45 F= -.34990842E+03 E0= -.34990954E+03  d E =-.915948E-04
       N       E                     dE             d eps       ncg     rms          rms(c)
DAV:   1    -0.349908167724E+03    0.25428E-03   -0.14059E-01  5712   0.108E+00    0.107E-01
RMM:   2    -0.349908563088E+03   -0.39536E-03   -0.54926E-03  7786   0.208E-01    0.516E-02
RMM:   3    -0.349908515655E+03    0.47433E-04   -0.50523E-04  8104   0.577E-02    0.418E-02
RMM:   4    -0.349908485865E+03    0.29790E-04   -0.10436E-04  6846   0.181E-02    0.238E-02
RMM:   5    -0.349908481771E+03    0.40935E-05   -0.45635E-05  5588   0.115E-02
  46 F= -.34990848E+03 E0= -.34990963E+03  d E =-.152249E-03
       N       E                     dE             d eps       ncg     rms          rms(c)
DAV:   1    -0.349908602606E+03   -0.11674E-03   -0.75389E-02  5816   0.814E-01    0.146E-01
RMM:   2    -0.349908722239E+03   -0.11963E-03   -0.42092E-03  7102   0.169E-01    0.577E-02
RMM:   3    -0.349908632732E+03    0.89507E-04   -0.44667E-04  8048   0.525E-02    0.449E-02
RMM:   4    -0.349908580124E+03    0.52608E-04   -0.12211E-04  7171   0.206E-02    0.252E-02
RMM:   5    -0.349908570612E+03    0.95114E-05   -0.40369E-05  4700   0.137E-02
  47 F= -.34990857E+03 E0= -.34990970E+03  d E =-.888411E-04
