       N       E                     dE             d eps       ncg     rms          rms(c)
DAV:   1     0.183401417252E+04    0.18340E+04   -0.10906E+05  5280   0.105E+03
DAV:   2    -0.670311784575E+02   -0.19010E+04   -0.18277E+04  5312   0.367E+02
DAV:   3    -0.332899470681E+03   -0.26587E+03   -0.25234E+03  8552   0.107E+02
DAV:   4    -0.367073218688E+03   -0.34174E+02   -0.32604E+02  8336   0.318E+01
DAV:   5    -0.370655552173E+03   -0.35823E+01   -0.34961E+01  7856   0.103E+01    0.654E+01
RMM:   6    -0.360349420857E+03    0.10306E+02   -0.26024E+01  7103   0.968E+00    0.308E+01
RMM:   7    -0.361663655616E+03   -0.13142E+01   -0.27396E+01  7391   0.801E+00    0.112E+01
RMM:   8    -0.356076897431E+03    0.55868E+01   -0.65290E+00  7429   0.373E+00    0.401E+00
RMM:   9    -0.355856448857E+03    0.22045E+00   -0.25456E+00  7469   0.186E+00    0.276E+00
RMM:  10    -0.355834114643E+03    0.22334E-01   -0.47538E-01  7525   0.114E+00    0.147E+00
RMM:  11    -0.355816813988E+03    0.17301E-01   -0.15618E-01  7488   0.580E-01    0.765E-01
RMM:  12    -0.355813164922E+03    0.36491E-02   -0.69063E-02  7605   0.364E-01    0.401E-01
RMM:  13    -0.355812078258E+03    0.10867E-02   -0.23716E-02  7549   0.205E-01    0.228E-01
RMM:  14    -0.355812694054E+03   -0.61580E-03   -0.11816E-02  7689   0.109E-01    0.124E-01
RMM:  15    -0.355813074099E+03   -0.38004E-03   -0.52550E-03  7609   0.722E-02    0.579E-02
RMM:  16    -0.355813238114E+03   -0.16402E-03   -0.24377E-03  6480   0.405E-02    0.321E-02
RMM:  17    -0.355813302050E+03   -0.63935E-04   -0.10516E-03  6016   0.295E-02    0.163E-02
RMM:  18    -0.355813346319E+03   -0.44270E-04   -0.55417E-04  5846   0.207E-02    0.978E-03
RMM:  19    -0.355813362026E+03   -0.15706E-04   -0.21931E-04  4806   0.148E-02    0.504E-03
RMM:  20    -0.355813370477E+03   -0.84517E-05   -0.11967E-04  4431   0.122E-02    0.257E-03
RMM:  21    -0.355813374008E+03   -0.35303E-05   -0.59925E-05  4282   0.109E-02
   1 F= -.35581337E+03 E0= -.35582034E+03  d E =-.355813E+03
       N       E                     dE             d eps       ncg     rms          rms(c)
DAV:   1    -0.355867996307E+03   -0.54626E-01   -0.17571E+00  5776   0.413E+00    0.160E+00
RMM:   2    -0.355853373696E+03    0.14623E-01   -0.16065E-01  7232   0.101E+00    0.514E-01
RMM:   3    -0.355848144045E+03    0.52297E-02   -0.40281E-02  7609   0.356E-01    0.385E-01
RMM:   4    -0.355843944575E+03    0.41995E-02   -0.98221E-03  7623   0.202E-01    0.220E-01
RMM:   5    -0.355843573159E+03    0.37142E-03   -0.31524E-03  7557   0.102E-01    0.174E-01
RMM:   6    -0.355843678170E+03   -0.10501E-03   -0.12062E-03  7834   0.561E-02    0.102E-01
RMM:   7    -0.355843778726E+03   -0.10056E-03   -0.53736E-04  6743   0.406E-02    0.464E-02
RMM:   8    -0.355843821887E+03   -0.43161E-04   -0.28661E-04  6680   0.260E-02    0.341E-02
RMM:   9    -0.355843854645E+03   -0.32758E-04   -0.10197E-04  4953   0.192E-02    0.255E-02
RMM:  10    -0.355843887205E+03   -0.32560E-04   -0.61505E-05  4736   0.144E-02    0.118E-02
RMM:  11    -0.355843897345E+03   -0.10140E-04   -0.26518E-05  3979   0.126E-02    0.477E-03
RMM:  12    -0.355843900200E+03   -0.28553E-05   -0.15571E-05  3498   0.108E-02
   2 F= -.35584390E+03 E0= -.35585095E+03  d E =-.305262E-01
       N       E                     dE             d eps       ncg     rms          rms(c)
DAV:   1    -0.356002022440E+03   -0.15813E+00   -0.93671E+00  5384   0.956E+00    0.374E+00
RMM:   2    -0.355921599107E+03    0.80423E-01   -0.84510E-01  7162   0.233E+00    0.118E+00
RMM:   3    -0.355894760728E+03    0.26838E-01   -0.21329E-01  7613   0.825E-01    0.890E-01
RMM:   4    -0.355872468332E+03    0.22292E-01   -0.52284E-02  7628   0.463E-01    0.513E-01
RMM:   5    -0.355870483991E+03    0.19843E-02   -0.16938E-02  7571   0.230E-01    0.406E-01
RMM:   6    -0.355870922978E+03   -0.43899E-03   -0.63008E-03  8042   0.131E-01    0.237E-01
RMM:   7    -0.355871366583E+03   -0.44361E-03   -0.31259E-03  8208   0.930E-02    0.109E-01
RMM:   8    -0.355871548917E+03   -0.18233E-03   -0.15500E-03  7889   0.575E-02    0.814E-02
RMM:   9    -0.355871687517E+03   -0.13860E-03   -0.53488E-04  6909   0.383E-02    0.630E-02
RMM:  10    -0.355871821587E+03   -0.13407E-03   -0.28062E-04  6269   0.270E-02    0.299E-02
RMM:  11    -0.355871862223E+03   -0.40636E-04   -0.13974E-04  5609   0.210E-02    0.109E-02
RMM:  12    -0.355871872975E+03   -0.10752E-04   -0.69738E-05  5102   0.159E-02    0.683E-03
RMM:  13    -0.355871876851E+03   -0.38761E-05   -0.25749E-05  4078   0.125E-02
   3 F= -.35587188E+03 E0= -.35587906E+03  d E =-.585028E-01
       N       E                     dE             d eps       ncg     rms          rms(c)
DAV:   1    -0.355897696371E+03   -0.25823E-01   -0.18375E+00  5152   0.367E+00    0.796E-01
RMM:   2    -0.355899125882E+03   -0.14295E-02   -0.83756E-02  7264   0.728E-01    0.322E-01
RMM:   3    -0.355897382928E+03    0.17430E-02   -0.14252E-02  7465   0.210E-01    0.235E-01
RMM:   4    -0.355896139086E+03    0.12438E-02   -0.33015E-03  7601   0.103E-01    0.126E-01
RMM:   5    -0.355896044964E+03    0.94122E-04   -0.12900E-03  7599   0.619E-02    0.865E-02
RMM:   6    -0.355896019880E+03    0.25084E-04   -0.49745E-04  7260   0.349E-02    0.542E-02
RMM:   7    -0.355896020369E+03   -0.48896E-06   -0.20959E-04  6241   0.239E-02    0.300E-02
RMM:   8    -0.355896016819E+03    0.35503E-05   -0.10564E-04  5506   0.173E-02    0.171E-02
RMM:   9    -0.355896015921E+03    0.89740E-06   -0.48197E-05  4457   0.132E-02
   4 F= -.35589602E+03 E0= -.35590337E+03  d E =-.241391E-01
       N       E                     dE             d eps       ncg     rms          rms(c)
DAV:   1    -0.355934970752E+03   -0.38954E-01   -0.12032E+01  5040   0.941E+00    0.200E+00
RMM:   2    -0.355944349415E+03   -0.93787E-02   -0.54467E-01  7248   0.186E+00    0.805E-01
RMM:   3    -0.355934441493E+03    0.99079E-02   -0.93099E-02  7527   0.542E-01    0.601E-01
RMM:   4    -0.355926335551E+03    0.81059E-02   -0.20774E-02  7584   0.264E-01    0.322E-01
RMM:   5    -0.355925813905E+03    0.52165E-03   -0.84305E-03  7604   0.156E-01    0.221E-01
RMM:   6    -0.355925713405E+03    0.10050E-03   -0.31612E-03  7901   0.888E-02    0.141E-01
RMM:   7    -0.355925792186E+03   -0.78782E-04   -0.14846E-03  7970   0.583E-02    0.791E-02
RMM:   8    -0.355925796923E+03   -0.47363E-05   -0.65436E-04  7126   0.358E-02    0.486E-02
RMM:   9    -0.355925816544E+03   -0.19622E-04   -0.27527E-04  6035   0.268E-02    0.319E-02
RMM:  10    -0.355925822755E+03   -0.62110E-05   -0.14503E-04  5614   0.196E-02    0.153E-02
RMM:  11    -0.355925820572E+03    0.21831E-05   -0.54718E-05  4977   0.147E-02
   5 F= -.35592582E+03 E0= -.35593351E+03  d E =-.539437E-01
       N       E                     dE             d eps       ncg     rms          rms(c)
DAV:   1    -0.355926631827E+03   -0.80907E-03   -0.27862E-01  5264   0.143E+00    0.307E-01
RMM:   2    -0.355926843608E+03   -0.21178E-03   -0.12576E-02  7261   0.283E-01    0.122E-01
RMM:   3    -0.355926580806E+03    0.26280E-03   -0.21190E-03  7448   0.807E-02    0.892E-02
RMM:   4    -0.355926401452E+03    0.17935E-03   -0.51766E-04  7600   0.403E-02    0.468E-02
RMM:   5    -0.355926388428E+03    0.13025E-04   -0.20285E-04  6862   0.244E-02    0.328E-02
RMM:   6    -0.355926383343E+03    0.50853E-05   -0.77288E-05  5218   0.142E-02
   6 F= -.35592638E+03 E0= -.35593410E+03  d E =-.545065E-01
       N       E                     dE             d eps       ncg     rms          rms(c)
DAV:   1    -0.355932240184E+03   -0.58518E-02   -0.38318E-01  5184   0.175E+00    0.326E-01
RMM:   2    -0.355932504166E+03   -0.26398E-03   -0.14752E-02  7367   0.324E-01    0.137E-01
RMM:   3    -0.355932153899E+03    0.35027E-03   -0.24996E-03  7482   0.889E-02    0.952E-02
RMM:   4    -0.355931950931E+03    0.20297E-03   -0.68676E-04  7480   0.470E-02    0.520E-02
RMM:   5    -0.355931931751E+03    0.19181E-04   -0.26524E-04  7191   0.291E-02    0.366E-02
RMM:   6    -0.355931924601E+03    0.71499E-05   -0.98202E-05  5593   0.156E-02
   7 F= -.35593192E+03 E0= -.35593971E+03  d E =-.554126E-02
       N       E                     dE             d eps       ncg     rms          rms(c)
DAV:   1    -0.355944706147E+03   -0.12774E-01   -0.34489E+00  5040   0.524E+00    0.983E-01
RMM:   2    -0.355947111216E+03   -0.24051E-02   -0.13402E-01  7375   0.974E-01    0.420E-01
RMM:   3    -0.355943993119E+03    0.31181E-02   -0.23219E-02  7508   0.266E-01    0.290E-01
RMM:   4    -0.355942143915E+03    0.18492E-02   -0.63533E-03  7522   0.143E-01    0.158E-01
RMM:   5    -0.355941983792E+03    0.16012E-03   -0.24851E-03  7542   0.887E-02    0.110E-01
RMM:   6    -0.355941958785E+03    0.25007E-04   -0.96095E-04  8078   0.461E-02    0.714E-02
RMM:   7    -0.355941968588E+03   -0.98030E-05   -0.39282E-04  6437   0.320E-02    0.379E-02
RMM:   8    -0.355941974084E+03   -0.54958E-05   -0.22263E-04  6194   0.236E-02    0.235E-02
RMM:   9    -0.355941976196E+03   -0.21126E-05   -0.94882E-05  5165   0.168E-02
   8 F= -.35594198E+03 E0= -.35594994E+03  d E =-.155929E-01
       N       E                     dE             d eps       ncg     rms          rms(c)
DAV:   1    -0.355942907729E+03   -0.93365E-03   -0.13786E+01  5040   0.105E+01    0.194E+00
RMM:   2    -0.355953208585E+03   -0.10301E-01   -0.53408E-01  7382   0.195E+00    0.839E-01
RMM:   3    -0.355940873441E+03    0.12335E-01   -0.91608E-02  7543   0.527E-01    0.577E-01
RMM:   4    -0.355933551758E+03    0.73217E-02   -0.24697E-02  7533   0.283E-01    0.315E-01
RMM:   5    -0.355932872803E+03    0.67895E-03   -0.98177E-03  7570   0.175E-01    0.217E-01
RMM:   6    -0.355932772983E+03    0.99820E-04   -0.36851E-03  8426   0.907E-02    0.140E-01
RMM:   7    -0.355932852202E+03   -0.79218E-04   -0.16716E-03  8229   0.621E-02    0.739E-02
RMM:   8    -0.355932881913E+03   -0.29711E-04   -0.80095E-04  7417   0.391E-02    0.465E-02
RMM:   9    -0.355932902110E+03   -0.20197E-04   -0.33361E-04  6482   0.285E-02    0.329E-02
RMM:  10    -0.355932915067E+03   -0.12957E-04   -0.17366E-04  6018   0.202E-02    0.175E-02
RMM:  11    -0.355932912800E+03    0.22670E-05   -0.66114E-05  5132   0.151E-02
   9 F= -.35593291E+03 E0= -.35594117E+03  d E =-.652946E-02
       N       E                     dE             d eps       ncg     rms          rms(c)
DAV:   1    -0.355950663930E+03   -0.17749E-01   -0.73837E+00  5152   0.766E+00    0.147E+00
RMM:   2    -0.355953452589E+03   -0.27887E-02   -0.28333E-01  7379   0.142E+00    0.606E-01
RMM:   3    -0.355947412374E+03    0.60402E-02   -0.50509E-02  7536   0.393E-01    0.419E-01
RMM:   4    -0.355943317146E+03    0.40952E-02   -0.14006E-02  7634   0.214E-01    0.224E-01
RMM:   5    -0.355943103625E+03    0.21352E-03   -0.52806E-03  7565   0.130E-01    0.156E-01
RMM:   6    -0.355943140613E+03   -0.36988E-04   -0.19660E-03  8231   0.675E-02    0.101E-01
RMM:   7    -0.355943238580E+03   -0.97967E-04   -0.81063E-04  7159   0.460E-02    0.538E-02
RMM:   8    -0.355943286547E+03   -0.47967E-04   -0.39753E-04  6606   0.297E-02    0.337E-02
RMM:   9    -0.355943314710E+03   -0.28163E-04   -0.16514E-04  5566   0.222E-02    0.230E-02
RMM:  10    -0.355943338516E+03   -0.23806E-04   -0.87639E-05  5304   0.164E-02    0.108E-02
RMM:  11    -0.355943345829E+03   -0.73131E-05   -0.24940E-05  4053   0.124E-02
  10 F= -.35594335E+03 E0= -.35595140E+03  d E =-.169625E-01
       N       E                     dE             d eps       ncg     rms          rms(c)
DAV:   1    -0.355949533912E+03   -0.61954E-02   -0.37834E-01  5440   0.183E+00    0.524E-01
RMM:   2    -0.355948223593E+03    0.13103E-02   -0.21159E-02  7178   0.375E-01    0.185E-01
RMM:   3    -0.355947678602E+03    0.54499E-03   -0.48570E-03  7592   0.125E-01    0.131E-01
RMM:   4    -0.355947199820E+03    0.47878E-03   -0.12945E-03  7595   0.688E-02    0.727E-02
RMM:   5    -0.355947172846E+03    0.26974E-04   -0.42726E-04  7464   0.381E-02    0.559E-02
RMM:   6    -0.355947196233E+03   -0.23387E-04   -0.14886E-04  6623   0.201E-02    0.348E-02
RMM:   7    -0.355947216888E+03   -0.20655E-04   -0.64929E-05  5040   0.158E-02    0.181E-02
RMM:   8    -0.355947227514E+03   -0.10626E-04   -0.33774E-05  3905   0.127E-02    0.104E-02
RMM:   9    -0.355947234816E+03   -0.73020E-05   -0.21557E-05  3648   0.118E-02
  11 F= -.35594723E+03 E0= -.35595531E+03  d E =-.388899E-02
       N       E                     dE             d eps       ncg     rms          rms(c)
DAV:   1    -0.355964511190E+03   -0.17284E-01   -0.22278E+00  5376   0.444E+00    0.128E+00
RMM:   2    -0.355956912472E+03    0.75987E-02   -0.12586E-01  7233   0.913E-01    0.450E-01
RMM:   3    -0.355953835574E+03    0.30769E-02   -0.29326E-02  7595   0.304E-01    0.321E-01
RMM:   4    -0.355951006164E+03    0.28294E-02   -0.80113E-03  7641   0.169E-01    0.179E-01
RMM:   5    -0.355950831831E+03    0.17433E-03   -0.26778E-03  7536   0.918E-02    0.138E-01
RMM:   6    -0.355950921571E+03   -0.89740E-04   -0.96875E-04  7734   0.496E-02    0.848E-02
RMM:   7    -0.355951001743E+03   -0.80173E-04   -0.43703E-04  6545   0.351E-02    0.432E-02
RMM:   8    -0.355951042492E+03   -0.40749E-04   -0.25547E-04  6549   0.259E-02    0.274E-02
RMM:   9    -0.355951067605E+03   -0.25113E-04   -0.94760E-05  5017   0.179E-02    0.207E-02
RMM:  10    -0.355951089224E+03   -0.21620E-04   -0.49148E-05  4556   0.137E-02    0.105E-02
RMM:  11    -0.355951097416E+03   -0.81916E-05   -0.21798E-05  3881   0.121E-02
  12 F= -.35595110E+03 E0= -.35595920E+03  d E =-.775159E-02
       N       E                     dE             d eps       ncg     rms          rms(c)
DAV:   1    -0.355952561812E+03   -0.14726E-02   -0.16217E-01  5120   0.113E+00    0.832E-02
RMM:   2    -0.355953036468E+03   -0.47466E-03   -0.56431E-03  6736   0.195E-01    0.455E-02
RMM:   3    -0.355952976727E+03    0.59741E-04   -0.60721E-04  6852   0.578E-02    0.344E-02
RMM:   4    -0.355952974989E+03    0.17378E-05   -0.16469E-04  6238   0.177E-02    0.218E-02
RMM:   5    -0.355952974083E+03    0.90577E-06   -0.48684E-05  4207   0.117E-02
  13 F= -.35595297E+03 E0= -.35596107E+03  d E =-.187667E-02
       N       E                     dE             d eps       ncg     rms          rms(c)
DAV:   1    -0.355953809167E+03   -0.83418E-03   -0.14584E+00  4944   0.338E+00    0.249E-01
RMM:   2    -0.355958051897E+03   -0.42427E-02   -0.50598E-02  6734   0.585E-01    0.136E-01
RMM:   3    -0.355957548510E+03    0.50339E-03   -0.55647E-03  7209   0.172E-01    0.105E-01
RMM:   4    -0.355957517672E+03    0.30838E-04   -0.13792E-03  8644   0.506E-02    0.660E-02
RMM:   5    -0.355957510229E+03    0.74429E-05   -0.51285E-04  7469   0.352E-02    0.352E-02
RMM:   6    -0.355957510096E+03    0.13331E-06   -0.17773E-04  6617   0.224E-02    0.129E-02
RMM:   7    -0.355957512273E+03   -0.21772E-05   -0.45870E-05  4137   0.127E-02
  14 F= -.35595751E+03 E0= -.35596558E+03  d E =-.641486E-02
       N       E                     dE             d eps       ncg     rms          rms(c)
DAV:   1    -0.355946942691E+03    0.10567E-01   -0.58410E+00  4928   0.677E+00    0.500E-01
RMM:   2    -0.355963834261E+03   -0.16892E-01   -0.20284E-01  6706   0.118E+00    0.271E-01
RMM:   3    -0.355961954994E+03    0.18793E-02   -0.22287E-02  7235   0.345E-01    0.213E-01
RMM:   4    -0.355961799962E+03    0.15503E-03   -0.53419E-03  8711   0.101E-01    0.136E-01
RMM:   5    -0.355961772890E+03    0.27072E-04   -0.19862E-03  8198   0.701E-02    0.750E-02
RMM:   6    -0.355961764615E+03    0.82749E-05   -0.72513E-04  8178   0.454E-02    0.268E-02
RMM:   7    -0.355961778546E+03   -0.13931E-04   -0.26331E-04  6164   0.212E-02    0.175E-02
RMM:   8    -0.355961787493E+03   -0.89465E-05   -0.12697E-04  5060   0.177E-02    0.118E-02
RMM:   9    -0.355961790775E+03   -0.32823E-05   -0.47232E-05  4274   0.132E-02
  15 F= -.35596179E+03 E0= -.35596975E+03  d E =-.106934E-01
       N       E                     dE             d eps       ncg     rms          rms(c)
DAV:   1    -0.355967591273E+03   -0.58038E-02   -0.60921E-01  5464   0.238E+00    0.690E-01
RMM:   2    -0.355965299937E+03    0.22913E-02   -0.36730E-02  7137   0.501E-01    0.230E-01
RMM:   3    -0.355964626274E+03    0.67366E-03   -0.80658E-03  7606   0.171E-01    0.171E-01
RMM:   4    -0.355963751488E+03    0.87479E-03   -0.22182E-03  7634   0.895E-02    0.940E-02
RMM:   5    -0.355963688006E+03    0.63482E-04   -0.70962E-04  7524   0.482E-02    0.731E-02
RMM:   6    -0.355963676865E+03    0.11141E-04   -0.25924E-04  6897   0.257E-02    0.437E-02
RMM:   7    -0.355963671549E+03    0.53167E-05   -0.11193E-04  5680   0.206E-02    0.193E-02
RMM:   8    -0.355963670857E+03    0.69206E-06   -0.72332E-05  4872   0.155E-02
  16 F= -.35596367E+03 E0= -.35597166E+03  d E =-.188008E-02
       N       E                     dE             d eps       ncg     rms          rms(c)
DAV:   1    -0.355965762946E+03   -0.20914E-02   -0.29966E-01  5440   0.167E+00    0.477E-01
RMM:   2    -0.355964676602E+03    0.10863E-02   -0.17910E-02  7084   0.352E-01    0.156E-01
RMM:   3    -0.355964338072E+03    0.33853E-03   -0.37992E-03  7580   0.118E-01    0.117E-01
RMM:   4    -0.355963926856E+03    0.41122E-03   -0.10622E-03  7602   0.618E-02    0.655E-02
RMM:   5    -0.355963898952E+03    0.27903E-04   -0.33905E-04  7275   0.344E-02    0.516E-02
RMM:   6    -0.355963894784E+03    0.41685E-05   -0.13634E-04  6449   0.187E-02    0.320E-02
RMM:   7    -0.355963890716E+03    0.40680E-05   -0.58965E-05  4636   0.161E-02
  17 F= -.35596389E+03 E0= -.35597191E+03  d E =-.209994E-02
       N       E                     dE             d eps       ncg     rms          rms(c)
DAV:   1    -0.355964630090E+03   -0.73531E-03   -0.15710E-01  5160   0.112E+00    0.880E-02
RMM:   2    -0.355964967138E+03   -0.33705E-03   -0.44114E-03  7339   0.187E-01    0.499E-02
RMM:   3    -0.355964940904E+03    0.26234E-04   -0.57535E-04  7008   0.533E-02    0.365E-02
RMM:   4    -0.355964934672E+03    0.62320E-05   -0.16135E-04  5815   0.187E-02    0.239E-02
RMM:   5    -0.355964931543E+03    0.31291E-05   -0.55415E-05  4316   0.121E-02
  18 F= -.35596493E+03 E0= -.35597295E+03  d E =-.104083E-02
       N       E                     dE             d eps       ncg     rms          rms(c)
DAV:   1    -0.355964594043E+03    0.34063E-03   -0.14134E+00  4936   0.335E+00    0.251E-01
RMM:   2    -0.355967611152E+03   -0.30171E-02   -0.38918E-02  7296   0.555E-01    0.139E-01
RMM:   3    -0.355967353668E+03    0.25748E-03   -0.48529E-03  7347   0.155E-01    0.991E-02
RMM:   4    -0.355967295908E+03    0.57760E-04   -0.11713E-03  8527   0.498E-02    0.642E-02
RMM:   5    -0.355967290740E+03    0.51680E-05   -0.48558E-04  7781   0.342E-02    0.357E-02
RMM:   6    -0.355967287353E+03    0.33874E-05   -0.18294E-04  6754   0.238E-02    0.160E-02
RMM:   7    -0.355967291560E+03   -0.42073E-05   -0.50026E-05  4471   0.141E-02
  19 F= -.35596729E+03 E0= -.35597533E+03  d E =-.340084E-02
       N       E                     dE             d eps       ncg     rms          rms(c)
DAV:   1    -0.355957759121E+03    0.95282E-02   -0.56566E+00  4928   0.670E+00    0.503E-01
RMM:   2    -0.355969771394E+03   -0.12012E-01   -0.15545E-01  7292   0.111E+00    0.274E-01
RMM:   3    -0.355968694782E+03    0.10766E-02   -0.18951E-02  7348   0.309E-01    0.196E-01
RMM:   4    -0.355968455778E+03    0.23900E-03   -0.46513E-03  8574   0.100E-01    0.125E-01
RMM:   5    -0.355968431807E+03    0.23971E-04   -0.19041E-03  8197   0.685E-02    0.696E-02
RMM:   6    -0.355968420733E+03    0.11074E-04   -0.72651E-04  8393   0.464E-02    0.323E-02
RMM:   7    -0.355968439331E+03   -0.18598E-04   -0.24908E-04  6364   0.228E-02    0.204E-02
RMM:   8    -0.355968451058E+03   -0.11727E-04   -0.13342E-04  5445   0.188E-02    0.121E-02
RMM:   9    -0.355968456060E+03   -0.50022E-05   -0.50138E-05  4442   0.144E-02
  20 F= -.35596846E+03 E0= -.35597652E+03  d E =-.456534E-02
       N       E                     dE             d eps       ncg     rms          rms(c)
DAV:   1    -0.355967721842E+03    0.72922E-03   -0.51217E-01  4960   0.202E+00    0.153E-01
RMM:   2    -0.355968794226E+03   -0.10724E-02   -0.13856E-02  7186   0.335E-01    0.831E-02
RMM:   3    -0.355968676084E+03    0.11814E-03   -0.15516E-03  7323   0.924E-02    0.601E-02
RMM:   4    -0.355968646460E+03    0.29624E-04   -0.35086E-04  8105   0.281E-02    0.394E-02
RMM:   5    -0.355968638877E+03    0.75836E-05   -0.14017E-04  6439   0.193E-02    0.218E-02
RMM:   6    -0.355968632530E+03    0.63467E-05   -0.50218E-05  4750   0.148E-02
  21 F= -.35596863E+03 E0= -.35597669E+03  d E =-.474181E-02
       N       E                     dE             d eps       ncg     rms          rms(c)
DAV:   1    -0.355971847673E+03   -0.32088E-02   -0.22567E-01  5456   0.148E+00    0.485E-01
RMM:   2    -0.355970600310E+03    0.12474E-02   -0.16286E-02  7040   0.335E-01    0.156E-01
RMM:   3    -0.355970313302E+03    0.28701E-03   -0.37527E-03  7614   0.119E-01    0.116E-01
RMM:   4    -0.355969899008E+03    0.41429E-03   -0.96869E-04  7623   0.607E-02    0.640E-02
RMM:   5    -0.355969880054E+03    0.18954E-04   -0.31310E-04  7100   0.313E-02    0.499E-02
RMM:   6    -0.355969895846E+03   -0.15792E-04   -0.10642E-04  6577   0.185E-02    0.284E-02
RMM:   7    -0.355969913238E+03   -0.17392E-04   -0.50641E-05  4357   0.144E-02    0.125E-02
RMM:   8    -0.355969919261E+03   -0.60230E-05   -0.24584E-05  3415   0.111E-02
  22 F= -.35596992E+03 E0= -.35597796E+03  d E =-.128673E-02
       N       E                     dE             d eps       ncg     rms          rms(c)
DAV:   1    -0.355972549553E+03   -0.26363E-02   -0.27266E-01  5296   0.163E+00    0.529E-01
RMM:   2    -0.355971061465E+03    0.14881E-02   -0.19569E-02  7008   0.368E-01    0.167E-01
RMM:   3    -0.355970716508E+03    0.34496E-03   -0.44485E-03  7611   0.130E-01    0.125E-01
RMM:   4    -0.355970245394E+03    0.47111E-03   -0.11693E-03  7611   0.660E-02    0.696E-02
RMM:   5    -0.355970230321E+03    0.15073E-04   -0.38315E-04  7312   0.344E-02    0.550E-02
RMM:   6    -0.355970254091E+03   -0.23770E-04   -0.13447E-04  6686   0.201E-02    0.321E-02
RMM:   7    -0.355970278055E+03   -0.23964E-04   -0.67347E-05  4873   0.159E-02    0.148E-02
RMM:   8    -0.355970286690E+03   -0.86346E-05   -0.34379E-05  3849   0.123E-02
  23 F= -.35597029E+03 E0= -.35597831E+03  d E =-.165416E-02
       N       E                     dE             d eps       ncg     rms          rms(c)
DAV:   1    -0.355971027609E+03   -0.74955E-03   -0.16492E-01  4992   0.116E+00    0.147E-01
RMM:   2    -0.355971365371E+03   -0.33776E-03   -0.64654E-03  7383   0.216E-01    0.722E-02
RMM:   3    -0.355971330969E+03    0.34402E-04   -0.84432E-04  7282   0.562E-02    0.504E-02
RMM:   4    -0.355971299910E+03    0.31059E-04   -0.24326E-04  6721   0.259E-02    0.331E-02
RMM:   5    -0.355971293218E+03    0.66918E-05   -0.89255E-05  5565   0.152E-02
  24 F= -.35597129E+03 E0= -.35597934E+03  d E =-.100653E-02
       N       E                     dE             d eps       ncg     rms          rms(c)
DAV:   1    -0.355970704775E+03    0.59513E-03   -0.97701E-01  4928   0.283E+00    0.348E-01
RMM:   2    -0.355972646693E+03   -0.19419E-02   -0.37636E-02  7386   0.522E-01    0.171E-01
RMM:   3    -0.355972427934E+03    0.21876E-03   -0.47061E-03  7380   0.133E-01    0.117E-01
RMM:   4    -0.355972266244E+03    0.16169E-03   -0.13493E-03  7528   0.597E-02    0.788E-02
RMM:   5    -0.355972239863E+03    0.26381E-04   -0.54764E-04  7410   0.369E-02    0.481E-02
RMM:   6    -0.355972220315E+03    0.19548E-04   -0.21544E-04  6572   0.227E-02    0.291E-02
RMM:   7    -0.355972218689E+03    0.16253E-05   -0.71037E-05  4823   0.144E-02
  25 F= -.35597222E+03 E0= -.35598030E+03  d E =-.193200E-02
       N       E                     dE             d eps       ncg     rms          rms(c)
DAV:   1    -0.355973184640E+03   -0.96433E-03   -0.64368E-02  5376   0.795E-01    0.243E-01
RMM:   2    -0.355972863492E+03    0.32115E-03   -0.44048E-03  7204   0.179E-01    0.801E-02
RMM:   3    -0.355972769595E+03    0.93897E-04   -0.94898E-04  7568   0.596E-02    0.607E-02
RMM:   4    -0.355972657296E+03    0.11230E-03   -0.26649E-04  7568   0.319E-02    0.337E-02
RMM:   5    -0.355972646194E+03    0.11102E-04   -0.85945E-05  6432   0.178E-02    0.264E-02
RMM:   6    -0.355972640884E+03    0.53098E-05   -0.29800E-05  3381   0.105E-02
  26 F= -.35597264E+03 E0= -.35598074E+03  d E =-.422194E-03
       N       E                     dE             d eps       ncg     rms          rms(c)
DAV:   1    -0.355973913447E+03   -0.12673E-02   -0.13044E-01  5216   0.113E+00    0.348E-01
RMM:   2    -0.355973240686E+03    0.67276E-03   -0.90020E-03  7260   0.253E-01    0.115E-01
RMM:   3    -0.355973055018E+03    0.18567E-03   -0.19955E-03  7584   0.848E-02    0.880E-02
RMM:   4    -0.355972821946E+03    0.23307E-03   -0.56678E-04  7619   0.466E-02    0.490E-02
RMM:   5    -0.355972801591E+03    0.20355E-04   -0.18900E-04  6853   0.253E-02    0.384E-02
RMM:   6    -0.355972796430E+03    0.51611E-05   -0.77237E-05  5170   0.148E-02
  27 F= -.35597280E+03 E0= -.35598094E+03  d E =-.577740E-03
       N       E                     dE             d eps       ncg     rms          rms(c)
DAV:   1    -0.355973089480E+03   -0.28789E-03   -0.32357E-02  5136   0.527E-01    0.811E-02
RMM:   2    -0.355973123713E+03   -0.34233E-04   -0.13942E-03  7390   0.101E-01    0.397E-02
RMM:   3    -0.355973113844E+03    0.98694E-05   -0.22219E-04  6063   0.300E-02    0.273E-02
RMM:   4    -0.355973100983E+03    0.12861E-04   -0.87250E-05  5404   0.169E-02    0.151E-02
RMM:   5    -0.355973099126E+03    0.18569E-05   -0.29688E-05  3604   0.106E-02
  28 F= -.35597310E+03 E0= -.35598125E+03  d E =-.302696E-03
       N       E                     dE             d eps       ncg     rms          rms(c)
DAV:   1    -0.355973537869E+03   -0.43689E-03   -0.29137E-01  4944   0.158E+00    0.228E-01
RMM:   2    -0.355973827262E+03   -0.28939E-03   -0.11771E-02  7388   0.292E-01    0.105E-01
RMM:   3    -0.355973726391E+03    0.10087E-03   -0.17048E-03  7379   0.787E-02    0.721E-02
RMM:   4    -0.355973634275E+03    0.92116E-04   -0.54145E-04  7385   0.394E-02    0.418E-02
RMM:   5    -0.355973628262E+03    0.60129E-05   -0.20649E-04  6101   0.228E-02    0.276E-02
RMM:   6    -0.355973630712E+03   -0.24506E-05   -0.87632E-05  4785   0.153E-02
  29 F= -.35597363E+03 E0= -.35598182E+03  d E =-.834283E-03
       N       E                     dE             d eps       ncg     rms          rms(c)
DAV:   1    -0.355973653242E+03   -0.24980E-04   -0.49245E-02  5072   0.650E-01    0.935E-02
RMM:   2    -0.355973704809E+03   -0.51567E-04   -0.20509E-03  7383   0.120E-01    0.440E-02
RMM:   3    -0.355973690536E+03    0.14273E-04   -0.31743E-04  6806   0.347E-02    0.305E-02
RMM:   4    -0.355973679133E+03    0.11404E-04   -0.12015E-04  5834   0.187E-02    0.176E-02
RMM:   5    -0.355973680481E+03   -0.13480E-05   -0.45752E-05  3971   0.112E-02
  30 F= -.35597368E+03 E0= -.35598187E+03  d E =-.884051E-03
       N       E                     dE             d eps       ncg     rms          rms(c)
DAV:   1    -0.355973949619E+03   -0.27049E-03   -0.22945E-02  5376   0.459E-01    0.107E-01
RMM:   2    -0.355973917190E+03    0.32429E-04   -0.12626E-03  7173   0.941E-02    0.379E-02
RMM:   3    -0.355973895216E+03    0.21974E-04   -0.21230E-04  6821   0.291E-02    0.277E-02
RMM:   4    -0.355973878549E+03    0.16668E-04   -0.58461E-05  4818   0.160E-02    0.167E-02
RMM:   5    -0.355973878502E+03    0.46133E-07   -0.16739E-05  2896   0.123E-02
  31 F= -.35597388E+03 E0= -.35598206E+03  d E =-.198022E-03
       N       E                     dE             d eps       ncg     rms          rms(c)
DAV:   1    -0.355974786522E+03   -0.90797E-03   -0.20611E-01  5168   0.138E+00    0.328E-01
RMM:   2    -0.355974479786E+03    0.30674E-03   -0.11381E-02  7282   0.282E-01    0.115E-01
RMM:   3    -0.355974286498E+03    0.19329E-03   -0.19995E-03  7507   0.861E-02    0.830E-02
RMM:   4    -0.355974124111E+03    0.16239E-03   -0.58908E-04  7615   0.448E-02    0.478E-02
RMM:   5    -0.355974115936E+03    0.81752E-05   -0.20151E-04  6848   0.260E-02    0.369E-02
RMM:   6    -0.355974128681E+03   -0.12745E-04   -0.80272E-05  5380   0.153E-02    0.221E-02
RMM:   7    -0.355974140049E+03   -0.11368E-04   -0.30893E-05  3645   0.126E-02    0.945E-03
RMM:   8    -0.355974145370E+03   -0.53215E-05   -0.19269E-05  3410   0.111E-02
  32 F= -.35597415E+03 E0= -.35598232E+03  d E =-.464889E-03
       N       E                     dE             d eps       ncg     rms          rms(c)
DAV:   1    -0.355974306872E+03   -0.16682E-03   -0.13077E-02  5176   0.337E-01    0.583E-02
RMM:   2    -0.355974326900E+03   -0.20029E-04   -0.62094E-04  7380   0.670E-02    0.264E-02
RMM:   3    -0.355974322684E+03    0.42162E-05   -0.97737E-05  5360   0.196E-02
  33 F= -.35597432E+03 E0= -.35598250E+03  d E =-.177314E-03
       N       E                     dE             d eps       ncg     rms          rms(c)
DAV:   1    -0.355974661073E+03   -0.33417E-03   -0.11682E-01  4944   0.100E+00    0.168E-01
RMM:   2    -0.355974756267E+03   -0.95194E-04   -0.52082E-03  7387   0.192E-01    0.734E-02
RMM:   3    -0.355974704058E+03    0.52208E-04   -0.74148E-04  7392   0.498E-02    0.525E-02
RMM:   4    -0.355974647709E+03    0.56349E-04   -0.22350E-04  6913   0.254E-02    0.328E-02
RMM:   5    -0.355974640356E+03    0.73527E-05   -0.89062E-05  5691   0.158E-02
  34 F= -.35597464E+03 E0= -.35598282E+03  d E =-.494986E-03
       N       E                     dE             d eps       ncg     rms          rms(c)
DAV:   1    -0.355974609450E+03    0.38260E-04   -0.46736E-01  4928   0.202E+00    0.327E-01
RMM:   2    -0.355975057636E+03   -0.44819E-03   -0.20033E-02  7386   0.381E-01    0.143E-01
RMM:   3    -0.355974862031E+03    0.19561E-03   -0.27966E-03  7395   0.100E-01    0.102E-01
RMM:   4    -0.355974635204E+03    0.22683E-03   -0.81883E-04  7387   0.497E-02    0.611E-02
RMM:   5    -0.355974618745E+03    0.16459E-04   -0.34609E-04  7378   0.302E-02    0.420E-02
RMM:   6    -0.355974606526E+03    0.12219E-04   -0.12659E-04  5674   0.181E-02    0.266E-02
RMM:   7    -0.355974603146E+03    0.33800E-05   -0.57949E-05  4566   0.138E-02
  35 F= -.35597460E+03 E0= -.35598280E+03  d E =-.457776E-03
       N       E                     dE             d eps       ncg     rms          rms(c)
DAV:   1    -0.355974734543E+03   -0.12802E-03   -0.10863E-01  4944   0.972E-01    0.163E-01
RMM:   2    -0.355974828674E+03   -0.94132E-04   -0.46270E-03  7382   0.185E-01    0.695E-02
RMM:   3    -0.355974784437E+03    0.44237E-04   -0.61832E-04  7404   0.491E-02    0.503E-02
RMM:   4    -0.355974722879E+03    0.61558E-04   -0.15909E-04  6798   0.236E-02    0.295E-02
RMM:   5    -0.355974717900E+03    0.49790E-05   -0.58872E-05  5378   0.138E-02
  36 F= -.35597472E+03 E0= -.35598290E+03  d E =-.572529E-03
       N       E                     dE             d eps       ncg     rms          rms(c)
DAV:   1    -0.355974715519E+03    0.73597E-05   -0.37263E-03  5152   0.180E-01    0.283E-02
RMM:   2    -0.355974719131E+03   -0.36123E-05   -0.17977E-04  7182   0.350E-02    0.154E-02
RMM:   3    -0.355974716932E+03    0.21989E-05   -0.24203E-05  3236   0.102E-02
  37 F= -.35597472E+03 E0= -.35598291E+03  d E =-.571562E-03
       N       E                     dE             d eps       ncg     rms          rms(c)
DAV:   1    -0.355974779644E+03   -0.60512E-04   -0.19456E-02  5120   0.400E-01    0.244E-02
RMM:   2    -0.355974823820E+03   -0.44177E-04   -0.52948E-04  6800   0.660E-02    0.128E-02
RMM:   3    -0.355974819690E+03    0.41305E-05   -0.39087E-05  3662   0.201E-02
  38 F= -.35597482E+03 E0= -.35598301E+03  d E =-.102758E-03
       N       E                     dE             d eps       ncg     rms          rms(c)
DAV:   1    -0.355974716439E+03    0.10738E-03   -0.17550E-01  5040   0.120E+00    0.707E-02
RMM:   2    -0.355975111369E+03   -0.39493E-03   -0.49248E-03  7018   0.197E-01    0.409E-02
RMM:   3    -0.355975092133E+03    0.19236E-04   -0.56538E-04  6918   0.560E-02    0.308E-02
RMM:   4    -0.355975091950E+03    0.18233E-06   -0.16260E-04  6023   0.184E-02    0.194E-02
RMM:   5    -0.355975091195E+03    0.75520E-06   -0.47005E-05  3928   0.114E-02
  39 F= -.35597509E+03 E0= -.35598327E+03  d E =-.374263E-03
       N       E                     dE             d eps       ncg     rms          rms(c)
DAV:   1    -0.355973962766E+03    0.11292E-02   -0.70126E-01  5008   0.240E+00    0.137E-01
RMM:   2    -0.355975543278E+03   -0.15805E-02   -0.19383E-02  6941   0.395E-01    0.773E-02
RMM:   3    -0.355975485277E+03    0.58000E-04   -0.22832E-03  7268   0.112E-01    0.598E-02
RMM:   4    -0.355975471710E+03    0.13568E-04   -0.51737E-04  8294   0.328E-02    0.385E-02
RMM:   5    -0.355975471488E+03    0.22148E-06   -0.19049E-04  6381   0.236E-02    0.209E-02
RMM:   6    -0.355975468881E+03    0.26070E-05   -0.82395E-05  5060   0.168E-02
  40 F= -.35597547E+03 E0= -.35598365E+03  d E =-.751949E-03
       N       E                     dE             d eps       ncg     rms          rms(c)
DAV:   1    -0.355969651207E+03    0.58203E-02   -0.28062E+00  4928   0.480E+00    0.276E-01
RMM:   2    -0.355975968745E+03   -0.63175E-02   -0.77615E-02  6915   0.792E-01    0.155E-01
RMM:   3    -0.355975698014E+03    0.27073E-03   -0.89237E-03  7307   0.226E-01    0.120E-01
RMM:   4    -0.355975632914E+03    0.65100E-04   -0.19289E-03  8617   0.640E-02    0.785E-02
RMM:   5    -0.355975632526E+03    0.38763E-06   -0.80184E-04  7854   0.462E-02    0.438E-02
RMM:   6    -0.355975617427E+03    0.15100E-04   -0.30019E-04  7230   0.299E-02    0.172E-02
RMM:   7    -0.355975622257E+03   -0.48305E-05   -0.10301E-04  5086   0.147E-02    0.121E-02
RMM:   8    -0.355975623814E+03   -0.15572E-05   -0.41345E-05  4088   0.128E-02
  41 F= -.35597562E+03 E0= -.35598380E+03  d E =-.906882E-03
       N       E                     dE             d eps       ncg     rms          rms(c)
DAV:   1    -0.355974536564E+03    0.10857E-02   -0.56326E-01  5040   0.215E+00    0.123E-01
RMM:   2    -0.355975761990E+03   -0.12254E-02   -0.15214E-02  6553   0.351E-01    0.669E-02
RMM:   3    -0.355975676344E+03    0.85646E-04   -0.15844E-03  7186   0.104E-01    0.525E-02
RMM:   4    -0.355975658761E+03    0.17583E-04   -0.35021E-04  8126   0.276E-02    0.334E-02
RMM:   5    -0.355975656691E+03    0.20707E-05   -0.12804E-04  6132   0.199E-02    0.186E-02
RMM:   6    -0.355975653692E+03    0.29980E-05   -0.44440E-05  4386   0.145E-02
  42 F= -.35597565E+03 E0= -.35598383E+03  d E =-.936760E-03
       N       E                     dE             d eps       ncg     rms          rms(c)
DAV:   1    -0.355975768900E+03   -0.11221E-03   -0.11499E-01  5056   0.958E-01    0.150E-01
RMM:   2    -0.355975916737E+03   -0.14784E-03   -0.44728E-03  7301   0.178E-01    0.620E-02
RMM:   3    -0.355975875352E+03    0.41384E-04   -0.55585E-04  7395   0.471E-02    0.406E-02
RMM:   4    -0.355975857005E+03    0.18347E-04   -0.16537E-04  6729   0.219E-02    0.263E-02
RMM:   5    -0.355975856295E+03    0.70986E-06   -0.49858E-05  4308   0.124E-02
  43 F= -.35597586E+03 E0= -.35598401E+03  d E =-.202603E-03
