       N       E                     dE             d eps       ncg     rms          rms(c)
DAV:   1     0.196788189514E+04    0.19679E+04   -0.11535E+05  5672   0.106E+03
DAV:   2    -0.101768220164E+03   -0.20697E+04   -0.19962E+04  5952   0.396E+02
DAV:   3    -0.357973653736E+03   -0.25621E+03   -0.24343E+03  8896   0.954E+01
DAV:   4    -0.386698517043E+03   -0.28725E+02   -0.27380E+02  8408   0.297E+01
DAV:   5    -0.389522384224E+03   -0.28239E+01   -0.27797E+01  8640   0.971E+00    0.677E+01
RMM:   6    -0.378461390465E+03    0.11061E+02   -0.20956E+01  6949   0.103E+01    0.323E+01
RMM:   7    -0.378186558921E+03    0.27483E+00   -0.23381E+01  7166   0.825E+00    0.916E+00
RMM:   8    -0.374433739180E+03    0.37528E+01   -0.41721E+00  7954   0.308E+00    0.420E+00
RMM:   9    -0.374346428560E+03    0.87311E-01   -0.15453E+00  7797   0.170E+00    0.290E+00
RMM:  10    -0.374283876868E+03    0.62552E-01   -0.34605E-01  7743   0.124E+00    0.108E+00
RMM:  11    -0.374262846955E+03    0.21030E-01   -0.10333E-01  7826   0.508E-01    0.590E-01
RMM:  12    -0.374261658309E+03    0.11886E-02   -0.34637E-02  7888   0.267E-01    0.349E-01
RMM:  13    -0.374260469887E+03    0.11884E-02   -0.10710E-02  7823   0.145E-01    0.238E-01
RMM:  14    -0.374260581653E+03   -0.11177E-03   -0.46763E-03  8048   0.908E-02    0.114E-01
RMM:  15    -0.374260598969E+03   -0.17316E-04   -0.18315E-03  7958   0.594E-02    0.459E-02
RMM:  16    -0.374260618913E+03   -0.19944E-04   -0.75437E-04  6566   0.301E-02    0.264E-02
RMM:  17    -0.374260629717E+03   -0.10804E-04   -0.34414E-04  6055   0.217E-02    0.152E-02
RMM:  18    -0.374260631785E+03   -0.20680E-05   -0.13855E-04  5370   0.149E-02    0.826E-03
RMM:  19    -0.374260632732E+03   -0.94768E-06   -0.56360E-05  4485   0.119E-02
   1 F= -.37426063E+03 E0= -.37426503E+03  d E =-.374261E+03
       N       E                     dE             d eps       ncg     rms          rms(c)
DAV:   1    -0.374262298798E+03   -0.16670E-02   -0.78689E-02  6064   0.870E-01    0.242E-01
RMM:   2    -0.374262111063E+03    0.18773E-03   -0.56641E-03  7382   0.206E-01    0.860E-02
RMM:   3    -0.374261963420E+03    0.14764E-03   -0.10248E-03  7828   0.668E-02    0.646E-02
RMM:   4    -0.374261848859E+03    0.11456E-03   -0.30170E-04  7799   0.339E-02    0.337E-02
RMM:   5    -0.374261827001E+03    0.21857E-04   -0.96211E-05  6614   0.201E-02    0.250E-02
RMM:   6    -0.374261821771E+03    0.52305E-05   -0.33575E-05  3643   0.109E-02
   2 F= -.37426182E+03 E0= -.37426623E+03  d E =-.118904E-02
       N       E                     dE             d eps       ncg     rms          rms(c)
DAV:   1    -0.374267885721E+03   -0.60587E-02   -0.70632E-01  5808   0.261E+00    0.718E-01
RMM:   2    -0.374265869187E+03    0.20165E-02   -0.48528E-02  7364   0.611E-01    0.257E-01
RMM:   3    -0.374264509056E+03    0.13601E-02   -0.88262E-03  7868   0.192E-01    0.193E-01
RMM:   4    -0.374263521225E+03    0.98783E-03   -0.26342E-03  7949   0.100E-01    0.102E-01
RMM:   5    -0.374263352953E+03    0.16827E-03   -0.87579E-04  7984   0.579E-02    0.775E-02
RMM:   6    -0.374263351144E+03    0.18095E-05   -0.35373E-04  7484   0.298E-02    0.491E-02
RMM:   7    -0.374263337070E+03    0.14073E-04   -0.13821E-04  6631   0.223E-02    0.246E-02
RMM:   8    -0.374263340392E+03   -0.33217E-05   -0.98420E-05  5248   0.166E-02
   3 F= -.37426334E+03 E0= -.37426777E+03  d E =-.270766E-02
       N       E                     dE             d eps       ncg     rms          rms(c)
DAV:   1    -0.374264683438E+03   -0.13464E-02   -0.10224E-01  5712   0.944E-01    0.212E-01
RMM:   2    -0.374264697616E+03   -0.14178E-04   -0.59324E-03  7431   0.208E-01    0.957E-02
RMM:   3    -0.374264490960E+03    0.20666E-03   -0.10644E-03  7740   0.692E-02    0.730E-02
RMM:   4    -0.374264388933E+03    0.10203E-03   -0.33198E-04  7784   0.319E-02    0.392E-02
RMM:   5    -0.374264365793E+03    0.23140E-04   -0.10770E-04  7012   0.210E-02    0.253E-02
RMM:   6    -0.374264368521E+03   -0.27284E-05   -0.40173E-05  4023   0.117E-02
   4 F= -.37426437E+03 E0= -.37426879E+03  d E =-.102813E-02
       N       E                     dE             d eps       ncg     rms          rms(c)
DAV:   1    -0.374268004479E+03   -0.36387E-02   -0.91757E-01  5600   0.283E+00    0.612E-01
RMM:   2    -0.374268254340E+03   -0.24986E-03   -0.51554E-02  7275   0.617E-01    0.270E-01
RMM:   3    -0.374266311691E+03    0.19426E-02   -0.85200E-03  7775   0.205E-01    0.198E-01
RMM:   4    -0.374265514617E+03    0.79707E-03   -0.26148E-03  7942   0.904E-02    0.106E-01
RMM:   5    -0.374265362536E+03    0.15208E-03   -0.85329E-04  7959   0.582E-02    0.736E-02
RMM:   6    -0.374265393184E+03   -0.30648E-04   -0.38422E-04  7759   0.315E-02    0.516E-02
RMM:   7    -0.374265403429E+03   -0.10245E-04   -0.14639E-04  6699   0.222E-02    0.270E-02
RMM:   8    -0.374265420607E+03   -0.17178E-04   -0.81896E-05  5146   0.156E-02    0.184E-02
RMM:   9    -0.374265432183E+03   -0.11576E-04   -0.35453E-05  4189   0.123E-02    0.110E-02
RMM:  10    -0.374265439869E+03   -0.76860E-05   -0.19979E-05  3557   0.112E-02
   5 F= -.37426544E+03 E0= -.37426983E+03  d E =-.209948E-02
       N       E                     dE             d eps       ncg     rms          rms(c)
DAV:   1    -0.374265557985E+03   -0.12580E-03   -0.20644E-02  5736   0.424E-01    0.937E-02
RMM:   2    -0.374265570904E+03   -0.12918E-04   -0.12064E-03  7262   0.944E-02    0.423E-02
RMM:   3    -0.374265525014E+03    0.45890E-04   -0.20197E-04  6940   0.314E-02    0.319E-02
RMM:   4    -0.374265502713E+03    0.22300E-04   -0.57806E-05  5798   0.158E-02    0.178E-02
RMM:   5    -0.374265496272E+03    0.64409E-05   -0.14571E-05  2837   0.117E-02
   6 F= -.37426550E+03 E0= -.37426989E+03  d E =-.215588E-02
       N       E                     dE             d eps       ncg     rms          rms(c)
DAV:   1    -0.374265497559E+03    0.51547E-05   -0.90068E-04  5408   0.901E-02    0.185E-02
RMM:   2    -0.374265498230E+03   -0.67173E-06   -0.55455E-05  4982   0.190E-02
   7 F= -.37426550E+03 E0= -.37426989E+03  d E =-.215784E-02
       N       E                     dE             d eps       ncg     rms          rms(c)
DAV:   1    -0.374265494493E+03    0.30651E-05   -0.32291E-04  5640   0.543E-02    0.127E-02
RMM:   2    -0.374265492811E+03    0.16822E-05   -0.17461E-05  2784   0.120E-02
   8 F= -.37426549E+03 E0= -.37426989E+03  d E =-.215242E-02
       N       E                     dE             d eps       ncg     rms          rms(c)
DAV:   1    -0.374265491786E+03    0.27077E-05   -0.77897E-05  5288   0.273E-02    0.437E-03
RMM:   2    -0.374265492312E+03   -0.52656E-06   -0.59082E-06  2711   0.649E-03
   9 F= -.37426549E+03 E0= -.37426989E+03  d E =-.215192E-02
       N       E                     dE             d eps       ncg     rms          rms(c)
DAV:   1    -0.374265491485E+03    0.30123E-06   -0.15251E-05  3416   0.134E-02    0.507E-03
RMM:   2    -0.374265490979E+03    0.50550E-06   -0.25479E-06  2652   0.625E-03
  10 F= -.37426549E+03 E0= -.37426988E+03  d E =-.215059E-02
       N       E                     dE             d eps       ncg     rms          rms(c)
DAV:   1    -0.374265490207E+03    0.12774E-05   -0.31872E-06  2912   0.592E-03    0.131E-03
RMM:   2    -0.374265490058E+03    0.14863E-06   -0.65203E-07  2318   0.255E-03
  11 F= -.37426549E+03 E0= -.37426988E+03  d E =-.214967E-02
       N       E                     dE             d eps       ncg     rms          rms(c)
DAV:   1    -0.374265650152E+03   -0.15994E-03   -0.19802E-02  5600   0.385E-01    0.606E-02
RMM:   2    -0.374265685151E+03   -0.34999E-04   -0.80463E-04  7025   0.770E-02    0.265E-02
RMM:   3    -0.374265664327E+03    0.20824E-04   -0.10070E-04  6432   0.246E-02    0.195E-02
RMM:   4    -0.374265655792E+03    0.85346E-05   -0.21078E-05  3121   0.115E-02
  12 F= -.37426566E+03 E0= -.37427005E+03  d E =-.165734E-03
       N       E                     dE             d eps       ncg     rms          rms(c)
DAV:   1    -0.374265868048E+03   -0.20372E-03   -0.17823E-01  5488   0.115E+00    0.182E-01
RMM:   2    -0.374266155837E+03   -0.28779E-03   -0.72961E-03  7242   0.231E-01    0.823E-02
RMM:   3    -0.374265985508E+03    0.17033E-03   -0.99432E-04  7596   0.703E-02    0.589E-02
RMM:   4    -0.374265919281E+03    0.66227E-04   -0.27771E-04  7910   0.276E-02    0.328E-02
RMM:   5    -0.374265904384E+03    0.14898E-04   -0.10471E-04  6773   0.208E-02    0.210E-02
RMM:   6    -0.374265900362E+03    0.40219E-05   -0.38534E-05  3905   0.116E-02
  13 F= -.37426590E+03 E0= -.37427031E+03  d E =-.410303E-03
       N       E                     dE             d eps       ncg     rms          rms(c)
DAV:   1    -0.374265900337E+03    0.40465E-05   -0.71721E-03  5480   0.231E-01    0.347E-02
RMM:   2    -0.374265915554E+03   -0.15216E-04   -0.30695E-04  7038   0.458E-02    0.168E-02
RMM:   3    -0.374265905923E+03    0.96312E-05   -0.38704E-05  4225   0.150E-02
  14 F= -.37426591E+03 E0= -.37427032E+03  d E =-.415864E-03
       N       E                     dE             d eps       ncg     rms          rms(c)
DAV:   1    -0.374266136769E+03   -0.22122E-03   -0.28533E-02  5680   0.503E-01    0.120E-01
RMM:   2    -0.374266107907E+03    0.28862E-04   -0.16219E-03  7270   0.109E-01    0.474E-02
RMM:   3    -0.374266081699E+03    0.26208E-04   -0.30849E-04  7605   0.361E-02    0.368E-02
RMM:   4    -0.374266048806E+03    0.32893E-04   -0.94287E-05  6553   0.184E-02    0.177E-02
RMM:   5    -0.374266044914E+03    0.38921E-05   -0.27803E-05  3498   0.126E-02
  15 F= -.37426604E+03 E0= -.37427047E+03  d E =-.138991E-03
       N       E                     dE             d eps       ncg     rms          rms(c)
DAV:   1    -0.374266391621E+03   -0.34281E-03   -0.98954E-02  5544   0.940E-01    0.217E-01
RMM:   2    -0.374266306064E+03    0.85557E-04   -0.56707E-03  7198   0.206E-01    0.851E-02
RMM:   3    -0.374266179613E+03    0.12645E-03   -0.99542E-04  7826   0.668E-02    0.653E-02
RMM:   4    -0.374266080743E+03    0.98870E-04   -0.31797E-04  7703   0.324E-02    0.329E-02
RMM:   5    -0.374266071366E+03    0.93773E-05   -0.10479E-04  6659   0.204E-02    0.244E-02
RMM:   6    -0.374266078713E+03   -0.73470E-05   -0.37083E-05  3911   0.111E-02
  16 F= -.37426608E+03 E0= -.37427053E+03  d E =-.172790E-03
       N       E                     dE             d eps       ncg     rms          rms(c)
DAV:   1    -0.374266153821E+03   -0.82455E-04   -0.10538E-02  5808   0.306E-01    0.764E-02
RMM:   2    -0.374266155430E+03   -0.16082E-05   -0.63476E-04  6913   0.667E-02    0.322E-02
RMM:   3    -0.374266140711E+03    0.14719E-04   -0.10993E-04  6244   0.225E-02    0.237E-02
RMM:   4    -0.374266127380E+03    0.13332E-04   -0.29304E-05  3134   0.141E-02    0.124E-02
RMM:   5    -0.374266125023E+03    0.23564E-05   -0.99777E-06  2806   0.102E-02
  17 F= -.37426613E+03 E0= -.37427057E+03  d E =-.219100E-03
       N       E                     dE             d eps       ncg     rms          rms(c)
DAV:   1    -0.374266177543E+03   -0.50164E-04   -0.20012E-02  5424   0.401E-01    0.518E-02
RMM:   2    -0.374266220812E+03   -0.43269E-04   -0.84018E-04  7020   0.799E-02    0.232E-02
RMM:   3    -0.374266202647E+03    0.18165E-04   -0.79379E-05  6081   0.242E-02    0.184E-02
RMM:   4    -0.374266196857E+03    0.57903E-05   -0.19038E-05  3126   0.107E-02
  18 F= -.37426620E+03 E0= -.37427066E+03  d E =-.718337E-04
