       N       E                     dE             d eps       ncg     rms          rms(c)
DAV:   1     0.208202354625E+04    0.20820E+04   -0.11908E+05  5824   0.106E+03
DAV:   2    -0.838777360877E+02   -0.21659E+04   -0.20930E+04  6040   0.407E+02
DAV:   3    -0.351006042589E+03   -0.26713E+03   -0.25383E+03  8984   0.963E+01
DAV:   4    -0.381363817529E+03   -0.30358E+02   -0.28937E+02  8784   0.305E+01
DAV:   5    -0.384233545559E+03   -0.28697E+01   -0.28280E+01  8376   0.950E+00    0.632E+01
RMM:   6    -0.373890830113E+03    0.10343E+02   -0.27934E+01  7448   0.108E+01    0.303E+01
RMM:   7    -0.377911458782E+03   -0.40206E+01   -0.32631E+01  7865   0.895E+00    0.147E+01
RMM:   8    -0.369221839089E+03    0.86896E+01   -0.92366E+00  7591   0.448E+00    0.462E+00
RMM:   9    -0.368896843089E+03    0.32500E+00   -0.29566E+00  7927   0.216E+00    0.316E+00
RMM:  10    -0.368840963159E+03    0.55880E-01   -0.63571E-01  7918   0.122E+00    0.182E+00
RMM:  11    -0.368790569714E+03    0.50393E-01   -0.18511E-01  7805   0.646E-01    0.944E-01
RMM:  12    -0.368784587472E+03    0.59822E-02   -0.68425E-02  7937   0.412E-01    0.473E-01
RMM:  13    -0.368782925882E+03    0.16616E-02   -0.19666E-02  7979   0.233E-01    0.266E-01
RMM:  14    -0.368782757183E+03    0.16870E-03   -0.79854E-03  8149   0.111E-01    0.165E-01
RMM:  15    -0.368782730994E+03    0.26189E-04   -0.39152E-03  8054   0.740E-02    0.946E-02
RMM:  16    -0.368782749892E+03   -0.18898E-04   -0.15721E-03  7771   0.453E-02    0.528E-02
RMM:  17    -0.368782733533E+03    0.16359E-04   -0.59340E-04  6780   0.283E-02    0.283E-02
RMM:  18    -0.368782743923E+03   -0.10390E-04   -0.29039E-04  6245   0.197E-02    0.155E-02
RMM:  19    -0.368782749658E+03   -0.57350E-05   -0.13323E-04  4978   0.140E-02    0.883E-03
RMM:  20    -0.368782748853E+03    0.80434E-06   -0.43367E-05  4019   0.105E-02
   1 F= -.36878275E+03 E0= -.36878884E+03  d E =-.368783E+03
       N       E                     dE             d eps       ncg     rms          rms(c)
DAV:   1    -0.368846685771E+03   -0.63936E-01   -0.26241E+00  6768   0.527E+00    0.166E+00
RMM:   2    -0.368833525299E+03    0.13160E-01   -0.26225E-01  7679   0.134E+00    0.650E-01
RMM:   3    -0.368821810153E+03    0.11715E-01   -0.48964E-02  8023   0.388E-01    0.472E-01
RMM:   4    -0.368815493609E+03    0.63165E-02   -0.15765E-02  8016   0.260E-01    0.242E-01
RMM:   5    -0.368814674265E+03    0.81934E-03   -0.43370E-03  7952   0.140E-01    0.171E-01
RMM:   6    -0.368814772671E+03   -0.98407E-04   -0.18820E-03  8385   0.683E-02    0.117E-01
RMM:   7    -0.368814862323E+03   -0.89651E-04   -0.75958E-04  7876   0.469E-02    0.706E-02
RMM:   8    -0.368814936222E+03   -0.73900E-04   -0.38641E-04  7050   0.296E-02    0.491E-02
RMM:   9    -0.368815015146E+03   -0.78924E-04   -0.20923E-04  6720   0.245E-02    0.342E-02
RMM:  10    -0.368815061926E+03   -0.46780E-04   -0.10259E-04  5153   0.169E-02    0.233E-02
RMM:  11    -0.368815085966E+03   -0.24040E-04   -0.52689E-05  4457   0.142E-02    0.132E-02
RMM:  12    -0.368815103270E+03   -0.17304E-04   -0.39144E-05  4276   0.145E-02    0.639E-03
RMM:  13    -0.368815106905E+03   -0.36352E-05   -0.17638E-05  3781   0.124E-02
   2 F= -.36881511E+03 E0= -.36882109E+03  d E =-.323581E-01
       N       E                     dE             d eps       ncg     rms          rms(c)
DAV:   1    -0.368985422746E+03   -0.17032E+00   -0.11880E+01  6368   0.112E+01    0.358E+00
RMM:   2    -0.368924787685E+03    0.60635E-01   -0.11663E+00  7586   0.286E+00    0.137E+00
RMM:   3    -0.368872600229E+03    0.52187E-01   -0.21553E-01  8000   0.821E-01    0.101E+00
RMM:   4    -0.368843764359E+03    0.28836E-01   -0.70674E-02  7998   0.550E-01    0.512E-01
RMM:   5    -0.368840235835E+03    0.35285E-02   -0.18795E-02  7923   0.298E-01    0.369E-01
RMM:   6    -0.368840609134E+03   -0.37330E-03   -0.87995E-03  8441   0.146E-01    0.250E-01
RMM:   7    -0.368840915027E+03   -0.30589E-03   -0.34615E-03  8823   0.103E-01    0.151E-01
RMM:   8    -0.368841216092E+03   -0.30107E-03   -0.19107E-03  8675   0.601E-02    0.108E-01
RMM:   9    -0.368841508473E+03   -0.29238E-03   -0.77264E-04  7671   0.469E-02    0.740E-02
RMM:  10    -0.368841699225E+03   -0.19075E-03   -0.48977E-04  7010   0.318E-02    0.504E-02
RMM:  11    -0.368841783679E+03   -0.84454E-04   -0.23707E-04  6179   0.248E-02    0.301E-02
RMM:  12    -0.368841837890E+03   -0.54212E-04   -0.15479E-04  6336   0.217E-02    0.867E-03
RMM:  13    -0.368841847561E+03   -0.96709E-05   -0.76266E-05  4814   0.162E-02
   3 F= -.36884185E+03 E0= -.36884753E+03  d E =-.590987E-01
       N       E                     dE             d eps       ncg     rms          rms(c)
DAV:   1    -0.368863814112E+03   -0.21976E-01   -0.22693E+00  5480   0.407E+00    0.578E-01
RMM:   2    -0.368870263757E+03   -0.64496E-02   -0.10606E-01  7247   0.834E-01    0.321E-01
RMM:   3    -0.368867068083E+03    0.31957E-02   -0.13167E-02  7720   0.261E-01    0.209E-01
RMM:   4    -0.368866458054E+03    0.61003E-03   -0.28057E-03  7978   0.856E-02    0.130E-01
RMM:   5    -0.368866242423E+03    0.21563E-03   -0.11498E-03  8001   0.619E-02    0.780E-02
RMM:   6    -0.368866212449E+03    0.29974E-04   -0.47560E-04  7913   0.383E-02    0.451E-02
RMM:   7    -0.368866197384E+03    0.15065E-04   -0.18946E-04  7100   0.222E-02    0.295E-02
RMM:   8    -0.368866193213E+03    0.41709E-05   -0.69082E-05  5478   0.143E-02
   4 F= -.36886619E+03 E0= -.36887196E+03  d E =-.243457E-01
       N       E                     dE             d eps       ncg     rms          rms(c)
DAV:   1    -0.368882031710E+03   -0.15834E-01   -0.20429E+01  5304   0.122E+01    0.170E+00
RMM:   2    -0.368938725367E+03   -0.56694E-01   -0.95401E-01  7152   0.252E+00    0.912E-01
RMM:   3    -0.368914103724E+03    0.24622E-01   -0.11742E-01  7761   0.799E-01    0.622E-01
RMM:   4    -0.368908782684E+03    0.53210E-02   -0.24605E-02  7982   0.257E-01    0.392E-01
RMM:   5    -0.368907010656E+03    0.17720E-02   -0.10118E-02  8003   0.184E-01    0.243E-01
RMM:   6    -0.368906819049E+03    0.19161E-03   -0.43982E-03  8167   0.116E-01    0.144E-01
RMM:   7    -0.368906706160E+03    0.11289E-03   -0.17936E-03  8538   0.688E-02    0.926E-02
RMM:   8    -0.368906717986E+03   -0.11826E-04   -0.79919E-04  8006   0.387E-02    0.628E-02
RMM:   9    -0.368906718090E+03   -0.10351E-06   -0.30556E-04  7064   0.282E-02    0.398E-02
RMM:  10    -0.368906727649E+03   -0.95595E-05   -0.14656E-04  6539   0.193E-02    0.241E-02
RMM:  11    -0.368906726216E+03    0.14328E-05   -0.78124E-05  4990   0.155E-02
   5 F= -.36890673E+03 E0= -.36891258E+03  d E =-.648787E-01
       N       E                     dE             d eps       ncg     rms          rms(c)
DAV:   1    -0.368907069110E+03   -0.34146E-03   -0.23900E+00  5344   0.419E+00    0.580E-01
RMM:   2    -0.368913402594E+03   -0.63335E-02   -0.10992E-01  7207   0.850E-01    0.306E-01
RMM:   3    -0.368910478807E+03    0.29238E-02   -0.13116E-02  7707   0.262E-01    0.205E-01
RMM:   4    -0.368909892007E+03    0.58680E-03   -0.28450E-03  7926   0.857E-02    0.128E-01
RMM:   5    -0.368909690452E+03    0.20156E-03   -0.11739E-03  7990   0.615E-02    0.787E-02
RMM:   6    -0.368909671055E+03    0.19397E-04   -0.51919E-04  7985   0.391E-02    0.485E-02
RMM:   7    -0.368909652392E+03    0.18663E-04   -0.20532E-04  7077   0.231E-02    0.314E-02
RMM:   8    -0.368909649477E+03    0.29150E-05   -0.85100E-05  5846   0.154E-02
   6 F= -.36890965E+03 E0= -.36891548E+03  d E =-.678019E-01
       N       E                     dE             d eps       ncg     rms          rms(c)
DAV:   1    -0.368915890491E+03   -0.62381E-02   -0.38190E-01  5696   0.186E+00    0.354E-01
RMM:   2    -0.368916477690E+03   -0.58720E-03   -0.25888E-02  6700   0.433E-01    0.157E-01
RMM:   3    -0.368915789088E+03    0.68860E-03   -0.30594E-03  7716   0.130E-01    0.108E-01
RMM:   4    -0.368915544844E+03    0.24424E-03   -0.88817E-04  7895   0.528E-02    0.641E-02
RMM:   5    -0.368915484344E+03    0.60500E-04   -0.30904E-04  7776   0.333E-02    0.424E-02
RMM:   6    -0.368915477896E+03    0.64479E-05   -0.13984E-04  6834   0.205E-02    0.286E-02
RMM:   7    -0.368915469322E+03    0.85743E-05   -0.54655E-05  4967   0.138E-02
   7 F= -.36891547E+03 E0= -.36892145E+03  d E =-.581984E-02
       N       E                     dE             d eps       ncg     rms          rms(c)
DAV:   1    -0.368929497729E+03   -0.14020E-01   -0.34390E+00  5376   0.559E+00    0.106E+00
RMM:   2    -0.368934506136E+03   -0.50084E-02   -0.23245E-01  6717   0.130E+00    0.474E-01
RMM:   3    -0.368928604920E+03    0.59012E-02   -0.28169E-02  7782   0.393E-01    0.331E-01
RMM:   4    -0.368926363325E+03    0.22416E-02   -0.81110E-03  7969   0.159E-01    0.197E-01
RMM:   5    -0.368925821565E+03    0.54176E-03   -0.28181E-03  7992   0.984E-02    0.130E-01
RMM:   6    -0.368925795655E+03    0.25910E-04   -0.12789E-03  8215   0.603E-02    0.858E-02
RMM:   7    -0.368925762220E+03    0.33435E-04   -0.57155E-04  7874   0.393E-02    0.522E-02
RMM:   8    -0.368925763501E+03   -0.12811E-05   -0.28238E-04  7028   0.249E-02    0.342E-02
RMM:   9    -0.368925769878E+03   -0.63774E-05   -0.10733E-04  5547   0.192E-02    0.226E-02
RMM:  10    -0.368925773258E+03   -0.33801E-05   -0.78943E-05  5013   0.158E-02
   8 F= -.36892577E+03 E0= -.36893220E+03  d E =-.161238E-01
       N       E                     dE             d eps       ncg     rms          rms(c)
DAV:   1    -0.368927739807E+03   -0.19699E-02   -0.75811E-01  5440   0.262E+00    0.497E-01
RMM:   2    -0.368928875414E+03   -0.11356E-02   -0.51114E-02  6725   0.608E-01    0.221E-01
RMM:   3    -0.368927562762E+03    0.13127E-02   -0.61302E-03  7766   0.183E-01    0.153E-01
RMM:   4    -0.368927079882E+03    0.48288E-03   -0.18072E-03  7942   0.748E-02    0.907E-02
RMM:   5    -0.368926960723E+03    0.11916E-03   -0.63202E-04  7939   0.466E-02    0.598E-02
RMM:   6    -0.368926951844E+03    0.88787E-05   -0.28351E-04  7580   0.284E-02    0.400E-02
RMM:   7    -0.368926939854E+03    0.11991E-04   -0.12040E-04  6281   0.190E-02    0.246E-02
RMM:   8    -0.368926936938E+03    0.29157E-05   -0.68528E-05  4710   0.145E-02
   9 F= -.36892694E+03 E0= -.36893356E+03  d E =-.172875E-01
       N       E                     dE             d eps       ncg     rms          rms(c)
DAV:   1    -0.368932051747E+03   -0.51119E-02   -0.28069E-01  5888   0.163E+00    0.389E-01
RMM:   2    -0.368931967765E+03    0.83982E-04   -0.21443E-02  7095   0.394E-01    0.164E-01
RMM:   3    -0.368931381610E+03    0.58616E-03   -0.32867E-03  7889   0.123E-01    0.122E-01
RMM:   4    -0.368931039549E+03    0.34206E-03   -0.10256E-03  8018   0.613E-02    0.643E-02
RMM:   5    -0.368930987003E+03    0.52546E-04   -0.32674E-04  7786   0.356E-02    0.440E-02
RMM:   6    -0.368930992381E+03   -0.53779E-05   -0.13289E-04  6842   0.195E-02    0.283E-02
RMM:   7    -0.368930998399E+03   -0.60180E-05   -0.49464E-05  4634   0.134E-02
  10 F= -.36893100E+03 E0= -.36893764E+03  d E =-.406146E-02
       N       E                     dE             d eps       ncg     rms          rms(c)
DAV:   1    -0.368946621446E+03   -0.15629E-01   -0.25158E+00  5500   0.489E+00    0.114E+00
RMM:   2    -0.368946352576E+03    0.26887E-03   -0.19054E-01  6808   0.117E+00    0.476E-01
RMM:   3    -0.368940933989E+03    0.54186E-02   -0.27112E-02  7789   0.363E-01    0.343E-01
RMM:   4    -0.368938088874E+03    0.28451E-02   -0.81665E-03  7990   0.174E-01    0.189E-01
RMM:   5    -0.368937652347E+03    0.43653E-03   -0.26338E-03  7998   0.988E-02    0.134E-01
RMM:   6    -0.368937685841E+03   -0.33494E-04   -0.10979E-03  8237   0.556E-02    0.891E-02
RMM:   7    -0.368937726800E+03   -0.40959E-04   -0.53846E-04  7702   0.383E-02    0.529E-02
RMM:   8    -0.368937767290E+03   -0.40490E-04   -0.25901E-04  6967   0.255E-02    0.341E-02
RMM:   9    -0.368937802506E+03   -0.35215E-04   -0.12546E-04  5902   0.197E-02    0.244E-02
RMM:  10    -0.368937827181E+03   -0.24676E-04   -0.65148E-05  4650   0.149E-02    0.156E-02
RMM:  11    -0.368937842077E+03   -0.14895E-04   -0.31951E-05  4141   0.128E-02    0.775E-03
RMM:  12    -0.368937848968E+03   -0.68911E-05   -0.19656E-05  3736   0.120E-02
  11 F= -.36893785E+03 E0= -.36894455E+03  d E =-.109120E-01
       N       E                     dE             d eps       ncg     rms          rms(c)
DAV:   1    -0.368939223880E+03   -0.13818E-02   -0.27468E-01  5624   0.162E+00    0.378E-01
RMM:   2    -0.368939187885E+03    0.35995E-04   -0.20703E-02  6768   0.388E-01    0.157E-01
RMM:   3    -0.368938600941E+03    0.58694E-03   -0.29574E-03  7776   0.120E-01    0.112E-01
RMM:   4    -0.368938296115E+03    0.30483E-03   -0.88413E-04  7911   0.572E-02    0.615E-02
RMM:   5    -0.368938253175E+03    0.42940E-04   -0.28240E-04  7593   0.328E-02    0.430E-02
RMM:   6    -0.368938262084E+03   -0.89089E-05   -0.11833E-04  6621   0.190E-02    0.290E-02
RMM:   7    -0.368938272284E+03   -0.10200E-04   -0.53382E-05  4783   0.134E-02    0.178E-02
RMM:   8    -0.368938281347E+03   -0.90626E-05   -0.32480E-05  3878   0.125E-02
  12 F= -.36893828E+03 E0= -.36894499E+03  d E =-.113444E-01
       N       E                     dE             d eps       ncg     rms          rms(c)
DAV:   1    -0.368940004902E+03   -0.17326E-02   -0.15990E-01  5376   0.109E+00    0.678E-02
RMM:   2    -0.368940497646E+03   -0.49274E-03   -0.56139E-03  6295   0.211E-01    0.400E-02
RMM:   3    -0.368940479656E+03    0.17990E-04   -0.58716E-04  7248   0.653E-02    0.330E-02
RMM:   4    -0.368940480734E+03   -0.10780E-05   -0.15916E-04  6166   0.163E-02    0.237E-02
RMM:   5    -0.368940480873E+03   -0.13824E-06   -0.40724E-05  4359   0.115E-02
  13 F= -.36894048E+03 E0= -.36894717E+03  d E =-.219953E-02
       N       E                     dE             d eps       ncg     rms          rms(c)
DAV:   1    -0.368941943175E+03   -0.14624E-02   -0.14377E+00  5336   0.327E+00    0.205E-01
RMM:   2    -0.368946301165E+03   -0.43580E-02   -0.49819E-02  6220   0.629E-01    0.117E-01
RMM:   3    -0.368946166118E+03    0.13505E-03   -0.54857E-03  7691   0.196E-01    0.961E-02
RMM:   4    -0.368946135363E+03    0.30755E-04   -0.11494E-03  8543   0.454E-02    0.673E-02
RMM:   5    -0.368946130380E+03    0.49833E-05   -0.39994E-04  7780   0.343E-02    0.385E-02
RMM:   6    -0.368946123333E+03    0.70470E-05   -0.15563E-04  7105   0.243E-02    0.159E-02
RMM:   7    -0.368946119481E+03    0.38520E-05   -0.42732E-05  4207   0.120E-02
  14 F= -.36894612E+03 E0= -.36895272E+03  d E =-.783813E-02
       N       E                     dE             d eps       ncg     rms          rms(c)
DAV:   1    -0.368936317684E+03    0.98056E-02   -0.57599E+00  5264   0.657E+00    0.423E-01
RMM:   2    -0.368953837566E+03   -0.17520E-01   -0.20074E-01  6167   0.127E+00    0.229E-01
RMM:   3    -0.368953501241E+03    0.33633E-03   -0.21982E-02  7722   0.396E-01    0.192E-01
RMM:   4    -0.368953357590E+03    0.14365E-03   -0.45241E-03  9125   0.904E-02    0.135E-01
RMM:   5    -0.368953324149E+03    0.33441E-04   -0.15113E-03  8382   0.656E-02    0.781E-02
RMM:   6    -0.368953293432E+03    0.30717E-04   -0.60948E-04  8079   0.497E-02    0.300E-02
RMM:   7    -0.368953287349E+03    0.60825E-05   -0.21340E-04  6988   0.196E-02    0.198E-02
RMM:   8    -0.368953285972E+03    0.13774E-05   -0.65540E-05  4620   0.149E-02
  15 F= -.36895329E+03 E0= -.36895969E+03  d E =-.150046E-01
       N       E                     dE             d eps       ncg     rms          rms(c)
DAV:   1    -0.368881482490E+03    0.71805E-01   -0.23056E+01  5304   0.132E+01    0.916E-01
RMM:   2    -0.368952077814E+03   -0.70595E-01   -0.80866E-01  6107   0.256E+00    0.444E-01
RMM:   3    -0.368951721550E+03    0.35626E-03   -0.91248E-02  7767   0.801E-01    0.385E-01
RMM:   4    -0.368951255130E+03    0.46642E-03   -0.18250E-02  9276   0.182E-01    0.277E-01
RMM:   5    -0.368951123424E+03    0.13171E-03   -0.57580E-03  8546   0.128E-01    0.167E-01
RMM:   6    -0.368950949484E+03    0.17394E-03   -0.25076E-03  8095   0.104E-01    0.583E-02
RMM:   7    -0.368950952771E+03   -0.32866E-05   -0.87202E-04  8707   0.398E-02    0.385E-02
RMM:   8    -0.368950946432E+03    0.63390E-05   -0.27805E-04  6617   0.231E-02    0.250E-02
RMM:   9    -0.368950955708E+03   -0.92758E-05   -0.17544E-04  7279   0.213E-02    0.132E-02
RMM:  10    -0.368950956531E+03   -0.82351E-06   -0.47488E-05  4547   0.126E-02
  16 F= -.36895096E+03 E0= -.36895678E+03  d E =-.126752E-01
       N       E                     dE             d eps       ncg     rms          rms(c)
DAV:   1    -0.368927910107E+03    0.23046E-01   -0.92584E+00  5264   0.836E+00    0.517E-01
RMM:   2    -0.368955947070E+03   -0.28037E-01   -0.32220E-01  6008   0.162E+00    0.288E-01
RMM:   3    -0.368955298769E+03    0.64830E-03   -0.34911E-02  7760   0.499E-01    0.263E-01
RMM:   4    -0.368955193377E+03    0.10539E-03   -0.69845E-03  9187   0.110E-01    0.197E-01
RMM:   5    -0.368955118083E+03    0.75294E-04   -0.20980E-03  8411   0.811E-02    0.123E-01
RMM:   6    -0.368955056792E+03    0.61291E-04   -0.10602E-03  7921   0.714E-02    0.423E-02
RMM:   7    -0.368955033606E+03    0.23187E-04   -0.33847E-04  7643   0.256E-02    0.287E-02
RMM:   8    -0.368955025798E+03    0.78074E-05   -0.10094E-04  5404   0.168E-02    0.168E-02
RMM:   9    -0.368955028556E+03   -0.27580E-05   -0.78573E-05  5206   0.144E-02
  17 F= -.36895503E+03 E0= -.36896124E+03  d E =-.167472E-01
       N       E                     dE             d eps       ncg     rms          rms(c)
DAV:   1    -0.368967115403E+03   -0.12090E-01   -0.18670E+00  5700   0.414E+00    0.104E+00
RMM:   2    -0.368965637111E+03    0.14783E-02   -0.13384E-01  7084   0.988E-01    0.418E-01
RMM:   3    -0.368960890089E+03    0.47470E-02   -0.21457E-02  7922   0.308E-01    0.304E-01
RMM:   4    -0.368958554576E+03    0.23355E-02   -0.63562E-03  8055   0.158E-01    0.162E-01
RMM:   5    -0.368958105153E+03    0.44942E-03   -0.19195E-03  7957   0.874E-02    0.112E-01
RMM:   6    -0.368958091127E+03    0.14026E-04   -0.81815E-04  8104   0.468E-02    0.751E-02
RMM:   7    -0.368958069023E+03    0.22104E-04   -0.33459E-04  7132   0.335E-02    0.443E-02
RMM:   8    -0.368958070414E+03   -0.13903E-05   -0.19020E-04  6746   0.213E-02    0.284E-02
RMM:   9    -0.368958075672E+03   -0.52584E-05   -0.83516E-05  4849   0.179E-02
  18 F= -.36895808E+03 E0= -.36896445E+03  d E =-.304712E-02
       N       E                     dE             d eps       ncg     rms          rms(c)
DAV:   1    -0.368959222336E+03   -0.11519E-02   -0.26535E-01  5880   0.156E+00    0.387E-01
RMM:   2    -0.368959035560E+03    0.18678E-03   -0.18722E-02  6960   0.371E-01    0.155E-01
RMM:   3    -0.368958362212E+03    0.67335E-03   -0.29513E-03  7858   0.116E-01    0.109E-01
RMM:   4    -0.368958051118E+03    0.31109E-03   -0.90226E-04  7936   0.589E-02    0.590E-02
RMM:   5    -0.368957994377E+03    0.56741E-04   -0.27690E-04  7685   0.333E-02    0.422E-02
RMM:   6    -0.368957991932E+03    0.24450E-05   -0.11616E-04  6511   0.182E-02    0.299E-02
RMM:   7    -0.368957986359E+03    0.55731E-05   -0.49995E-05  4581   0.137E-02
  19 F= -.36895799E+03 E0= -.36896443E+03  d E =-.295780E-02
       N       E                     dE             d eps       ncg     rms          rms(c)
DAV:   1    -0.368958570008E+03   -0.57808E-03   -0.40633E-01  5288   0.170E+00    0.129E-01
RMM:   2    -0.368959696510E+03   -0.11265E-02   -0.14066E-02  6901   0.336E-01    0.756E-02
RMM:   3    -0.368959636598E+03    0.59911E-04   -0.14917E-03  7741   0.958E-02    0.613E-02
RMM:   4    -0.368959620743E+03    0.15855E-04   -0.33880E-04  7329   0.257E-02    0.436E-02
RMM:   5    -0.368959616737E+03    0.40060E-05   -0.12751E-04  6822   0.184E-02    0.245E-02
RMM:   6    -0.368959610803E+03    0.59348E-05   -0.49390E-05  5137   0.142E-02
  20 F= -.36895961E+03 E0= -.36896611E+03  d E =-.162444E-02
       N       E                     dE             d eps       ncg     rms          rms(c)
DAV:   1    -0.368952925204E+03    0.66915E-02   -0.36585E+00  5264   0.510E+00    0.386E-01
RMM:   2    -0.368963077342E+03   -0.10152E-01   -0.12664E-01  6636   0.101E+00    0.212E-01
RMM:   3    -0.368962522899E+03    0.55444E-03   -0.13247E-02  7792   0.293E-01    0.171E-01
RMM:   4    -0.368962401620E+03    0.12128E-03   -0.29056E-03  8787   0.745E-02    0.120E-01
RMM:   5    -0.368962383839E+03    0.17781E-04   -0.10277E-03  8160   0.559E-02    0.705E-02
RMM:   6    -0.368962360779E+03    0.23060E-04   -0.45668E-04  8111   0.417E-02    0.294E-02
RMM:   7    -0.368962357554E+03    0.32247E-05   -0.15453E-04  6632   0.183E-02    0.198E-02
RMM:   8    -0.368962358092E+03   -0.53725E-06   -0.51291E-05  4581   0.142E-02
  21 F= -.36896236E+03 E0= -.36896897E+03  d E =-.437173E-02
       N       E                     dE             d eps       ncg     rms          rms(c)
DAV:   1    -0.368961721945E+03    0.63561E-03   -0.31026E-01  5376   0.149E+00    0.112E-01
RMM:   2    -0.368962603262E+03   -0.88132E-03   -0.10829E-02  6800   0.294E-01    0.629E-02
RMM:   3    -0.368962565847E+03    0.37415E-04   -0.11671E-03  7629   0.844E-02    0.505E-02
RMM:   4    -0.368962561080E+03    0.47669E-05   -0.28133E-04  7099   0.229E-02    0.355E-02
RMM:   5    -0.368962563474E+03   -0.23940E-05   -0.10077E-04  6429   0.161E-02    0.206E-02
RMM:   6    -0.368962562390E+03    0.10838E-05   -0.39131E-05  4289   0.128E-02
  22 F= -.36896256E+03 E0= -.36896921E+03  d E =-.457603E-02
       N       E                     dE             d eps       ncg     rms          rms(c)
DAV:   1    -0.368969603043E+03   -0.70396E-02   -0.23014E-01  7320   0.171E+00    0.644E-01
RMM:   2    -0.368967087119E+03    0.25159E-02   -0.38226E-02  7847   0.489E-01    0.258E-01
RMM:   3    -0.368965012788E+03    0.20743E-02   -0.71498E-03  8066   0.135E-01    0.178E-01
RMM:   4    -0.368964185278E+03    0.82751E-03   -0.21959E-03  8021   0.941E-02    0.961E-02
RMM:   5    -0.368964025287E+03    0.15999E-03   -0.65753E-04  7870   0.527E-02    0.639E-02
RMM:   6    -0.368964039226E+03   -0.13939E-04   -0.25079E-04  7138   0.273E-02    0.456E-02
RMM:   7    -0.368964060740E+03   -0.21514E-04   -0.10150E-04  5991   0.183E-02    0.297E-02
RMM:   8    -0.368964078129E+03   -0.17388E-04   -0.66357E-05  4302   0.146E-02    0.196E-02
RMM:   9    -0.368964095001E+03   -0.16872E-04   -0.38999E-05  4086   0.122E-02    0.123E-02
RMM:  10    -0.368964105227E+03   -0.10226E-04   -0.14984E-05  3550   0.107E-02    0.731E-03
RMM:  11    -0.368964112489E+03   -0.72619E-05   -0.16579E-05  3473   0.104E-02
  23 F= -.36896411E+03 E0= -.36897068E+03  d E =-.155010E-02
       N       E                     dE             d eps       ncg     rms          rms(c)
DAV:   1    -0.368965663190E+03   -0.15580E-02   -0.58353E-02  7304   0.860E-01    0.324E-01
RMM:   2    -0.368964995495E+03    0.66769E-03   -0.95074E-03  7838   0.245E-01    0.128E-01
RMM:   3    -0.368964484319E+03    0.51118E-03   -0.17666E-03  8030   0.673E-02    0.878E-02
RMM:   4    -0.368964282551E+03    0.20177E-03   -0.54705E-04  7917   0.471E-02    0.468E-02
RMM:   5    -0.368964247659E+03    0.34892E-04   -0.16594E-04  7007   0.268E-02    0.307E-02
RMM:   6    -0.368964254895E+03   -0.72357E-05   -0.59970E-05  4711   0.148E-02
  24 F= -.36896425E+03 E0= -.36897079E+03  d E =-.169250E-02
       N       E                     dE             d eps       ncg     rms          rms(c)
DAV:   1    -0.368964898424E+03   -0.65077E-03   -0.85771E-02  5304   0.856E-01    0.989E-02
RMM:   2    -0.368965126078E+03   -0.22765E-03   -0.39055E-03  7555   0.179E-01    0.539E-02
RMM:   3    -0.368965116682E+03    0.93965E-05   -0.44836E-04  7792   0.489E-02    0.404E-02
RMM:   4    -0.368965100765E+03    0.15917E-04   -0.12177E-04  6433   0.180E-02    0.254E-02
RMM:   5    -0.368965097007E+03    0.37580E-05   -0.50698E-05  5151   0.118E-02
  25 F= -.36896510E+03 E0= -.36897161E+03  d E =-.842112E-03
       N       E                     dE             d eps       ncg     rms          rms(c)
DAV:   1    -0.368964696628E+03    0.40414E-03   -0.62312E-01  5264   0.231E+00    0.254E-01
RMM:   2    -0.368966271209E+03   -0.15746E-02   -0.27594E-02  7509   0.478E-01    0.129E-01
RMM:   3    -0.368966204714E+03    0.66495E-04   -0.30118E-03  7810   0.127E-01    0.965E-02
RMM:   4    -0.368966091241E+03    0.11347E-03   -0.80431E-04  8098   0.451E-02    0.610E-02
RMM:   5    -0.368966065575E+03    0.25666E-04   -0.35964E-04  7809   0.336E-02    0.350E-02
RMM:   6    -0.368966054494E+03    0.11081E-04   -0.13115E-04  6830   0.204E-02    0.188E-02
RMM:   7    -0.368966051087E+03    0.34068E-05   -0.39424E-05  4378   0.127E-02
  26 F= -.36896605E+03 E0= -.36897253E+03  d E =-.179619E-02
       N       E                     dE             d eps       ncg     rms          rms(c)
DAV:   1    -0.368966289627E+03   -0.23513E-03   -0.65261E-02  5472   0.726E-01    0.671E-02
RMM:   2    -0.368966498994E+03   -0.20937E-03   -0.27028E-03  6583   0.145E-01    0.334E-02
RMM:   3    -0.368966462419E+03    0.36575E-04   -0.23982E-04  6748   0.447E-02    0.300E-02
RMM:   4    -0.368966454232E+03    0.81864E-05   -0.66848E-05  4928   0.137E-02
  27 F= -.36896645E+03 E0= -.36897298E+03  d E =-.403145E-03
       N       E                     dE             d eps       ncg     rms          rms(c)
DAV:   1    -0.368965783641E+03    0.67878E-03   -0.58662E-01  5376   0.217E+00    0.206E-01
RMM:   2    -0.368967627949E+03   -0.18443E-02   -0.24117E-02  6876   0.434E-01    0.108E-01
RMM:   3    -0.368967321353E+03    0.30660E-03   -0.22045E-03  7350   0.130E-01    0.941E-02
RMM:   4    -0.368967247300E+03    0.74054E-04   -0.65524E-04  8149   0.396E-02    0.587E-02
RMM:   5    -0.368967240659E+03    0.66410E-05   -0.25468E-04  7747   0.301E-02    0.350E-02
RMM:   6    -0.368967227614E+03    0.13044E-04   -0.11615E-04  6774   0.199E-02    0.183E-02
RMM:   7    -0.368967221636E+03    0.59788E-05   -0.38265E-05  3997   0.123E-02
  28 F= -.36896722E+03 E0= -.36897389E+03  d E =-.117055E-02
       N       E                     dE             d eps       ncg     rms          rms(c)
DAV:   1    -0.368961022222E+03    0.62054E-02   -0.23490E+00  5376   0.435E+00    0.408E-01
RMM:   2    -0.368968343273E+03   -0.73211E-02   -0.96085E-02  6808   0.870E-01    0.205E-01
RMM:   3    -0.368967204894E+03    0.11384E-02   -0.83806E-03  7255   0.264E-01    0.182E-01
RMM:   4    -0.368966946188E+03    0.25871E-03   -0.26540E-03  8332   0.777E-02    0.114E-01
RMM:   5    -0.368966922809E+03    0.23380E-04   -0.92635E-04  8076   0.560E-02    0.709E-02
RMM:   6    -0.368966885306E+03    0.37503E-04   -0.44288E-04  8166   0.393E-02    0.359E-02
RMM:   7    -0.368966866725E+03    0.18581E-04   -0.15964E-04  6690   0.199E-02    0.240E-02
RMM:   8    -0.368966865267E+03    0.14588E-05   -0.48372E-05  4584   0.147E-02
  29 F= -.36896687E+03 E0= -.36897379E+03  d E =-.814180E-03
       N       E                     dE             d eps       ncg     rms          rms(c)
DAV:   1    -0.368965135132E+03    0.17316E-02   -0.95348E-01  5376   0.277E+00    0.268E-01
RMM:   2    -0.368967983836E+03   -0.28487E-02   -0.38763E-02  6831   0.554E-01    0.132E-01
RMM:   3    -0.368967501390E+03    0.48245E-03   -0.32547E-03  7198   0.167E-01    0.116E-01
RMM:   4    -0.368967379732E+03    0.12166E-03   -0.10204E-03  8223   0.497E-02    0.713E-02
RMM:   5    -0.368967372645E+03    0.70869E-05   -0.35440E-04  7876   0.358E-02    0.434E-02
RMM:   6    -0.368967366823E+03    0.58220E-05   -0.16210E-04  7518   0.239E-02    0.219E-02
RMM:   7    -0.368967363220E+03    0.36029E-05   -0.50608E-05  4763   0.134E-02
  30 F= -.36896736E+03 E0= -.36897412E+03  d E =-.131213E-02
       N       E                     dE             d eps       ncg     rms          rms(c)
DAV:   1    -0.368967592063E+03   -0.22524E-03   -0.23738E-02  5656   0.456E-01    0.831E-02
RMM:   2    -0.368967601533E+03   -0.94704E-05   -0.13032E-03  6173   0.101E-01    0.342E-02
RMM:   3    -0.368967577393E+03    0.24140E-04   -0.14547E-04  6719   0.318E-02    0.233E-02
RMM:   4    -0.368967565561E+03    0.11833E-04   -0.32141E-05  3463   0.140E-02    0.148E-02
RMM:   5    -0.368967565901E+03   -0.34018E-06   -0.93121E-06  2819   0.104E-02
  31 F= -.36896757E+03 E0= -.36897433E+03  d E =-.202681E-03
       N       E                     dE             d eps       ncg     rms          rms(c)
DAV:   1    -0.368968171657E+03   -0.60610E-03   -0.21430E-01  5504   0.137E+00    0.261E-01
RMM:   2    -0.368968278750E+03   -0.10709E-03   -0.12450E-02  6340   0.306E-01    0.110E-01
RMM:   3    -0.368968024489E+03    0.25426E-03   -0.16176E-03  7625   0.981E-02    0.769E-02
RMM:   4    -0.368967897178E+03    0.12731E-03   -0.49339E-04  8092   0.408E-02    0.449E-02
RMM:   5    -0.368967881359E+03    0.15819E-04   -0.14623E-04  6688   0.242E-02    0.310E-02
RMM:   6    -0.368967890055E+03   -0.86959E-05   -0.65128E-05  5063   0.142E-02
  32 F= -.36896789E+03 E0= -.36897469E+03  d E =-.526835E-03
       N       E                     dE             d eps       ncg     rms          rms(c)
DAV:   1    -0.368968592660E+03   -0.71130E-03   -0.85872E-01  5552   0.274E+00    0.525E-01
RMM:   2    -0.368968992819E+03   -0.40016E-03   -0.49938E-02  6348   0.613E-01    0.220E-01
RMM:   3    -0.368967985803E+03    0.10070E-02   -0.66683E-03  7720   0.197E-01    0.155E-01
RMM:   4    -0.368967455625E+03    0.53018E-03   -0.20165E-03  8133   0.821E-02    0.902E-02
RMM:   5    -0.368967375562E+03    0.80062E-04   -0.61698E-04  7847   0.488E-02    0.635E-02
RMM:   6    -0.368967398436E+03   -0.22874E-04   -0.27873E-04  7287   0.276E-02    0.418E-02
RMM:   7    -0.368967419690E+03   -0.21254E-04   -0.11302E-04  6288   0.194E-02    0.258E-02
RMM:   8    -0.368967435573E+03   -0.15883E-04   -0.71091E-05  4862   0.145E-02    0.167E-02
RMM:   9    -0.368967449697E+03   -0.14124E-04   -0.37628E-05  4203   0.121E-02    0.111E-02
RMM:  10    -0.368967457777E+03   -0.80805E-05   -0.14704E-05  3539   0.106E-02
  33 F= -.36896746E+03 E0= -.36897429E+03  d E =-.945569E-04
       N       E                     dE             d eps       ncg     rms          rms(c)
DAV:   1    -0.368968741078E+03   -0.12914E-02   -0.49840E-01  5712   0.209E+00    0.407E-01
RMM:   2    -0.368969004853E+03   -0.26378E-03   -0.29117E-02  6398   0.463E-01    0.172E-01
RMM:   3    -0.368968404266E+03    0.60059E-03   -0.40434E-03  7806   0.151E-01    0.121E-01
RMM:   4    -0.368968053604E+03    0.35066E-03   -0.11604E-03  8106   0.633E-02    0.687E-02
RMM:   5    -0.368967982663E+03    0.70942E-04   -0.34665E-04  7681   0.372E-02    0.471E-02
RMM:   6    -0.368967972079E+03    0.10584E-04   -0.14974E-04  6743   0.210E-02    0.301E-02
RMM:   7    -0.368967961295E+03    0.10785E-04   -0.54705E-05  4799   0.147E-02    0.182E-02
RMM:   8    -0.368967956713E+03    0.45822E-05   -0.33630E-05  3778   0.121E-02
  34 F= -.36896796E+03 E0= -.36897476E+03  d E =-.593492E-03
       N       E                     dE             d eps       ncg     rms          rms(c)
DAV:   1    -0.368967959257E+03    0.20374E-05   -0.42064E-03  5680   0.192E-01    0.343E-02
RMM:   2    -0.368967964619E+03   -0.53620E-05   -0.24821E-04  5695   0.423E-02    0.140E-02
RMM:   3    -0.368967957398E+03    0.72213E-05   -0.21847E-05  3383   0.139E-02
  35 F= -.36896796E+03 E0= -.36897475E+03  d E =-.594178E-03
       N       E                     dE             d eps       ncg     rms          rms(c)
DAV:   1    -0.368968024557E+03   -0.59937E-04   -0.16867E-02  5360   0.355E-01    0.225E-02
RMM:   2    -0.368968070728E+03   -0.46171E-04   -0.55011E-04  5726   0.686E-02    0.110E-02
RMM:   3    -0.368968065506E+03    0.52217E-05   -0.33648E-05  3546   0.224E-02
  36 F= -.36896807E+03 E0= -.36897486E+03  d E =-.108108E-03
       N       E                     dE             d eps       ncg     rms          rms(c)
DAV:   1    -0.368968041405E+03    0.29323E-04   -0.91416E-02  5264   0.820E-01    0.547E-02
RMM:   2    -0.368968303411E+03   -0.26201E-03   -0.30478E-03  6377   0.157E-01    0.297E-02
RMM:   3    -0.368968290369E+03    0.13042E-04   -0.31083E-04  6977   0.488E-02    0.242E-02
RMM:   4    -0.368968290287E+03    0.81898E-07   -0.85040E-05  5459   0.132E-02
  37 F= -.36896829E+03 E0= -.36897509E+03  d E =-.332889E-03
       N       E                     dE             d eps       ncg     rms          rms(c)
DAV:   1    -0.368967597803E+03    0.69257E-03   -0.36379E-01  5264   0.164E+00    0.107E-01
RMM:   2    -0.368968636641E+03   -0.10388E-02   -0.11968E-02  6320   0.317E-01    0.577E-02
RMM:   3    -0.368968613750E+03    0.22891E-04   -0.12967E-03  7587   0.971E-02    0.490E-02
RMM:   4    -0.368968608848E+03    0.49019E-05   -0.29113E-04  7280   0.236E-02    0.341E-02
RMM:   5    -0.368968606764E+03    0.20843E-05   -0.95561E-05  6443   0.163E-02
  38 F= -.36896861E+03 E0= -.36897541E+03  d E =-.649366E-03
       N       E                     dE             d eps       ncg     rms          rms(c)
DAV:   1    -0.368964640125E+03    0.39687E-02   -0.14559E+00  5264   0.328E+00    0.213E-01
RMM:   2    -0.368968791560E+03   -0.41514E-02   -0.47844E-02  6227   0.634E-01    0.109E-01
RMM:   3    -0.368968669675E+03    0.12188E-03   -0.50899E-03  7734   0.197E-01    0.923E-02
RMM:   4    -0.368968658025E+03    0.11650E-04   -0.10477E-03  8621   0.450E-02    0.651E-02
RMM:   5    -0.368968655029E+03    0.29956E-05   -0.34156E-04  7763   0.325E-02    0.385E-02
RMM:   6    -0.368968642350E+03    0.12679E-04   -0.14392E-04  7463   0.246E-02    0.142E-02
RMM:   7    -0.368968640619E+03    0.17310E-05   -0.33108E-05  3931   0.111E-02
  39 F= -.36896864E+03 E0= -.36897546E+03  d E =-.683221E-03
       N       E                     dE             d eps       ncg     rms          rms(c)
DAV:   1    -0.368967778274E+03    0.86408E-03   -0.36085E-01  5376   0.163E+00    0.105E-01
RMM:   2    -0.368968775338E+03   -0.99706E-03   -0.11556E-02  5827   0.313E-01    0.525E-02
RMM:   3    -0.368968730204E+03    0.45134E-04   -0.11053E-03  7546   0.990E-02    0.442E-02
RMM:   4    -0.368968724812E+03    0.53921E-05   -0.22451E-04  7224   0.216E-02    0.306E-02
RMM:   5    -0.368968722630E+03    0.21823E-05   -0.62092E-05  5252   0.138E-02
  40 F= -.36896872E+03 E0= -.36897554E+03  d E =-.765232E-03
       N       E                     dE             d eps       ncg     rms          rms(c)
DAV:   1    -0.368968803615E+03   -0.78803E-04   -0.26711E-02  5368   0.457E-01    0.378E-02
RMM:   2    -0.368968875534E+03   -0.71919E-04   -0.98478E-04  6883   0.914E-02    0.199E-02
RMM:   3    -0.368968869382E+03    0.61514E-05   -0.79653E-05  5402   0.258E-02
  41 F= -.36896887E+03 E0= -.36897570E+03  d E =-.146753E-03
       N       E                     dE             d eps       ncg     rms          rms(c)
DAV:   1    -0.368968598586E+03    0.27695E-03   -0.23934E-01  5264   0.136E+00    0.120E-01
RMM:   2    -0.368969249262E+03   -0.65068E-03   -0.89350E-03  7302   0.274E-01    0.731E-02
RMM:   3    -0.368969198220E+03    0.51042E-04   -0.99644E-04  7744   0.738E-02    0.567E-02
RMM:   4    -0.368969164283E+03    0.33937E-04   -0.23818E-04  7364   0.253E-02    0.334E-02
RMM:   5    -0.368969165621E+03   -0.13382E-05   -0.10853E-04  6739   0.171E-02    0.195E-02
RMM:   6    -0.368969163034E+03    0.25870E-05   -0.36403E-05  4061   0.114E-02
  42 F= -.36896916E+03 E0= -.36897604E+03  d E =-.440405E-03
       N       E                     dE             d eps       ncg     rms          rms(c)
DAV:   1    -0.368966850473E+03    0.23151E-02   -0.95739E-01  5264   0.273E+00    0.234E-01
RMM:   2    -0.368969520792E+03   -0.26703E-02   -0.35422E-02  7247   0.549E-01    0.141E-01
RMM:   3    -0.368969268897E+03    0.25189E-03   -0.37659E-03  7802   0.148E-01    0.108E-01
RMM:   4    -0.368969138409E+03    0.13049E-03   -0.86460E-04  8352   0.483E-02    0.638E-02
RMM:   5    -0.368969139025E+03   -0.61558E-06   -0.39910E-04  7945   0.349E-02    0.376E-02
RMM:   6    -0.368969127332E+03    0.11692E-04   -0.15149E-04  7109   0.222E-02    0.182E-02
RMM:   7    -0.368969129389E+03   -0.20564E-05   -0.41301E-05  4356   0.127E-02
  43 F= -.36896913E+03 E0= -.36897609E+03  d E =-.406759E-03
       N       E                     dE             d eps       ncg     rms          rms(c)
DAV:   1    -0.368968549173E+03    0.57816E-03   -0.31677E-01  5264   0.157E+00    0.136E-01
RMM:   2    -0.368969431948E+03   -0.88278E-03   -0.11565E-02  7061   0.315E-01    0.795E-02
RMM:   3    -0.368969331758E+03    0.10019E-03   -0.11380E-03  7749   0.872E-02    0.626E-02
RMM:   4    -0.368969278559E+03    0.53199E-04   -0.24321E-04  7613   0.270E-02    0.363E-02
RMM:   5    -0.368969273304E+03    0.52552E-05   -0.11112E-04  6712   0.184E-02    0.214E-02
RMM:   6    -0.368969264207E+03    0.90968E-05   -0.36234E-05  4248   0.121E-02
  44 F= -.36896926E+03 E0= -.36897617E+03  d E =-.541578E-03
       N       E                     dE             d eps       ncg     rms          rms(c)
DAV:   1    -0.368969556347E+03   -0.28304E-03   -0.38032E-02  5832   0.599E-01    0.140E-01
RMM:   2    -0.368969520053E+03    0.36294E-04   -0.25596E-03  6556   0.140E-01    0.554E-02
RMM:   3    -0.368969445488E+03    0.74565E-04   -0.38432E-04  7671   0.446E-02    0.391E-02
RMM:   4    -0.368969401835E+03    0.43653E-04   -0.11398E-04  6737   0.210E-02    0.214E-02
RMM:   5    -0.368969390926E+03    0.10909E-04   -0.23150E-05  3216   0.133E-02    0.184E-02
RMM:   6    -0.368969388217E+03    0.27087E-05   -0.10369E-05  2889   0.996E-03
  45 F= -.36896939E+03 E0= -.36897631E+03  d E =-.124009E-03
       N       E                     dE             d eps       ncg     rms          rms(c)
DAV:   1    -0.368969694060E+03   -0.30313E-03   -0.67384E-02  5724   0.795E-01    0.186E-01
RMM:   2    -0.368969632382E+03    0.61678E-04   -0.45999E-03  6706   0.187E-01    0.734E-02
RMM:   3    -0.368969498487E+03    0.13389E-03   -0.71265E-04  7783   0.594E-02    0.526E-02
RMM:   4    -0.368969424791E+03    0.73696E-04   -0.22114E-04  7562   0.283E-02    0.296E-02
RMM:   5    -0.368969408173E+03    0.16618E-04   -0.59980E-05  4876   0.168E-02    0.214E-02
RMM:   6    -0.368969404164E+03    0.40088E-05   -0.23378E-05  3398   0.111E-02
  46 F= -.36896940E+03 E0= -.36897634E+03  d E =-.139956E-03
       N       E                     dE             d eps       ncg     rms          rms(c)
DAV:   1    -0.368969432296E+03   -0.24123E-04   -0.43409E-03  6056   0.202E-01    0.537E-02
RMM:   2    -0.368969422063E+03    0.10233E-04   -0.32532E-04  7260   0.478E-02    0.226E-02
RMM:   3    -0.368969412516E+03    0.95474E-05   -0.54422E-05  5386   0.156E-02
  47 F= -.36896941E+03 E0= -.36897635E+03  d E =-.148308E-03
       N       E                     dE             d eps       ncg     rms          rms(c)
DAV:   1    -0.368969453375E+03   -0.31311E-04   -0.94455E-03  5612   0.296E-01    0.740E-02
RMM:   2    -0.368969427348E+03    0.26027E-04   -0.71302E-04  7228   0.720E-02    0.297E-02
RMM:   3    -0.368969405534E+03    0.21813E-04   -0.10192E-04  6314   0.221E-02    0.221E-02
RMM:   4    -0.368969395545E+03    0.99894E-05   -0.22993E-05  3010   0.140E-02
  48 F= -.36896940E+03 E0= -.36897632E+03  d E =-.131338E-03
       N       E                     dE             d eps       ncg     rms          rms(c)
DAV:   1    -0.368969417890E+03   -0.12355E-04   -0.27513E-02  5272   0.467E-01    0.390E-02
RMM:   2    -0.368969494789E+03   -0.76899E-04   -0.10293E-03  6435   0.933E-02    0.197E-02
RMM:   3    -0.368969488134E+03    0.66545E-05   -0.92006E-05  5680   0.286E-02
  49 F= -.36896949E+03 E0= -.36897640E+03  d E =-.925891E-04
       N       E                     dE             d eps       ncg     rms          rms(c)
DAV:   1    -0.368969467389E+03    0.27399E-04   -0.29642E-02  5280   0.482E-01    0.428E-02
RMM:   2    -0.368969549950E+03   -0.82561E-04   -0.11724E-03  7019   0.978E-02    0.266E-02
RMM:   3    -0.368969545876E+03    0.40740E-05   -0.15040E-04  6464   0.282E-02    0.199E-02
RMM:   4    -0.368969545248E+03    0.62766E-06   -0.37147E-05  3967   0.113E-02
  50 F= -.36896955E+03 E0= -.36897642E+03  d E =-.149703E-03
