<?xml version="1.0" encoding="ISO-8859-1"?>
<modeling>
 <generator>
  <i name="program" type="string">vasp </i>
  <i name="version" type="string">5.4.1  </i>
  <i name="subversion" type="string">05Feb16 (build Jan 29 2020 16:04:39) complex                          parallel </i>
  <i name="platform" type="string">IFC91_ompi </i>
  <i name="date" type="string">2020 06 15 </i>
  <i name="time" type="string">12:33:36 </i>
 </generator>
 <incar>
  <i type="string" name="SYSTEM"> automatically generated by mexm</i>
  <i type="int" name="ISTART">     0</i>
  <i type="string" name="PREC">accurate               ! avoid wrap aro</i>
  <i type="string" name="ALGO"> Fast                   ! blocked Davids</i>
  <i type="int" name="ISPIN">     1</i>
  <i type="int" name="ICHARG">     2</i>
  <i type="int" name="NELM">    70</i>
  <i type="int" name="IBRION">     2</i>
  <i name="EDIFF">      0.00001000</i>
  <i name="EDIFFG">     -0.01000000</i>
  <i type="int" name="NSW">   300</i>
  <i type="int" name="ISIF">     3</i>
  <i type="int" name="ISYM">     1</i>
  <i name="ENCUT">    300.00000000</i>
  <i name="POTIM">      0.15000000</i>
  <i type="string" name="LREAL"> Auto                  ! unpublished met</i>
  <i type="int" name="ISMEAR">     1</i>
  <i name="SIGMA">      0.15000000</i>
  <i type="logical" name="LWAVE"> F  </i>
  <i type="logical" name="LCHARG"> F  </i>
  <i type="logical" name="LVTOT"> F  </i>
  <v type="int" name="KPOINT_BSE">    -1     0     0     0</v>
  <i type="int" name="NELM">    70</i>
 </incar>
 <kpoints>
  <generation param="Gamma">
   <v type="int" name="divisions">       3        3        3 </v>
   <v name="usershift">      0.00000000       0.00000000       0.00000000 </v>
   <v name="genvec1">      0.33333333      -0.00000000      -0.00000000 </v>
   <v name="genvec2">      0.00000000       0.33333333      -0.00000000 </v>
   <v name="genvec3">      0.00000000       0.00000000       0.33333333 </v>
   <v name="shift">      0.00000000       0.00000000       0.00000000 </v>
  </generation>
  <varray name="kpointlist" >
   <v>       0.00000000       0.00000000       0.00000000 </v>
   <v>       0.33333333       0.00000000       0.00000000 </v>
   <v>       0.00000000       0.33333333       0.00000000 </v>
   <v>       0.33333333       0.33333333       0.00000000 </v>
   <v>      -0.33333333       0.33333333       0.00000000 </v>
   <v>       0.00000000      -0.00000000       0.33333333 </v>
   <v>       0.33333333      -0.00000000       0.33333333 </v>
   <v>      -0.33333333      -0.00000000       0.33333333 </v>
   <v>       0.00000000       0.33333333       0.33333333 </v>
   <v>       0.33333333       0.33333333       0.33333333 </v>
   <v>      -0.33333333       0.33333333       0.33333333 </v>
   <v>       0.00000000      -0.33333333       0.33333333 </v>
   <v>       0.33333333      -0.33333333       0.33333333 </v>
   <v>      -0.33333333      -0.33333333       0.33333333 </v>
  </varray>
  <varray name="weights" >
   <v>       0.03703704 </v>
   <v>       0.07407407 </v>
   <v>       0.07407407 </v>
   <v>       0.07407407 </v>
   <v>       0.07407407 </v>
   <v>       0.07407407 </v>
   <v>       0.07407407 </v>
   <v>       0.07407407 </v>
   <v>       0.07407407 </v>
   <v>       0.07407407 </v>
   <v>       0.07407407 </v>
   <v>       0.07407407 </v>
   <v>       0.07407407 </v>
   <v>       0.07407407 </v>
  </varray>
 </kpoints>
 <parameters>
  <separator name="general" >
   <i type="string" name="SYSTEM">automatically generated by mexm</i>
   <i type="logical" name="LCOMPAT"> F  </i>
  </separator>
  <separator name="electronic" >
   <i type="string" name="PREC">accura</i>
   <i name="ENMAX">    300.00000000</i>
   <i name="ENAUG">    461.25700000</i>
   <i name="EDIFF">      0.00001000</i>
   <i type="int" name="IALGO">    68</i>
   <i type="int" name="IWAVPR">    11</i>
   <i type="int" name="NBANDS">   172</i>
   <i name="NELECT">    285.00000000</i>
   <i type="int" name="TURBO">     0</i>
   <i type="int" name="IRESTART">     0</i>
   <i type="int" name="NREBOOT">     0</i>
   <i type="int" name="NMIN">     0</i>
   <i name="EREF">      0.00000000</i>
   <separator name="electronic smearing" >
    <i type="int" name="ISMEAR">     1</i>
    <i name="SIGMA">      0.15000000</i>
    <i name="KSPACING">      0.50000000</i>
    <i type="logical" name="KGAMMA"> T  </i>
   </separator>
   <separator name="electronic projectors" >
    <i type="logical" name="LREAL"> T  </i>
    <v name="ROPT">     -0.00025000     -0.00025000     -0.00025000     -0.00025000</v>
    <i type="int" name="LMAXPAW">  -100</i>
    <i type="int" name="LMAXMIX">     2</i>
    <i type="logical" name="NLSPLINE"> F  </i>
   </separator>
   <separator name="electronic startup" >
    <i type="int" name="ISTART">     0</i>
    <i type="int" name="ICHARG">     2</i>
    <i type="int" name="INIWAV">     1</i>
   </separator>
   <separator name="electronic spin" >
    <i type="int" name="ISPIN">     1</i>
    <i type="logical" name="LNONCOLLINEAR"> F  </i>
    <v name="MAGMOM">      1.00000000      1.00000000      1.00000000      1.00000000      1.00000000      1.00000000      1.00000000      1.00000000      1.00000000      1.00000000      1.00000000      1.00000000      1.00000000      1.00000000      1.00000000      1.00000000      1.00000000      1.00000000      1.00000000      1.00000000
      1.00000000      1.00000000      1.00000000      1.00000000      1.00000000      1.00000000      1.00000000      1.00000000      1.00000000      1.00000000      1.00000000      1.00000000      1.00000000      1.00000000      1.00000000      1.00000000</v>
    <i name="NUPDOWN">     -1.00000000</i>
    <i type="logical" name="LSORBIT"> F  </i>
    <v name="SAXIS">      0.00000000      0.00000000      1.00000000</v>
    <i type="logical" name="LSPIRAL"> F  </i>
    <v name="QSPIRAL">      0.00000000      0.00000000      0.00000000</v>
    <i type="logical" name="LZEROZ"> F  </i>
   </separator>
   <separator name="electronic exchange-correlation" >
    <i type="logical" name="LASPH"> F  </i>
    <i type="logical" name="LMETAGGA"> F  </i>
   </separator>
   <separator name="electronic convergence" >
    <i type="int" name="NELM">    70</i>
    <i type="int" name="NELMDL">    -5</i>
    <i type="int" name="NELMIN">     2</i>
    <i name="ENINI">    300.00000000</i>
    <separator name="electronic convergence detail" >
     <i type="logical" name="LDIAG"> T  </i>
     <i type="logical" name="LSUBROT"> F  </i>
     <i name="WEIMIN">      0.00100000</i>
     <i name="EBREAK">      0.00000001</i>
     <i name="DEPER">      0.30000000</i>
     <i type="int" name="NRMM">     4</i>
     <i name="TIME">      0.40000000</i>
    </separator>
   </separator>
   <separator name="electronic mixer" >
    <i name="AMIX">      0.40000000</i>
    <i name="BMIX">      1.00000000</i>
    <i name="AMIN">      0.10000000</i>
    <i name="AMIX_MAG">      1.60000000</i>
    <i name="BMIX_MAG">      1.00000000</i>
    <separator name="electronic mixer details" >
     <i type="int" name="IMIX">     4</i>
     <i type="logical" name="MIXFIRST"> F  </i>
     <i type="int" name="MAXMIX">   -45</i>
     <i name="WC">    100.00000000</i>
     <i type="int" name="INIMIX">     1</i>
     <i type="int" name="MIXPRE">     1</i>
     <i type="int" name="MREMOVE">     5</i>
    </separator>
   </separator>
   <separator name="electronic dipolcorrection" >
    <i type="logical" name="LDIPOL"> F  </i>
    <i type="logical" name="LMONO"> F  </i>
    <i type="int" name="IDIPOL">     0</i>
    <i name="EPSILON">      1.00000000</i>
    <v name="DIPOL">   -100.00000000   -100.00000000   -100.00000000</v>
    <i name="EFIELD">      0.00000000</i>
   </separator>
  </separator>
  <separator name="grids" >
   <i type="int" name="NGX">    40</i>
   <i type="int" name="NGY">    60</i>
   <i type="int" name="NGZ">    60</i>
   <i type="int" name="NGXF">    80</i>
   <i type="int" name="NGYF">   120</i>
   <i type="int" name="NGZF">   120</i>
   <i type="logical" name="ADDGRID"> F  </i>
  </separator>
  <separator name="ionic" >
   <i type="int" name="NSW">   300</i>
   <i type="int" name="IBRION">     2</i>
   <i type="int" name="ISIF">     3</i>
   <i name="PSTRESS">      0.00000000</i>
   <i name="EDIFFG">     -0.01000000</i>
   <i type="int" name="NFREE">     1</i>
   <i name="POTIM">      0.15000000</i>
   <i name="SMASS">     -3.00000000</i>
   <i name="SCALEE">      1.00000000</i>
  </separator>
  <separator name="ionic md" >
   <i name="TEBEG">      0.00010000</i>
   <i name="TEEND">      0.00010000</i>
   <i type="int" name="NBLOCK">     1</i>
   <i type="int" name="KBLOCK">   300</i>
   <i type="int" name="NPACO">   256</i>
   <i name="APACO">     16.00000000</i>
  </separator>
  <separator name="symmetry" >
   <i type="int" name="ISYM">     1</i>
   <i name="SYMPREC">      0.00001000</i>
  </separator>
  <separator name="dos" >
   <i type="logical" name="LORBIT"> F  </i>
   <v name="RWIGS">     -1.00000000     -1.00000000     -1.00000000     -1.00000000</v>
   <i type="int" name="NEDOS">   301</i>
   <i name="EMIN">     10.00000000</i>
   <i name="EMAX">    -10.00000000</i>
   <i name="EFERMI">      0.00000000</i>
  </separator>
  <separator name="writing" >
   <i type="int" name="NWRITE">     2</i>
   <i type="logical" name="LWAVE"> F  </i>
   <i type="logical" name="LCHARG"> F  </i>
   <i type="logical" name="LPARD"> F  </i>
   <i type="logical" name="LVTOT"> F  </i>
   <i type="logical" name="LVHAR"> F  </i>
   <i type="logical" name="LELF"> F  </i>
   <i type="logical" name="LOPTICS"> F  </i>
   <v name="STM">      0.00000000      0.00000000      0.00000000      0.00000000      0.00000000      0.00000000      0.00000000</v>
  </separator>
  <separator name="performance" >
   <i type="int" name="NPAR">     4</i>
   <i type="int" name="NSIM">     4</i>
   <i type="int" name="NBLK">    -1</i>
   <i type="logical" name="LPLANE"> T  </i>
   <i type="logical" name="LSCALAPACK"> T  </i>
   <i type="logical" name="LSCAAWARE"> F  </i>
   <i type="logical" name="LSCALU"> F  </i>
   <i type="logical" name="LASYNC"> F  </i>
   <i type="logical" name="LORBITALREAL"> F  </i>
  </separator>
  <separator name="miscellaneous" >
   <i type="int" name="IDIOT">     3</i>
   <i type="logical" name="LMUSIC"> F  </i>
   <v name="POMASS">    178.49000000    180.94800000     91.22400000     92.91000000</v>
   <v name="DARWINR">      0.00000000      0.00000000      0.00000000      0.00000000</v>
   <v name="DARWINV">      1.00000000      1.00000000      1.00000000      1.00000000</v>
   <i type="logical" name="LCORR"> T  </i>
  </separator>
  <i type="logical" name="GGA_COMPAT"> T  </i>
  <i type="logical" name="LBERRY"> F  </i>
  <i type="int" name="ICORELEVEL">     0</i>
  <i type="logical" name="LDAU"> F  </i>
  <i type="int" name="I_CONSTRAINED_M">     0</i>
  <separator name="electronic exchange-correlation" >
   <i type="string" name="GGA">--</i>
   <i type="int" name="VOSKOWN">     0</i>
   <i type="logical" name="LHFCALC"> F  </i>
   <i type="string" name="PRECFOCK"></i>
   <i type="logical" name="LSYMGRAD"> F  </i>
   <i type="logical" name="LHFONE"> F  </i>
   <i type="logical" name="LRHFCALC"> F  </i>
   <i type="logical" name="LTHOMAS"> F  </i>
   <i type="logical" name="LMODELHF"> F  </i>
   <i name="ENCUT4O">     -1.00000000</i>
   <i type="int" name="EXXOEP">     0</i>
   <i type="int" name="FOURORBIT">     0</i>
   <i name="AEXX">      0.00000000</i>
   <i name="HFALPHA">      0.00000000</i>
   <i name="MCALPHA">      0.00000000</i>
   <i name="ALDAX">      1.00000000</i>
   <i name="AGGAX">      1.00000000</i>
   <i name="ALDAC">      1.00000000</i>
   <i name="AGGAC">      1.00000000</i>
   <i type="int" name="NKREDX">     1</i>
   <i type="int" name="NKREDY">     1</i>
   <i type="int" name="NKREDZ">     1</i>
   <i type="logical" name="SHIFTRED"> F  </i>
   <i type="logical" name="ODDONLY"> F  </i>
   <i type="logical" name="EVENONLY"> F  </i>
   <i type="int" name="LMAXFOCK">     0</i>
   <i type="int" name="NMAXFOCKAE">     0</i>
   <i type="logical" name="LFOCKAEDFT"> F  </i>
   <i name="HFSCREEN">      0.00000000</i>
   <i name="HFSCREENC">      0.00000000</i>
   <i type="int" name="NBANDSGWLOW">     0</i>
  </separator>
  <separator name="vdW DFT" >
   <i type="logical" name="LUSE_VDW"> F  </i>
   <i name="Zab_VDW">     -0.84910000</i>
   <i name="PARAM1">      0.12340000</i>
   <i name="PARAM2">      1.00000000</i>
   <i name="PARAM3">      0.00000000</i>
  </separator>
  <separator name="model GW" >
   <i type="int" name="MODEL_GW">     0</i>
   <i name="MODEL_EPS0">     12.45501169</i>
   <i name="MODEL_ALPHA">      1.00000000</i>
  </separator>
  <separator name="linear response parameters" >
   <i type="logical" name="LEPSILON"> F  </i>
   <i type="logical" name="LRPA"> F  </i>
   <i type="logical" name="LNABLA"> F  </i>
   <i type="logical" name="LVEL"> F  </i>
   <i type="int" name="KINTER">     0</i>
   <i name="CSHIFT">      0.10000000</i>
   <i name="OMEGAMAX">     -1.00000000</i>
   <i name="DEG_THRESHOLD">      0.00200000</i>
  </separator>
  <separator name="orbital magnetization" >
   <i type="logical" name="NUCIND"> F  </i>
   <v name="MAGPOS">      0.00000000      0.00000000      0.00000000</v>
   <i type="logical" name="LNICSALL"> T  </i>
   <i type="logical" name="ORBITALMAG"> F  </i>
   <i type="logical" name="LMAGBLOCH"> F  </i>
   <i type="logical" name="LCHIMAG"> F  </i>
   <i type="logical" name="LGAUGE"> T  </i>
   <i type="int" name="MAGATOM">     0</i>
   <v name="MAGDIPOL">      0.00000000      0.00000000      0.00000000</v>
   <v name="AVECCONST">      0.00000000      0.00000000      0.00000000</v>
  </separator>
  <separator name="response functions" >
   <i type="logical" name="LADDER"> F  </i>
   <i type="logical" name="LFXC"> F  </i>
   <i type="logical" name="LHARTREE"> T  </i>
   <i type="int" name="IBSE">     0</i>
   <v type="int" name="KPOINT">    -1     0     0     0</v>
   <i type="logical" name="LTCTE"> F  </i>
   <i type="logical" name="LTETE"> F  </i>
   <i type="logical" name="LTRIPLET"> F  </i>
   <i type="logical" name="LFXCEPS"> F  </i>
   <i type="logical" name="LFXHEG"> F  </i>
   <i type="int" name="NATURALO">     0</i>
   <i type="logical" name="L2ORDER"> F  </i>
   <i type="logical" name="LUSEW"> F  </i>
   <i name="ENCUTGW">     -2.00000000</i>
   <i name="ENCUTGWSOFT">     -2.00000000</i>
   <i name="ENCUTLF">     -1.00000000</i>
   <i type="int" name="LMAXMP2">    -1</i>
   <i name="SCISSOR">      0.00000000</i>
   <i type="int" name="NOMEGA">     0</i>
   <i type="int" name="NOMEGAR">     0</i>
   <i type="int" name="NBANDSGW">    -1</i>
   <i type="int" name="NBANDSO">    -1</i>
   <i type="int" name="NBANDSV">    -1</i>
   <i type="int" name="NELM">    70</i>
   <i type="int" name="NELMHF">     1</i>
   <i type="int" name="DIM">     3</i>
   <i type="int" name="ANTIRES">     0</i>
   <i name="OMEGAMAX">    -30.00000000</i>
   <i name="OMEGAMIN">    -30.00000000</i>
   <i name="OMEGATL">   -200.00000000</i>
   <i type="int" name="OMEGAGRID">     0</i>
   <i name="CSHIFT">     -0.10000000</i>
   <i type="logical" name="SELFENERGY"> F  </i>
   <i type="logical" name="LSPECTRAL"> F  </i>
   <i type="logical" name="LSPECTRALGW"> F  </i>
   <i type="logical" name="LSINGLES"> F  </i>
   <i type="logical" name="LFERMIGW"> F  </i>
   <i type="logical" name="ODDONLYGW"> F  </i>
   <i type="logical" name="EVENONLYGW"> F  </i>
   <i type="int" name="NKREDLFX">     1</i>
   <i type="int" name="NKREDLFY">     1</i>
   <i type="int" name="NKREDLFZ">     1</i>
   <i type="int" name="MAXMEM">  1800</i>
   <i type="int" name="TELESCOPE">     0</i>
   <i type="int" name="TAUPAR">     1</i>
   <i type="int" name="OMEGAPAR">    -1</i>
   <i name="LAMBDA">      1.00000000</i>
  </separator>
  <separator name="External order field" >
   <i name="OFIELD_KAPPA">      0.00000000</i>
   <v name="OFIELD_K">      0.00000000      0.00000000      0.00000000</v>
   <i name="OFIELD_Q6_NEAR">      0.00000000</i>
   <i name="OFIELD_Q6_FAR">      0.00000000</i>
   <i name="OFIELD_A">      0.00000000</i>
  </separator>
 </parameters>
 <atominfo>
  <atoms>      36 </atoms>
  <types>       4 </types>
  <array name="atoms" >
   <dimension dim="1">ion</dimension>
   <field type="string">element</field>
   <field type="int">atomtype</field>
   <set>
    <rc><c>Hf</c><c>   1</c></rc>
    <rc><c>Hf</c><c>   1</c></rc>
    <rc><c>Hf</c><c>   1</c></rc>
    <rc><c>Hf</c><c>   1</c></rc>
    <rc><c>Hf</c><c>   1</c></rc>
    <rc><c>Hf</c><c>   1</c></rc>
    <rc><c>Hf</c><c>   1</c></rc>
    <rc><c>Hf</c><c>   1</c></rc>
    <rc><c>Hf</c><c>   1</c></rc>
    <rc><c>Hf</c><c>   1</c></rc>
    <rc><c>Hf</c><c>   1</c></rc>
    <rc><c>Ta</c><c>   2</c></rc>
    <rc><c>Ta</c><c>   2</c></rc>
    <rc><c>Ta</c><c>   2</c></rc>
    <rc><c>Ta</c><c>   2</c></rc>
    <rc><c>Ta</c><c>   2</c></rc>
    <rc><c>Ta</c><c>   2</c></rc>
    <rc><c>Ta</c><c>   2</c></rc>
    <rc><c>Ta</c><c>   2</c></rc>
    <rc><c>Ta</c><c>   2</c></rc>
    <rc><c>Zr</c><c>   3</c></rc>
    <rc><c>Zr</c><c>   3</c></rc>
    <rc><c>Zr</c><c>   3</c></rc>
    <rc><c>Zr</c><c>   3</c></rc>
    <rc><c>Zr</c><c>   3</c></rc>
    <rc><c>Zr</c><c>   3</c></rc>
    <rc><c>Zr</c><c>   3</c></rc>
    <rc><c>Zr</c><c>   3</c></rc>
    <rc><c>Zr</c><c>   3</c></rc>
    <rc><c>Zr</c><c>   3</c></rc>
    <rc><c>Zr</c><c>   3</c></rc>
    <rc><c>Zr</c><c>   3</c></rc>
    <rc><c>Nb</c><c>   4</c></rc>
    <rc><c>Nb</c><c>   4</c></rc>
    <rc><c>Nb</c><c>   4</c></rc>
    <rc><c>Nb</c><c>   4</c></rc>
   </set>
  </array>
  <array name="atomtypes" >
   <dimension dim="1">type</dimension>
   <field type="int">atomspertype</field>
   <field type="string">element</field>
   <field>mass</field>
   <field>valence</field>
   <field type="string">pseudopotential</field>
   <set>
    <rc><c>  11</c><c>Hf</c><c>    178.49000000</c><c>      4.00000000</c><c>  PAW_PBE Hf 20Jan2003                  </c></rc>
    <rc><c>   9</c><c>Ta</c><c>    180.94800000</c><c>      5.00000000</c><c>  PAW_PBE Ta 17Jan2003                  </c></rc>
    <rc><c>  12</c><c>Zr</c><c>     91.22400000</c><c>     12.00000000</c><c>  PAW_PBE Zr_sv 04Jan2005               </c></rc>
    <rc><c>   4</c><c>Nb</c><c>     92.91000000</c><c>     13.00000000</c><c>  PAW_PBE Nb_sv 25May2007               </c></rc>
   </set>
  </array>
 </atominfo>
 <structure name="initialpos" >
  <crystal>
   <varray name="basis" >
    <v>       7.04021141       0.02078629       0.07206113 </v>
    <v>       0.03109214      10.29040465      -0.00131691 </v>
    <v>       0.10467470      -0.00160624      10.31635384 </v>
   </varray>
   <i name="volume">    747.30070152 </i>
   <varray name="rec_basis" >
    <v>       0.14205721      -0.00042941      -0.00144145 </v>
    <v>      -0.00028711       0.09717878       0.00001804 </v>
    <v>      -0.00099233       0.00001540       0.09694354 </v>
   </varray>
  </crystal>
  <varray name="positions" >
   <v>       0.49851000       0.67619100       0.00865300 </v>
   <v>       0.47639000       0.99900000       0.65057800 </v>
   <v>       0.29109100       0.17244800       0.85490000 </v>
   <v>       0.00004400       0.99870300       0.99920000 </v>
   <v>       0.02497900       0.99983100       0.68339100 </v>
   <v>       0.99519400       0.66696600       0.31668900 </v>
   <v>       0.51539400       0.99340300       0.33577800 </v>
   <v>       0.48858500       0.33091200       0.64422500 </v>
   <v>       0.97720400       0.32458700       0.00040300 </v>
   <v>       0.75224100       0.51167000       0.83590200 </v>
   <v>       0.46428100       0.67419700       0.65355700 </v>
   <v>       0.00378200       0.67649700       0.01150100 </v>
   <v>       0.74514100       0.83017600       0.15588600 </v>
   <v>       0.97111400       0.99390400       0.31819300 </v>
   <v>       0.24926200       0.83759100       0.16754400 </v>
   <v>       0.77095800       0.15449900       0.50068300 </v>
   <v>       0.21876500       0.50477300       0.50108400 </v>
   <v>       0.04188800       0.67697000       0.67403000 </v>
   <v>       0.73801900       0.51222200       0.14859300 </v>
   <v>       0.22144300       0.83741600       0.48228400 </v>
   <v>       0.72327200       0.16257000       0.83009100 </v>
   <v>       0.51140600       0.33652300       0.34018400 </v>
   <v>       0.01894500       0.32274100       0.67555200 </v>
   <v>       0.26226000       0.49494000       0.15473000 </v>
   <v>       0.97098400       0.33924800       0.32448300 </v>
   <v>       0.49543000       0.66650900       0.33646200 </v>
   <v>       0.21340000       0.15817600       0.47606000 </v>
   <v>       0.78249900       0.51338200       0.52415800 </v>
   <v>       0.77448600       0.83472500       0.51310600 </v>
   <v>       0.26317100       0.49836200       0.84449300 </v>
   <v>       0.25879900       0.16329800       0.16618700 </v>
   <v>       0.74846200       0.82523700       0.83286300 </v>
   <v>       0.73364600       0.16006800       0.16430300 </v>
   <v>       0.25932200       0.82831000       0.84941800 </v>
   <v>       0.53714600       0.33695800       0.01174400 </v>
   <v>       0.50246800       0.98700200       0.01308500 </v>
  </varray>
 </structure>
 <calculation>
  <scstep>
   <time name="dav">    1.00    1.00</time>
   <time name="total">    1.16    1.33</time>
   <energy>
    <i name="alphaZ">   1408.55932360 </i>
    <i name="ewald"> -18380.67190303 </i>
    <i name="hartreedc">  -6096.57518511 </i>
    <i name="XCdc">   -357.40081302 </i>
    <i name="pawpsdc">  20046.50488182 </i>
    <i name="pawaedc"> -18431.40592152 </i>
    <i name="eentropy">     -0.00007719 </i>
    <i name="bandstr">   -108.93554986 </i>
    <i name="atom">  23641.16708936 </i>
    <i name="e_fr_energy">   1721.24184504 </i>
    <i name="e_wo_entrp">   1721.24192223 </i>
    <i name="e_0_energy">   1721.24187077 </i>
   </energy>
  </scstep>
  <scstep>
   <time name="dav">    1.03    1.04</time>
   <time name="total">    1.04    1.12</time>
   <energy>
    <i name="e_fr_energy">    -78.61978007 </i>
    <i name="e_wo_entrp">    -78.60195139 </i>
    <i name="e_0_energy">    -78.61383718 </i>
   </energy>
  </scstep>
  <scstep>
   <time name="dav">    1.38    1.39</time>
   <time name="total">    1.38    1.40</time>
   <energy>
    <i name="e_fr_energy">   -333.96957258 </i>
    <i name="e_wo_entrp">   -333.97754324 </i>
    <i name="e_0_energy">   -333.97222947 </i>
   </energy>
  </scstep>
  <scstep>
   <time name="dav">    1.30    1.30</time>
   <time name="total">    1.30    1.34</time>
   <energy>
    <i name="e_fr_energy">   -366.68947985 </i>
    <i name="e_wo_entrp">   -366.70591753 </i>
    <i name="e_0_energy">   -366.69495908 </i>
   </energy>
  </scstep>
  <scstep>
   <time name="dav">    1.23    1.23</time>
   <time name="total">    1.26    1.28</time>
   <energy>
    <i name="e_fr_energy">   -370.13442734 </i>
    <i name="e_wo_entrp">   -370.15002305 </i>
    <i name="e_0_energy">   -370.13962591 </i>
   </energy>
  </scstep>
  <scstep>
   <time name="diag">    0.15    0.15</time>
   <time name="diis">    0.79    0.81</time>
   <time name="orth">    0.01    0.01</time>
   <time name="total">    1.03    1.06</time>
   <energy>
    <i name="e_fr_energy">   -360.36686161 </i>
    <i name="e_wo_entrp">   -360.37864869 </i>
    <i name="e_0_energy">   -360.37079064 </i>
   </energy>
  </scstep>
  <scstep>
   <time name="diag">    0.08    0.08</time>
   <time name="diis">    0.76    0.77</time>
   <time name="orth">    0.01    0.01</time>
   <time name="total">    0.93    0.98</time>
   <energy>
    <i name="e_fr_energy">   -363.99429053 </i>
    <i name="e_wo_entrp">   -363.98305403 </i>
    <i name="e_0_energy">   -363.99054503 </i>
   </energy>
  </scstep>
  <scstep>
   <time name="diag">    0.07    0.08</time>
   <time name="diis">    0.73    0.74</time>
   <time name="orth">    0.02    0.02</time>
   <time name="total">    0.92    0.94</time>
   <energy>
    <i name="e_fr_energy">   -355.98808904 </i>
    <i name="e_wo_entrp">   -356.01070643 </i>
    <i name="e_0_energy">   -355.99562817 </i>
   </energy>
  </scstep>
  <scstep>
   <time name="diag">    0.08    0.08</time>
   <time name="diis">    0.81    0.82</time>
   <time name="orth">    0.01    0.01</time>
   <time name="total">    0.99    1.01</time>
   <energy>
    <i name="e_fr_energy">   -355.50247309 </i>
    <i name="e_wo_entrp">   -355.52006543 </i>
    <i name="e_0_energy">   -355.50833721 </i>
   </energy>
  </scstep>
  <scstep>
   <time name="diag">    0.11    0.11</time>
   <time name="diis">    0.76    0.76</time>
   <time name="orth">    0.01    0.01</time>
   <time name="total">    0.95    0.97</time>
   <energy>
    <i name="e_fr_energy">   -355.52643512 </i>
    <i name="e_wo_entrp">   -355.54477800 </i>
    <i name="e_0_energy">   -355.53254941 </i>
   </energy>
  </scstep>
  <scstep>
   <time name="diag">    0.09    0.09</time>
   <time name="diis">    0.85    0.86</time>
   <time name="orth">    0.01    0.01</time>
   <time name="total">    1.02    1.04</time>
   <energy>
    <i name="e_fr_energy">   -355.49603852 </i>
    <i name="e_wo_entrp">   -355.51462543 </i>
    <i name="e_0_energy">   -355.50223416 </i>
   </energy>
  </scstep>
  <scstep>
   <time name="diag">    0.08    0.08</time>
   <time name="diis">    0.71    0.76</time>
   <time name="orth">    0.01    0.01</time>
   <time name="total">    0.87    0.93</time>
   <energy>
    <i name="e_fr_energy">   -355.48966505 </i>
    <i name="e_wo_entrp">   -355.50927283 </i>
    <i name="e_0_energy">   -355.49620097 </i>
   </energy>
  </scstep>
  <scstep>
   <time name="diag">    0.07    0.07</time>
   <time name="diis">    0.76    0.76</time>
   <time name="orth">    0.01    0.01</time>
   <time name="total">    0.91    0.92</time>
   <energy>
    <i name="e_fr_energy">   -355.48748100 </i>
    <i name="e_wo_entrp">   -355.50678658 </i>
    <i name="e_0_energy">   -355.49391619 </i>
   </energy>
  </scstep>
  <scstep>
   <time name="diag">    0.07    0.07</time>
   <time name="diis">    0.76    0.76</time>
   <time name="orth">    0.01    0.01</time>
   <time name="total">    0.91    0.93</time>
   <energy>
    <i name="e_fr_energy">   -355.48771981 </i>
    <i name="e_wo_entrp">   -355.50720917 </i>
    <i name="e_0_energy">   -355.49421627 </i>
   </energy>
  </scstep>
  <scstep>
   <time name="diag">    0.07    0.07</time>
   <time name="diis">    0.74    0.75</time>
   <time name="orth">    0.01    0.01</time>
   <time name="total">    0.90    0.92</time>
   <energy>
    <i name="e_fr_energy">   -355.48812424 </i>
    <i name="e_wo_entrp">   -355.50745445 </i>
    <i name="e_0_energy">   -355.49456764 </i>
   </energy>
  </scstep>
  <scstep>
   <time name="diag">    0.07    0.07</time>
   <time name="diis">    0.81    0.88</time>
   <time name="orth">    0.01    0.03</time>
   <time name="total">    0.96    1.10</time>
   <energy>
    <i name="e_fr_energy">   -355.48834403 </i>
    <i name="e_wo_entrp">   -355.50758342 </i>
    <i name="e_0_energy">   -355.49475716 </i>
   </energy>
  </scstep>
  <scstep>
   <time name="diag">    0.09    0.11</time>
   <time name="diis">    0.69    0.69</time>
   <time name="orth">    0.01    0.01</time>
   <time name="total">    0.86    0.95</time>
   <energy>
    <i name="e_fr_energy">   -355.48833113 </i>
    <i name="e_wo_entrp">   -355.50771574 </i>
    <i name="e_0_energy">   -355.49479267 </i>
   </energy>
  </scstep>
  <scstep>
   <time name="diag">    0.08    0.08</time>
   <time name="diis">    0.62    0.63</time>
   <time name="orth">    0.01    0.01</time>
   <time name="total">    0.78    0.80</time>
   <energy>
    <i name="e_fr_energy">   -355.48836461 </i>
    <i name="e_wo_entrp">   -355.50777095 </i>
    <i name="e_0_energy">   -355.49483339 </i>
   </energy>
  </scstep>
  <scstep>
   <time name="diag">    0.07    0.07</time>
   <time name="diis">    0.53    0.54</time>
   <time name="orth">    0.01    0.01</time>
   <time name="total">    0.68    0.70</time>
   <energy>
    <i name="e_fr_energy">   -355.48839105 </i>
    <i name="e_wo_entrp">   -355.50781967 </i>
    <i name="e_0_energy">   -355.49486726 </i>
   </energy>
  </scstep>
  <scstep>
   <time name="diag">    0.08    0.08</time>
   <time name="diis">    0.45    0.46</time>
   <time name="orth">    0.01    0.01</time>
   <time name="total">    0.61    0.64</time>
   <energy>
    <i name="e_fr_energy">   -355.48839772 </i>
    <i name="e_wo_entrp">   -355.50782078 </i>
    <i name="e_0_energy">   -355.49487207 </i>
   </energy>
  </scstep>
  <scstep>
   <time name="diag">    0.08    0.08</time>
   <time name="diis">    0.47    0.47</time>
   <time name="orth">    0.01    0.01</time>
   <time name="total">    0.62    0.64</time>
   <energy>
    <i name="alphaZ">   1408.55932360 </i>
    <i name="ewald"> -18380.67190303 </i>
    <i name="hartreedc">  -5867.43780536 </i>
    <i name="XCdc">   -356.39821333 </i>
    <i name="pawpsdc">  33106.18023045 </i>
    <i name="pawaedc"> -31477.31137605 </i>
    <i name="eentropy">      0.01941905 </i>
    <i name="bandstr">  -2429.59516648 </i>
    <i name="atom">  23641.16708936 </i>
    <i name="e_fr_energy">   -355.48840180 </i>
    <i name="e_wo_entrp">   -355.50782086 </i>
    <i name="e_0_energy">   -355.49487482 </i>
   </energy>
  </scstep>
  <structure>
   <crystal>
    <varray name="basis" >
     <v>       7.04021141       0.02078629       0.07206113 </v>
     <v>       0.03109214      10.29040465      -0.00131691 </v>
     <v>       0.10467470      -0.00160624      10.31635384 </v>
    </varray>
    <i name="volume">    747.30070152 </i>
    <varray name="rec_basis" >
     <v>       0.14205721      -0.00042941      -0.00144145 </v>
     <v>      -0.00028711       0.09717878       0.00001804 </v>
     <v>      -0.00099233       0.00001540       0.09694354 </v>
    </varray>
   </crystal>
   <varray name="positions" >
    <v>       0.49851000       0.67619100       0.00865300 </v>
    <v>       0.47639000       0.99900000       0.65057800 </v>
    <v>       0.29109100       0.17244800       0.85490000 </v>
    <v>       0.00004400       0.99870300       0.99920000 </v>
    <v>       0.02497900       0.99983100       0.68339100 </v>
    <v>       0.99519400       0.66696600       0.31668900 </v>
    <v>       0.51539400       0.99340300       0.33577800 </v>
    <v>       0.48858500       0.33091200       0.64422500 </v>
    <v>       0.97720400       0.32458700       0.00040300 </v>
    <v>       0.75224100       0.51167000       0.83590200 </v>
    <v>       0.46428100       0.67419700       0.65355700 </v>
    <v>       0.00378200       0.67649700       0.01150100 </v>
    <v>       0.74514100       0.83017600       0.15588600 </v>
    <v>       0.97111400       0.99390400       0.31819300 </v>
    <v>       0.24926200       0.83759100       0.16754400 </v>
    <v>       0.77095800       0.15449900       0.50068300 </v>
    <v>       0.21876500       0.50477300       0.50108400 </v>
    <v>       0.04188800       0.67697000       0.67403000 </v>
    <v>       0.73801900       0.51222200       0.14859300 </v>
    <v>       0.22144300       0.83741600       0.48228400 </v>
    <v>       0.72327200       0.16257000       0.83009100 </v>
    <v>       0.51140600       0.33652300       0.34018400 </v>
    <v>       0.01894500       0.32274100       0.67555200 </v>
    <v>       0.26226000       0.49494000       0.15473000 </v>
    <v>       0.97098400       0.33924800       0.32448300 </v>
    <v>       0.49543000       0.66650900       0.33646200 </v>
    <v>       0.21340000       0.15817600       0.47606000 </v>
    <v>       0.78249900       0.51338200       0.52415800 </v>
    <v>       0.77448600       0.83472500       0.51310600 </v>
    <v>       0.26317100       0.49836200       0.84449300 </v>
    <v>       0.25879900       0.16329800       0.16618700 </v>
    <v>       0.74846200       0.82523700       0.83286300 </v>
    <v>       0.73364600       0.16006800       0.16430300 </v>
    <v>       0.25932200       0.82831000       0.84941800 </v>
    <v>       0.53714600       0.33695800       0.01174400 </v>
    <v>       0.50246800       0.98700200       0.01308500 </v>
   </varray>
  </structure>
  <varray name="forces" >
   <v>      -0.22882318       0.12432829      -0.07670526 </v>
   <v>       0.01933798      -0.01744098       0.01090899 </v>
   <v>      -0.02816831       0.02344456      -0.00124821 </v>
   <v>       0.01110618      -0.02340239      -0.00412720 </v>
   <v>       0.00422070      -0.04720334       0.01025406 </v>
   <v>       0.01938773      -0.00344943      -0.03767657 </v>
   <v>      -0.00842375      -0.01011438      -0.00259192 </v>
   <v>      -0.01134873       0.01039619       0.00866891 </v>
   <v>      -0.00807912       0.01675462       0.01515965 </v>
   <v>       0.25583539      -0.19733170      -0.23593919 </v>
   <v>       0.03410088      -0.01022472       0.01770912 </v>
   <v>       0.05014908      -0.02278519      -0.03362818 </v>
   <v>       0.43283208       0.39360830       0.34374775 </v>
   <v>       0.00117694      -0.07093498      -0.05997514 </v>
   <v>      -0.33582258       0.36384544       0.32204000 </v>
   <v>      -0.00906894      -0.00989939       0.01035384 </v>
   <v>      -0.03902317      -0.02885705      -0.01597597 </v>
   <v>       0.01169790       0.01004399       0.00883271 </v>
   <v>       0.44661757      -0.44435621       0.31194246 </v>
   <v>      -0.03271898       0.02636058      -0.01317851 </v>
   <v>       0.02072092      -0.00686447      -0.00054283 </v>
   <v>       0.00324267       0.00202252      -0.00250357 </v>
   <v>       0.00507168       0.06108578       0.00780347 </v>
   <v>      -0.25204952      -0.36973296       0.22385755 </v>
   <v>      -0.01900666       0.05177989      -0.04586375 </v>
   <v>       0.00950710       0.01952752      -0.02056221 </v>
   <v>       0.00416565       0.00912412       0.01518234 </v>
   <v>       0.01529719       0.00832394      -0.00353037 </v>
   <v>      -0.00504687       0.02320404       0.01129864 </v>
   <v>      -0.19825047      -0.28896776      -0.17148360 </v>
   <v>      -0.02163532       0.01728817      -0.00256689 </v>
   <v>       0.21628761       0.15732339      -0.28258897 </v>
   <v>       0.03836466       0.02229660       0.05122407 </v>
   <v>      -0.33393541       0.33702870      -0.26792734 </v>
   <v>      -0.03517213      -0.01999154      -0.03111631 </v>
   <v>      -0.03254675      -0.10623015      -0.05925156 </v>
  </varray>
  <varray name="stress" >
   <v>       8.21258871      -0.69049966       0.20062187 </v>
   <v>      -0.69049968       6.72550771      -0.31321456 </v>
   <v>       0.20062188      -0.31321454       6.19532764 </v>
  </varray>
  <energy>
   <i name="e_fr_energy">   -355.48840180 </i>
   <i name="e_wo_entrp">   -355.49487482 </i>
   <i name="e_0_energy">      0.01941905 </i>
  </energy>
  <time name="totalsc">   21.57   22.70</time>
 </calculation>
 <calculation>
  <scstep>
   <time name="dav">    0.99    1.00</time>
   <time name="total">    1.12    1.19</time>
   <energy>
    <i name="alphaZ">   1402.99225130 </i>
    <i name="ewald"> -18357.39338325 </i>
    <i name="hartreedc">  -5858.85010638 </i>
    <i name="XCdc">   -357.48048761 </i>
    <i name="pawpsdc">  33106.19879655 </i>
    <i name="pawaedc"> -31477.33065337 </i>
    <i name="eentropy">      0.02060201 </i>
    <i name="bandstr">  -2454.88040789 </i>
    <i name="atom">  23641.16708936 </i>
    <i name="e_fr_energy">   -355.55629928 </i>
    <i name="e_wo_entrp">   -355.57690129 </i>
    <i name="e_0_energy">   -355.56316662 </i>
   </energy>
  </scstep>
  <scstep>
   <time name="diag">    0.07    0.08</time>
   <time name="diis">    0.72    0.73</time>
   <time name="orth">    0.01    0.01</time>
   <time name="total">    0.87    0.90</time>
   <energy>
    <i name="e_fr_energy">   -355.54069198 </i>
    <i name="e_wo_entrp">   -355.56023014 </i>
    <i name="e_0_energy">   -355.54720470 </i>
   </energy>
  </scstep>
  <scstep>
   <time name="diag">    0.08    0.08</time>
   <time name="diis">    0.76    0.76</time>
   <time name="orth">    0.01    0.01</time>
   <time name="total">    1.03    1.06</time>
   <energy>
    <i name="e_fr_energy">   -355.53538963 </i>
    <i name="e_wo_entrp">   -355.55600647 </i>
    <i name="e_0_energy">   -355.54226191 </i>
   </energy>
  </scstep>
  <scstep>
   <time name="diag">    0.08    0.08</time>
   <time name="diis">    0.86    0.87</time>
   <time name="orth">    0.01    0.01</time>
   <time name="total">    1.06    1.08</time>
   <energy>
    <i name="e_fr_energy">   -355.53025784 </i>
    <i name="e_wo_entrp">   -355.55087374 </i>
    <i name="e_0_energy">   -355.53712981 </i>
   </energy>
  </scstep>
  <scstep>
   <time name="diag">    0.08    0.08</time>
   <time name="diis">    0.75    0.76</time>
   <time name="orth">    0.01    0.01</time>
   <time name="total">    0.91    0.95</time>
   <energy>
    <i name="e_fr_energy">   -355.52983740 </i>
    <i name="e_wo_entrp">   -355.55009288 </i>
    <i name="e_0_energy">   -355.53658923 </i>
   </energy>
  </scstep>
  <scstep>
   <time name="diag">    0.07    0.07</time>
   <time name="diis">    0.78    0.84</time>
   <time name="orth">    0.01    0.01</time>
   <time name="total">    0.93    1.01</time>
   <energy>
    <i name="e_fr_energy">   -355.52985778 </i>
    <i name="e_wo_entrp">   -355.55029965 </i>
    <i name="e_0_energy">   -355.53667174 </i>
   </energy>
  </scstep>
  <scstep>
   <time name="diag">    0.10    0.12</time>
   <time name="diis">    0.68    0.69</time>
   <time name="orth">    0.01    0.01</time>
   <time name="total">    0.86    0.93</time>
   <energy>
    <i name="e_fr_energy">   -355.52987718 </i>
    <i name="e_wo_entrp">   -355.55025907 </i>
    <i name="e_0_energy">   -355.53667114 </i>
   </energy>
  </scstep>
  <scstep>
   <time name="diag">    0.07    0.07</time>
   <time name="diis">    0.66    0.66</time>
   <time name="orth">    0.01    0.01</time>
   <time name="total">    0.81    0.83</time>
   <energy>
    <i name="e_fr_energy">   -355.52989064 </i>
    <i name="e_wo_entrp">   -355.55028055 </i>
    <i name="e_0_energy">   -355.53668728 </i>
   </energy>
  </scstep>
  <scstep>
   <time name="diag">    0.07    0.07</time>
   <time name="diis">    0.63    0.63</time>
   <time name="orth">    0.01    0.01</time>
   <time name="total">    0.78    0.79</time>
   <energy>
    <i name="e_fr_energy">   -355.52990457 </i>
    <i name="e_wo_entrp">   -355.55029347 </i>
    <i name="e_0_energy">   -355.53670087 </i>
   </energy>
  </scstep>
  <scstep>
   <time name="diag">    0.08    0.08</time>
   <time name="diis">    0.53    0.54</time>
   <time name="orth">    0.01    0.01</time>
   <time name="total">    0.67    0.68</time>
   <energy>
    <i name="alphaZ">   1402.99225130 </i>
    <i name="ewald"> -18357.39338325 </i>
    <i name="hartreedc">  -5873.67552297 </i>
    <i name="XCdc">   -356.83036851 </i>
    <i name="pawpsdc">  32917.76148359 </i>
    <i name="pawaedc"> -31288.99146309 </i>
    <i name="eentropy">      0.02038111 </i>
    <i name="bandstr">  -2440.58037650 </i>
    <i name="atom">  23641.16708936 </i>
    <i name="e_fr_energy">   -355.52990898 </i>
    <i name="e_wo_entrp">   -355.55029008 </i>
    <i name="e_0_energy">   -355.53670268 </i>
   </energy>
  </scstep>
  <structure>
   <crystal>
    <varray name="basis" >
     <v>       7.05105321       0.01989671       0.07240847 </v>
     <v>       0.02980758      10.30337824      -0.00192165 </v>
     <v>       0.10522420      -0.00222772      10.32834252 </v>
    </varray>
    <i name="volume">    750.26599020 </i>
    <varray name="rec_basis" >
     <v>       0.14183878      -0.00041061      -0.00144513 </v>
     <v>      -0.00027412       0.09705634       0.00002373 </v>
     <v>      -0.00099443       0.00002094       0.09683109 </v>
    </varray>
   </crystal>
   <varray name="positions" >
    <v>       0.49804038       0.67636679       0.00854869 </v>
    <v>       0.47642964       0.99897539       0.65059302 </v>
    <v>       0.29103297       0.17248109       0.85489866 </v>
    <v>       0.00006707       0.99867004       0.99919404 </v>
    <v>       0.02498776       0.99976460       0.68340532 </v>
    <v>       0.99523467       0.66696106       0.31663586 </v>
    <v>       0.51537680       0.99338881       0.33577448 </v>
    <v>       0.48856142       0.33092667       0.64423733 </v>
    <v>       0.97718697       0.32461060       0.00042439 </v>
    <v>       0.75277314       0.51139134       0.83556725 </v>
    <v>       0.46435080       0.67418248       0.65358135 </v>
    <v>       0.00388595       0.67646474       0.01145309 </v>
    <v>       0.74602127       0.83072788       0.15636216 </v>
    <v>       0.97111811       0.99380421       0.31810882 </v>
    <v>       0.24856258       0.83810421       0.16800074 </v>
    <v>       0.77093920       0.15448512       0.50069765 </v>
    <v>       0.21868528       0.50473257       0.50106214 </v>
    <v>       0.04191180       0.67698408       0.67404223 </v>
    <v>       0.73893348       0.51159526       0.14902416 </v>
    <v>       0.22137584       0.83745321       0.48226599 </v>
    <v>       0.72331466       0.16256026       0.83008994 </v>
    <v>       0.51141271       0.33652583       0.34018044 </v>
    <v>       0.01895488       0.32282689       0.67556289 </v>
    <v>       0.26173942       0.49442110       0.15504762 </v>
    <v>       0.97094556       0.33932089       0.32441894 </v>
    <v>       0.49544985       0.66653642       0.33643302 </v>
    <v>       0.21340819       0.15818882       0.47608124 </v>
    <v>       0.78253047       0.51339364       0.52415283 </v>
    <v>       0.77447524       0.83475766       0.51312193 </v>
    <v>       0.26276878       0.49795636       0.84425518 </v>
    <v>       0.25875446       0.16332240       0.16618371 </v>
    <v>       0.74891160       0.82545729       0.83246344 </v>
    <v>       0.73372367       0.16009921       0.16437432 </v>
    <v>       0.25863894       0.82878533       0.84904696 </v>
    <v>       0.53707446       0.33693002       0.01170084 </v>
    <v>       0.50240298       0.98685271       0.01300231 </v>
   </varray>
  </structure>
  <varray name="forces" >
   <v>      -0.18920893       0.12315341      -0.03978516 </v>
   <v>       0.01264260      -0.00849598      -0.00121701 </v>
   <v>      -0.01736765       0.01853680       0.00243925 </v>
   <v>       0.00777679      -0.01501829      -0.00331369 </v>
   <v>       0.01527914      -0.02862520       0.00429169 </v>
   <v>       0.01836926       0.00284989      -0.03566270 </v>
   <v>      -0.00288090      -0.00407652       0.00290245 </v>
   <v>      -0.01154709       0.00062059      -0.00528080 </v>
   <v>      -0.02540722      -0.00066560       0.01291140 </v>
   <v>       0.22238009      -0.15681685      -0.18823026 </v>
   <v>       0.00976232      -0.01018916       0.02311372 </v>
   <v>       0.04986008      -0.00700097      -0.00942549 </v>
   <v>       0.38754284       0.33932865       0.28758525 </v>
   <v>      -0.00497566      -0.05839740      -0.04807112 </v>
   <v>      -0.31144730       0.32891332       0.29122420 </v>
   <v>      -0.00148716      -0.01472045       0.00336897 </v>
   <v>      -0.03514482      -0.01071939      -0.00565025 </v>
   <v>       0.03129621       0.01187507      -0.00866233 </v>
   <v>       0.37500780      -0.38524430       0.24197622 </v>
   <v>      -0.02553517       0.01499484      -0.01293930 </v>
   <v>       0.00998863      -0.00751242       0.00468185 </v>
   <v>       0.01366534      -0.00584405       0.00251920 </v>
   <v>       0.01085385       0.04288501      -0.00405236 </v>
   <v>      -0.22095147      -0.33139445       0.18663309 </v>
   <v>      -0.02772193       0.03819294      -0.02904271 </v>
   <v>       0.00732769       0.02332117      -0.02747071 </v>
   <v>      -0.00852027       0.00173313       0.01482407 </v>
   <v>       0.01975345       0.01624139      -0.00487979 </v>
   <v>      -0.00345444       0.01925298       0.00041958 </v>
   <v>      -0.17233913      -0.24826785      -0.14327123 </v>
   <v>      -0.00766279       0.01272157      -0.01155554 </v>
   <v>       0.19559804       0.11639840      -0.24244586 </v>
   <v>       0.02401269       0.01884516       0.04091818 </v>
   <v>      -0.30998001       0.28654426      -0.24547642 </v>
   <v>      -0.00765513      -0.00611799      -0.01270933 </v>
   <v>      -0.02782977      -0.11730170      -0.04066709 </v>
  </varray>
  <varray name="stress" >
   <v>       3.03306724      -0.52379956       0.08113541 </v>
   <v>      -0.52379960       1.48371099      -0.22278757 </v>
   <v>       0.08113546      -0.22278759       1.06806638 </v>
  </varray>
  <energy>
   <i name="e_fr_energy">   -355.52990898 </i>
   <i name="e_wo_entrp">   -355.53670268 </i>
   <i name="e_0_energy">      0.02038111 </i>
  </energy>
  <time name="totalsc">   10.58   11.02</time>
 </calculation>
 <calculation>
  <scstep>
   <time name="dav">    0.92    0.93</time>
   <time name="total">    1.05    1.12</time>
   <energy>
    <i name="alphaZ">   1387.19142613 </i>
    <i name="ewald"> -18290.14570520 </i>
    <i name="hartreedc">  -5849.75138447 </i>
    <i name="XCdc">   -359.92343739 </i>
    <i name="pawpsdc">  32917.28847533 </i>
    <i name="pawaedc"> -31288.61571052 </i>
    <i name="eentropy">      0.02341668 </i>
    <i name="bandstr">  -2513.02082464 </i>
    <i name="atom">  23641.16708936 </i>
    <i name="e_fr_energy">   -355.78665472 </i>
    <i name="e_wo_entrp">   -355.81007139 </i>
    <i name="e_0_energy">   -355.79446028 </i>
   </energy>
  </scstep>
  <scstep>
   <time name="diag">    0.07    0.08</time>
   <time name="diis">    0.72    0.73</time>
   <time name="orth">    0.01    0.01</time>
   <time name="total">    0.87    0.89</time>
   <energy>
    <i name="e_fr_energy">   -355.66085142 </i>
    <i name="e_wo_entrp">   -355.68091421 </i>
    <i name="e_0_energy">   -355.66753901 </i>
   </energy>
  </scstep>
  <scstep>
   <time name="diag">    0.08    0.08</time>
   <time name="diis">    0.78    0.78</time>
   <time name="orth">    0.01    0.01</time>
   <time name="total">    0.96    0.98</time>
   <energy>
    <i name="e_fr_energy">   -355.61370733 </i>
    <i name="e_wo_entrp">   -355.63702509 </i>
    <i name="e_0_energy">   -355.62147992 </i>
   </energy>
  </scstep>
  <scstep>
   <time name="diag">    0.14    0.14</time>
   <time name="diis">    0.76    0.77</time>
   <time name="orth">    0.01    0.01</time>
   <time name="total">    0.99    1.01</time>
   <energy>
    <i name="e_fr_energy">   -355.57219193 </i>
    <i name="e_wo_entrp">   -355.59589532 </i>
    <i name="e_0_energy">   -355.58009306 </i>
   </energy>
  </scstep>
  <scstep>
   <time name="diag">    0.08    0.08</time>
   <time name="diis">    0.74    0.74</time>
   <time name="orth">    0.01    0.01</time>
   <time name="total">    0.89    0.91</time>
   <energy>
    <i name="e_fr_energy">   -355.56834166 </i>
    <i name="e_wo_entrp">   -355.59093800 </i>
    <i name="e_0_energy">   -355.57587377 </i>
   </energy>
  </scstep>
  <scstep>
   <time name="diag">    0.07    0.08</time>
   <time name="diis">    0.80    0.80</time>
   <time name="orth">    0.01    0.01</time>
   <time name="total">    0.98    1.00</time>
   <energy>
    <i name="e_fr_energy">   -355.56876358 </i>
    <i name="e_wo_entrp">   -355.59186844 </i>
    <i name="e_0_energy">   -355.57646520 </i>
   </energy>
  </scstep>
  <scstep>
   <time name="diag">    0.13    0.13</time>
   <time name="diis">    0.86    0.86</time>
   <time name="orth">    0.01    0.01</time>
   <time name="total">    1.07    1.09</time>
   <energy>
    <i name="e_fr_energy">   -355.56915804 </i>
    <i name="e_wo_entrp">   -355.59211907 </i>
    <i name="e_0_energy">   -355.57681172 </i>
   </energy>
  </scstep>
  <scstep>
   <time name="diag">    0.11    0.11</time>
   <time name="diis">    0.85    0.85</time>
   <time name="orth">    0.01    0.01</time>
   <time name="total">    1.06    1.08</time>
   <energy>
    <i name="e_fr_energy">   -355.56937005 </i>
    <i name="e_wo_entrp">   -355.59235372 </i>
    <i name="e_0_energy">   -355.57703127 </i>
   </energy>
  </scstep>
  <scstep>
   <time name="diag">    0.07    0.07</time>
   <time name="diis">    0.87    0.87</time>
   <time name="orth">    0.02    0.03</time>
   <time name="total">    1.05    1.09</time>
   <energy>
    <i name="e_fr_energy">   -355.56954234 </i>
    <i name="e_wo_entrp">   -355.59252448 </i>
    <i name="e_0_energy">   -355.57720305 </i>
   </energy>
  </scstep>
  <scstep>
   <time name="diag">    0.08    0.10</time>
   <time name="diis">    0.69    0.70</time>
   <time name="orth">    0.01    0.01</time>
   <time name="total">    0.85    0.93</time>
   <energy>
    <i name="e_fr_energy">   -355.56966351 </i>
    <i name="e_wo_entrp">   -355.59262701 </i>
    <i name="e_0_energy">   -355.57731801 </i>
   </energy>
  </scstep>
  <scstep>
   <time name="diag">    0.08    0.08</time>
   <time name="diis">    0.60    0.61</time>
   <time name="orth">    0.01    0.01</time>
   <time name="total">    0.76    0.78</time>
   <energy>
    <i name="e_fr_energy">   -355.56968664 </i>
    <i name="e_wo_entrp">   -355.59269155 </i>
    <i name="e_0_energy">   -355.57735494 </i>
   </energy>
  </scstep>
  <scstep>
   <time name="diag">    0.07    0.07</time>
   <time name="diis">    0.54    0.61</time>
   <time name="orth">    0.01    0.01</time>
   <time name="total">    0.69    0.78</time>
   <energy>
    <i name="e_fr_energy">   -355.56969255 </i>
    <i name="e_wo_entrp">   -355.59266790 </i>
    <i name="e_0_energy">   -355.57735100 </i>
   </energy>
  </scstep>
  <scstep>
   <time name="diag">    0.08    0.08</time>
   <time name="diis">    0.52    0.53</time>
   <time name="orth">    0.01    0.02</time>
   <time name="total">    0.66    0.71</time>
   <energy>
    <i name="alphaZ">   1387.19142613 </i>
    <i name="ewald"> -18290.14570520 </i>
    <i name="hartreedc">  -5891.39041297 </i>
    <i name="XCdc">   -358.09843525 </i>
    <i name="pawpsdc">  32389.21167119 </i>
    <i name="pawaedc"> -30761.57581590 </i>
    <i name="eentropy">      0.02298585 </i>
    <i name="bandstr">  -2471.95249403 </i>
    <i name="atom">  23641.16708936 </i>
    <i name="e_fr_energy">   -355.56969081 </i>
    <i name="e_wo_entrp">   -355.59267666 </i>
    <i name="e_0_energy">   -355.57735276 </i>
   </energy>
  </scstep>
  <structure>
   <crystal>
    <varray name="basis" >
     <v>       7.08214198       0.01734586       0.07340447 </v>
     <v>       0.02612413      10.34057990      -0.00365574 </v>
     <v>       0.10679989      -0.00400981      10.36271996 </v>
    </varray>
    <i name="volume">    758.81190643 </i>
    <varray name="rec_basis" >
     <v>       0.14121618      -0.00035728      -0.00145554 </v>
     <v>      -0.00023727       0.09670699       0.00003987 </v>
     <v>      -0.00100039       0.00003665       0.09651009 </v>
    </varray>
   </crystal>
   <varray name="positions" >
    <v>       0.49669591       0.67687010       0.00825000 </v>
    <v>       0.47654311       0.99890493       0.65063605 </v>
    <v>       0.29086683       0.17257584       0.85489483 </v>
    <v>       0.00013309       0.99857565       0.99917698 </v>
    <v>       0.02501279       0.99957443       0.68344631 </v>
    <v>       0.99535111       0.66694691       0.31648365 </v>
    <v>       0.51532754       0.99334816       0.33576441 </v>
    <v>       0.48849392       0.33096868       0.64427264 </v>
    <v>       0.97713822       0.32467819       0.00048566 </v>
    <v>       0.75429660       0.51059336       0.83460839 </v>
    <v>       0.46455065       0.67414093       0.65365110 </v>
    <v>       0.00418355       0.67637236       0.01131587 </v>
    <v>       0.74854177       0.83230871       0.15772601 </v>
    <v>       0.97112985       0.99351842       0.31786770 </v>
    <v>       0.24656028       0.83957388       0.16930905 </v>
    <v>       0.77088536       0.15444536       0.50073963 </v>
    <v>       0.21845703       0.50461677       0.50099952 </v>
    <v>       0.04197996       0.67702441       0.67407725 </v>
    <v>       0.74155132       0.50980067       0.15025889 </v>
    <v>       0.22118359       0.83755974       0.48221440 </v>
    <v>       0.72343678       0.16253237       0.83008690 </v>
    <v>       0.51143191       0.33653394       0.34017025 </v>
    <v>       0.01898323       0.32307289       0.67559409 </v>
    <v>       0.26024863       0.49293494       0.15595728 </v>
    <v>       0.97083555       0.33952963       0.32423546 </v>
    <v>       0.49550672       0.66661495       0.33635001 </v>
    <v>       0.21343165       0.15822554       0.47614209 </v>
    <v>       0.78262059       0.51342699       0.52413802 </v>
    <v>       0.77444446       0.83485119       0.51316756 </v>
    <v>       0.26161700       0.49679451       0.84357400 </v>
    <v>       0.25862697       0.16339228       0.16617431 </v>
    <v>       0.75019902       0.82608824       0.83131906 </v>
    <v>       0.73394605       0.16018864       0.16457861 </v>
    <v>       0.25668358       0.83014638       0.84798435 </v>
    <v>       0.53686963       0.33684987       0.01157723 </v>
    <v>       0.50221676       0.98642514       0.01276546 </v>
   </varray>
  </structure>
  <varray name="forces" >
   <v>      -0.08764365       0.12276877       0.05328307 </v>
   <v>      -0.00646703       0.01501123      -0.03359933 </v>
   <v>       0.01303416       0.00510108       0.01415543 </v>
   <v>      -0.00294425       0.00514336       0.00126922 </v>
   <v>       0.04567944       0.02407751      -0.01617445 </v>
   <v>       0.01564745       0.01870576      -0.03111318 </v>
   <v>       0.01050955       0.01302811       0.01735391 </v>
   <v>      -0.01303043      -0.02520247      -0.04363530 </v>
   <v>      -0.07284197      -0.04623242       0.00616473 </v>
   <v>       0.13181986      -0.04706883      -0.05915251 </v>
   <v>      -0.05710505      -0.00950085       0.03600101 </v>
   <v>       0.05129518       0.03489569       0.05106030 </v>
   <v>       0.26419382       0.19733997       0.13854036 </v>
   <v>      -0.01799126      -0.01955713      -0.01246369 </v>
   <v>      -0.24556244       0.23206166       0.20973370 </v>
   <v>       0.01946709      -0.02828561      -0.01528828 </v>
   <v>      -0.02343729       0.03948629       0.02155139 </v>
   <v>       0.08536944       0.01679769      -0.05435869 </v>
   <v>       0.18468171      -0.23066937       0.05794247 </v>
   <v>      -0.00636457      -0.01443121      -0.01430503 </v>
   <v>      -0.02416193      -0.00846244       0.02155170 </v>
   <v>       0.04210193      -0.02753343       0.01160575 </v>
   <v>       0.02622523      -0.00827798      -0.04171734 </v>
   <v>      -0.13570233      -0.22640704       0.08321257 </v>
   <v>      -0.05017622      -0.00403240       0.02205535 </v>
   <v>       0.00160640       0.03435261      -0.04718277 </v>
   <v>      -0.04740624      -0.01873282       0.01318224 </v>
   <v>       0.03369299       0.03914780      -0.00806464 </v>
   <v>       0.00198879       0.00936263      -0.02973919 </v>
   <v>      -0.10037530      -0.13503104      -0.06164899 </v>
   <v>       0.03442606      -0.00051269      -0.03586828 </v>
   <v>       0.13862844       0.00618156      -0.12986604 </v>
   <v>      -0.01852232       0.00937705       0.01081001 </v>
   <v>      -0.24291014       0.14890970      -0.18413148 </v>
   <v>       0.06582799       0.02486857       0.03973003 </v>
   <v>      -0.01355315      -0.14667931       0.00910596 </v>
  </varray>
  <varray name="stress" >
   <v>     -11.70528062      -0.03324284      -0.26048023 </v>
   <v>      -0.03324281     -13.33239469       0.00793186 </v>
   <v>      -0.26048024       0.00793190     -13.46820945 </v>
  </varray>
  <energy>
   <i name="e_fr_energy">   -355.56969081 </i>
   <i name="e_wo_entrp">   -355.57735276 </i>
   <i name="e_0_energy">      0.02298585 </i>
  </energy>
  <time name="totalsc">   13.52   14.11</time>
 </calculation>
 <calculation>
  <scstep>
   <time name="dav">    0.90    0.91</time>
   <time name="total">    1.03    1.10</time>
   <energy>
    <i name="alphaZ">   1389.22729143 </i>
    <i name="ewald"> -18299.73633462 </i>
    <i name="hartreedc">  -5893.67282098 </i>
    <i name="XCdc">   -357.70154236 </i>
    <i name="pawpsdc">  32388.58123914 </i>
    <i name="pawaedc"> -30760.96508015 </i>
    <i name="eentropy">      0.02305028 </i>
    <i name="bandstr">  -2462.52107775 </i>
    <i name="atom">  23641.16708936 </i>
    <i name="e_fr_energy">   -355.59818564 </i>
    <i name="e_wo_entrp">   -355.62123592 </i>
    <i name="e_0_energy">   -355.60586907 </i>
   </energy>
  </scstep>
  <scstep>
   <time name="diag">    0.08    0.08</time>
   <time name="diis">    0.73    0.73</time>
   <time name="orth">    0.01    0.01</time>
   <time name="total">    0.88    0.93</time>
   <energy>
    <i name="e_fr_energy">   -355.59979747 </i>
    <i name="e_wo_entrp">   -355.62365218 </i>
    <i name="e_0_energy">   -355.60774904 </i>
   </energy>
  </scstep>
  <scstep>
   <time name="diag">    0.07    0.07</time>
   <time name="diis">    0.74    0.75</time>
   <time name="orth">    0.01    0.01</time>
   <time name="total">    0.90    0.92</time>
   <energy>
    <i name="e_fr_energy">   -355.59865813 </i>
    <i name="e_wo_entrp">   -355.62174878 </i>
    <i name="e_0_energy">   -355.60635501 </i>
   </energy>
  </scstep>
  <scstep>
   <time name="diag">    0.08    0.08</time>
   <time name="diis">    0.81    0.82</time>
   <time name="orth">    0.01    0.01</time>
   <time name="total">    1.00    1.03</time>
   <energy>
    <i name="e_fr_energy">   -355.59774525 </i>
    <i name="e_wo_entrp">   -355.62117314 </i>
    <i name="e_0_energy">   -355.60555455 </i>
   </energy>
  </scstep>
  <scstep>
   <time name="diag">    0.10    0.10</time>
   <time name="diis">    0.81    0.82</time>
   <time name="orth">    0.01    0.01</time>
   <time name="total">    0.99    1.01</time>
   <energy>
    <i name="e_fr_energy">   -355.59766756 </i>
    <i name="e_wo_entrp">   -355.62108320 </i>
    <i name="e_0_energy">   -355.60547278 </i>
   </energy>
  </scstep>
  <scstep>
   <time name="diag">    0.08    0.08</time>
   <time name="diis">    0.71    0.72</time>
   <time name="orth">    0.01    0.01</time>
   <time name="total">    0.86    0.88</time>
   <energy>
    <i name="e_fr_energy">   -355.59769630 </i>
    <i name="e_wo_entrp">   -355.62106932 </i>
    <i name="e_0_energy">   -355.60548730 </i>
   </energy>
  </scstep>
  <scstep>
   <time name="diag">    0.07    0.08</time>
   <time name="diis">    0.65    0.65</time>
   <time name="orth">    0.01    0.01</time>
   <time name="total">    0.80    0.82</time>
   <energy>
    <i name="e_fr_energy">   -355.59769804 </i>
    <i name="e_wo_entrp">   -355.62106805 </i>
    <i name="e_0_energy">   -355.60548804 </i>
   </energy>
  </scstep>
  <scstep>
   <time name="diag">    0.08    0.08</time>
   <time name="diis">    0.51    0.51</time>
   <time name="orth">    0.01    0.01</time>
   <time name="total">    0.66    0.68</time>
   <energy>
    <i name="e_fr_energy">   -355.59771191 </i>
    <i name="e_wo_entrp">   -355.62109913 </i>
    <i name="e_0_energy">   -355.60550765 </i>
   </energy>
  </scstep>
  <scstep>
   <time name="diag">    0.07    0.07</time>
   <time name="diis">    0.47    0.47</time>
   <time name="orth">    0.01    0.01</time>
   <time name="total">    0.59    0.61</time>
   <energy>
    <i name="alphaZ">   1389.22729143 </i>
    <i name="ewald"> -18299.73633462 </i>
    <i name="hartreedc">  -5887.97667848 </i>
    <i name="XCdc">   -357.94687734 </i>
    <i name="pawpsdc">  32449.85593857 </i>
    <i name="pawaedc"> -30822.33145346 </i>
    <i name="eentropy">      0.02338162 </i>
    <i name="bandstr">  -2467.88007808 </i>
    <i name="atom">  23641.16708936 </i>
    <i name="e_fr_energy">   -355.59772100 </i>
    <i name="e_wo_entrp">   -355.62110262 </i>
    <i name="e_0_energy">   -355.60551488 </i>
   </energy>
  </scstep>
  <structure>
   <crystal>
    <varray name="basis" >
     <v>       7.08092477       0.01655377       0.07334490 </v>
     <v>       0.02498332      10.33439019      -0.00413959 </v>
     <v>       0.10677081      -0.00450656      10.35550576 </v>
    </varray>
    <i name="volume">    757.69989342 </i>
    <varray name="rec_basis" >
     <v>       0.14124038      -0.00034203      -0.00145641 </v>
     <v>      -0.00022668       0.09676486       0.00004445 </v>
     <v>      -0.00100045       0.00004110       0.09657732 </v>
    </varray>
   </crystal>
   <varray name="positions" >
    <v>       0.49619838       0.67712342       0.00821381 </v>
    <v>       0.47656722       0.99889842       0.65061821 </v>
    <v>       0.29083659       0.17260730       0.85490631 </v>
    <v>       0.00014791       0.99855347       0.99917329 </v>
    <v>       0.02507992       0.99954194       0.68344303 </v>
    <v>       0.99540504       0.66695964       0.31641238 </v>
    <v>       0.51532706       0.99334830       0.33577700 </v>
    <v>       0.48845835       0.33095799       0.64424368 </v>
    <v>       0.97702892       0.32465603       0.00050925 </v>
    <v>       0.75490271       0.51032420       0.83428165 </v>
    <v>       0.46453200       0.67412075       0.65370371 </v>
    <v>       0.00433447       0.67637738       0.01132218 </v>
    <v>       0.74960121       0.83293465       0.15823529 </v>
    <v>       0.97110978       0.99341971       0.31778817 </v>
    <v>       0.24566653       0.84020026       0.16987120 </v>
    <v>       0.77089591       0.15440861       0.50073766 </v>
    <v>       0.21836107       0.50461938       0.50100128 </v>
    <v>       0.04211196       0.67705075       0.67403768 </v>
    <v>       0.74253610       0.50908366       0.15065969 </v>
    <v>       0.22112094       0.83757703       0.48218699 </v>
    <v>       0.72343947       0.16251692       0.83010557 </v>
    <v>       0.51149252       0.33651142       0.34017736 </v>
    <v>       0.01902630       0.32313525       0.67556533 </v>
    <v>       0.25964694       0.49230976       0.15629144 </v>
    <v>       0.97073827       0.33958539       0.32420358 </v>
    <v>       0.49552550       0.66666808       0.33628414 </v>
    <v>       0.21337601       0.15821925       0.47617163 </v>
    <v>       0.78269034       0.51347156       0.52412628 </v>
    <v>       0.77443872       0.83488615       0.51315386 </v>
    <v>       0.26115964       0.49634333       0.84332607 </v>
    <v>       0.25863644       0.16341157       0.16613917 </v>
    <v>       0.75074808       0.82627267       0.83087626 </v>
    <v>       0.73398469       0.16022253       0.16464651 </v>
    <v>       0.25581234       0.83066696       0.84751983 </v>
    <v>       0.53689722       0.33684929       0.01157713 </v>
    <v>       0.50214645       0.98617196       0.01270639 </v>
   </varray>
  </structure>
  <varray name="forces" >
   <v>      -0.06003281       0.10948879       0.06964903 </v>
   <v>      -0.00532857       0.02314371      -0.03476132 </v>
   <v>       0.01228448      -0.00105721       0.01157410 </v>
   <v>      -0.00837910       0.02102443      -0.00582949 </v>
   <v>       0.04442894       0.04988730      -0.02326808 </v>
   <v>       0.01055336       0.01553331      -0.01711837 </v>
   <v>       0.00261735       0.02058993       0.02585903 </v>
   <v>      -0.00582698      -0.03061791      -0.04749823 </v>
   <v>      -0.06601311      -0.06158164      -0.00331944 </v>
   <v>       0.09501844      -0.01017558      -0.02592667 </v>
   <v>      -0.05028149      -0.01397690       0.04427423 </v>
   <v>       0.05542241       0.03323933       0.04989231 </v>
   <v>       0.21074632       0.14314910       0.09889682 </v>
   <v>      -0.00718101       0.00564970       0.00425343 </v>
   <v>      -0.21333662       0.19175203       0.18512236 </v>
   <v>       0.01290595      -0.02093579      -0.01436986 </v>
   <v>      -0.00058303       0.04271434       0.01284030 </v>
   <v>       0.07415844       0.01100592      -0.05413683 </v>
   <v>       0.12599018      -0.17478172       0.01983638 </v>
   <v>       0.01498107      -0.02303707      -0.01350256 </v>
   <v>      -0.02712607      -0.01050312       0.01814066 </v>
   <v>       0.04265777      -0.03120422       0.01751361 </v>
   <v>       0.02328033      -0.02413674      -0.04659107 </v>
   <v>      -0.10873889      -0.18638544       0.05567554 </v>
   <v>      -0.04558449      -0.02109585       0.03776098 </v>
   <v>       0.00634295       0.03055099      -0.04705984 </v>
   <v>      -0.04542016      -0.01547934       0.01140281 </v>
   <v>       0.01853950       0.04267060      -0.01564388 </v>
   <v>      -0.01282863      -0.00013029      -0.03977511 </v>
   <v>      -0.07426797      -0.09933983      -0.03262494 </v>
   <v>       0.04202926       0.00034617      -0.03826356 </v>
   <v>       0.11398463      -0.02611243      -0.09594577 </v>
   <v>      -0.02730216       0.01222324       0.00617379 </v>
   <v>      -0.20747233       0.10443703      -0.16225867 </v>
   <v>       0.06671309       0.02854631       0.04098664 </v>
   <v>      -0.00695105      -0.13540117       0.00804164 </v>
  </varray>
  <varray name="stress" >
   <v>     -10.19124156       0.09847165      -0.41138853 </v>
   <v>       0.09847162     -11.72468772       0.09831702 </v>
   <v>      -0.41138852       0.09831702     -11.81003174 </v>
  </varray>
  <energy>
   <i name="e_fr_energy">   -355.59772100 </i>
   <i name="e_wo_entrp">   -355.60551488 </i>
   <i name="e_0_energy">      0.02338162 </i>
  </energy>
  <time name="totalsc">    9.34    9.66</time>
 </calculation>
 <calculation>
  <scstep>
   <time name="dav">    0.84    0.99</time>
   <time name="total">    0.97    1.22</time>
   <energy>
    <i name="alphaZ">   1395.36038923 </i>
    <i name="ewald"> -18327.47208288 </i>
    <i name="hartreedc">  -5895.79864166 </i>
    <i name="XCdc">   -356.75091078 </i>
    <i name="pawpsdc">  32450.11760960 </i>
    <i name="pawaedc"> -30822.56123814 </i>
    <i name="eentropy">      0.02325783 </i>
    <i name="bandstr">  -2439.73418012 </i>
    <i name="atom">  23641.16708936 </i>
    <i name="e_fr_energy">   -355.64870758 </i>
    <i name="e_wo_entrp">   -355.67196540 </i>
    <i name="e_0_energy">   -355.65646018 </i>
   </energy>
  </scstep>
  <scstep>
   <time name="diag">    0.09    0.09</time>
   <time name="diis">    0.75    0.75</time>
   <time name="orth">    0.01    0.01</time>
   <time name="total">    0.95    0.98</time>
   <energy>
    <i name="e_fr_energy">   -355.66312403 </i>
    <i name="e_wo_entrp">   -355.68855587 </i>
    <i name="e_0_energy">   -355.67160131 </i>
   </energy>
  </scstep>
  <scstep>
   <time name="diag">    0.07    0.07</time>
   <time name="diis">    0.74    0.74</time>
   <time name="orth">    0.01    0.01</time>
   <time name="total">    0.89    0.91</time>
   <energy>
    <i name="e_fr_energy">   -355.65272855 </i>
    <i name="e_wo_entrp">   -355.67599666 </i>
    <i name="e_0_energy">   -355.66048459 </i>
   </energy>
  </scstep>
  <scstep>
   <time name="diag">    0.08    0.08</time>
   <time name="diis">    0.75    0.76</time>
   <time name="orth">    0.01    0.01</time>
   <time name="total">    0.91    0.93</time>
   <energy>
    <i name="e_fr_energy">   -355.64452442 </i>
    <i name="e_wo_entrp">   -355.66878155 </i>
    <i name="e_0_energy">   -355.65261013 </i>
   </energy>
  </scstep>
  <scstep>
   <time name="diag">    0.08    0.08</time>
   <time name="diis">    0.82    0.83</time>
   <time name="orth">    0.01    0.01</time>
   <time name="total">    0.98    1.00</time>
   <energy>
    <i name="e_fr_energy">   -355.64393820 </i>
    <i name="e_wo_entrp">   -355.66819860 </i>
    <i name="e_0_energy">   -355.65202500 </i>
   </energy>
  </scstep>
  <scstep>
   <time name="diag">    0.08    0.08</time>
   <time name="diis">    0.81    0.82</time>
   <time name="orth">    0.01    0.01</time>
   <time name="total">    0.97    0.99</time>
   <energy>
    <i name="e_fr_energy">   -355.64416621 </i>
    <i name="e_wo_entrp">   -355.66827387 </i>
    <i name="e_0_energy">   -355.65220210 </i>
   </energy>
  </scstep>
  <scstep>
   <time name="diag">    0.08    0.08</time>
   <time name="diis">    0.81    0.82</time>
   <time name="orth">    0.01    0.01</time>
   <time name="total">    0.97    0.99</time>
   <energy>
    <i name="e_fr_energy">   -355.64415519 </i>
    <i name="e_wo_entrp">   -355.66828327 </i>
    <i name="e_0_energy">   -355.65219788 </i>
   </energy>
  </scstep>
  <scstep>
   <time name="diag">    0.08    0.08</time>
   <time name="diis">    0.71    0.71</time>
   <time name="orth">    0.01    0.01</time>
   <time name="total">    0.86    0.88</time>
   <energy>
    <i name="e_fr_energy">   -355.64425787 </i>
    <i name="e_wo_entrp">   -355.66842864 </i>
    <i name="e_0_energy">   -355.65231479 </i>
   </energy>
  </scstep>
  <scstep>
   <time name="diag">    0.07    0.07</time>
   <time name="diis">    0.66    0.67</time>
   <time name="orth">    0.01    0.01</time>
   <time name="total">    0.81    0.83</time>
   <energy>
    <i name="e_fr_energy">   -355.64430993 </i>
    <i name="e_wo_entrp">   -355.66845739 </i>
    <i name="e_0_energy">   -355.65235908 </i>
   </energy>
  </scstep>
  <scstep>
   <time name="diag">    0.07    0.07</time>
   <time name="diis">    0.67    0.69</time>
   <time name="orth">    0.01    0.01</time>
   <time name="total">    0.82    0.86</time>
   <energy>
    <i name="e_fr_energy">   -355.64433314 </i>
    <i name="e_wo_entrp">   -355.66848414 </i>
    <i name="e_0_energy">   -355.65238347 </i>
   </energy>
  </scstep>
  <scstep>
   <time name="diag">    0.10    0.11</time>
   <time name="diis">    0.51    0.51</time>
   <time name="orth">    0.01    0.01</time>
   <time name="total">    0.69    0.72</time>
   <energy>
    <i name="e_fr_energy">   -355.64434389 </i>
    <i name="e_wo_entrp">   -355.66850855 </i>
    <i name="e_0_energy">   -355.65239878 </i>
   </energy>
  </scstep>
  <scstep>
   <time name="diag">    0.07    0.07</time>
   <time name="diis">    0.40    0.40</time>
   <time name="orth">    0.01    0.01</time>
   <time name="total">    0.52    0.54</time>
   <energy>
    <i name="alphaZ">   1395.36038923 </i>
    <i name="ewald"> -18327.47208288 </i>
    <i name="hartreedc">  -5879.50634524 </i>
    <i name="XCdc">   -357.45643421 </i>
    <i name="pawpsdc">  32654.42028205 </i>
    <i name="pawaedc"> -31026.46028554 </i>
    <i name="eentropy">      0.02415441 </i>
    <i name="bandstr">  -2455.72111493 </i>
    <i name="atom">  23641.16708936 </i>
    <i name="e_fr_energy">   -355.64434776 </i>
    <i name="e_wo_entrp">   -355.66850217 </i>
    <i name="e_0_energy">   -355.65239923 </i>
   </energy>
  </scstep>
  <structure>
   <crystal>
    <varray name="basis" >
     <v>       7.07727312       0.01417751       0.07316619 </v>
     <v>       0.02156090      10.31582105      -0.00559115 </v>
     <v>       0.10668357      -0.00599680      10.33386315 </v>
    </varray>
    <i name="volume">    754.36953692 </i>
    <varray name="rec_basis" >
     <v>       0.14131304      -0.00029615      -0.00145904 </v>
     <v>      -0.00019479       0.09693892       0.00005827 </v>
     <v>      -0.00100064       0.00005455       0.09677959 </v>
    </varray>
   </crystal>
   <varray name="positions" >
    <v>       0.49470566       0.67788371       0.00810519 </v>
    <v>       0.47663957       0.99887886       0.65056467 </v>
    <v>       0.29074585       0.17270172       0.85494080 </v>
    <v>       0.00019239       0.99848690       0.99916222 </v>
    <v>       0.02528131       0.99944444       0.68343318 </v>
    <v>       0.99556687       0.66699788       0.31619842 </v>
    <v>       0.51532563       0.99334871       0.33581483 </v>
    <v>       0.48835163       0.33092587       0.64415672 </v>
    <v>       0.97670096       0.32458947       0.00058009 </v>
    <v>       0.75672125       0.50951633       0.83330074 </v>
    <v>       0.46447602       0.67406018       0.65386164 </v>
    <v>       0.00478731       0.67639251       0.01134112 </v>
    <v>       0.75278037       0.83481392       0.15976430 </v>
    <v>       0.97104953       0.99312339       0.31754941 </v>
    <v>       0.24298510       0.84208040       0.17155888 </v>
    <v>       0.77092754       0.15429830       0.50073173 </v>
    <v>       0.21807317       0.50462722       0.50100657 </v>
    <v>       0.04250803       0.67712985       0.67391892 </v>
    <v>       0.74549060       0.50693163       0.15186281 </v>
    <v>       0.22093297       0.83762891       0.48210469 </v>
    <v>       0.72344756       0.16247055       0.83016162 </v>
    <v>       0.51167436       0.33644385       0.34019869 </v>
    <v>       0.01915555       0.32332245       0.67547898 </v>
    <v>       0.25784124       0.49043301       0.15729453 </v>
    <v>       0.97044642       0.33975275       0.32410789 </v>
    <v>       0.49558189       0.66682758       0.33608638 </v>
    <v>       0.21320907       0.15820038       0.47626030 </v>
    <v>       0.78289965       0.51360534       0.52409105 </v>
    <v>       0.77442150       0.83499108       0.51311272 </v>
    <v>       0.25978708       0.49498884       0.84258171 </v>
    <v>       0.25866486       0.16346946       0.16603368 </v>
    <v>       0.75239565       0.82682636       0.82954696 </v>
    <v>       0.73410064       0.16032428       0.16485035 </v>
    <v>       0.25319840       0.83222937       0.84612535 </v>
    <v>       0.53697999       0.33684756       0.01157681 </v>
    <v>       0.50193536       0.98541196       0.01252903 </v>
   </varray>
  </structure>
  <varray name="forces" >
   <v>       0.01702388       0.07265417       0.10570218 </v>
   <v>      -0.00044147       0.04583326      -0.03547404 </v>
   <v>       0.01116798      -0.02126830       0.00447060 </v>
   <v>      -0.02620159       0.06872221      -0.02877397 </v>
   <v>       0.03805175       0.13185294      -0.04711915 </v>
   <v>      -0.00483978       0.00272352       0.02807428 </v>
   <v>      -0.02062861       0.04551000       0.05301647 </v>
   <v>       0.01548952      -0.04676197      -0.05782994 </v>
   <v>      -0.04558853      -0.10871408      -0.03261279 </v>
   <v>      -0.01549156       0.09912465       0.07191170 </v>
   <v>      -0.02952892      -0.02698616       0.06985943 </v>
   <v>       0.06842626       0.02620626       0.03621893 </v>
   <v>       0.04298182      -0.02165360      -0.02495504 </v>
   <v>       0.02890925       0.09772057       0.06940951 </v>
   <v>      -0.10971843       0.06674771       0.10321635 </v>
   <v>      -0.00627299       0.00105688      -0.01220335 </v>
   <v>       0.06911690       0.05434601      -0.01361245 </v>
   <v>       0.04086635      -0.00559589      -0.05129400 </v>
   <v>      -0.05037960      -0.01021040      -0.08911255 </v>
   <v>       0.07975825      -0.04890110      -0.00601759 </v>
   <v>      -0.03695419      -0.01706290       0.00939281 </v>
   <v>       0.04387631      -0.04111310       0.03562781 </v>
   <v>       0.01429109      -0.07535309      -0.06439552 </v>
   <v>      -0.02485152      -0.06258183      -0.02555591 </v>
   <v>      -0.03005481      -0.07919900       0.09222057 </v>
   <v>       0.01966252       0.01764387      -0.04669293 </v>
   <v>      -0.04001276      -0.00706496       0.00477730 </v>
   <v>      -0.02913420       0.05357306      -0.03874981 </v>
   <v>      -0.05922327      -0.02788486      -0.06964716 </v>
   <v>       0.00647297       0.01383125       0.05345915 </v>
   <v>       0.06772702       0.00204419      -0.04424015 </v>
   <v>       0.03556573      -0.12271964       0.01065607 </v>
   <v>      -0.05538419       0.01884498      -0.00876543 </v>
   <v>      -0.09819289      -0.02933090      -0.09559333 </v>
   <v>       0.06823870       0.03665023       0.04358555 </v>
   <v>       0.01527298      -0.10268399       0.00104643 </v>
  </varray>
  <varray name="stress" >
   <v>      -4.92521059       0.49031015      -0.86114971 </v>
   <v>       0.49031017      -6.08868171       0.36782675 </v>
   <v>      -0.86114968       0.36782676      -6.04232628 </v>
  </varray>
  <energy>
   <i name="e_fr_energy">   -355.64434776 </i>
   <i name="e_wo_entrp">   -355.65239923 </i>
   <i name="e_0_energy">      0.02415441 </i>
  </energy>
  <time name="totalsc">   11.86   12.41</time>
 </calculation>
 <calculation>
  <scstep>
   <time name="dav">    0.98    0.99</time>
   <time name="total">    1.11    1.20</time>
   <energy>
    <i name="alphaZ">   1397.25683888 </i>
    <i name="ewald"> -18335.69870723 </i>
    <i name="hartreedc">  -5882.20069403 </i>
    <i name="XCdc">   -357.08657472 </i>
    <i name="pawpsdc">  32654.85470734 </i>
    <i name="pawaedc"> -31026.88323513 </i>
    <i name="eentropy">      0.02402658 </i>
    <i name="bandstr">  -2447.08071230 </i>
    <i name="atom">  23641.16708936 </i>
    <i name="e_fr_energy">   -355.64726124 </i>
    <i name="e_wo_entrp">   -355.67128782 </i>
    <i name="e_0_energy">   -355.65527010 </i>
   </energy>
  </scstep>
  <scstep>
   <time name="diag">    0.07    0.07</time>
   <time name="diis">    0.72    0.73</time>
   <time name="orth">    0.01    0.01</time>
   <time name="total">    0.91    0.93</time>
   <energy>
    <i name="e_fr_energy">   -355.64866588 </i>
    <i name="e_wo_entrp">   -355.67329944 </i>
    <i name="e_0_energy">   -355.65687706 </i>
   </energy>
  </scstep>
  <scstep>
   <time name="diag">    0.08    0.14</time>
   <time name="diis">    0.75    0.77</time>
   <time name="orth">    0.01    0.01</time>
   <time name="total">    0.92    1.04</time>
   <energy>
    <i name="e_fr_energy">   -355.64777947 </i>
    <i name="e_wo_entrp">   -355.67178852 </i>
    <i name="e_0_energy">   -355.65578248 </i>
   </energy>
  </scstep>
  <scstep>
   <time name="diag">    0.07    0.07</time>
   <time name="diis">    0.75    0.76</time>
   <time name="orth">    0.01    0.01</time>
   <time name="total">    0.90    0.92</time>
   <energy>
    <i name="e_fr_energy">   -355.64704411 </i>
    <i name="e_wo_entrp">   -355.67134133 </i>
    <i name="e_0_energy">   -355.65514318 </i>
   </energy>
  </scstep>
  <scstep>
   <time name="diag">    0.07    0.08</time>
   <time name="diis">    0.75    0.76</time>
   <time name="orth">    0.01    0.01</time>
   <time name="total">    0.91    0.93</time>
   <energy>
    <i name="e_fr_energy">   -355.64699628 </i>
    <i name="e_wo_entrp">   -355.67128821 </i>
    <i name="e_0_energy">   -355.65509359 </i>
   </energy>
  </scstep>
  <scstep>
   <time name="diag">    0.07    0.07</time>
   <time name="diis">    0.71    0.71</time>
   <time name="orth">    0.01    0.01</time>
   <time name="total">    0.86    0.88</time>
   <energy>
    <i name="e_fr_energy">   -355.64702527 </i>
    <i name="e_wo_entrp">   -355.67127313 </i>
    <i name="e_0_energy">   -355.65510789 </i>
   </energy>
  </scstep>
  <scstep>
   <time name="diag">    0.07    0.07</time>
   <time name="diis">    0.63    0.63</time>
   <time name="orth">    0.01    0.01</time>
   <time name="total">    0.80    0.82</time>
   <energy>
    <i name="e_fr_energy">   -355.64703260 </i>
    <i name="e_wo_entrp">   -355.67128835 </i>
    <i name="e_0_energy">   -355.65511785 </i>
   </energy>
  </scstep>
  <scstep>
[...]
       <r>    6.4739    1.0000 </r>
       <r>    6.5483    1.0000 </r>
       <r>    6.5651    1.0000 </r>
       <r>    6.5854    1.0000 </r>
       <r>    6.6273    1.0000 </r>
       <r>    6.6772    1.0000 </r>
       <r>    6.6945    1.0000 </r>
       <r>    6.7318    1.0000 </r>
       <r>    6.8165    1.0003 </r>
       <r>    6.8292    1.0004 </r>
       <r>    6.8720    1.0015 </r>
       <r>    6.9184    1.0051 </r>
       <r>    6.9282    1.0064 </r>
       <r>    6.9711    1.0152 </r>
       <r>    6.9969    1.0227 </r>
       <r>    7.0452    1.0349 </r>
       <r>    7.0666    1.0343 </r>
       <r>    7.0869    1.0259 </r>
       <r>    7.1458    0.9266 </r>
       <r>    7.2047    0.6830 </r>
       <r>    7.2617    0.3687 </r>
       <r>    7.2788    0.2792 </r>
       <r>    7.3002    0.1805 </r>
       <r>    7.3642    0.0003 </r>
       <r>    7.3812   -0.0197 </r>
       <r>    7.4658   -0.0268 </r>
       <r>    7.4850   -0.0209 </r>
       <r>    7.4979   -0.0172 </r>
       <r>    7.5537   -0.0056 </r>
       <r>    7.5854   -0.0025 </r>
       <r>    7.6148   -0.0011 </r>
       <r>    7.6884   -0.0001 </r>
       <r>    7.7164   -0.0000 </r>
       <r>    7.7686   -0.0000 </r>
       <r>    7.7984   -0.0000 </r>
       <r>    7.8313   -0.0000 </r>
       <r>    7.8549   -0.0000 </r>
       <r>    7.9003   -0.0000 </r>
       <r>    7.9581   -0.0000 </r>
       <r>    7.9858   -0.0000 </r>
       <r>    8.0127   -0.0000 </r>
       <r>    8.0772   -0.0000 </r>
       <r>    8.1416   -0.0000 </r>
       <r>    8.1932   -0.0000 </r>
       <r>    8.2139   -0.0000 </r>
       <r>    8.3968   -0.0000 </r>
       <r>    8.5414   -0.0000 </r>
       <r>    8.6215   -0.0000 </r>
       <r>    8.9733   -0.0000 </r>
      </set>
     </set>
    </set>
   </array>
  </eigenvalues>
  <separator name="orbital magnetization" >
   <v name="MAGDIPOLOUT">      0.00000000      0.00000000      0.00000000</v>
  </separator>
  <dos>
   <i name="efermi">      7.23806702 </i>
   <total>
    <array>
     <dimension dim="1">gridpoints</dimension>
     <dimension dim="2">spin</dimension>
     <field>energy</field>
     <field>total</field>
     <field>integrated</field>
     <set>
      <set comment="spin 1">
       <r>   -49.8161     0.0000     0.0000 </r>
       <r>   -49.6107     0.0000     0.0000 </r>
       <r>   -49.4053     0.0000     0.0000 </r>
       <r>   -49.1999     0.0000     0.0000 </r>
       <r>   -48.9944     0.0000     0.0000 </r>
       <r>   -48.7890     0.0000     0.0000 </r>
       <r>   -48.5836     0.0000     0.0000 </r>
       <r>   -48.3782    -0.0000    -0.0000 </r>
       <r>   -48.1728    -0.0000    -0.0000 </r>
       <r>   -47.9674    -0.0000    -0.0000 </r>
       <r>   -47.7619    -0.0000    -0.0000 </r>
       <r>   -47.5565    -0.0000    -0.0000 </r>
       <r>   -47.3511    -0.0448    -0.0092 </r>
       <r>   -47.1457    -0.5663    -0.1255 </r>
       <r>   -46.9403    18.1646     3.6058 </r>
       <r>   -46.7349    21.3119     7.9836 </r>
       <r>   -46.5294     0.1793     8.0205 </r>
       <r>   -46.3240    -0.0995     8.0000 </r>
       <r>   -46.1186    -0.0001     8.0000 </r>
       <r>   -45.9132    -0.0000     8.0000 </r>
       <r>   -45.7078    -0.0000     8.0000 </r>
       <r>   -45.5024     0.0000     8.0000 </r>
       <r>   -45.2969     0.0000     8.0000 </r>
       <r>   -45.0915     0.0000     8.0000 </r>
       <r>   -44.8861     0.0000     8.0000 </r>
       <r>   -44.6807     0.0000     8.0000 </r>
       <r>   -44.4753     0.0000     8.0000 </r>
       <r>   -44.2698     0.0000     8.0000 </r>
       <r>   -44.0644     0.0000     8.0000 </r>
       <r>   -43.8590     0.0000     8.0000 </r>
       <r>   -43.6536     0.0000     8.0000 </r>
       <r>   -43.4482     0.0000     8.0000 </r>
       <r>   -43.2428     0.0000     8.0000 </r>
       <r>   -43.0373     0.0000     8.0000 </r>
       <r>   -42.8319     0.0000     8.0000 </r>
       <r>   -42.6265     0.0000     8.0000 </r>
       <r>   -42.4211    -0.0000     8.0000 </r>
       <r>   -42.2157    -0.0000     8.0000 </r>
       <r>   -42.0103    -0.0000     8.0000 </r>
       <r>   -41.8048    -0.0000     8.0000 </r>
       <r>   -41.5994    -0.0004     7.9999 </r>
       <r>   -41.3940    -0.3397     7.9301 </r>
       <r>   -41.1886     0.2728     7.9862 </r>
       <r>   -40.9832    78.0572    24.0205 </r>
       <r>   -40.7778    40.6246    32.3655 </r>
       <r>   -40.5723    -1.6997    32.0163 </r>
       <r>   -40.3669    -0.0794    32.0000 </r>
       <r>   -40.1615    -0.0001    32.0000 </r>
       <r>   -39.9561    -0.0000    32.0000 </r>
       <r>   -39.7507     0.0000    32.0000 </r>
       <r>   -39.5453     0.0000    32.0000 </r>
       <r>   -39.3398     0.0000    32.0000 </r>
       <r>   -39.1344     0.0000    32.0000 </r>
       <r>   -38.9290     0.0000    32.0000 </r>
       <r>   -38.7236     0.0000    32.0000 </r>
       <r>   -38.5182     0.0000    32.0000 </r>
       <r>   -38.3127     0.0000    32.0000 </r>
       <r>   -38.1073     0.0000    32.0000 </r>
       <r>   -37.9019     0.0000    32.0000 </r>
       <r>   -37.6965     0.0000    32.0000 </r>
       <r>   -37.4911     0.0000    32.0000 </r>
       <r>   -37.2857     0.0000    32.0000 </r>
       <r>   -37.0802     0.0000    32.0000 </r>
       <r>   -36.8748     0.0000    32.0000 </r>
       <r>   -36.6694     0.0000    32.0000 </r>
       <r>   -36.4640     0.0000    32.0000 </r>
       <r>   -36.2586     0.0000    32.0000 </r>
       <r>   -36.0532     0.0000    32.0000 </r>
       <r>   -35.8477     0.0000    32.0000 </r>
       <r>   -35.6423     0.0000    32.0000 </r>
       <r>   -35.4369     0.0000    32.0000 </r>
       <r>   -35.2315     0.0000    32.0000 </r>
       <r>   -35.0261     0.0000    32.0000 </r>
       <r>   -34.8207     0.0000    32.0000 </r>
       <r>   -34.6152     0.0000    32.0000 </r>
       <r>   -34.4098     0.0000    32.0000 </r>
       <r>   -34.2044     0.0000    32.0000 </r>
       <r>   -33.9990     0.0000    32.0000 </r>
       <r>   -33.7936     0.0000    32.0000 </r>
       <r>   -33.5882     0.0000    32.0000 </r>
       <r>   -33.3827     0.0000    32.0000 </r>
       <r>   -33.1773     0.0000    32.0000 </r>
       <r>   -32.9719     0.0000    32.0000 </r>
       <r>   -32.7665     0.0000    32.0000 </r>
       <r>   -32.5611     0.0000    32.0000 </r>
       <r>   -32.3556     0.0000    32.0000 </r>
       <r>   -32.1502     0.0000    32.0000 </r>
       <r>   -31.9448     0.0000    32.0000 </r>
       <r>   -31.7394     0.0000    32.0000 </r>
       <r>   -31.5340     0.0000    32.0000 </r>
       <r>   -31.3286     0.0000    32.0000 </r>
       <r>   -31.1231     0.0000    32.0000 </r>
       <r>   -30.9177     0.0000    32.0000 </r>
       <r>   -30.7123     0.0000    32.0000 </r>
       <r>   -30.5069     0.0000    32.0000 </r>
       <r>   -30.3015     0.0000    32.0000 </r>
       <r>   -30.0961     0.0000    32.0000 </r>
       <r>   -29.8906     0.0000    32.0000 </r>
       <r>   -29.6852     0.0000    32.0000 </r>
       <r>   -29.4798     0.0000    32.0000 </r>
       <r>   -29.2744     0.0000    32.0000 </r>
       <r>   -29.0690     0.0000    32.0000 </r>
       <r>   -28.8636     0.0000    32.0000 </r>
       <r>   -28.6581     0.0000    32.0000 </r>
       <r>   -28.4527     0.0000    32.0000 </r>
       <r>   -28.2473     0.0000    32.0000 </r>
       <r>   -28.0419     0.0000    32.0000 </r>
       <r>   -27.8365     0.0000    32.0000 </r>
       <r>   -27.6311     0.0000    32.0000 </r>
       <r>   -27.4256     0.0000    32.0000 </r>
       <r>   -27.2202     0.0000    32.0000 </r>
       <r>   -27.0148     0.0000    32.0000 </r>
       <r>   -26.8094     0.0000    32.0000 </r>
       <r>   -26.6040     0.0000    32.0000 </r>
       <r>   -26.3985     0.0000    32.0000 </r>
       <r>   -26.1931     0.0000    32.0000 </r>
       <r>   -25.9877     0.0000    32.0000 </r>
       <r>   -25.7823     0.0000    32.0000 </r>
       <r>   -25.5769     0.0000    32.0000 </r>
       <r>   -25.3715     0.0000    32.0000 </r>
       <r>   -25.1660     0.0000    32.0000 </r>
       <r>   -24.9606     0.0000    32.0000 </r>
       <r>   -24.7552    -0.0000    32.0000 </r>
       <r>   -24.5498    -0.0000    32.0000 </r>
       <r>   -24.3444    -0.0000    32.0000 </r>
       <r>   -24.1390    -0.0000    32.0000 </r>
       <r>   -23.9335    -0.0000    32.0000 </r>
       <r>   -23.7281    -0.0204    31.9958 </r>
       <r>   -23.5227    -0.5963    31.8733 </r>
       <r>   -23.3173    11.4796    34.2314 </r>
       <r>   -23.1119    29.6047    40.3127 </r>
       <r>   -22.9065    56.5292    51.9248 </r>
       <r>   -22.7010    17.7849    55.5781 </r>
       <r>   -22.4956     2.2767    56.0458 </r>
       <r>   -22.2902    -0.2223    56.0002 </r>
       <r>   -22.0848    -0.0007    56.0000 </r>
       <r>   -21.8794    -0.0000    56.0000 </r>
       <r>   -21.6739    -0.0000    56.0000 </r>
       <r>   -21.4685     0.0000    56.0000 </r>
       <r>   -21.2631     0.0000    56.0000 </r>
       <r>   -21.0577     0.0000    56.0000 </r>
       <r>   -20.8523    -0.0000    56.0000 </r>
       <r>   -20.6469    -0.0000    56.0000 </r>
       <r>   -20.4414    -0.0000    56.0000 </r>
       <r>   -20.2360    -0.0000    56.0000 </r>
       <r>   -20.0306    -0.0001    56.0000 </r>
       <r>   -19.8252    -0.0630    55.9870 </r>
       <r>   -19.6198    -1.0593    55.7694 </r>
       <r>   -19.4144    24.9855    60.9019 </r>
       <r>   -19.2089    93.9884    80.2087 </r>
       <r>   -19.0035   134.8544   107.9101 </r>
       <r>   -18.7981    81.3336   124.6175 </r>
       <r>   -18.5927    17.8676   128.2878 </r>
       <r>   -18.3873    -1.3907   128.0021 </r>
       <r>   -18.1819    -0.0103   128.0000 </r>
       <r>   -17.9764    -0.0000   128.0000 </r>
       <r>   -17.7710    -0.0000   128.0000 </r>
       <r>   -17.5656     0.0000   128.0000 </r>
       <r>   -17.3602     0.0000   128.0000 </r>
       <r>   -17.1548     0.0000   128.0000 </r>
       <r>   -16.9494     0.0000   128.0000 </r>
       <r>   -16.7439     0.0000   128.0000 </r>
       <r>   -16.5385     0.0000   128.0000 </r>
       <r>   -16.3331     0.0000   128.0000 </r>
       <r>   -16.1277     0.0000   128.0000 </r>
       <r>   -15.9223     0.0000   128.0000 </r>
       <r>   -15.7168     0.0000   128.0000 </r>
       <r>   -15.5114     0.0000   128.0000 </r>
       <r>   -15.3060     0.0000   128.0000 </r>
       <r>   -15.1006     0.0000   128.0000 </r>
       <r>   -14.8952     0.0000   128.0000 </r>
       <r>   -14.6898     0.0000   128.0000 </r>
       <r>   -14.4843     0.0000   128.0000 </r>
       <r>   -14.2789     0.0000   128.0000 </r>
       <r>   -14.0735     0.0000   128.0000 </r>
       <r>   -13.8681     0.0000   128.0000 </r>
       <r>   -13.6627     0.0000   128.0000 </r>
       <r>   -13.4573     0.0000   128.0000 </r>
       <r>   -13.2518     0.0000   128.0000 </r>
       <r>   -13.0464     0.0000   128.0000 </r>
       <r>   -12.8410     0.0000   128.0000 </r>
       <r>   -12.6356     0.0000   128.0000 </r>
       <r>   -12.4302     0.0000   128.0000 </r>
       <r>   -12.2248     0.0000   128.0000 </r>
       <r>   -12.0193     0.0000   128.0000 </r>
       <r>   -11.8139     0.0000   128.0000 </r>
       <r>   -11.6085     0.0000   128.0000 </r>
       <r>   -11.4031     0.0000   128.0000 </r>
       <r>   -11.1977     0.0000   128.0000 </r>
       <r>   -10.9923     0.0000   128.0000 </r>
       <r>   -10.7868     0.0000   128.0000 </r>
       <r>   -10.5814     0.0000   128.0000 </r>
       <r>   -10.3760     0.0000   128.0000 </r>
       <r>   -10.1706     0.0000   128.0000 </r>
       <r>    -9.9652     0.0000   128.0000 </r>
       <r>    -9.7597     0.0000   128.0000 </r>
       <r>    -9.5543     0.0000   128.0000 </r>
       <r>    -9.3489     0.0000   128.0000 </r>
       <r>    -9.1435     0.0000   128.0000 </r>
       <r>    -8.9381     0.0000   128.0000 </r>
       <r>    -8.7327     0.0000   128.0000 </r>
       <r>    -8.5272     0.0000   128.0000 </r>
       <r>    -8.3218     0.0000   128.0000 </r>
       <r>    -8.1164     0.0000   128.0000 </r>
       <r>    -7.9110     0.0000   128.0000 </r>
       <r>    -7.7056     0.0000   128.0000 </r>
       <r>    -7.5002     0.0000   128.0000 </r>
       <r>    -7.2947     0.0000   128.0000 </r>
       <r>    -7.0893     0.0000   128.0000 </r>
       <r>    -6.8839     0.0000   128.0000 </r>
       <r>    -6.6785     0.0000   128.0000 </r>
       <r>    -6.4731     0.0000   128.0000 </r>
       <r>    -6.2677     0.0000   128.0000 </r>
       <r>    -6.0622     0.0000   128.0000 </r>
       <r>    -5.8568     0.0000   128.0000 </r>
       <r>    -5.6514     0.0000   128.0000 </r>
       <r>    -5.4460     0.0000   128.0000 </r>
       <r>    -5.2406     0.0000   128.0000 </r>
       <r>    -5.0352     0.0000   128.0000 </r>
       <r>    -4.8297     0.0000   128.0000 </r>
       <r>    -4.6243     0.0000   128.0000 </r>
       <r>    -4.4189     0.0000   128.0000 </r>
       <r>    -4.2135     0.0000   128.0000 </r>
       <r>    -4.0081     0.0000   128.0000 </r>
       <r>    -3.8026     0.0000   128.0000 </r>
       <r>    -3.5972     0.0000   128.0000 </r>
       <r>    -3.3918     0.0000   128.0000 </r>
       <r>    -3.1864     0.0000   128.0000 </r>
       <r>    -2.9810     0.0000   128.0000 </r>
       <r>    -2.7756     0.0000   128.0000 </r>
       <r>    -2.5701     0.0000   128.0000 </r>
       <r>    -2.3647     0.0000   128.0000 </r>
       <r>    -2.1593     0.0000   128.0000 </r>
       <r>    -1.9539     0.0000   128.0000 </r>
       <r>    -1.7485     0.0000   128.0000 </r>
       <r>    -1.5431     0.0000   128.0000 </r>
       <r>    -1.3376     0.0000   128.0000 </r>
       <r>    -1.1322     0.0000   128.0000 </r>
       <r>    -0.9268     0.0000   128.0000 </r>
       <r>    -0.7214    -0.0000   128.0000 </r>
       <r>    -0.5160    -0.0000   128.0000 </r>
       <r>    -0.3106    -0.0000   128.0000 </r>
       <r>    -0.1051    -0.0000   128.0000 </r>
       <r>     0.1003    -0.0001   128.0000 </r>
       <r>     0.3057    -0.0124   127.9974 </r>
       <r>     0.5111     0.1544   128.0291 </r>
       <r>     0.7165     0.8344   128.2005 </r>
       <r>     0.9219     1.6326   128.5359 </r>
       <r>     1.1274     1.9915   128.9450 </r>
       <r>     1.3328     3.3257   129.6281 </r>
       <r>     1.5382     3.8389   130.4167 </r>
       <r>     1.7436     1.7551   130.7773 </r>
       <r>     1.9490     5.0445   131.8135 </r>
       <r>     2.1545     3.1346   132.4574 </r>
       <r>     2.3599     4.9741   133.4791 </r>
       <r>     2.5653     6.1981   134.7523 </r>
       <r>     2.7707     7.9728   136.3901 </r>
       <r>     2.9761     6.9888   137.8257 </r>
       <r>     3.1815     8.8997   139.6538 </r>
       <r>     3.3870     7.8274   141.2617 </r>
       <r>     3.5924    12.4953   143.8285 </r>
       <r>     3.7978    19.4790   147.8298 </r>
       <r>     4.0032    24.0285   152.7657 </r>
       <r>     4.2086    25.0392   157.9092 </r>
       <r>     4.4140    27.2989   163.5168 </r>
       <r>     4.6195    32.8512   170.2650 </r>
       <r>     4.8249    40.8928   178.6651 </r>
       <r>     5.0303    37.0700   186.2799 </r>
       <r>     5.2357    37.4469   193.9722 </r>
       <r>     5.4411    33.8197   200.9193 </r>
       <r>     5.6465    27.8736   206.6450 </r>
       <r>     5.8520    23.3882   211.4494 </r>
       <r>     6.0574    46.2477   220.9495 </r>
       <r>     6.2628    56.7169   232.6001 </r>
       <r>     6.4682    57.3137   244.3733 </r>
       <r>     6.6736    54.5363   255.5760 </r>
       <r>     6.8790    56.2587   267.1325 </r>
       <r>     7.0845    54.1900   278.2641 </r>
       <r>     7.2899    43.6502   287.2306 </r>
       <r>     7.4953    48.0142   297.0935 </r>
       <r>     7.7007    50.9721   307.5641 </r>
       <r>     7.9061    45.5340   316.9175 </r>
       <r>     8.1116    35.4762   324.2050 </r>
       <r>     8.3170    34.3450   331.2600 </r>
       <r>     8.5224    23.8276   336.1546 </r>
       <r>     8.7278    17.9091   339.8335 </r>
       <r>     8.9332    15.9392   343.1077 </r>
       <r>     9.1386     4.6430   344.0614 </r>
       <r>     9.3441    -0.2936   344.0011 </r>
       <r>     9.5495    -0.0053   344.0000 </r>
       <r>     9.7549    -0.0000   344.0000 </r>
       <r>     9.9603    -0.0000   344.0000 </r>
       <r>    10.1657     0.0000   344.0000 </r>
       <r>    10.3711     0.0000   344.0000 </r>
       <r>    10.5766     0.0000   344.0000 </r>
       <r>    10.7820     0.0000   344.0000 </r>
       <r>    10.9874     0.0000   344.0000 </r>
       <r>    11.1928     0.0000   344.0000 </r>
       <r>    11.3982     0.0000   344.0000 </r>
       <r>    11.6036     0.0000   344.0000 </r>
       <r>    11.8091     0.0000   344.0000 </r>
      </set>
     </set>
    </array>
   </total>
  </dos>
 </calculation>
 <structure name="finalpos" >
  <crystal>
   <varray name="basis" >
    <v>       7.08492592       0.01909712       0.06310248 </v>
    <v>       0.02877412      10.28776804      -0.00031312 </v>
    <v>       0.09233345      -0.00060503      10.31004811 </v>
   </varray>
   <i name="volume">    751.41394471 </i>
   <varray name="rec_basis" >
    <v>       0.14115706      -0.00039484      -0.00126418 </v>
    <v>      -0.00026208       0.09720355       0.00000805 </v>
    <v>      -0.00086396       0.00000537       0.09700050 </v>
   </varray>
  </crystal>
  <varray name="positions" >
   <v>       0.49130957       0.68096729       0.01068824 </v>
   <v>       0.47630521       0.99838301       0.65064744 </v>
   <v>       0.29065566       0.17180507       0.85374290 </v>
   <v>      -0.00189324      -0.00018825       0.99831203 </v>
   <v>       0.02392301       0.00157416       0.68133153 </v>
   <v>       0.99545268       0.66622055       0.31759313 </v>
   <v>       0.51426688       0.99479834       0.33660383 </v>
   <v>       0.49024770       0.33087771       0.64350758 </v>
   <v>       0.97597477       0.32100931      -0.00135978 </v>
   <v>       0.75710811       0.51100392       0.83565105 </v>
   <v>       0.46483019       0.67277656       0.65641836 </v>
   <v>       0.00888891       0.67735594       0.01300233 </v>
   <v>       0.75653876       0.83578428       0.16147245 </v>
   <v>       0.97207750       0.99583418       0.31976971 </v>
   <v>       0.23803535       0.84505011       0.17577120 </v>
   <v>       0.77050315       0.15434156       0.50102545 </v>
   <v>       0.22219973       0.50422708       0.50007897 </v>
   <v>       0.04377910       0.67592974       0.67155814 </v>
   <v>       0.74718689       0.50655982       0.14984115 </v>
   <v>       0.22486152       0.83666943       0.48265908 </v>
   <v>       0.72032488       0.16088923       0.82982669 </v>
   <v>       0.51347751       0.33658298       0.33992380 </v>
   <v>       0.01684421       0.32327933       0.67425870 </v>
   <v>       0.25632710       0.48862688       0.15765533 </v>
   <v>       0.96988755       0.33876308       0.32589312 </v>
   <v>       0.49792553       0.66708244       0.33456282 </v>
   <v>       0.21421901       0.15964304       0.47613761 </v>
   <v>       0.78167613       0.51603449       0.52441562 </v>
   <v>       0.77110705       0.83437109       0.51161872 </v>
   <v>       0.25957614       0.49429817       0.84361703 </v>
   <v>       0.26150806       0.16350205       0.16449614 </v>
   <v>       0.75690825       0.82336331       0.82950714 </v>
   <v>       0.73090779       0.16090028       0.16444620 </v>
   <v>       0.24673005       0.83165870       0.84286495 </v>
   <v>       0.53753441       0.33720433       0.01108557 </v>
   <v>       0.50277587       0.98282580       0.01136876 </v>
  </varray>
 </structure>
</modeling>
