       N       E                     dE             d eps       ncg     rms          rms(c)
DAV:   1     0.175062668466E+04    0.17506E+04   -0.10655E+05  5384   0.103E+03
DAV:   2    -0.872143240646E+02   -0.18378E+04   -0.17588E+04  5376   0.363E+02
DAV:   3    -0.343606320889E+03   -0.25639E+03   -0.24288E+03  8320   0.103E+02
DAV:   4    -0.375265316470E+03   -0.31659E+02   -0.30202E+02  8432   0.311E+01
DAV:   5    -0.378428292309E+03   -0.31630E+01   -0.31113E+01  7584   0.986E+00    0.663E+01
RMM:   6    -0.368941364438E+03    0.94869E+01   -0.30825E+01  7300   0.994E+00    0.316E+01
RMM:   7    -0.373072055843E+03   -0.41307E+01   -0.34459E+01  7475   0.769E+00    0.162E+01
RMM:   8    -0.363407245756E+03    0.96648E+01   -0.10401E+01  7212   0.466E+00    0.429E+00
RMM:   9    -0.363002072198E+03    0.40517E+00   -0.30615E+00  7542   0.217E+00    0.274E+00
RMM:  10    -0.362991219221E+03    0.10853E-01   -0.58315E-01  7578   0.108E+00    0.165E+00
RMM:  11    -0.362966637540E+03    0.24582E-01   -0.16495E-01  7434   0.565E-01    0.958E-01
RMM:  12    -0.362960471513E+03    0.61660E-02   -0.73032E-02  7630   0.436E-01    0.435E-01
RMM:  13    -0.362958138326E+03    0.23332E-02   -0.22147E-02  7571   0.212E-01    0.238E-01
RMM:  14    -0.362958212142E+03   -0.73816E-04   -0.92264E-03  7663   0.112E-01    0.137E-01
RMM:  15    -0.362958457187E+03   -0.24504E-03   -0.43032E-03  7664   0.716E-02    0.853E-02
RMM:  16    -0.362958473038E+03   -0.15851E-04   -0.15549E-03  7043   0.391E-02    0.431E-02
RMM:  17    -0.362958483379E+03   -0.10340E-04   -0.70800E-04  6351   0.285E-02    0.182E-02
RMM:  18    -0.362958506458E+03   -0.23079E-04   -0.32016E-04  5843   0.198E-02    0.108E-02
RMM:  19    -0.362958513337E+03   -0.68788E-05   -0.13123E-04  4727   0.138E-02    0.633E-03
RMM:  20    -0.362958514731E+03   -0.13942E-05   -0.50333E-05  4022   0.111E-02
   1 F= -.36295851E+03 E0= -.36296579E+03  d E =-.362959E+03
       N       E                     dE             d eps       ncg     rms          rms(c)
DAV:   1    -0.363011121607E+03   -0.52608E-01   -0.19052E+00  5976   0.441E+00    0.164E+00
RMM:   2    -0.362995418098E+03    0.15704E-01   -0.16624E-01  6997   0.104E+00    0.529E-01
RMM:   3    -0.362991013476E+03    0.44046E-02   -0.44133E-02  7623   0.383E-01    0.367E-01
RMM:   4    -0.362986564827E+03    0.44486E-02   -0.98791E-03  7633   0.209E-01    0.216E-01
RMM:   5    -0.362986227577E+03    0.33725E-03   -0.34218E-03  7646   0.968E-02    0.165E-01
RMM:   6    -0.362986327067E+03   -0.99490E-04   -0.10705E-03  7920   0.563E-02    0.979E-02
RMM:   7    -0.362986431944E+03   -0.10488E-03   -0.59778E-04  7076   0.392E-02    0.469E-02
RMM:   8    -0.362986484846E+03   -0.52902E-04   -0.28651E-04  6690   0.274E-02    0.346E-02
RMM:   9    -0.362986514915E+03   -0.30069E-04   -0.10581E-04  5081   0.188E-02    0.291E-02
RMM:  10    -0.362986549971E+03   -0.35056E-04   -0.56902E-05  4605   0.144E-02    0.151E-02
RMM:  11    -0.362986568911E+03   -0.18940E-04   -0.41051E-05  4350   0.138E-02    0.458E-03
RMM:  12    -0.362986572202E+03   -0.32908E-05   -0.16194E-05  3604   0.115E-02
   2 F= -.36298657E+03 E0= -.36299366E+03  d E =-.280575E-01
       N       E                     dE             d eps       ncg     rms          rms(c)
DAV:   1    -0.363126187227E+03   -0.13962E+00   -0.88402E+00  5584   0.953E+00    0.358E+00
RMM:   2    -0.363051266834E+03    0.74920E-01   -0.75777E-01  6892   0.225E+00    0.114E+00
RMM:   3    -0.363030702739E+03    0.20564E-01   -0.20213E-01  7611   0.825E-01    0.785E-01
RMM:   4    -0.363010485030E+03    0.20218E-01   -0.45751E-02  7634   0.446E-01    0.469E-01
RMM:   5    -0.363008946928E+03    0.15381E-02   -0.15788E-02  7661   0.206E-01    0.359E-01
RMM:   6    -0.363009305875E+03   -0.35895E-03   -0.48519E-03  8295   0.122E-01    0.212E-01
RMM:   7    -0.363009728051E+03   -0.42218E-03   -0.28942E-03  8447   0.835E-02    0.103E-01
RMM:   8    -0.363009930257E+03   -0.20221E-03   -0.13186E-03  8059   0.576E-02    0.768E-02
RMM:   9    -0.363010048876E+03   -0.11862E-03   -0.50128E-04  6976   0.364E-02    0.661E-02
RMM:  10    -0.363010177177E+03   -0.12830E-03   -0.23414E-04  6202   0.256E-02    0.372E-02
RMM:  11    -0.363010242827E+03   -0.65649E-04   -0.14406E-04  5631   0.218E-02    0.920E-03
RMM:  12    -0.363010256392E+03   -0.13565E-04   -0.93931E-05  5433   0.175E-02    0.716E-03
RMM:  13    -0.363010258027E+03   -0.16352E-05   -0.19634E-05  3893   0.123E-02
   3 F= -.36301026E+03 E0= -.36301689E+03  d E =-.517433E-01
       N       E                     dE             d eps       ncg     rms          rms(c)
DAV:   1    -0.363030507038E+03   -0.20251E-01   -0.17706E+00  5232   0.371E+00    0.510E-01
RMM:   2    -0.363035489657E+03   -0.49826E-02   -0.70773E-02  7332   0.687E-01    0.292E-01
RMM:   3    -0.363032487168E+03    0.30025E-02   -0.92406E-03  7448   0.191E-01    0.188E-01
RMM:   4    -0.363032132457E+03    0.35471E-03   -0.20537E-03  7717   0.758E-02    0.122E-01
RMM:   5    -0.363032037146E+03    0.95310E-04   -0.83124E-04  7654   0.525E-02    0.741E-02
RMM:   6    -0.363032007818E+03    0.29329E-04   -0.34618E-04  7564   0.315E-02    0.398E-02
RMM:   7    -0.363032002840E+03    0.49776E-05   -0.13708E-04  6514   0.184E-02    0.260E-02
RMM:   8    -0.363031998353E+03    0.44872E-05   -0.42666E-05  4278   0.120E-02
   4 F= -.36303200E+03 E0= -.36303863E+03  d E =-.217403E-01
       N       E                     dE             d eps       ncg     rms          rms(c)
DAV:   1    -0.363052222684E+03   -0.20220E-01   -0.15925E+01  4928   0.111E+01    0.151E+00
RMM:   2    -0.363096655321E+03   -0.44433E-01   -0.63081E-01  7304   0.208E+00    0.847E-01
RMM:   3    -0.363072857546E+03    0.23798E-01   -0.84832E-02  7512   0.588E-01    0.570E-01
RMM:   4    -0.363069425414E+03    0.34321E-02   -0.17141E-02  7688   0.225E-01    0.370E-01
RMM:   5    -0.363068619193E+03    0.80622E-03   -0.73960E-03  7696   0.152E-01    0.226E-01
RMM:   6    -0.363068358144E+03    0.26105E-03   -0.29605E-03  7768   0.963E-02    0.123E-01
RMM:   7    -0.363068378111E+03   -0.19967E-04   -0.12855E-03  8189   0.524E-02    0.784E-02
RMM:   8    -0.363068387699E+03   -0.95886E-05   -0.45717E-04  6901   0.298E-02    0.438E-02
RMM:   9    -0.363068392217E+03   -0.45175E-05   -0.25498E-04  6692   0.256E-02    0.269E-02
RMM:  10    -0.363068389558E+03    0.26586E-05   -0.86859E-05  5325   0.158E-02
   5 F= -.36306839E+03 E0= -.36307489E+03  d E =-.581315E-01
       N       E                     dE             d eps       ncg     rms          rms(c)
DAV:   1    -0.363069410363E+03   -0.10181E-02   -0.19945E+00  5104   0.392E+00    0.535E-01
RMM:   2    -0.363074862546E+03   -0.54522E-02   -0.78417E-02  7322   0.722E-01    0.300E-01
RMM:   3    -0.363071678223E+03    0.31843E-02   -0.10162E-02  7424   0.199E-01    0.195E-01
RMM:   4    -0.363071302139E+03    0.37608E-03   -0.23093E-03  7799   0.796E-02    0.125E-01
RMM:   5    -0.363071207964E+03    0.94175E-04   -0.94171E-04  7738   0.549E-02    0.769E-02
RMM:   6    -0.363071182426E+03    0.25539E-04   -0.39042E-04  7627   0.331E-02    0.424E-02
RMM:   7    -0.363071180726E+03    0.16996E-05   -0.16255E-04  6578   0.201E-02    0.266E-02
RMM:   8    -0.363071177961E+03    0.27645E-05   -0.57385E-05  4776   0.131E-02
   6 F= -.36307118E+03 E0= -.36307758E+03  d E =-.609199E-01
       N       E                     dE             d eps       ncg     rms          rms(c)
DAV:   1    -0.363076140756E+03   -0.49600E-02   -0.32660E-01  5152   0.168E+00    0.325E-01
RMM:   2    -0.363076409108E+03   -0.26835E-03   -0.16179E-02  7402   0.336E-01    0.139E-01
RMM:   3    -0.363076015143E+03    0.39397E-03   -0.24415E-03  7515   0.922E-02    0.969E-02
RMM:   4    -0.363075803129E+03    0.21201E-03   -0.66629E-04  7433   0.459E-02    0.550E-02
RMM:   5    -0.363075765800E+03    0.37328E-04   -0.25839E-04  7495   0.287E-02    0.379E-02
RMM:   6    -0.363075757148E+03    0.86523E-05   -0.83189E-05  5115   0.159E-02
   7 F= -.36307576E+03 E0= -.36308228E+03  d E =-.457919E-02
       N       E                     dE             d eps       ncg     rms          rms(c)
DAV:   1    -0.363086855116E+03   -0.11089E-01   -0.29366E+00  4928   0.503E+00    0.972E-01
RMM:   2    -0.363089162194E+03   -0.23071E-02   -0.14637E-01  7408   0.101E+00    0.422E-01
RMM:   3    -0.363085632822E+03    0.35294E-02   -0.22509E-02  7568   0.277E-01    0.297E-01
RMM:   4    -0.363083707855E+03    0.19250E-02   -0.61418E-03  7425   0.140E-01    0.171E-01
RMM:   5    -0.363083370563E+03    0.33729E-03   -0.24240E-03  7662   0.876E-02    0.117E-01
RMM:   6    -0.363083337727E+03    0.32836E-04   -0.88108E-04  7853   0.478E-02    0.690E-02
RMM:   7    -0.363083336859E+03    0.86718E-06   -0.44532E-04  6965   0.320E-02    0.350E-02
RMM:   8    -0.363083341177E+03   -0.43172E-05   -0.17164E-04  5789   0.222E-02    0.223E-02
RMM:   9    -0.363083345019E+03   -0.38423E-05   -0.86239E-05  5360   0.169E-02
   8 F= -.36308335E+03 E0= -.36309019E+03  d E =-.121671E-01
       N       E                     dE             d eps       ncg     rms          rms(c)
DAV:   1    -0.363090683749E+03   -0.73426E-02   -0.44442E-01  5568   0.206E+00    0.635E-01
RMM:   2    -0.363088733712E+03    0.19500E-02   -0.32173E-02  7122   0.461E-01    0.219E-01
RMM:   3    -0.363088047238E+03    0.68647E-03   -0.75525E-03  7653   0.164E-01    0.156E-01
RMM:   4    -0.363087363558E+03    0.68368E-03   -0.18658E-03  7676   0.842E-02    0.896E-02
RMM:   5    -0.363087299785E+03    0.63774E-04   -0.63773E-04  7481   0.430E-02    0.661E-02
RMM:   6    -0.363087318123E+03   -0.18338E-04   -0.21721E-04  7044   0.255E-02    0.392E-02
RMM:   7    -0.363087338383E+03   -0.20260E-04   -0.99441E-05  5882   0.180E-02    0.187E-02
RMM:   8    -0.363087348690E+03   -0.10307E-04   -0.46030E-05  4311   0.131E-02    0.117E-02
RMM:   9    -0.363087355246E+03   -0.65560E-05   -0.24298E-05  3770   0.109E-02
   9 F= -.36308736E+03 E0= -.36309422E+03  d E =-.401023E-02
       N       E                     dE             d eps       ncg     rms          rms(c)
DAV:   1    -0.363101953768E+03   -0.14605E-01   -0.16794E+00  5280   0.400E+00    0.122E+00
RMM:   2    -0.363095074874E+03    0.68789E-02   -0.12023E-01  6965   0.907E-01    0.415E-01
RMM:   3    -0.363092399003E+03    0.26759E-02   -0.26605E-02  7624   0.319E-01    0.295E-01
RMM:   4    -0.363089916352E+03    0.24827E-02   -0.65143E-03  7681   0.157E-01    0.172E-01
RMM:   5    -0.363089691147E+03    0.22520E-03   -0.21310E-03  7634   0.788E-02    0.129E-01
RMM:   6    -0.363089747695E+03   -0.56548E-04   -0.74646E-04  7685   0.463E-02    0.778E-02
RMM:   7    -0.363089814184E+03   -0.66490E-04   -0.37133E-04  6741   0.336E-02    0.375E-02
RMM:   8    -0.363089850122E+03   -0.35937E-04   -0.20999E-04  6479   0.229E-02    0.265E-02
RMM:   9    -0.363089866529E+03   -0.16407E-04   -0.67552E-05  4564   0.166E-02    0.213E-02
RMM:  10    -0.363089887107E+03   -0.20578E-04   -0.43779E-05  4354   0.130E-02    0.121E-02
RMM:  11    -0.363089899348E+03   -0.12241E-04   -0.22178E-05  3815   0.120E-02    0.397E-03
RMM:  12    -0.363089901930E+03   -0.25818E-05   -0.12984E-05  3550   0.107E-02
  10 F= -.36308990E+03 E0= -.36309679E+03  d E =-.655691E-02
       N       E                     dE             d eps       ncg     rms          rms(c)
DAV:   1    -0.363091004396E+03   -0.11050E-02   -0.56247E-01  5008   0.211E+00    0.142E-01
RMM:   2    -0.363092512766E+03   -0.15084E-02   -0.16877E-02  6889   0.365E-01    0.973E-02
RMM:   3    -0.363092144948E+03    0.36782E-03   -0.19111E-03  7319   0.105E-01    0.617E-02
RMM:   4    -0.363092130984E+03    0.13964E-04   -0.47171E-04  8015   0.308E-02    0.390E-02
RMM:   5    -0.363092124861E+03    0.61233E-05   -0.16621E-04  6386   0.212E-02    0.207E-02
RMM:   6    -0.363092124337E+03    0.52385E-06   -0.63761E-05  5010   0.149E-02
  11 F= -.36309212E+03 E0= -.36309906E+03  d E =-.222241E-02
       N       E                     dE             d eps       ncg     rms          rms(c)
DAV:   1    -0.363085597695E+03    0.65272E-02   -0.50631E+00  4928   0.634E+00    0.429E-01
RMM:   2    -0.363099185047E+03   -0.13587E-01   -0.15184E-01  6894   0.110E+00    0.293E-01
RMM:   3    -0.363095924210E+03    0.32608E-02   -0.17306E-02  7401   0.313E-01    0.187E-01
RMM:   4    -0.363095781207E+03    0.14300E-03   -0.41288E-03  8421   0.918E-02    0.118E-01
RMM:   5    -0.363095726050E+03    0.55157E-04   -0.15332E-03  7971   0.634E-02    0.635E-02
RMM:   6    -0.363095711396E+03    0.14654E-04   -0.56617E-04  8031   0.401E-02    0.282E-02
RMM:   7    -0.363095707947E+03    0.34492E-05   -0.17944E-04  5847   0.194E-02    0.174E-02
RMM:   8    -0.363095714120E+03   -0.61734E-05   -0.10437E-04  4977   0.168E-02    0.111E-02
RMM:   9    -0.363095715530E+03   -0.14096E-05   -0.31354E-05  3796   0.117E-02
  12 F= -.36309572E+03 E0= -.36310274E+03  d E =-.581360E-02
       N       E                     dE             d eps       ncg     rms          rms(c)
DAV:   1    -0.363111982477E+03   -0.16268E-01   -0.77005E-01  5664   0.287E+00    0.112E+00
RMM:   2    -0.363103772806E+03    0.82097E-02   -0.71359E-02  7236   0.690E-01    0.368E-01
RMM:   3    -0.363101704092E+03    0.20687E-02   -0.20116E-02  7677   0.252E-01    0.270E-01
RMM:   4    -0.363099456290E+03    0.22478E-02   -0.50489E-03  7651   0.150E-01    0.150E-01
RMM:   5    -0.363099227199E+03    0.22909E-03   -0.16756E-03  7604   0.713E-02    0.115E-01
RMM:   6    -0.363099231445E+03   -0.42453E-05   -0.56002E-04  7460   0.385E-02    0.664E-02
RMM:   7    -0.363099230236E+03    0.12090E-05   -0.26878E-04  6566   0.286E-02    0.312E-02
RMM:   8    -0.363099235336E+03   -0.51008E-05   -0.13679E-04  5677   0.193E-02    0.245E-02
RMM:   9    -0.363099237331E+03   -0.19945E-05   -0.49749E-05  4225   0.147E-02
  13 F= -.36309924E+03 E0= -.36310628E+03  d E =-.352180E-02
       N       E                     dE             d eps       ncg     rms          rms(c)
DAV:   1    -0.363100455311E+03   -0.12200E-02   -0.73601E-02  5680   0.890E-01    0.341E-01
RMM:   2    -0.363099689169E+03    0.76614E-03   -0.66246E-03  7119   0.213E-01    0.109E-01
RMM:   3    -0.363099487103E+03    0.20207E-03   -0.18019E-03  7591   0.758E-02    0.794E-02
RMM:   4    -0.363099287203E+03    0.19990E-03   -0.45655E-04  7452   0.453E-02    0.458E-02
RMM:   5    -0.363099266429E+03    0.20774E-04   -0.15209E-04  6637   0.226E-02    0.356E-02
RMM:   6    -0.363099263126E+03    0.33028E-05   -0.49855E-05  4067   0.134E-02
  14 F= -.36309926E+03 E0= -.36310630E+03  d E =-.354760E-02
       N       E                     dE             d eps       ncg     rms          rms(c)
DAV:   1    -0.363101086569E+03   -0.18201E-02   -0.54155E-01  4960   0.206E+00    0.215E-01
RMM:   2    -0.363102007552E+03   -0.92098E-03   -0.16719E-02  7407   0.365E-01    0.108E-01
RMM:   3    -0.363101849425E+03    0.15813E-03   -0.20011E-03  7442   0.963E-02    0.721E-02
RMM:   4    -0.363101816126E+03    0.33299E-04   -0.53335E-04  8087   0.387E-02    0.455E-02
RMM:   5    -0.363101806924E+03    0.92020E-05   -0.20935E-04  6796   0.225E-02    0.268E-02
RMM:   6    -0.363101801863E+03    0.50610E-05   -0.79463E-05  5080   0.144E-02
  15 F= -.36310180E+03 E0= -.36310871E+03  d E =-.253874E-02
       N       E                     dE             d eps       ncg     rms          rms(c)
DAV:   1    -0.363101196808E+03    0.61012E-03   -0.18743E+00  4928   0.384E+00    0.395E-01
RMM:   2    -0.363104368002E+03   -0.31712E-02   -0.57708E-02  7408   0.677E-01    0.194E-01
RMM:   3    -0.363103807001E+03    0.56100E-03   -0.67399E-03  7405   0.174E-01    0.128E-01
RMM:   4    -0.363103718720E+03    0.88281E-04   -0.18243E-03  8164   0.715E-02    0.797E-02
RMM:   5    -0.363103707310E+03    0.11410E-04   -0.72519E-04  7993   0.414E-02    0.491E-02
RMM:   6    -0.363103698813E+03    0.84969E-05   -0.27877E-04  7156   0.260E-02    0.272E-02
RMM:   7    -0.363103704722E+03   -0.59085E-05   -0.98647E-05  5140   0.166E-02
  16 F= -.36310370E+03 E0= -.36311035E+03  d E =-.444160E-02
       N       E                     dE             d eps       ncg     rms          rms(c)
DAV:   1    -0.363110571728E+03   -0.68729E-02   -0.36211E-01  5640   0.197E+00    0.772E-01
RMM:   2    -0.363106621777E+03    0.39500E-02   -0.34281E-02  7185   0.480E-01    0.247E-01
RMM:   3    -0.363105653277E+03    0.96850E-03   -0.94731E-03  7686   0.173E-01    0.183E-01
RMM:   4    -0.363104661873E+03    0.99140E-03   -0.22610E-03  7639   0.999E-02    0.103E-01
RMM:   5    -0.363104577623E+03    0.84250E-04   -0.76619E-04  7571   0.478E-02    0.790E-02
RMM:   6    -0.363104617017E+03   -0.39394E-04   -0.25249E-04  6953   0.273E-02    0.465E-02
RMM:   7    -0.363104650533E+03   -0.33516E-04   -0.13242E-04  6271   0.205E-02    0.220E-02
RMM:   8    -0.363104666683E+03   -0.16149E-04   -0.66288E-05  4427   0.150E-02    0.168E-02
RMM:   9    -0.363104677188E+03   -0.10506E-04   -0.26845E-05  3704   0.114E-02    0.115E-02
RMM:  10    -0.363104686305E+03   -0.91163E-05   -0.13792E-05  3292   0.106E-02
  17 F= -.36310469E+03 E0= -.36311128E+03  d E =-.981583E-03
       N       E                     dE             d eps       ncg     rms          rms(c)
DAV:   1    -0.363104763542E+03   -0.86354E-04   -0.30409E-03  5912   0.179E-01    0.732E-02
RMM:   2    -0.363104737937E+03    0.25606E-04   -0.34078E-04  7264   0.458E-02    0.250E-02
RMM:   3    -0.363104728811E+03    0.91257E-05   -0.96954E-05  6263   0.175E-02
  18 F= -.36310473E+03 E0= -.36311132E+03  d E =-.102409E-02
       N       E                     dE             d eps       ncg     rms          rms(c)
DAV:   1    -0.363105282135E+03   -0.54420E-03   -0.14461E-01  5040   0.107E+00    0.886E-02
RMM:   2    -0.363105564677E+03   -0.28254E-03   -0.43763E-03  7114   0.188E-01    0.453E-02
RMM:   3    -0.363105540543E+03    0.24134E-04   -0.53165E-04  6990   0.501E-02    0.341E-02
RMM:   4    -0.363105526652E+03    0.13890E-04   -0.14908E-04  6406   0.197E-02    0.204E-02
RMM:   5    -0.363105523259E+03    0.33929E-05   -0.48883E-05  3960   0.116E-02
  19 F= -.36310552E+03 E0= -.36311213E+03  d E =-.794448E-03
       N       E                     dE             d eps       ncg     rms          rms(c)
DAV:   1    -0.363104975160E+03    0.55149E-03   -0.79103E-01  4944   0.249E+00    0.211E-01
RMM:   2    -0.363106575307E+03   -0.16001E-02   -0.24160E-02  7187   0.442E-01    0.109E-01
RMM:   3    -0.363106511170E+03    0.64137E-04   -0.33120E-03  7398   0.116E-01    0.822E-02
RMM:   4    -0.363106431265E+03    0.79906E-04   -0.77315E-04  8322   0.433E-02    0.492E-02
RMM:   5    -0.363106424079E+03    0.71857E-05   -0.30529E-04  7060   0.284E-02    0.251E-02
RMM:   6    -0.363106421176E+03    0.29033E-05   -0.11995E-04  5854   0.178E-02    0.124E-02
RMM:   7    -0.363106421731E+03   -0.55556E-06   -0.34976E-05  4151   0.120E-02
  20 F= -.36310642E+03 E0= -.36311303E+03  d E =-.169292E-02
       N       E                     dE             d eps       ncg     rms          rms(c)
DAV:   1    -0.363109683592E+03   -0.32624E-02   -0.13634E-01  5728   0.123E+00    0.507E-01
RMM:   2    -0.363107890630E+03    0.17930E-02   -0.13722E-02  7371   0.302E-01    0.165E-01
RMM:   3    -0.363107474723E+03    0.41591E-03   -0.40239E-03  7695   0.109E-01    0.120E-01
RMM:   4    -0.363107017973E+03    0.45675E-03   -0.97802E-04  7612   0.682E-02    0.672E-02
RMM:   5    -0.363106965299E+03    0.52674E-04   -0.33588E-04  7339   0.314E-02    0.510E-02
RMM:   6    -0.363106957713E+03    0.75853E-05   -0.97841E-05  6372   0.179E-02
  21 F= -.36310696E+03 E0= -.36311358E+03  d E =-.535982E-03
       N       E                     dE             d eps       ncg     rms          rms(c)
DAV:   1    -0.363107032418E+03   -0.67119E-04   -0.44465E-03  5896   0.226E-01    0.852E-02
RMM:   2    -0.363106975321E+03    0.57096E-04   -0.46468E-04  7016   0.571E-02    0.288E-02
RMM:   3    -0.363106953294E+03    0.22027E-04   -0.11047E-04  6009   0.187E-02    0.214E-02
RMM:   4    -0.363106938457E+03    0.14837E-04   -0.23318E-05  3036   0.131E-02    0.158E-02
RMM:   5    -0.363106936249E+03    0.22086E-05   -0.11558E-05  2786   0.118E-02
  22 F= -.36310694E+03 E0= -.36311356E+03  d E =-.514517E-03
       N       E                     dE             d eps       ncg     rms          rms(c)
DAV:   1    -0.363107299723E+03   -0.36127E-03   -0.86872E-02  5008   0.824E-01    0.893E-02
RMM:   2    -0.363107409990E+03   -0.11027E-03   -0.28119E-03  7423   0.148E-01    0.461E-02
RMM:   3    -0.363107379879E+03    0.30112E-04   -0.35737E-04  6957   0.397E-02    0.302E-02
RMM:   4    -0.363107372541E+03    0.73377E-05   -0.13294E-04  6288   0.201E-02    0.150E-02
RMM:   5    -0.363107372392E+03    0.14843E-06   -0.44363E-05  4006   0.103E-02
  23 F= -.36310737E+03 E0= -.36311396E+03  d E =-.436144E-03
       N       E                     dE             d eps       ncg     rms          rms(c)
DAV:   1    -0.363107375051E+03   -0.25105E-05   -0.46424E-01  4928   0.191E+00    0.201E-01
RMM:   2    -0.363107986166E+03   -0.61111E-03   -0.14849E-02  7413   0.341E-01    0.102E-01
RMM:   3    -0.363107853521E+03    0.13264E-03   -0.20444E-03  7315   0.907E-02    0.670E-02
RMM:   4    -0.363107815830E+03    0.37692E-04   -0.64160E-04  7849   0.437E-02    0.354E-02
RMM:   5    -0.363107814922E+03    0.90797E-06   -0.22123E-04  5907   0.224E-02    0.228E-02
RMM:   6    -0.363107814065E+03    0.85667E-06   -0.90716E-05  4909   0.160E-02
  24 F= -.36310781E+03 E0= -.36311433E+03  d E =-.877816E-03
       N       E                     dE             d eps       ncg     rms          rms(c)
DAV:   1    -0.363109588603E+03   -0.17737E-02   -0.17378E-01  5168   0.129E+00    0.401E-01
RMM:   2    -0.363108721466E+03    0.86714E-03   -0.12188E-02  7002   0.292E-01    0.134E-01
RMM:   3    -0.363108423100E+03    0.29837E-03   -0.26558E-03  7551   0.101E-01    0.972E-02
RMM:   4    -0.363108177334E+03    0.24577E-03   -0.71632E-04  7572   0.533E-02    0.560E-02
RMM:   5    -0.363108155476E+03    0.21857E-04   -0.22163E-04  6918   0.283E-02    0.430E-02
RMM:   6    -0.363108169121E+03   -0.13645E-04   -0.86349E-05  5882   0.159E-02    0.251E-02
RMM:   7    -0.363108181916E+03   -0.12795E-04   -0.35242E-05  3774   0.136E-02    0.112E-02
RMM:   8    -0.363108188564E+03   -0.66485E-05   -0.22224E-05  3342   0.117E-02
  25 F= -.36310819E+03 E0= -.36311466E+03  d E =-.374499E-03
       N       E                     dE             d eps       ncg     rms          rms(c)
DAV:   1    -0.363108205613E+03   -0.23697E-04   -0.24457E-03  5528   0.154E-01    0.454E-02
RMM:   2    -0.363108195364E+03    0.10249E-04   -0.16913E-04  6796   0.344E-02    0.143E-02
RMM:   3    -0.363108192885E+03    0.24790E-05   -0.24814E-05  3291   0.124E-02
  26 F= -.36310819E+03 E0= -.36311466E+03  d E =-.378821E-03
       N       E                     dE             d eps       ncg     rms          rms(c)
DAV:   1    -0.363108591424E+03   -0.39606E-03   -0.10625E-01  4992   0.930E-01    0.132E-01
RMM:   2    -0.363108718090E+03   -0.12667E-03   -0.40875E-03  7439   0.172E-01    0.636E-02
RMM:   3    -0.363108683484E+03    0.34606E-04   -0.59060E-04  7414   0.453E-02    0.433E-02
RMM:   4    -0.363108649017E+03    0.34467E-04   -0.18004E-04  6722   0.236E-02    0.244E-02
RMM:   5    -0.363108642865E+03    0.61523E-05   -0.66593E-05  4865   0.136E-02
  27 F= -.36310864E+03 E0= -.36311511E+03  d E =-.449979E-03
       N       E                     dE             d eps       ncg     rms          rms(c)
DAV:   1    -0.363108731745E+03   -0.82728E-04   -0.66692E-01  4928   0.233E+00    0.322E-01
RMM:   2    -0.363109434729E+03   -0.70298E-03   -0.25432E-02  7437   0.431E-01    0.152E-01
RMM:   3    -0.363109182503E+03    0.25223E-03   -0.35048E-03  7449   0.113E-01    0.101E-01
RMM:   4    -0.363109012654E+03    0.16985E-03   -0.11027E-03  7515   0.577E-02    0.607E-02
RMM:   5    -0.363108982007E+03    0.30647E-04   -0.44350E-04  7292   0.331E-02    0.393E-02
RMM:   6    -0.363108969625E+03    0.12382E-04   -0.14893E-04  5864   0.194E-02    0.239E-02
RMM:   7    -0.363108969103E+03    0.52172E-06   -0.74993E-05  5067   0.144E-02
  28 F= -.36310897E+03 E0= -.36311544E+03  d E =-.776217E-03
       N       E                     dE             d eps       ncg     rms          rms(c)
DAV:   1    -0.363108988146E+03   -0.18522E-04   -0.21678E-02  5136   0.421E-01    0.599E-02
RMM:   2    -0.363109008579E+03   -0.20432E-04   -0.80677E-04  7397   0.785E-02    0.280E-02
RMM:   3    -0.363108999382E+03    0.91968E-05   -0.99451E-05  6046   0.206E-02
  29 F= -.36310900E+03 E0= -.36311547E+03  d E =-.806496E-03
       N       E                     dE             d eps       ncg     rms          rms(c)
DAV:   1    -0.363108894919E+03    0.11366E-03   -0.11188E-01  4944   0.952E-01    0.136E-01
RMM:   2    -0.363108980599E+03   -0.85679E-04   -0.44152E-03  7438   0.178E-01    0.651E-02
RMM:   3    -0.363108926936E+03    0.53662E-04   -0.60138E-04  7395   0.457E-02    0.422E-02
RMM:   4    -0.363108904037E+03    0.22899E-04   -0.19684E-04  6961   0.249E-02    0.255E-02
RMM:   5    -0.363108900576E+03    0.34613E-05   -0.64964E-05  4386   0.134E-02
  30 F= -.36310890E+03 E0= -.36311537E+03  d E =-.707690E-03
       N       E                     dE             d eps       ncg     rms          rms(c)
DAV:   1    -0.363108976639E+03   -0.72602E-04   -0.56128E-02  4944   0.675E-01    0.968E-02
RMM:   2    -0.363109035468E+03   -0.58829E-04   -0.20693E-03  7428   0.125E-01    0.437E-02
RMM:   3    -0.363109011455E+03    0.24014E-04   -0.24401E-04  7263   0.319E-02    0.289E-02
RMM:   4    -0.363108994002E+03    0.17452E-04   -0.69711E-05  6011   0.161E-02    0.162E-02
RMM:   5    -0.363108989154E+03    0.48489E-05   -0.21466E-05  3099   0.937E-03
  31 F= -.36310899E+03 E0= -.36311546E+03  d E =-.796268E-03
       N       E                     dE             d eps       ncg     rms          rms(c)
DAV:   1    -0.363108990574E+03    0.34288E-05   -0.13397E-03  5184   0.105E-01    0.148E-02
RMM:   2    -0.363108992180E+03   -0.16065E-05   -0.62286E-05  5772   0.203E-02
  32 F= -.36310899E+03 E0= -.36311547E+03  d E =-.799295E-03
       N       E                     dE             d eps       ncg     rms          rms(c)
DAV:   1    -0.363109140011E+03   -0.14944E-03   -0.53414E-02  5008   0.642E-01    0.856E-02
RMM:   2    -0.363109223237E+03   -0.83227E-04   -0.18361E-03  7351   0.118E-01    0.402E-02
RMM:   3    -0.363109202319E+03    0.20919E-04   -0.22637E-04  6988   0.305E-02    0.282E-02
RMM:   4    -0.363109186939E+03    0.15379E-04   -0.61075E-05  5305   0.149E-02    0.173E-02
RMM:   5    -0.363109183174E+03    0.37647E-05   -0.20182E-05  3088   0.988E-03
  33 F= -.36310918E+03 E0= -.36311565E+03  d E =-.190994E-03
       N       E                     dE             d eps       ncg     rms          rms(c)
DAV:   1    -0.363108996053E+03    0.19089E-03   -0.47943E-01  4928   0.192E+00    0.256E-01
RMM:   2    -0.363109695650E+03   -0.69960E-03   -0.16199E-02  7428   0.351E-01    0.119E-01
RMM:   3    -0.363109551474E+03    0.14418E-03   -0.19671E-03  7453   0.876E-02    0.799E-02
RMM:   4    -0.363109439254E+03    0.11222E-03   -0.56991E-04  7518   0.402E-02    0.493E-02
RMM:   5    -0.363109421028E+03    0.18225E-04   -0.23561E-04  7231   0.255E-02    0.318E-02
RMM:   6    -0.363109409849E+03    0.11180E-04   -0.85097E-05  5628   0.150E-02    0.204E-02
RMM:   7    -0.363109406296E+03    0.35521E-05   -0.34004E-05  3755   0.118E-02
  34 F= -.36310941E+03 E0= -.36311584E+03  d E =-.414116E-03
       N       E                     dE             d eps       ncg     rms          rms(c)
DAV:   1    -0.363109477917E+03   -0.68068E-04   -0.10615E-02  5376   0.289E-01    0.480E-02
RMM:   2    -0.363109489497E+03   -0.11581E-04   -0.45711E-04  7425   0.557E-02    0.221E-02
RMM:   3    -0.363109484137E+03    0.53604E-05   -0.71694E-05  5058   0.164E-02
  35 F= -.36310948E+03 E0= -.36311590E+03  d E =-.778405E-04
       N       E                     dE             d eps       ncg     rms          rms(c)
DAV:   1    -0.363109612996E+03   -0.12350E-03   -0.94752E-02  5040   0.863E-01    0.133E-01
RMM:   2    -0.363109711319E+03   -0.98324E-04   -0.37622E-03  7415   0.162E-01    0.593E-02
RMM:   3    -0.363109654806E+03    0.56513E-04   -0.49315E-04  7357   0.425E-02    0.390E-02
RMM:   4    -0.363109638582E+03    0.16224E-04   -0.14358E-04  6859   0.222E-02    0.238E-02
RMM:   5    -0.363109636982E+03    0.15998E-05   -0.45253E-05  3977   0.119E-02
  36 F= -.36310964E+03 E0= -.36311602E+03  d E =-.230686E-03
       N       E                     dE             d eps       ncg     rms          rms(c)
DAV:   1    -0.363109456595E+03    0.18199E-03   -0.37944E-01  5040   0.173E+00    0.261E-01
RMM:   2    -0.363109899316E+03   -0.44272E-03   -0.14505E-02  7430   0.322E-01    0.115E-01
RMM:   3    -0.363109695502E+03    0.20381E-03   -0.18549E-03  7437   0.846E-02    0.758E-02
RMM:   4    -0.363109622267E+03    0.73234E-04   -0.52512E-04  7616   0.426E-02    0.468E-02
RMM:   5    -0.363109612571E+03    0.96958E-05   -0.19848E-04  6947   0.226E-02    0.326E-02
RMM:   6    -0.363109614877E+03   -0.23060E-05   -0.74919E-05  5151   0.143E-02
  37 F= -.36310961E+03 E0= -.36311592E+03  d E =-.208581E-03
       N       E                     dE             d eps       ncg     rms          rms(c)
DAV:   1    -0.363109672365E+03   -0.59794E-04   -0.99850E-02  5152   0.889E-01    0.139E-01
RMM:   2    -0.363109802472E+03   -0.13011E-03   -0.38133E-03  7394   0.166E-01    0.593E-02
RMM:   3    -0.363109743914E+03    0.58557E-04   -0.46543E-04  7408   0.439E-02    0.393E-02
RMM:   4    -0.363109717097E+03    0.26817E-04   -0.12391E-04  6881   0.218E-02    0.227E-02
RMM:   5    -0.363109709673E+03    0.74237E-05   -0.36373E-05  4018   0.120E-02
  38 F= -.36310971E+03 E0= -.36311606E+03  d E =-.303377E-03
       N       E                     dE             d eps       ncg     rms          rms(c)
DAV:   1    -0.363109738749E+03   -0.21652E-04   -0.28498E-03  5152   0.156E-01    0.271E-02
RMM:   2    -0.363109738807E+03   -0.57691E-07   -0.13295E-04  7250   0.308E-02    0.120E-02
RMM:   3    -0.363109736811E+03    0.19957E-05   -0.15513E-05  2744   0.952E-03
  39 F= -.36310974E+03 E0= -.36311608E+03  d E =-.271379E-04
       N       E                     dE             d eps       ncg     rms          rms(c)
DAV:   1    -0.363109813359E+03   -0.74552E-04   -0.25353E-02  4992   0.464E-01    0.694E-02
RMM:   2    -0.363109826564E+03   -0.13205E-04   -0.10985E-03  7438   0.883E-02    0.314E-02
RMM:   3    -0.363109813303E+03    0.13262E-04   -0.15363E-04  6594   0.246E-02    0.196E-02
RMM:   4    -0.363109808000E+03    0.53026E-05   -0.55430E-05  4557   0.148E-02
  40 F= -.36310981E+03 E0= -.36311614E+03  d E =-.983268E-04
