 vasp.5.4.1 05Feb16 (build Jan 29 2020 16:04:39) complex                        
  
 executed on           IFC91_ompi date 2020.06.15  11:10:50
 running on  160 total cores
 distrk:  each k-point on   20 cores,    8 groups
 distr:  one band on NCORES_PER_BAND=   5 cores,    4 groups


--------------------------------------------------------------------------------------------------------


 INCAR:
 POTCAR:    PAW_PBE Zr_sv 04Jan2005               
 POTCAR:    PAW_PBE Ta 17Jan2003                  
 POTCAR:    PAW_PBE Nb_sv 25May2007               
 POTCAR:    PAW_PBE Hf 20Jan2003                  

 ----------------------------------------------------------------------------- 
|                                                                             |
|           W    W    AA    RRRRR   N    N  II  N    N   GGGG   !!!           |
|           W    W   A  A   R    R  NN   N  II  NN   N  G    G  !!!           |
|           W    W  A    A  R    R  N N  N  II  N N  N  G       !!!           |
|           W WW W  AAAAAA  RRRRR   N  N N  II  N  N N  G  GGG   !            |
|           WW  WW  A    A  R   R   N   NN  II  N   NN  G    G                |
|           W    W  A    A  R    R  N    N  II  N    N   GGGG   !!!           |
|                                                                             |
|      For optimal performance we recommend to set                            |
|        NCORE= 4 - approx SQRT( number of cores)                             |
|      NCORE specifies how many cores store one orbital (NPAR=cpu/NCORE).     |
|      This setting can  greatly improve the performance of VASP for DFT.     |
|      The default, NPAR=number of cores might be grossly inefficient         |
|      on modern multi-core architectures or massively parallel machines.     |
|      Do your own testing !!!!                                               |
|      Unfortunately you need to use the default for GW and RPA calculations. |
|      (for HF NCORE is supported but not extensively tested yet)             |
|                                                                             |
 ----------------------------------------------------------------------------- 


 ----------------------------------------------------------------------------- 
|                                                                             |
|           W    W    AA    RRRRR   N    N  II  N    N   GGGG   !!!           |
|           W    W   A  A   R    R  NN   N  II  NN   N  G    G  !!!           |
|           W    W  A    A  R    R  N N  N  II  N N  N  G       !!!           |
|           W WW W  AAAAAA  RRRRR   N  N N  II  N  N N  G  GGG   !            |
|           WW  WW  A    A  R   R   N   NN  II  N   NN  G    G                |
|           W    W  A    A  R    R  N    N  II  N    N   GGGG   !!!           |
|                                                                             |
|      You have enabled k-point parallelism (KPAR>1).                         |
|      This developmental code was originally  written by Paul Kent at ORNL,  |
|      and carefully double checked in Vienna.                                |
|      GW as well as linear response parallelism added by Martijn Marsman     |
|      and Georg Kresse.                                                      |
|      Carefully verify results versus KPAR=1.                                |
|      Report problems to Paul Kent and Vienna.                               |
|                                                                             |
 ----------------------------------------------------------------------------- 

 POTCAR:    PAW_PBE Zr_sv 04Jan2005               
   VRHFIN =Zr: 4s4p5s4d                                                         
   LEXCH  = PE                                                                  
   EATOM  =  1284.2219 eV,   94.3876 Ry                                         
                                                                                
   TITEL  = PAW_PBE Zr_sv 04Jan2005                                             
   LULTRA =        F    use ultrasoft PP ?                                      
   IUNSCR =        1    unscreen: 0-lin 1-nonlin 2-no                           
   RPACOR =    2.200    partial core radius                                     
   POMASS =   91.224; ZVAL   =   12.000    mass and valenz                      
   RCORE  =    2.500    outmost cutoff radius                                   
   RWIGS  =    3.070; RWIGS  =    1.625    wigner-seitz radius (au A)           
   ENMAX  =  229.898; ENMIN  =  172.424 eV                                      
   ICORE  =        3    local potential                                         
   LCOR   =        T    correct aug charges                                     
   LPAW   =        T    paw PP                                                  
   EAUG   =  461.257                                                            
   DEXC   =    0.000                                                            
   RMAX   =    2.561    core radius for proj-oper                               
   RAUG   =    1.300    factor for augmentation sphere                          
   RDEP   =    2.597    radius for radial grids                                 
   RDEPT  =    2.007    core radius for aug-charge                              
                                                                                
   Atomic configuration                                                         
   11 entries                                                                   
     n  l   j            E        occ.                                          
     1  0  0.50    -17820.0161   2.0000                                         
     2  0  0.50     -2467.0882   2.0000                                         
     2  1  1.50     -2199.6095   6.0000                                         
     3  0  0.50      -402.4863   2.0000                                         
     3  1  1.50      -315.3675   6.0000                                         
     3  2  2.50      -172.4472  10.0000                                         
     4  0  0.50       -52.4146   2.0000                                         
     5  0  0.50        -3.8421   1.0000                                         
     4  1  1.50       -30.5054   6.0000                                         
     4  2  2.50        -2.3341   3.0000                                         
     4  3  2.50        -1.3606   0.0000                                         
   Description                                                                  
     l       E           TYP  RCUT    TYP  RCUT                                 
     0    -52.4145962     23  2.200                                             
     0     -3.8421270     23  2.500                                             
     1    -30.5053914     23  2.200                                             
     1     20.4087390     23  2.200                                             
     2     -2.3340816     23  2.500                                             
     2     -0.6120942     23  2.500                                             
     3     -4.0817478     23  2.500                                             
  local pseudopotential read in
  partial core-charges read in
  partial kinetic energy density read in
  atomic valenz-charges read in
  non local Contribution for L=           0  read in
    real space projection operators read in
  non local Contribution for L=           0  read in
    real space projection operators read in
  non local Contribution for L=           1  read in
    real space projection operators read in
  non local Contribution for L=           1  read in
    real space projection operators read in
  non local Contribution for L=           2  read in
    real space projection operators read in
  non local Contribution for L=           2  read in
    real space projection operators read in
    PAW grid and wavefunctions read in
 
   number of l-projection  operators is LMAX  =           6
   number of lm-projection operators is LMMAX =          18
 
 POTCAR:    PAW_PBE Ta 17Jan2003                  
   VRHFIN =Ta:  6s5d                                                            
   LEXCH  = PE                                                                  
   EATOM  =   130.6506 eV,    9.6025 Ry                                         
                                                                                
   TITEL  = PAW_PBE Ta 17Jan2003                                                
   LULTRA =        F    use ultrasoft PP ?                                      
   IUNSCR =        1    unscreen: 0-lin 1-nonlin 2-no                           
   RPACOR =    2.330    partial core radius                                     
   POMASS =  180.948; ZVAL   =    5.000    mass and valenz                      
   RCORE  =    2.900    outmost cutoff radius                                   
   RWIGS  =    2.840; RWIGS  =    1.503    wigner-seitz radius (au A)           
   ENMAX  =  223.667; ENMIN  =  167.750 eV                                      
   RCLOC  =    2.205    cutoff for local pot                                    
   LCOR   =        T    correct aug charges                                     
   LPAW   =        T    paw PP                                                  
   EAUG   =  332.075                                                            
   DEXC   =    0.000                                                            
   RMAX   =    2.970    core radius for proj-oper                               
   RAUG   =    1.300    factor for augmentation sphere                          
   RDEP   =    3.060    radius for radial grids                                 
   RDEPT  =    2.354    core radius for aug-charge                              
                                                                                
   Atomic configuration                                                         
   16 entries                                                                   
     n  l   j            E        occ.                                          
     1  0  0.50    -67341.2807   2.0000                                         
     2  0  0.50    -11566.9376   2.0000                                         
     2  1  1.50    -10134.1182   6.0000                                         
     3  0  0.50     -2648.5620   2.0000                                         
     3  1  1.50     -2222.6012   6.0000                                         
     3  2  2.50     -1726.3120  10.0000                                         
     4  0  0.50      -538.6961   2.0000                                         
     4  1  1.50      -399.0129   6.0000                                         
     4  2  2.50      -220.3959  10.0000                                         
     4  3  3.50       -23.0374  14.0000                                         
     5  0  0.50       -71.2901   2.0000                                         
     5  1  1.50       -37.8225   6.0000                                         
     5  2  2.50        -2.6455   4.0000                                         
     6  0  0.50        -4.9623   1.0000                                         
     6  1  1.50        -1.3606   0.0000                                         
     5  3  2.50        -1.3606   0.0000                                         
   Description                                                                  
     l       E           TYP  RCUT    TYP  RCUT                                 
     2     -2.6455043     23  2.500                                             
     2     -0.6258895     23  2.500                                             
     0     -4.9622780     23  2.500                                             
     0      4.7531321     23  2.500                                             
     1     -1.3605826     23  2.900                                             
     1     27.2116520     23  2.900                                             
  local pseudopotential read in
  partial core-charges read in
  partial kinetic energy density read in
  atomic valenz-charges read in
  non local Contribution for L=           2  read in
    real space projection operators read in
  non local Contribution for L=           2  read in
    real space projection operators read in
  non local Contribution for L=           0  read in
    real space projection operators read in
  non local Contribution for L=           0  read in
    real space projection operators read in
  non local Contribution for L=           1  read in
    real space projection operators read in
  non local Contribution for L=           1  read in
    real space projection operators read in
    PAW grid and wavefunctions read in
 
   number of l-projection  operators is LMAX  =           6
   number of lm-projection operators is LMMAX =          18
 
 POTCAR:    PAW_PBE Nb_sv 25May2007               
   VRHFIN =Nb: 4p5s4d                                                           
   LEXCH  = PE                                                                  
   EATOM  =  1555.1913 eV,  114.3033 Ry                                         
                                                                                
   TITEL  = PAW_PBE Nb_sv 25May2007                                             
   LULTRA =        F    use ultrasoft PP ?                                      
   IUNSCR =        1    unscreen: 0-lin 1-nonlin 2-no                           
   RPACOR =    1.800    partial core radius                                     
   POMASS =   92.910; ZVAL   =   13.000    mass and valenz                      
   RCORE  =    2.400    outmost cutoff radius                                   
   RWIGS  =    2.400; RWIGS  =    1.270    wigner-seitz radius (au A)           
   ENMAX  =  293.235; ENMIN  =  219.927 eV                                      
   ICORE  =        3    local potential                                         
   LCOR   =        T    correct aug charges                                     
   LPAW   =        T    paw PP                                                  
   EAUG   =  455.659                                                            
   DEXC   =    0.000                                                            
   RMAX   =    2.456    core radius for proj-oper                               
   RAUG   =    1.300    factor for augmentation sphere                          
   RDEP   =    2.451    radius for radial grids                                 
   RDEPT  =    1.956    core radius for aug-charge                              
                                                                                
   Atomic configuration                                                         
   11 entries                                                                   
     n  l   j            E        occ.                                          
     1  0  0.50    -18805.2457   2.0000                                         
     2  0  0.50     -2630.2869   2.0000                                         
     2  1  1.50     -2348.4046   6.0000                                         
     3  0  0.50      -438.8757   2.0000                                         
     3  1  1.50      -346.7588   6.0000                                         
     3  2  2.50      -196.2560  10.0000                                         
     4  0  0.50       -58.3859   2.0000                                         
     5  0  0.50        -3.9816   1.0000                                         
     4  1  1.50       -34.5141   6.0000                                         
     4  2  2.50        -3.0408   4.0000                                         
     4  3  2.50        -1.3606   0.0000                                         
   Description                                                                  
     l       E           TYP  RCUT    TYP  RCUT                                 
     0    -58.3859094     23  2.200                                             
     0     -3.9816262     23  2.200                                             
     1    -34.5140738     23  2.200                                             
     1     13.6058260     23  2.200                                             
     2     -3.0408010     23  2.200                                             
     2     -0.1283038     23  2.200                                             
     3     -1.3605826     23  2.400                                             
  local pseudopotential read in
  partial core-charges read in
  partial kinetic energy density read in
  atomic valenz-charges read in
  non local Contribution for L=           0  read in
    real space projection operators read in
  non local Contribution for L=           0  read in
    real space projection operators read in
  non local Contribution for L=           1  read in
    real space projection operators read in
  non local Contribution for L=           1  read in
    real space projection operators read in
  non local Contribution for L=           2  read in
    real space projection operators read in
  non local Contribution for L=           2  read in
    real space projection operators read in
    PAW grid and wavefunctions read in
 
   number of l-projection  operators is LMAX  =           6
   number of lm-projection operators is LMMAX =          18
 
 POTCAR:    PAW_PBE Hf 20Jan2003                  
   VRHFIN =Hf: 6s5d                                                             
   LEXCH  = PE                                                                  
   EATOM  =    75.9011 eV,    5.5786 Ry                                         
                                                                                
   TITEL  = PAW_PBE Hf 20Jan2003                                                
   LULTRA =        F    use ultrasoft PP ?                                      
   IUNSCR =        1    unscreen: 0-lin 1-nonlin 2-no                           
   RPACOR =    2.500    partial core radius                                     
   POMASS =  178.490; ZVAL   =    4.000    mass and valenz                      
   RCORE  =    3.000    outmost cutoff radius                                   
   RWIGS  =    3.050; RWIGS  =    1.614    wigner-seitz radius (au A)           
   ENMAX  =  220.334; ENMIN  =  165.250 eV                                      
   RCLOC  =    2.212    cutoff for local pot                                    
   LCOR   =        T    correct aug charges                                     
   LPAW   =        T    paw PP                                                  
   EAUG   =  335.116                                                            
   DEXC   =    0.000                                                            
   RMAX   =    3.077    core radius for proj-oper                               
   RAUG   =    1.300    factor for augmentation sphere                          
   RDEP   =    3.047    radius for radial grids                                 
   RDEPT  =    2.344    core radius for aug-charge                              
                                                                                
   Atomic configuration                                                         
   16 entries                                                                   
     n  l   j            E        occ.                                          
     1  0  0.50    -65259.4397   2.0000                                         
     2  0  0.50    -11157.9882   2.0000                                         
     2  1  1.50     -9795.2113   6.0000                                         
     3  0  0.50     -2541.4058   2.0000                                         
     3  1  1.50     -2134.4770   6.0000                                         
     3  2  2.50     -1653.5418  10.0000                                         
     4  0  0.50      -510.9575   2.0000                                         
     4  1  1.50      -377.5023   6.0000                                         
     4  2  2.50      -205.2085  10.0000                                         
     4  3  3.50       -15.4905  14.0000                                         
     5  0  0.50       -65.6020   2.0000                                         
     5  1  1.50       -34.2798   6.0000                                         
     5  2  2.50        -1.9877   3.0000                                         
     6  0  0.50        -4.7357   1.0000                                         
     6  1  1.50        -1.3606   0.0000                                         
     5  3  2.50        -1.3606   0.0000                                         
   Description                                                                  
     l       E           TYP  RCUT    TYP  RCUT                                 
     2     -1.9876627     23  2.500                                             
     2      0.0744703     23  2.500                                             
     0     -4.7356889     23  2.600                                             
     0      3.2364747     23  2.600                                             
     1     -1.3605826     23  3.000                                             
     1     27.2116520     23  3.000                                             
  local pseudopotential read in
  partial core-charges read in
  partial kinetic energy density read in
  atomic valenz-charges read in
  non local Contribution for L=           2  read in
    real space projection operators read in
  non local Contribution for L=           2  read in
    real space projection operators read in
  non local Contribution for L=           0  read in
    real space projection operators read in
  non local Contribution for L=           0  read in
    real space projection operators read in
  non local Contribution for L=           1  read in
    real space projection operators read in
  non local Contribution for L=           1  read in
    real space projection operators read in
    PAW grid and wavefunctions read in
 
   number of l-projection  operators is LMAX  =           6
   number of lm-projection operators is LMMAX =          18
 
 Optimization of the real space projectors (new method)

 maximal supplied QI-value         = 15.12
 optimisation between [QCUT,QGAM] = [  8.77, 17.69] = [ 21.53, 87.61] Ry 
 Optimized for a Real-space Cutoff    1.74 Angstroem

   l    n(q)    QCUT    max X(q) W(low)/X(q) W(high)/X(q)  e(spline) 
   0      9     8.768    12.107    0.28E-04    0.53E-06    0.29E-07
   0      9     8.768     9.948    0.36E-04    0.50E-05    0.64E-07
   1      9     8.768     3.563    0.14E-04    0.16E-04    0.88E-07
   1      9     8.768     4.524    0.21E-03    0.33E-03    0.19E-06
   2      8     8.768    87.261    0.19E-03    0.25E-03    0.24E-06
   2      8     8.768    70.950    0.19E-03    0.24E-03    0.24E-06
 Optimization of the real space projectors (new method)

 maximal supplied QI-value         = 12.85
 optimisation between [QCUT,QGAM] = [  8.87, 17.73] = [ 22.01, 88.06] Ry 
 Optimized for a Real-space Cutoff    1.90 Angstroem

   l    n(q)    QCUT    max X(q) W(low)/X(q) W(high)/X(q)  e(spline) 
   2      9     8.867    62.315    0.23E-03    0.62E-04    0.11E-05
   2      9     8.867    52.185    0.23E-03    0.62E-04    0.11E-05
   0     10     8.867   103.837    0.15E-04    0.23E-04    0.98E-07
   0     10     8.867    59.728    0.12E-04    0.21E-04    0.89E-07
   1     10     8.867    13.958    0.50E-04    0.22E-04    0.14E-06
   1     10     8.867     8.441    0.36E-04    0.19E-04    0.98E-07
 Optimization of the real space projectors (new method)

 maximal supplied QI-value         = 15.68
 optimisation between [QCUT,QGAM] = [  8.78, 17.72] = [ 21.60, 87.97] Ry 
 Optimized for a Real-space Cutoff    1.96 Angstroem

   l    n(q)    QCUT    max X(q) W(low)/X(q) W(high)/X(q)  e(spline) 
   0     10     8.783    10.201    0.29E-04    0.25E-05    0.69E-07
   0     10     8.783     8.174    0.45E-04    0.57E-05    0.14E-06
   1     10     8.783     3.488    0.76E-05    0.24E-04    0.95E-07
   1     10     8.783     4.917    0.78E-04    0.14E-03    0.46E-06
   2      9     8.783   153.744    0.22E-03    0.34E-04    0.15E-05
   2      9     8.783   126.342    0.22E-03    0.35E-04    0.15E-05
 Optimization of the real space projectors (new method)

 maximal supplied QI-value         = 12.47
 optimisation between [QCUT,QGAM] = [  8.86, 17.71] = [ 21.96, 87.83] Ry 
 Optimized for a Real-space Cutoff    1.90 Angstroem

   l    n(q)    QCUT    max X(q) W(low)/X(q) W(high)/X(q)  e(spline) 
   2      9     8.855    48.111    0.22E-03    0.80E-04    0.10E-05
   2      9     8.855    40.545    0.21E-03    0.76E-04    0.95E-06
   0     10     8.855   121.658    0.27E-04    0.12E-04    0.11E-06
   0     10     8.855    71.177    0.22E-04    0.11E-04    0.99E-07
   1     10     8.855    14.183    0.65E-04    0.10E-03    0.98E-07
   1     10     8.855     8.257    0.43E-04    0.73E-04    0.72E-07
  PAW_PBE Zr_sv 04Jan2005               :
 energy of atom  1       EATOM=-1284.2219
 kinetic energy error for atom=    0.0483 (will be added to EATOM!!)
  PAW_PBE Ta 17Jan2003                  :
 energy of atom  2       EATOM= -130.6506
 kinetic energy error for atom=    0.0121 (will be added to EATOM!!)
  PAW_PBE Nb_sv 25May2007               :
 energy of atom  3       EATOM=-1555.1913
 kinetic energy error for atom=    0.0655 (will be added to EATOM!!)
  PAW_PBE Hf 20Jan2003                  :
 energy of atom  4       EATOM=  -75.9011
 kinetic energy error for atom=    0.0071 (will be added to EATOM!!)
 
 
 POSCAR: generated by pypospack                  
  positions in direct lattice
  No initial velocities read in
 exchange correlation table for  LEXCH =        8
   RHO(1)=    0.500       N(1)  =     2000
   RHO(2)=  100.500       N(2)  =     4000
 


--------------------------------------------------------------------------------------------------------


 ion  position               nearest neighbor table
   1  0.243  0.838  0.836-  27 2.91  18 2.92  13 2.97  10 2.99  28 3.00   6 3.01   4 3.03  35 3.03
                            17 3.06  30 3.15  23 3.29  31 3.40   7 3.46
   2  0.752  0.493  0.178-  29 2.89  19 2.90  15 2.93  10 2.96  22 2.98   4 3.02  36 3.05   3 3.07
                            11 3.21  20 3.34   9 3.34   9 3.47  12 3.47  14 3.62
   3  0.017  0.331  0.995-  30 2.89  14 2.96   5 2.99   9 3.00  34 3.03  17 3.04   2 3.07  20 3.10
                            36 3.17  33 3.36  13 3.36  10 3.42  36 3.63
   4  0.512  0.661  0.993-  30 2.88  23 2.96  14 2.97  12 3.02   2 3.02   1 3.03   9 3.04  31 3.05
                            10 3.19  36 3.27  35 3.37   6 3.40  10 3.62
   5  0.255  0.160  0.174-  25 2.89  26 2.90  19 2.92  29 2.98   3 2.99  36 3.00  13 3.00   6 3.01
                            16 3.25  31 3.34  20 3.35  20 3.45  17 3.50   9 3.51
   6  0.522  0.998  0.004-  12 2.83  20 2.84  23 2.88  34 2.88  17 2.90   5 3.01   1 3.01  31 3.02
                            13 3.11   4 3.40  36 3.44  18 3.50
   7  0.245  0.838  0.496-  18 2.84  26 2.86  15 2.87  27 2.87  25 2.90  22 2.90  28 2.95  35 2.98
                            16 3.22   8 3.31  31 3.33   1 3.46   8 3.49
   8  0.758  0.838  0.497-  26 2.81  18 2.84  15 2.85  25 2.87  27 2.89  28 2.90  22 2.92  35 2.94
                            12 3.29   7 3.31  21 3.32  11 3.43   7 3.49
   9  0.243  0.508  0.178-  15 2.86  29 2.86  22 2.89  19 2.94   3 3.00  10 3.01   4 3.04  36 3.04
                            24 3.17  31 3.24   2 3.34   2 3.47   5 3.51
  10  0.980  0.669  0.002-  30 2.76  23 2.88  14 2.89  12 2.90   2 2.96  31 2.97   1 2.99   9 3.01
                             4 3.19  13 3.33   3 3.42  15 3.45   4 3.62
  11  0.753  0.498  0.493-  29 2.85  15 2.85  22 2.86  19 2.87  28 2.90  35 2.97  32 3.02  33 3.03
                             2 3.21  21 3.34  14 3.35   8 3.43
  12  0.750  0.837  0.173-  26 2.82  13 2.83   6 2.83  25 2.85  10 2.90  15 2.94  22 2.99   4 3.02
                            20 3.28   8 3.29  31 3.40  31 3.40   2 3.47
  13  0.980  0.999  0.006-  12 2.83  23 2.83  20 2.86  34 2.95   1 2.97  17 2.98   5 3.00  31 3.01
                             6 3.11  10 3.33   3 3.36
  14  0.769  0.497  0.822-  28 2.82  33 2.89  10 2.89  32 2.94   3 2.96   4 2.97  35 3.00  36 3.06
                            30 3.08  11 3.35  34 3.37   2 3.62
  15  0.997  0.669  0.340-  24 2.80   8 2.85  11 2.85   9 2.86   7 2.87  31 2.93   2 2.93  12 2.94
                            28 3.26  26 3.29  10 3.45
  16  0.256  0.157  0.494-  25 2.85  19 2.86  27 2.88  26 2.90  29 2.92  18 2.94  33 2.95  32 3.00
                             7 3.22   5 3.25  21 3.37  17 3.43  21 3.44
  17  0.261  0.141  0.831-  27 2.81  18 2.85   6 2.90  36 2.98  13 2.98  32 3.01   3 3.04  33 3.05
                             1 3.06  34 3.29  16 3.43   5 3.50  34 3.53
  18  0.502  0.987  0.660-   7 2.84   8 2.84  17 2.85  23 2.88   1 2.92  16 2.94  34 2.95  21 2.98
                            35 3.19  25 3.31   6 3.50  32 3.62
  19  0.490  0.336  0.341-  24 2.85  16 2.86  11 2.87   2 2.90   5 2.92  21 2.93   9 2.94  20 3.01
                            29 3.26  22 3.32  32 3.35  36 3.55
  20  0.747  0.162  0.174-   6 2.84  25 2.85  13 2.86  26 2.89  19 3.01  29 3.04   3 3.10  36 3.13
                            12 3.28  21 3.29   2 3.34   5 3.35   5 3.45  34 3.53
  21  0.751  0.167  0.497-  25 2.89  19 2.93  29 2.93  26 2.94  27 2.94  18 2.98  33 3.03  32 3.13
                            20 3.29   8 3.32  11 3.34  34 3.36  16 3.37  16 3.44
  22  0.498  0.665  0.344-  24 2.77  11 2.86   9 2.89   7 2.90   8 2.92  31 2.96   2 2.98  12 2.99
                            35 3.24  19 3.32
  23  0.759  0.839  0.831-  13 2.83   6 2.88  10 2.88  18 2.88  27 2.90  28 2.94   4 2.96  35 2.96
                            34 3.28   1 3.29
  24  0.245  0.507  0.490-  22 2.77  29 2.77  15 2.80  19 2.85  33 2.90  28 2.92  32 2.93  35 2.98
                             9 3.17
  25  0.506  0.997  0.336-  16 2.85  12 2.85  20 2.85   8 2.87   5 2.89  21 2.89   7 2.90  31 2.96
                            18 3.31
  26  0.997  0.995  0.333-   8 2.81  12 2.82   7 2.86  20 2.89  16 2.90   5 2.90  31 2.93  21 2.94
                            15 3.29
  27  0.005  0.001  0.662-  17 2.81   7 2.87  16 2.88   8 2.89  23 2.90   1 2.91  21 2.94  34 2.95
                            33 3.36
  28  0.995  0.666  0.660-  30 2.75  14 2.82  11 2.90   8 2.90  24 2.92  23 2.94   7 2.95   1 3.00
                            15 3.26  35 3.33  33 3.35
  29  0.011  0.338  0.341-  24 2.77  11 2.85   9 2.86   2 2.89  16 2.92  21 2.93   5 2.98  20 3.04
                            19 3.26  33 3.29
  30  0.220  0.526  0.836-  28 2.75  10 2.76   4 2.88   3 2.89  33 2.92  35 3.00  32 3.05  36 3.07
                            14 3.08   1 3.15
  31  0.250  0.829  0.169-  15 2.93  26 2.93  25 2.96  22 2.96  10 2.97  13 3.01   6 3.02   4 3.05
                             9 3.24   7 3.33   5 3.34   1 3.40  12 3.40  12 3.40
  32  0.477  0.345  0.670-  24 2.93  14 2.94  16 3.00  17 3.01  11 3.02  34 3.04  30 3.05  33 3.08
                            21 3.13  36 3.29  35 3.29  19 3.35  18 3.62  33 3.72
  33  0.024  0.335  0.664-  14 2.89  24 2.90  30 2.92  16 2.95  21 3.03  11 3.03  17 3.05  34 3.06
                            32 3.08  29 3.29  28 3.35  27 3.36   3 3.36  32 3.72
  34  0.744  0.164  0.827-   6 2.88  27 2.95  13 2.95  18 2.95  36 3.01   3 3.03  32 3.04  33 3.06
                            23 3.28  17 3.29  21 3.36  14 3.37  17 3.53  20 3.53
  35  0.505  0.670  0.662-   8 2.94  23 2.96  11 2.97   7 2.98  24 2.98  14 3.00  30 3.00   1 3.03
                            18 3.19  22 3.24  32 3.29  28 3.33   4 3.37
  36  0.484  0.337  0.992-  17 2.98   5 3.00  34 3.01   9 3.04   2 3.05  14 3.06  30 3.07  20 3.13
                             3 3.17   4 3.27  32 3.29   6 3.44  19 3.55   3 3.63
 
  LATTYP: Found a triclinic cell.
 ALAT       =    19.7286928605
 B/A-ratio  =     0.3446463843
 C/A-ratio  =     0.5160503091
 COS(alpha) =     0.0007879552
 COS(beta)  =     0.5170921637
 COS(gamma) =     0.6868944748
  
  Lattice vectors:
  
 A1 = (  13.5754162963,  10.0531257105, -10.1913717338)
 A2 = (   6.7993957585,  -0.0189256481,  -0.0027685121)
 A3 = (   0.0038908818,   0.0050581463, -10.1809960490)


Analysis of symmetry for initial positions (statically):
=====================================================================
 Subroutine PRICEL returns:
 Original cell was already a primitive cell.
 

 Routine SETGRP: Setting up the symmetry group for a 
 triclinic supercell.


 Subroutine GETGRP returns: Found  1 space group operations
 (whereof  1 operations were pure point group operations)
 out of a pool of  2 trial point group operations.


The static configuration has the point symmetry C_1 .


Analysis of symmetry for dynamics (positions and initial velocities):
=====================================================================
 Subroutine PRICEL returns:
 Original cell was already a primitive cell.
 

 Routine SETGRP: Setting up the symmetry group for a 
 triclinic supercell.


 Subroutine GETGRP returns: Found  1 space group operations
 (whereof  1 operations were pure point group operations)
 out of a pool of  2 trial point group operations.


The dynamic configuration has the point symmetry C_1 .


 Subroutine INISYM returns: Found  1 space group operations
 (whereof  1 operations are pure point group operations),
 and found     1 'primitive' translations

 
 
 KPOINTS: k-points                                

Automatic generation of k-mesh.
Space group operators:
 irot       det(A)        alpha          n_x          n_y          n_z        tau_x        tau_y        tau_z
    1     1.000000     0.000000     1.000000     0.000000     0.000000     0.000000     0.000000     0.000000
 
 Subroutine IBZKPT returns following result:
 ===========================================
 
 Found     14 irreducible k-points:
 
 Following reciprocal coordinates:
            Coordinates               Weight
  0.000000  0.000000  0.000000      1.000000
  0.333333  0.000000 -0.000000      2.000000
 -0.000000  0.333333  0.000000      2.000000
  0.333333  0.333333  0.000000      2.000000
 -0.333333  0.333333 -0.000000      2.000000
  0.000000  0.000000  0.333333      2.000000
  0.333333  0.000000  0.333333      2.000000
 -0.333333 -0.000000  0.333333      2.000000
 -0.000000  0.333333  0.333333      2.000000
  0.333333  0.333333  0.333333      2.000000
 -0.333333  0.333333  0.333333      2.000000
 -0.000000 -0.333333  0.333333      2.000000
  0.333333 -0.333333  0.333333      2.000000
 -0.333333 -0.333333  0.333333      2.000000
 
 Following cartesian coordinates:
            Coordinates               Weight
  0.000000  0.000000  0.000000      1.000000
  0.244549  0.000661  0.000094      2.000000
  0.000459  0.164862  0.000082      2.000000
  0.245008  0.165523  0.000176      2.000000
 -0.244090  0.164201 -0.000012      2.000000
  0.000067  0.000079  0.163321      2.000000
  0.244615  0.000740  0.163415      2.000000
 -0.244482 -0.000583  0.163227      2.000000
  0.000526  0.164940  0.163403      2.000000
  0.245074  0.165602  0.163497      2.000000
 -0.244023  0.164279  0.163309      2.000000
 -0.000392 -0.164783  0.163239      2.000000
  0.244156 -0.164122  0.163333      2.000000
 -0.244941 -0.165444  0.163145      2.000000
 


--------------------------------------------------------------------------------------------------------




 Dimension of arrays:
   k-points           NKPTS =     14   k-points in BZ     NKDIM =     14   number of bands    NBANDS=    168
   number of dos      NEDOS =    301   number of ions     NIONS =     36
   non local maximal  LDIM  =      6   non local SUM 2l+1 LMDIM =     18
   total plane-waves  NPLWV = 144000
   max r-space proj   IRMAX =   6560   max aug-charges    IRDMAX=  14237
   dimension x,y,z NGX =    40 NGY =   60 NGZ =   60
   dimension x,y,z NGXF=    80 NGYF=  120 NGZF=  120
   support grid    NGXF=    80 NGYF=  120 NGZF=  120
   ions per type =               5  16   9   6
 NGX,Y,Z   is equivalent  to a cutoff of   9.78,  9.89,  9.80 a.u.
 NGXF,Y,Z  is equivalent  to a cutoff of  19.56, 19.78, 19.59 a.u.


 I would recommend the setting:
   dimension x,y,z NGX =    38 NGY =   57 NGZ =   58
 SYSTEM =  automatically generated by mexm         
 POSCAR =  generated by pypospack                  

 Startparameter for this run:
   NWRITE =      2    write-flag & timer
   PREC   = accura    normal or accurate (medium, high low for compatibility)
   ISTART =      0    job   : 0-new  1-cont  2-samecut
   ICHARG =      2    charge: 1-file 2-atom 10-const
   ISPIN  =      1    spin polarized calculation?
   LNONCOLLINEAR =      F non collinear calculations
   LSORBIT =      F    spin-orbit coupling
   INIWAV =      1    electr: 0-lowe 1-rand  2-diag
   LASPH  =      F    aspherical Exc in radial PAW
   METAGGA=      F    non-selfconsistent MetaGGA calc.

 Electronic Relaxation 1
   ENCUT  =  300.0 eV  22.05 Ry    4.70 a.u.   9.60 14.24 14.38*2*pi/ulx,y,z
   ENINI  =  300.0     initial cutoff
   ENAUG  =  461.3 eV  augmentation charge cutoff
   NELM   =     70;   NELMIN=  2; NELMDL= -5     # of ELM steps 
   EDIFF  = 0.1E-04   stopping-criterion for ELM
   LREAL  =      T    real-space projection
   NLSPLINE    = F    spline interpolate recip. space projectors
   LCOMPAT=      F    compatible to vasp.4.4
   GGA_COMPAT  = T    GGA compatible to vasp.4.4-vasp.4.6
   LMAXPAW     = -100 max onsite density
   LMAXMIX     =    2 max onsite mixed and CHGCAR
   VOSKOWN=      0    Vosko Wilk Nusair interpolation
   ROPT   =   -0.00025  -0.00025  -0.00025  -0.00025
 Ionic relaxation
   EDIFFG = -.1E-01   stopping-criterion for IOM
   NSW    =    300    number of steps for IOM
   NBLOCK =      1;   KBLOCK =    300    inner block; outer block 
   IBRION =      2    ionic relax: 0-MD 1-quasi-New 2-CG
   NFREE  =      1    steps in history (QN), initial steepest desc. (CG)
   ISIF   =      3    stress and relaxation
   IWAVPR =     11    prediction:  0-non 1-charg 2-wave 3-comb
   ISYM   =      1    0-nonsym 1-usesym 2-fastsym
   LCORR  =      T    Harris-Foulkes like correction to forces

   POTIM  = 0.1500    time-step for ionic-motion
   TEIN   =    0.0    initial temperature
   TEBEG  =    0.0;   TEEND  =   0.0 temperature during run
   SMASS  =  -3.00    Nose mass-parameter (am)
   estimated Nose-frequenzy (Omega)   =  0.10E-29 period in steps =****** mass=  -0.106E-26a.u.
   SCALEE = 1.0000    scale energy and forces
   NPACO  =    256;   APACO  = 16.0  distance and # of slots for P.C.
   PSTRESS=    0.0 pullay stress

  Mass of Ions in am
   POMASS =  91.22180.95 92.91178.49
  Ionic Valenz
   ZVAL   =  12.00  5.00 13.00  4.00
  Atomic Wigner-Seitz radii
   RWIGS  =  -1.00 -1.00 -1.00 -1.00
  virtual crystal weights 
   VCA    =   1.00  1.00  1.00  1.00
   NELECT =     281.0000    total number of electrons
   NUPDOWN=      -1.0000    fix difference up-down

 DOS related values:
   EMIN   =  10.00;   EMAX   =-10.00  energy-range for DOS
   EFERMI =   0.00
   ISMEAR =     1;   SIGMA  =   0.15  broadening in eV -4-tet -1-fermi 0-gaus

 Electronic relaxation 2 (details)
   IALGO  =     68    algorithm
   LDIAG  =      T    sub-space diagonalisation (order eigenvalues)
   LSUBROT=      F    optimize rotation matrix (better conditioning)
   TURBO    =      0    0=normal 1=particle mesh
   IRESTART =      0    0=no restart 2=restart with 2 vectors
   NREBOOT  =      0    no. of reboots
   NMIN     =      0    reboot dimension
   EREF     =   0.00    reference energy to select bands
   IMIX   =      4    mixing-type and parameters
     AMIX     =   0.40;   BMIX     =  1.00
     AMIX_MAG =   1.60;   BMIX_MAG =  1.00
     AMIN     =   0.10
     WC   =   100.;   INIMIX=   1;  MIXPRE=   1;  MAXMIX= -45

 Intra band minimization:
   WEIMIN = 0.0010     energy-eigenvalue tresh-hold
   EBREAK =  0.15E-07  absolut break condition
   DEPER  =   0.30     relativ break condition  

   TIME   =   0.40     timestep for ELM

  volume/ion in A,a.u.               =      19.39       130.88
  Fermi-wavevector in a.u.,A,eV,Ry     =   1.208702  2.284116 19.877589  1.460962
  Thomas-Fermi vector in A             =   2.344302
 
 Write flags
   LWAVE  =      F    write WAVECAR
   LCHARG =      F    write CHGCAR
   LVTOT  =      F    write LOCPOT, total local potential
   LVHAR  =      F    write LOCPOT, Hartree potential only
   LELF   =      F    write electronic localiz. function (ELF)
   LORBIT =      0    0 simple, 1 ext, 2 COOP (PROOUT)


 Dipole corrections
   LMONO  =      F    monopole corrections only (constant potential shift)
   LDIPOL =      F    correct potential (dipole corrections)
   IDIPOL =      0    1-x, 2-y, 3-z, 4-all directions 
   EPSILON=  1.0000000 bulk dielectric constant

 Exchange correlation treatment:
   GGA     =    --    GGA type
   LEXCH   =     8    internal setting for exchange type
   VOSKOWN=      0    Vosko Wilk Nusair interpolation
   LHFCALC =     F    Hartree Fock is set to
   LHFONE  =     F    Hartree Fock one center treatment
   AEXX    =    0.0000 exact exchange contribution

 Linear response parameters
   LEPSILON=     F    determine dielectric tensor
   LRPA    =     F    only Hartree local field effects (RPA)
   LNABLA  =     F    use nabla operator in PAW spheres
   LVEL    =     F    velocity operator in full k-point grid
   LINTERFAST=   F  fast interpolation
   KINTER  =     0    interpolate to denser k-point grid
   CSHIFT  =0.1000    complex shift for real part using Kramers Kronig
   OMEGAMAX=  -1.0    maximum frequency
   DEG_THRESHOLD= 0.2000000E-02 threshold for treating states as degnerate
   RTIME   =    0.100 relaxation time in fs

 Orbital magnetization related:
   ORBITALMAG=     F  switch on orbital magnetization
   LCHIMAG   =     F  perturbation theory with respect to B field
   DQ        =  0.001000  dq finite difference perturbation B field



--------------------------------------------------------------------------------------------------------


 conjugate gradient relaxation of ions
 charge density and potential will be updated during run
 non-spin polarized calculation
 RMM-DIIS sequential band-by-band and
  variant of blocked Davidson during initial phase
 perform sub-space diagonalisation
    before iterative eigenvector-optimisation
 modified Broyden-mixing scheme, WC =      100.0
 initial mixing is a Kerker type mixing with AMIX =  0.4000 and BMIX =      1.0000
 Hartree-type preconditioning will be used
 using additional bands           27
 real space projection scheme for non local part
 use partial core corrections
 calculate Harris-corrections to forces 
   (improved forces if not selfconsistent)
 use gradient corrections 
 use of overlap-Matrix (Vanderbilt PP)
 Methfessel and Paxton  Order N= 1 SIGMA  =   0.15


--------------------------------------------------------------------------------------------------------


  energy-cutoff  :      300.00
  volume of cell :      698.19
      direct lattice vectors                 reciprocal lattice vectors
     6.799395758 -0.018925648 -0.002768512     0.147073022  0.000397622  0.000056405
    -0.027266102 10.085918860 -0.004838661     0.000275994  0.099148900  0.000049365
    -0.003890882 -0.005058146 10.180996049     0.000040125  0.000047230  0.098222255

  length of vectors
     6.799422661 10.085956876 10.180998049     0.147073570  0.099149297  0.098222275


 
 k-points in units of 2pi/SCALE and weight: k-points                                
   0.00000000  0.00000000  0.00000000       0.037
   0.24454861  0.00066115  0.00009379       0.074
   0.00045891  0.16486182  0.00008208       0.074
   0.24500752  0.16552297  0.00017587       0.074
  -0.24408969  0.16420066 -0.00001171       0.074
   0.00006672  0.00007853  0.16332102       0.074
   0.24461533  0.00073969  0.16341481       0.074
  -0.24448189 -0.00058262  0.16322723       0.074
   0.00052563  0.16494035  0.16340310       0.074
   0.24507424  0.16560150  0.16349689       0.074
  -0.24402298  0.16427920  0.16330931       0.074
  -0.00039220 -0.16478328  0.16323894       0.074
   0.24415641 -0.16412213  0.16333273       0.074
  -0.24494081 -0.16544444  0.16314515       0.074
 
 k-points in reciprocal lattice and weights: k-points                                
   0.00000000  0.00000000  0.00000000       0.037
   0.33333333  0.00000000 -0.00000000       0.074
  -0.00000000  0.33333333  0.00000000       0.074
   0.33333333  0.33333333  0.00000000       0.074
  -0.33333333  0.33333333 -0.00000000       0.074
   0.00000000  0.00000000  0.33333333       0.074
   0.33333333  0.00000000  0.33333333       0.074
  -0.33333333 -0.00000000  0.33333333       0.074
  -0.00000000  0.33333333  0.33333333       0.074
   0.33333333  0.33333333  0.33333333       0.074
  -0.33333333  0.33333333  0.33333333       0.074
  -0.00000000 -0.33333333  0.33333333       0.074
   0.33333333 -0.33333333  0.33333333       0.074
  -0.33333333 -0.33333333  0.33333333       0.074
 
 position of ions in fractional coordinates (direct lattice) 
   0.24270100  0.83808700  0.83571200
   0.75168700  0.49299200  0.17819200
   0.01713800  0.33127800  0.99455800
   0.51206400  0.66053300  0.99291800
   0.25461100  0.16006100  0.17408400
   0.52219500  0.99759200  0.00375400
   0.24496000  0.83816200  0.49623500
   0.75795200  0.83817200  0.49653900
   0.24253000  0.50836900  0.17794200
   0.98036000  0.66892900  0.00183900
   0.75292900  0.49837000  0.49342300
   0.74978500  0.83674800  0.17313700
   0.98022000  0.99870800  0.00598500
   0.76925900  0.49723000  0.82244200
   0.99715800  0.66894400  0.34006800
   0.25590100  0.15726700  0.49361100
   0.26079800  0.14112700  0.83050000
   0.50210200  0.98698000  0.66017200
   0.49021400  0.33556900  0.34082600
   0.74720400  0.16198300  0.17385500
   0.75067200  0.16736300  0.49698800
   0.49760600  0.66513500  0.34396500
   0.75850200  0.83901600  0.83062000
   0.24471300  0.50725100  0.48964400
   0.50620200  0.99732500  0.33557000
   0.99665000  0.99525500  0.33283500
   0.00480900  0.00140100  0.66216800
   0.99462100  0.66611000  0.66036600
   0.01097200  0.33804400  0.34114200
   0.21999800  0.52640000  0.83599700
   0.24962400  0.82907500  0.16910900
   0.47748900  0.34480700  0.66980000
   0.02422800  0.33457000  0.66416500
   0.74357200  0.16378900  0.82732800
   0.50501400  0.67042200  0.66203000
   0.48356000  0.33694800  0.99248200
 
 position of ions in cartesian coordinates  (Angst):
   1.62411713  8.44405705  8.50365343
   5.09688211  4.95714983  1.80970557
   0.10362568  3.33588806 10.12394068
   3.45985230  6.64736877 10.10428048
   1.72615937  1.60866304  1.77086914
   3.52339542 10.05173010  0.03194675
   1.64079578  8.44648787  5.04743282
   5.12882996  8.43687848  5.04910757
   1.63450386  5.12187839  1.80849553
   6.64760938  6.72820037  0.01277199
   5.10395379  5.00977391  5.01904168
   5.07459644  8.42430652  1.75658258
   6.63764955 10.05430628  0.05338710
   5.21373883  4.99630268  8.36874312
   6.76050922  6.72632293  3.45623353
   1.73376353  1.57884235  5.02398221
   1.76618945  1.41425891  8.45391233
   3.38451046  9.94175834  6.71504279
   3.32268322  3.37352014  3.46696729
   5.07544261  1.61872669  1.76716464
   5.09761895  1.67128885  5.05694481
   3.36394616  6.69734030  3.49731032
   5.13124674  8.44369076  8.45037930
   1.64816463  5.10898438  4.98193172
   3.41336890 10.04766146  3.41020970
   6.74818604 10.01751540  3.38101688
   0.03008368  0.01069002  6.74150970
   6.74209018  6.69616734  6.71720694
   0.06405848  3.40755116  3.47149930
   1.47824783  5.30083549  8.50812602
   1.67402874  8.35640351  1.71699536
   3.23462903  3.46527069  6.81624082
   0.15302915  3.37062790  6.76017529
   5.04815538  1.63370524  8.42017199
   3.41293437  6.74891553  6.73548273
   3.27486692  3.38425838 10.10148620
 


--------------------------------------------------------------------------------------------------------


 k-point  1 :   0.0000 0.0000 0.0000  plane waves:    8249
 k-point  2 :   0.3333 0.0000-0.0000  plane waves:    8235
 k-point  3 :  -0.0000 0.3333 0.0000  plane waves:    8251
 k-point  4 :   0.3333 0.3333 0.0000  plane waves:    8246
 k-point  5 :  -0.3333 0.3333-0.0000  plane waves:    8241
 k-point  6 :   0.0000 0.0000 0.3333  plane waves:    8237
 k-point  7 :   0.3333 0.0000 0.3333  plane waves:    8240
 k-point  8 :  -0.3333-0.0000 0.3333  plane waves:    8245
 k-point  9 :  -0.0000 0.3333 0.3333  plane waves:    8252
 k-point 10 :   0.3333 0.3333 0.3333  plane waves:    8218
 k-point 11 :  -0.3333 0.3333 0.3333  plane waves:    8218
 k-point 12 :  -0.0000-0.3333 0.3333  plane waves:    8253
 k-point 13 :   0.3333-0.3333 0.3333  plane waves:    8224
 k-point 14 :  -0.3333-0.3333 0.3333  plane waves:    8215

 maximum and minimum number of plane-waves per node :      1677     1619

 maximum number of plane-waves:      8253
 maximum index in each direction: 
   IXMAX=    9   IYMAX=   14   IZMAX=   14
   IXMIN=   -9   IYMIN=  -14   IZMIN=  -14

 NGX is ok and might be reduce to  38
 NGY is ok and might be reduce to  58
 NGZ is ok and might be reduce to  58

 real space projection operators:
  total allocation   :      28999.41 KBytes
  max/ min on nodes  :       5825.25       5767.59


 parallel 3D FFT for wavefunctions:
    minimum data exchange during FFTs selected (reduces bandwidth)
 parallel 3D FFT for charge:
    minimum data exchange during FFTs selected (reduces bandwidth)


 total amount of memory used by VASP on root node    66330. kBytes
========================================================================

   base      :      30000. kBytes
   nonlr-proj:      11136. kBytes
   fftplans  :       2814. kBytes
   grid      :       5360. kBytes
   one-center:        124. kBytes
   wavefun   :      16896. kBytes
 
     INWAV:  cpu time    0.0000: real time    0.0000
 Broyden mixing: mesh for mixing (old mesh)
   NGX = 19   NGY = 29   NGZ = 29
  (NGX  = 80   NGY  =120   NGZ  =120)
  gives a total of  15979 points

 initial charge density was supplied:
 charge density of overlapping atoms calculated
 number of electron     281.0000000 magnetization 
 keeping initial charge density in first step


--------------------------------------------------------------------------------------------------------


 Maximum index for non-local projection operator         1284
 Maximum index for augmentation-charges          695 (set IRDMAX)


--------------------------------------------------------------------------------------------------------


 First call to EWALD:  gamma=   0.200
 Maximum number of real-space cells 3x 2x 2
 Maximum number of reciprocal cells 2x 3x 3

 FEWALD executed in parallel
    FEWALD:  cpu time    0.0996: real time    0.1001


----------------------------------------- Iteration    1(   1)  ---------------------------------------


    POTLOK:  cpu time    0.0468: real time    0.0682
    SETDIJ:  cpu time    0.0123: real time    0.0124
     EDDAV:  cpu time    1.0677: real time    1.0869
       DOS:  cpu time    0.0017: real time    0.0017
    --------------------------------------------
      LOOP:  cpu time    1.1369: real time    1.5283

 eigenvalue-minimisations  :  5184
 total energy-change (2. order) : 0.1649128E+04  (-0.1042481E+05)
 number of electron     281.0000000 magnetization 
 augmentation part      281.0000000 magnetization 

 Free energy of the ion-electron system (eV)
  ---------------------------------------------------
  alpha Z        PSCENC =      1551.65776249
  Ewald energy   TEWEN  =    -18229.07113573
  -Hartree energ DENC   =     -5957.18202580
  -exchange      EXHF   =         0.00000000
  -V(xc)+E(xc)   XCENC  =      -623.75345566
  PAW double counting   =     19894.17855822   -18088.59847260
  entropy T*S    EENTRO =        -0.00599631
  eigenvalues    EBANDS =       139.32248662
  atomic energy  EATOM  =     22962.58048354
  Solvation  Ediel_sol  =         0.00000000
  ---------------------------------------------------
  free energy    TOTEN  =      1649.12820477 eV

  energy without entropy =     1649.13420108  energy(sigma->0) =     1649.13020354


--------------------------------------------------------------------------------------------------------




----------------------------------------- Iteration    1(   2)  ---------------------------------------


     EDDAV:  cpu time    1.0897: real time    1.1126
       DOS:  cpu time    0.0012: real time    0.0012
    --------------------------------------------
      LOOP:  cpu time    1.0919: real time    1.2819

 eigenvalue-minimisations  :  5520
 total energy-change (2. order) :-0.1790822E+04  (-0.1730938E+04)
 number of electron     281.0000000 magnetization 
 augmentation part      281.0000000 magnetization 

 Free energy of the ion-electron system (eV)
  ---------------------------------------------------
  alpha Z        PSCENC =      1551.65776249
  Ewald energy   TEWEN  =    -18229.07113573
  -Hartree energ DENC   =     -5957.18202580
  -exchange      EXHF   =         0.00000000
  -V(xc)+E(xc)   XCENC  =      -623.75345566
  PAW double counting   =     19894.17855822   -18088.59847260
  entropy T*S    EENTRO =         0.00582135
  eigenvalues    EBANDS =     -1651.51105270
  atomic energy  EATOM  =     22962.58048354
  Solvation  Ediel_sol  =         0.00000000
  ---------------------------------------------------
  free energy    TOTEN  =      -141.69351689 eV

  energy without entropy =     -141.69933824  energy(sigma->0) =     -141.69545734


--------------------------------------------------------------------------------------------------------




----------------------------------------- Iteration    1(   3)  ---------------------------------------


     EDDAV:  cpu time    1.2919: real time    1.3858
       DOS:  cpu time    0.0012: real time    0.0012
    --------------------------------------------
      LOOP:  cpu time    1.2937: real time    1.4377

 eigenvalue-minimisations  :  8024
 total energy-change (2. order) :-0.2270429E+03  (-0.2158678E+03)
 number of electron     281.0000000 magnetization 
 augmentation part      281.0000000 magnetization 

 Free energy of the ion-electron system (eV)
  ---------------------------------------------------
  alpha Z        PSCENC =      1551.65776249
  Ewald energy   TEWEN  =    -18229.07113573
  -Hartree energ DENC   =     -5957.18202580
  -exchange      EXHF   =         0.00000000
  -V(xc)+E(xc)   XCENC  =      -623.75345566
  PAW double counting   =     19894.17855822   -18088.59847260
  entropy T*S    EENTRO =        -0.00736881
  eigenvalues    EBANDS =     -1878.54075038
  atomic energy  EATOM  =     22962.58048354
  Solvation  Ediel_sol  =         0.00000000
  ---------------------------------------------------
  free energy    TOTEN  =      -368.73640472 eV

  energy without entropy =     -368.72903591  energy(sigma->0) =     -368.73394845


--------------------------------------------------------------------------------------------------------




----------------------------------------- Iteration    1(   4)  ---------------------------------------


     EDDAV:  cpu time    1.3881: real time    1.3961
       DOS:  cpu time    0.0016: real time    0.0016
    --------------------------------------------
      LOOP:  cpu time    1.3901: real time    1.4382

 eigenvalue-minimisations  :  7840
 total energy-change (2. order) :-0.2539577E+02  (-0.2402832E+02)
 number of electron     281.0000000 magnetization 
 augmentation part      281.0000000 magnetization 

 Free energy of the ion-electron system (eV)
  ---------------------------------------------------
  alpha Z        PSCENC =      1551.65776249
  Ewald energy   TEWEN  =    -18229.07113573
  -Hartree energ DENC   =     -5957.18202580
  -exchange      EXHF   =         0.00000000
  -V(xc)+E(xc)   XCENC  =      -623.75345566
  PAW double counting   =     19894.17855822   -18088.59847260
  entropy T*S    EENTRO =        -0.00397268
  eigenvalues    EBANDS =     -1903.93991716
  atomic energy  EATOM  =     22962.58048354
  Solvation  Ediel_sol  =         0.00000000
  ---------------------------------------------------
  free energy    TOTEN  =      -394.13217537 eV

  energy without entropy =     -394.12820269  energy(sigma->0) =     -394.13085115


--------------------------------------------------------------------------------------------------------




----------------------------------------- Iteration    1(   5)  ---------------------------------------


     EDDAV:  cpu time    1.9451: real time    2.0778
       DOS:  cpu time    0.0011: real time    0.0011
    CHARGE:  cpu time    0.0311: real time    0.0352
    MIXING:  cpu time    0.0014: real time    0.0032
    --------------------------------------------
      LOOP:  cpu time    1.9791: real time    2.1712

 eigenvalue-minimisations  :  7592
 total energy-change (2. order) :-0.2419933E+01  (-0.2359574E+01)
 number of electron     281.0000008 magnetization 
 augmentation part       18.5209785 magnetization 

 Broyden mixing:
  rms(total) = 0.67989E+01    rms(broyden)= 0.67984E+01
  rms(prec ) = 0.70583E+01
  weight for this iteration     100.00

 Free energy of the ion-electron system (eV)
  ---------------------------------------------------
  alpha Z        PSCENC =      1551.65776249
  Ewald energy   TEWEN  =    -18229.07113573
  -Hartree energ DENC   =     -5957.18202580
  -exchange      EXHF   =         0.00000000
  -V(xc)+E(xc)   XCENC  =      -623.75345566
  PAW double counting   =     19894.17855822   -18088.59847260
  entropy T*S    EENTRO =        -0.00294728
  eigenvalues    EBANDS =     -1906.36087517
  atomic energy  EATOM  =     22962.58048354
  Solvation  Ediel_sol  =         0.00000000
  ---------------------------------------------------
  free energy    TOTEN  =      -396.55210799 eV

  energy without entropy =     -396.54916071  energy(sigma->0) =     -396.55112556


--------------------------------------------------------------------------------------------------------




----------------------------------------- Iteration    1(   6)  ---------------------------------------


    POTLOK:  cpu time    0.0291: real time    0.0295
    SETDIJ:  cpu time    0.0040: real time    0.0051
    EDDIAG:  cpu time    0.1146: real time    0.1392
  RMM-DIIS:  cpu time    0.6255: real time    1.1562
    ORTHCH:  cpu time    0.0113: real time    0.1573
       DOS:  cpu time    0.0009: real time    0.0439
    CHARGE:  cpu time    0.0296: real time    0.5262
    MIXING:  cpu time    0.0012: real time    0.0013
    --------------------------------------------
      LOOP:  cpu time    0.8167: real time    2.1090

 eigenvalue-minimisations  :  6475
 total energy-change (2. order) : 0.1115814E+02  (-0.2051330E+01)
 number of electron     281.0000009 magnetization 
 augmentation part       19.2692746 magnetization 

 Broyden mixing:
  rms(total) = 0.32943E+01    rms(broyden)= 0.32942E+01
  rms(prec ) = 0.35056E+01
  weight for this iteration     100.00

 eigenvalues of (default mixing * dielectric matrix)
  average eigenvalue GAMMA=   1.8813
  1.8813

 Free energy of the ion-electron system (eV)
  ---------------------------------------------------
  alpha Z        PSCENC =      1551.65776249
  Ewald energy   TEWEN  =    -18229.07113573
  -Hartree energ DENC   =     -5808.03794722
  -exchange      EXHF   =         0.00000000
  -V(xc)+E(xc)   XCENC  =      -624.94611760
  PAW double counting   =     25152.88981467   -23355.02662227
  entropy T*S    EENTRO =         0.00085883
  eigenvalues    EBANDS =     -2035.44106449
  atomic energy  EATOM  =     22962.58048354
  Solvation  Ediel_sol  =         0.00000000
  ---------------------------------------------------
  free energy    TOTEN  =      -385.39396776 eV

  energy without entropy =     -385.39482660  energy(sigma->0) =     -385.39425404


--------------------------------------------------------------------------------------------------------




----------------------------------------- Iteration    1(   7)  ---------------------------------------


    POTLOK:  cpu time    0.0282: real time    0.0283
    SETDIJ:  cpu time    0.0038: real time    0.0038
    EDDIAG:  cpu time    0.0763: real time    0.0768
  RMM-DIIS:  cpu time    0.7423: real time    0.7465
    ORTHCH:  cpu time    0.0126: real time    0.0127
       DOS:  cpu time    0.0008: real time    0.0008
    CHARGE:  cpu time    0.0301: real time    0.0302
    MIXING:  cpu time    0.0016: real time    0.0016
    --------------------------------------------
      LOOP:  cpu time    0.8963: real time    0.9526

 eigenvalue-minimisations  :  6902
 total energy-change (2. order) : 0.5359580E-01  (-0.2647431E+01)
 number of electron     281.0000008 magnetization 
 augmentation part       19.9141521 magnetization 

 Broyden mixing:
  rms(total) = 0.91919E+00    rms(broyden)= 0.91898E+00
  rms(prec ) = 0.27107E+01
  weight for this iteration     100.00

 eigenvalues of (default mixing * dielectric matrix)
  average eigenvalue GAMMA=   1.2299
  1.8708  0.5891

 Free energy of the ion-electron system (eV)
  ---------------------------------------------------
  alpha Z        PSCENC =      1551.65776249
  Ewald energy   TEWEN  =    -18229.07113573
  -Hartree energ DENC   =     -5726.54095453
  -exchange      EXHF   =         0.00000000
  -V(xc)+E(xc)   XCENC  =      -622.17511688
  PAW double counting   =     30969.69209628   -29167.96448251
  entropy T*S    EENTRO =        -0.00835542
  eigenvalues    EBANDS =     -2123.51066921
  atomic energy  EATOM  =     22962.58048354
  Solvation  Ediel_sol  =         0.00000000
  ---------------------------------------------------
  free energy    TOTEN  =      -385.34037196 eV

  energy without entropy =     -385.33201655  energy(sigma->0) =     -385.33758683


--------------------------------------------------------------------------------------------------------




----------------------------------------- Iteration    1(   8)  ---------------------------------------


    POTLOK:  cpu time    0.0296: real time    0.0306
    SETDIJ:  cpu time    0.0039: real time    0.0039
    EDDIAG:  cpu time    0.0728: real time    0.0732
  RMM-DIIS:  cpu time    0.8563: real time    0.8603
    ORTHCH:  cpu time    0.0115: real time    0.0635
       DOS:  cpu time    0.0023: real time    0.0023
    CHARGE:  cpu time    0.0656: real time    0.0704
    MIXING:  cpu time    0.0013: real time    0.0014
    --------------------------------------------
      LOOP:  cpu time    1.0439: real time    1.1672

 eigenvalue-minimisations  :  7434
 total energy-change (2. order) : 0.4338529E+01  (-0.4788692E+00)
 number of electron     281.0000009 magnetization 
 augmentation part       19.7514908 magnetization 

 Broyden mixing:
  rms(total) = 0.39474E+00    rms(broyden)= 0.39445E+00
  rms(prec ) = 0.57758E+00
  weight for this iteration     100.00

 eigenvalues of (default mixing * dielectric matrix)
  average eigenvalue GAMMA=   1.2019
  1.7850  1.4133  0.4072

 Free energy of the ion-electron system (eV)
  ---------------------------------------------------
  alpha Z        PSCENC =      1551.65776249
  Ewald energy   TEWEN  =    -18229.07113573
  -Hartree energ DENC   =     -5727.69608293
  -exchange      EXHF   =         0.00000000
  -V(xc)+E(xc)   XCENC  =      -621.62777844
  PAW double counting   =     31594.63565845   -29791.09757061
  entropy T*S    EENTRO =         0.00831925
  eigenvalues    EBANDS =     -2120.39149910
  atomic energy  EATOM  =     22962.58048354
  Solvation  Ediel_sol  =         0.00000000
  ---------------------------------------------------
  free energy    TOTEN  =      -381.00184309 eV

  energy without entropy =     -381.01016233  energy(sigma->0) =     -381.00461617


--------------------------------------------------------------------------------------------------------




----------------------------------------- Iteration    1(   9)  ---------------------------------------


    POTLOK:  cpu time    0.0357: real time    0.0384
    SETDIJ:  cpu time    0.0042: real time    0.0046
    EDDIAG:  cpu time    0.0766: real time    0.0813
  RMM-DIIS:  cpu time    0.8840: real time    0.9169
    ORTHCH:  cpu time    0.0132: real time    0.0132
       DOS:  cpu time    0.0053: real time    0.0053
    CHARGE:  cpu time    0.0845: real time    0.0849
    MIXING:  cpu time    0.0013: real time    0.0013
    --------------------------------------------
      LOOP:  cpu time    1.1056: real time    1.2174

 eigenvalue-minimisations  :  7330
 total energy-change (2. order) : 0.6443596E-01  (-0.1794498E+00)
 number of electron     281.0000008 magnetization 
 augmentation part       19.6565835 magnetization 

 Broyden mixing:
  rms(total) = 0.28606E+00    rms(broyden)= 0.28599E+00
  rms(prec ) = 0.42336E+00
  weight for this iteration     100.00

 eigenvalues of (default mixing * dielectric matrix)
  average eigenvalue GAMMA=   1.1867
  1.9426  1.9426  0.4394  0.4222

 Free energy of the ion-electron system (eV)
  ---------------------------------------------------
  alpha Z        PSCENC =      1551.65776249
  Ewald energy   TEWEN  =    -18229.07113573
  -Hartree energ DENC   =     -5726.70759133
  -exchange      EXHF   =         0.00000000
  -V(xc)+E(xc)   XCENC  =      -621.34865351
  PAW double counting   =     31724.86190572   -29917.87568908
  entropy T*S    EENTRO =         0.00394601
  eigenvalues    EBANDS =     -2125.03843523
  atomic energy  EATOM  =     22962.58048354
  Solvation  Ediel_sol  =         0.00000000
  ---------------------------------------------------
  free energy    TOTEN  =      -380.93740712 eV

  energy without entropy =     -380.94135313  energy(sigma->0) =     -380.93872246


--------------------------------------------------------------------------------------------------------




----------------------------------------- Iteration    1(  10)  ---------------------------------------


    POTLOK:  cpu time    0.0286: real time    0.0299
    SETDIJ:  cpu time    0.0286: real time    0.0287
    EDDIAG:  cpu time    0.1689: real time    0.1697
  RMM-DIIS:  cpu time    1.1452: real time    1.1809
    ORTHCH:  cpu time    0.0111: real time    0.0112
       DOS:  cpu time    0.0027: real time    0.0027
    CHARGE:  cpu time    0.0301: real time    0.0305
    MIXING:  cpu time    0.0014: real time    0.0015
    --------------------------------------------
      LOOP:  cpu time    1.4173: real time    1.4956

 eigenvalue-minimisations  :  7347
 total energy-change (2. order) : 0.4696151E-01  (-0.4109369E-01)
 number of electron     281.0000009 magnetization 
 augmentation part       19.5681183 magnetization 

 Broyden mixing:
  rms(total) = 0.13717E+00    rms(broyden)= 0.13712E+00
  rms(prec ) = 0.26547E+00
  weight for this iteration     100.00

 eigenvalues of (default mixing * dielectric matrix)
  average eigenvalue GAMMA=   1.1130
  2.0119  2.0119  0.6908  0.4252  0.4252

 Free energy of the ion-electron system (eV)
  ---------------------------------------------------
  alpha Z        PSCENC =      1551.65776249
  Ewald energy   TEWEN  =    -18229.07113573
  -Hartree energ DENC   =     -5738.15871290
  -exchange      EXHF   =         0.00000000
  -V(xc)+E(xc)   XCENC  =      -620.49115172
  PAW double counting   =     31937.76957274   -30124.69388510
  entropy T*S    EENTRO =         0.00489190
  eigenvalues    EBANDS =     -2120.48827084
  atomic energy  EATOM  =     22962.58048354
  Solvation  Ediel_sol  =         0.00000000
  ---------------------------------------------------
  free energy    TOTEN  =      -380.89044561 eV

  energy without entropy =     -380.89533752  energy(sigma->0) =     -380.89207625


--------------------------------------------------------------------------------------------------------




----------------------------------------- Iteration    1(  11)  ---------------------------------------


    POTLOK:  cpu time    0.0276: real time    0.0295
    SETDIJ:  cpu time    0.0038: real time    0.0038
    EDDIAG:  cpu time    0.0741: real time    0.0833
  RMM-DIIS:  cpu time    1.8906: real time    1.8979
    ORTHCH:  cpu time    0.0110: real time    0.0110
       DOS:  cpu time    0.0012: real time    0.0012
    CHARGE:  cpu time    0.0283: real time    0.0284
    MIXING:  cpu time    0.0014: real time    0.0014
    --------------------------------------------
      LOOP:  cpu time    2.0386: real time    2.1118

 eigenvalue-minimisations  :  7355
 total energy-change (2. order) : 0.3382804E-01  (-0.1465453E-01)
 number of electron     281.0000008 magnetization 
 augmentation part       19.5391247 magnetization 

 Broyden mixing:
  rms(total) = 0.66811E-01    rms(broyden)= 0.66765E-01
  rms(prec ) = 0.12956E+00
  weight for this iteration     100.00

 eigenvalues of (default mixing * dielectric matrix)
  average eigenvalue GAMMA=   1.0755
  2.1994  1.6934  1.2709  0.4564  0.4564  0.3766

 Free energy of the ion-electron system (eV)
  ---------------------------------------------------
  alpha Z        PSCENC =      1551.65776249
  Ewald energy   TEWEN  =    -18229.07113573
  -Hartree energ DENC   =     -5745.53654729
  -exchange      EXHF   =         0.00000000
  -V(xc)+E(xc)   XCENC  =      -619.99908802
  PAW double counting   =     32112.41767704   -30296.28128904
  entropy T*S    EENTRO =         0.00535001
  eigenvalues    EBANDS =     -2116.62983057
  atomic energy  EATOM  =     22962.58048354
  Solvation  Ediel_sol  =         0.00000000
  ---------------------------------------------------
  free energy    TOTEN  =      -380.85661758 eV

  energy without entropy =     -380.86196759  energy(sigma->0) =     -380.85840092


--------------------------------------------------------------------------------------------------------




----------------------------------------- Iteration    1(  12)  ---------------------------------------


    POTLOK:  cpu time    0.0284: real time    0.0285
    SETDIJ:  cpu time    0.0109: real time    0.0109
    EDDIAG:  cpu time    0.1202: real time    0.1205
  RMM-DIIS:  cpu time    0.7920: real time    0.7959
    ORTHCH:  cpu time    0.0109: real time    0.0110
       DOS:  cpu time    0.0028: real time    0.0028
    CHARGE:  cpu time    0.0298: real time    0.0299
    MIXING:  cpu time    0.0015: real time    0.0015
    --------------------------------------------
      LOOP:  cpu time    0.9970: real time    1.0591

 eigenvalue-minimisations  :  7422
 total energy-change (2. order) : 0.3684120E-02  (-0.5039054E-02)
 number of electron     281.0000008 magnetization 
 augmentation part       19.5479236 magnetization 

 Broyden mixing:
  rms(total) = 0.39142E-01    rms(broyden)= 0.39133E-01
  rms(prec ) = 0.61834E-01
  weight for this iteration     100.00

 eigenvalues of (default mixing * dielectric matrix)
  average eigenvalue GAMMA=   1.0640
  2.2693  1.6679  1.6679  0.5475  0.5475  0.3966  0.3517

 Free energy of the ion-electron system (eV)
  ---------------------------------------------------
  alpha Z        PSCENC =      1551.65776249
  Ewald energy   TEWEN  =    -18229.07113573
  -Hartree energ DENC   =     -5746.02746692
  -exchange      EXHF   =         0.00000000
  -V(xc)+E(xc)   XCENC  =      -619.90273608
  PAW double counting   =     32241.85063449   -30424.68150150
  entropy T*S    EENTRO =         0.00461229
  eigenvalues    EBANDS =     -2117.26358603
  atomic energy  EATOM  =     22962.58048354
  Solvation  Ediel_sol  =         0.00000000
  ---------------------------------------------------
  free energy    TOTEN  =      -380.85293346 eV

  energy without entropy =     -380.85754575  energy(sigma->0) =     -380.85447089


--------------------------------------------------------------------------------------------------------




----------------------------------------- Iteration    1(  13)  ---------------------------------------


    POTLOK:  cpu time    0.0378: real time    0.0380
    SETDIJ:  cpu time    0.0048: real time    0.0048
    EDDIAG:  cpu time    0.0711: real time    0.0716
  RMM-DIIS:  cpu time    0.7797: real time    0.7849
    ORTHCH:  cpu time    0.0107: real time    0.0108
       DOS:  cpu time    0.0020: real time    0.0020
    CHARGE:  cpu time    0.0287: real time    0.0288
    MIXING:  cpu time    0.0015: real time    0.0015
    --------------------------------------------
      LOOP:  cpu time    0.9371: real time    1.0295

 eigenvalue-minimisations  :  7416
 total energy-change (2. order) : 0.1396861E-02  (-0.1486127E-02)
 number of electron     281.0000008 magnetization 
 augmentation part       19.5499505 magnetization 

 Broyden mixing:
  rms(total) = 0.23974E-01    rms(broyden)= 0.23966E-01
  rms(prec ) = 0.35409E-01
  weight for this iteration     100.00

 eigenvalues of (default mixing * dielectric matrix)
  average eigenvalue GAMMA=   1.0703
  2.4136  1.9273  1.5625  0.8965  0.5627  0.4520  0.3961  0.3521

 Free energy of the ion-electron system (eV)
  ---------------------------------------------------
  alpha Z        PSCENC =      1551.65776249
  Ewald energy   TEWEN  =    -18229.07113573
  -Hartree energ DENC   =     -5745.67510402
  -exchange      EXHF   =         0.00000000
  -V(xc)+E(xc)   XCENC  =      -619.90953798
  PAW double counting   =     32313.42785323   -30495.58518655
  entropy T*S    EENTRO =         0.00519627
  eigenvalues    EBANDS =     -2118.28186784
  atomic energy  EATOM  =     22962.58048354
  Solvation  Ediel_sol  =         0.00000000
  ---------------------------------------------------
  free energy    TOTEN  =      -380.85153660 eV

  energy without entropy =     -380.85673286  energy(sigma->0) =     -380.85326869


--------------------------------------------------------------------------------------------------------




----------------------------------------- Iteration    1(  14)  ---------------------------------------


    POTLOK:  cpu time    0.0284: real time    0.0286
    SETDIJ:  cpu time    0.0038: real time    0.0038
    EDDIAG:  cpu time    0.0719: real time    0.0724
  RMM-DIIS:  cpu time    0.8129: real time    0.8171
    ORTHCH:  cpu time    0.0107: real time    0.0108
       DOS:  cpu time    0.0009: real time    0.0009
    CHARGE:  cpu time    0.0286: real time    0.0286
    MIXING:  cpu time    0.0016: real time    0.0016
    --------------------------------------------
      LOOP:  cpu time    0.9593: real time    1.0057

 eigenvalue-minimisations  :  7576
 total energy-change (2. order) :-0.1397465E-03  (-0.6548242E-03)
 number of electron     281.0000008 magnetization 
 augmentation part       19.5487392 magnetization 

 Broyden mixing:
  rms(total) = 0.13294E-01    rms(broyden)= 0.13290E-01
  rms(prec ) = 0.24917E-01
  weight for this iteration     100.00

 eigenvalues of (default mixing * dielectric matrix)
  average eigenvalue GAMMA=   1.0555
  2.5586  2.0217  1.3988  1.2053  0.5758  0.5758  0.4094  0.4094  0.3449

 Free energy of the ion-electron system (eV)
  ---------------------------------------------------
  alpha Z        PSCENC =      1551.65776249
  Ewald energy   TEWEN  =    -18229.07113573
  -Hartree energ DENC   =     -5745.77952824
  -exchange      EXHF   =         0.00000000
  -V(xc)+E(xc)   XCENC  =      -619.91421258
  PAW double counting   =     32344.97076929   -30526.57518188
  entropy T*S    EENTRO =         0.00521666
  eigenvalues    EBANDS =     -2118.72584991
  atomic energy  EATOM  =     22962.58048354
  Solvation  Ediel_sol  =         0.00000000
  ---------------------------------------------------
  free energy    TOTEN  =      -380.85167634 eV

  energy without entropy =     -380.85689301  energy(sigma->0) =     -380.85341523


--------------------------------------------------------------------------------------------------------




----------------------------------------- Iteration    1(  15)  ---------------------------------------


    POTLOK:  cpu time    0.0285: real time    0.0287
    SETDIJ:  cpu time    0.0038: real time    0.0038
    EDDIAG:  cpu time    0.0700: real time    0.0705
  RMM-DIIS:  cpu time    0.7867: real time    0.7916
    ORTHCH:  cpu time    0.0107: real time    0.0108
       DOS:  cpu time    0.0009: real time    0.0009
    CHARGE:  cpu time    0.0286: real time    0.0287
    MIXING:  cpu time    0.0016: real time    0.0016
    --------------------------------------------
      LOOP:  cpu time    0.9314: real time    0.9771

 eigenvalue-minimisations  :  7476
 total energy-change (2. order) :-0.1062150E-04  (-0.2771975E-03)
 number of electron     281.0000008 magnetization 
 augmentation part       19.5469389 magnetization 

 Broyden mixing:
  rms(total) = 0.66286E-02    rms(broyden)= 0.66250E-02
  rms(prec ) = 0.12102E-01
  weight for this iteration     100.00

 eigenvalues of (default mixing * dielectric matrix)
  average eigenvalue GAMMA=   1.0489
  2.5983  2.0391  1.4539  1.4539  0.7040  0.6539  0.4320  0.4320  0.3483  0.3735

 Free energy of the ion-electron system (eV)
  ---------------------------------------------------
  alpha Z        PSCENC =      1551.65776249
  Ewald energy   TEWEN  =    -18229.07113573
  -Hartree energ DENC   =     -5746.18827842
  -exchange      EXHF   =         0.00000000
  -V(xc)+E(xc)   XCENC  =      -619.90377253
  PAW double counting   =     32360.07520396   -30541.35266159
  entropy T*S    EENTRO =         0.00506104
  eigenvalues    EBANDS =     -2118.65434972
  atomic energy  EATOM  =     22962.58048354
  Solvation  Ediel_sol  =         0.00000000
  ---------------------------------------------------
  free energy    TOTEN  =      -380.85168697 eV

  energy without entropy =     -380.85674801  energy(sigma->0) =     -380.85337398


--------------------------------------------------------------------------------------------------------




----------------------------------------- Iteration    1(  16)  ---------------------------------------


    POTLOK:  cpu time    0.0289: real time    0.0290
    SETDIJ:  cpu time    0.0038: real time    0.0038
    EDDIAG:  cpu time    0.0695: real time    0.0699
  RMM-DIIS:  cpu time    0.8101: real time    0.8127
    ORTHCH:  cpu time    0.0108: real time    0.0109
       DOS:  cpu time    0.0022: real time    0.0023
    CHARGE:  cpu time    0.0297: real time    0.0298
    MIXING:  cpu time    0.0017: real time    0.0017
    --------------------------------------------
      LOOP:  cpu time    0.9575: real time    1.0001

 eigenvalue-minimisations  :  6783
 total energy-change (2. order) :-0.4244616E-04  (-0.1333574E-03)
 number of electron     281.0000008 magnetization 
 augmentation part       19.5462382 magnetization 

 Broyden mixing:
  rms(total) = 0.39050E-02    rms(broyden)= 0.39035E-02
  rms(prec ) = 0.69002E-02
  weight for this iteration     100.00

 eigenvalues of (default mixing * dielectric matrix)
  average eigenvalue GAMMA=   1.0270
  2.5878  1.9591  1.6798  1.4533  0.9748  0.6034  0.4820  0.4820  0.3822  0.3635
  0.3291

 Free energy of the ion-electron system (eV)
  ---------------------------------------------------
  alpha Z        PSCENC =      1551.65776249
  Ewald energy   TEWEN  =    -18229.07113573
  -Hartree energ DENC   =     -5746.48988579
  -exchange      EXHF   =         0.00000000
  -V(xc)+E(xc)   XCENC  =      -619.89595592
  PAW double counting   =     32367.79283762   -30548.93460269
  entropy T*S    EENTRO =         0.00517671
  eigenvalues    EBANDS =     -2118.49640963
[...]
     78       4.6476      2.00000
     79       4.7221      2.00000
     80       4.7441      2.00000
     81       4.7796      2.00000
     82       4.8893      2.00000
     83       4.9153      2.00000
     84       4.9510      2.00000
     85       4.9897      2.00000
     86       5.0577      2.00000
     87       5.1037      2.00000
     88       5.1203      2.00000
     89       5.1435      2.00000
     90       5.1892      2.00000
     91       5.3229      2.00000
     92       5.3707      2.00000
     93       5.4267      2.00000
     94       5.4685      2.00000
     95       5.5484      2.00000
     96       5.5819      2.00000
     97       5.6152      2.00000
     98       5.8326      2.00000
     99       5.9087      2.00000
    100       5.9640      2.00000
    101       5.9954      2.00000
    102       6.0038      2.00000
    103       6.0315      2.00000
    104       6.0627      2.00000
    105       6.0982      2.00000
    106       6.1186      2.00000
    107       6.1530      2.00000
    108       6.1790      2.00000
    109       6.2119      2.00000
    110       6.2392      2.00000
    111       6.2803      2.00000
    112       6.3167      2.00000
    113       6.3292      2.00000
    114       6.3517      2.00000
    115       6.3850      2.00000
    116       6.4295      2.00000
    117       6.4734      2.00000
    118       6.5098      2.00000
    119       6.5442      2.00000
    120       6.6630      2.00000
    121       6.6966      2.00000
    122       6.7236      2.00000
    123       6.7460      2.00000
    124       6.7977      2.00000
    125       6.8302      2.00000
    126       6.8740      2.00000
    127       6.9205      2.00001
    128       6.9488      2.00003
    129       7.0365      2.00078
    130       7.0751      2.00262
    131       7.0982      2.00502
    132       7.1371      2.01316
    133       7.1641      2.02319
    134       7.1896      2.03632
    135       7.1941      2.03895
    136       7.2279      2.05933
    137       7.2514      2.06947
    138       7.2856      2.06174
    139       7.3079      2.02939
    140       7.3396      1.92585
    141       7.3648      1.78309
    142       7.3998      1.49423
    143       7.4153      1.33764
    144       7.4425      1.03806
    145       7.5093      0.35093
    146       7.5441      0.11384
    147       7.5759     -0.01035
    148       7.6310     -0.07089
    149       7.6663     -0.05798
    150       7.6847     -0.04688
    151       7.7447     -0.01640
    152       7.7710     -0.00898
    153       7.8143     -0.00281
    154       7.8604     -0.00066
    155       7.9028     -0.00014
    156       7.9541     -0.00002
    157       8.0065     -0.00000
    158       8.0278     -0.00000
    159       8.1895     -0.00000
    160       8.2631     -0.00000
    161       8.4839     -0.00000
    162       8.5822     -0.00000
    163       8.6565     -0.00000
    164       9.4129     -0.00000
    165       9.4550     -0.00000
    166       9.4895     -0.00000
    167       9.5424     -0.00000
    168       9.6124     -0.00000


--------------------------------------------------------------------------------------------------------


 soft charge-density along one line, spin component           1
         0         1         2         3         4         5         6         7         8         9
 total charge-density along one line
 
 pseudopotential strength for first ion, spin component:           1
 13.442 -26.277  -0.000  -0.000  -0.000  -0.001  -0.002   0.001
-26.277  13.992   0.003   0.002  -0.001   0.000  -0.000  -0.000
 -0.000   0.003  -6.461  -0.000   0.002   5.181   0.001  -0.003
 -0.000   0.002  -0.000  -6.458  -0.001   0.001   5.182   0.002
 -0.000  -0.001   0.002  -0.001  -6.456  -0.003   0.002   5.179
 -0.001   0.000   5.181   0.001  -0.003   8.303  -0.001   0.002
 -0.002  -0.000   0.001   5.182   0.002  -0.001   8.304  -0.001
  0.001  -0.000  -0.003   0.002   5.179   0.002  -0.001   8.306
  0.003   0.002  -0.001   0.000   0.001   0.001  -0.000  -0.001
 -0.001  -0.001   0.001   0.001   0.000  -0.001  -0.001  -0.000
  0.000  -0.001  -0.000   0.001   0.000   0.000  -0.001  -0.000
 -0.001  -0.001   0.000  -0.001   0.001  -0.000   0.001  -0.001
  0.002  -0.001  -0.001  -0.000  -0.000   0.001   0.000   0.000
  0.003   0.002  -0.001   0.000   0.001   0.001  -0.000  -0.001
 -0.001  -0.001   0.001   0.001   0.000  -0.001  -0.001  -0.000
  0.000  -0.001  -0.001   0.001   0.000   0.001  -0.001  -0.000
 -0.002  -0.002   0.000  -0.001   0.001  -0.000   0.001  -0.001
  0.002  -0.001  -0.001  -0.000  -0.001   0.001   0.000   0.000
 total augmentation occupancy for first ion, spin component:           1
  1.999  -0.023  -0.000   0.000   0.000  -0.000  -0.000   0.000  -0.001  -0.004  -0.005  -0.004  -0.002  -0.000   0.004   0.004
 -0.023   1.461  -0.005  -0.002   0.005   0.009   0.001  -0.005   0.008  -0.030  -0.088  -0.046  -0.157  -0.010   0.016   0.052
 -0.000  -0.005   2.003   0.000   0.001  -0.026   0.000  -0.002   0.013   0.001  -0.004  -0.002  -0.005  -0.007   0.001   0.003
  0.000  -0.002   0.000   2.003  -0.000   0.000  -0.025   0.001  -0.003  -0.004   0.004   0.010  -0.005   0.002  -0.000  -0.003
  0.000   0.005   0.001  -0.000   2.003  -0.002   0.001  -0.025  -0.002  -0.001  -0.001  -0.009   0.003  -0.000   0.001   0.000
 -0.000   0.009  -0.026   0.000  -0.002   0.047  -0.000   0.002  -0.014  -0.013  -0.002   0.002  -0.009   0.008   0.007   0.002
 -0.000   0.001   0.000  -0.025   0.001  -0.000   0.043  -0.001   0.004   0.019  -0.008  -0.010   0.011  -0.002  -0.011   0.005
  0.000  -0.005  -0.002   0.001  -0.025   0.002  -0.001   0.044   0.014  -0.000   0.000   0.010  -0.004  -0.009  -0.000  -0.000
 -0.001   0.008   0.013  -0.003  -0.002  -0.014   0.004   0.014   4.562  -0.016   0.097  -0.021  -0.025  -2.457   0.017  -0.044
 -0.004  -0.030   0.001  -0.004  -0.001  -0.013   0.019  -0.000  -0.016   4.403  -0.009   0.181   0.092   0.017  -2.382   0.008
 -0.005  -0.088  -0.004   0.004  -0.001  -0.002  -0.008   0.000   0.097  -0.009   4.609  -0.069   0.246  -0.044   0.008  -2.525
 -0.004  -0.046  -0.002   0.010  -0.009   0.002  -0.010   0.010  -0.021   0.181  -0.069   4.653  -0.109   0.011  -0.100   0.038
 -0.002  -0.157  -0.005  -0.005   0.003  -0.009   0.011  -0.004  -0.025   0.092   0.246  -0.109   4.879   0.014  -0.052  -0.130
 -0.000  -0.010  -0.007   0.002  -0.000   0.008  -0.002  -0.009  -2.457   0.017  -0.044   0.011   0.014   1.338  -0.013   0.019
  0.004   0.016   0.001  -0.000   0.001   0.007  -0.011  -0.000   0.017  -2.382   0.008  -0.100  -0.052  -0.013   1.301  -0.006
  0.004   0.052   0.003  -0.003   0.000   0.002   0.005  -0.000  -0.044   0.008  -2.525   0.038  -0.130   0.019  -0.006   1.394
  0.004   0.030   0.001  -0.006   0.004  -0.001   0.006  -0.005   0.011  -0.099   0.037  -2.452   0.059  -0.006   0.054  -0.020
  0.001   0.086   0.005   0.002  -0.001   0.005  -0.006   0.002   0.014  -0.053  -0.130   0.059  -2.671  -0.008   0.030   0.070


------------------------ aborting loop because EDIFF is reached ----------------------------------------


    CHARGE:  cpu time    0.0271: real time    0.0273
    FORLOC:  cpu time    0.0133: real time    0.0134
    FORNL :  cpu time    0.3054: real time    0.3070
    STRESS:  cpu time    0.9206: real time    0.9251
    FORCOR:  cpu time    0.0424: real time    0.0425
    FORHAR:  cpu time    0.0180: real time    0.0182
    MIXING:  cpu time    0.0012: real time    0.0012
    OFIELD:  cpu time    0.0000: real time    0.0000

  FORCE on cell =-STRESS in cart. coord.  units (eV):
  Direction    XX          YY          ZZ          XY          YZ          ZX
  --------------------------------------------------------------------------------------
  Alpha Z  1559.12031  1559.12031  1559.12031
  Ewald   -5877.91377 -6269.59898 -6143.50492  -107.73038  -451.05153     6.73957
  Hartree  2098.83297  1737.21788  1868.09032   -98.86744  -374.10795   -19.02735
  E(xc)   -1242.38953 -1242.73262 -1242.47525    -0.31745    -0.75487     0.39867
  Local   -1070.65657  -319.77998  -575.63836   206.46536   826.88738    11.29225
  n-local  -297.16955  -300.64525  -299.84269    -0.80998     2.97292    -3.54622
  augment   232.75264   233.22073   233.05013     0.06591    -0.57798     0.59674
  Kinetic  4597.40410  4603.09957  4601.09318     1.19297    -3.37174     3.51630
  Fock        0.00000     0.00000     0.00000     0.00000     0.00000     0.00000
  -------------------------------------------------------------------------------------
  Total      -0.01940    -0.09834    -0.10728    -0.00101    -0.00378    -0.03003
  in kB      -0.04473    -0.22675    -0.24736    -0.00234    -0.00871    -0.06923
  external pressure =       -0.17 kB  Pullay stress =        0.00 kB


 VOLUME and BASIS-vectors are now :
 -----------------------------------------------------------------------------
  energy-cutoff  :      300.00
  volume of cell :      694.85
      direct lattice vectors                 reciprocal lattice vectors
     6.770424449 -0.017583343 -0.010396424     0.147702525  0.000368289  0.000222562
    -0.025150291 10.091858391 -0.008818584     0.000257483  0.099090497  0.000089162
    -0.015301151 -0.009110912 10.169650813     0.000151219  0.000086303  0.098332098

  length of vectors
     6.770455264 10.091893583 10.169666405     0.147703152  0.099090871  0.098332252


 FORCES acting on ions
    electron-ion (+dipol)            ewald-force                    non-local-force                 convergence-correction
 -----------------------------------------------------------------------------------------------
   -.113E+03 -.179E+03 -.112E+03   0.113E+03 0.180E+03 0.112E+03   0.387E+00 -.512E+00 -.150E+00   0.248E-03 -.185E-02 0.733E-02
   0.424E+02 0.512E+02 0.101E+03   -.421E+02 -.511E+02 -.999E+02   -.322E+00 -.101E+00 -.107E+01   -.168E-02 0.123E-02 -.242E-01
   0.736E+02 0.149E+03 0.152E+03   -.731E+02 -.148E+03 -.153E+03   -.478E+00 -.319E+00 0.622E+00   0.285E-02 0.378E-02 -.128E-03
   -.167E+02 0.347E+02 -.608E+02   0.173E+02 -.349E+02 0.604E+02   -.595E+00 0.213E+00 0.418E+00   -.126E-02 -.780E-02 -.555E-02
   -.117E+03 -.796E+01 0.219E+03   0.117E+03 0.735E+01 -.219E+03   -.226E+00 0.610E+00 -.635E+00   0.185E-02 0.339E-02 -.179E-01
   -.236E+01 -.818E+02 0.167E+02   0.319E+01 0.817E+02 -.165E+02   -.825E+00 0.821E-01 -.290E+00   -.633E-03 -.584E-05 -.167E-02
   -.367E+02 -.119E+02 -.487E+01   0.365E+02 0.123E+02 0.457E+01   0.197E+00 -.346E+00 0.296E+00   0.985E-03 0.900E-03 0.128E-02
   0.384E+02 0.115E+02 -.926E+01   -.381E+02 -.113E+02 0.897E+01   -.221E+00 -.254E+00 0.274E+00   -.133E-02 0.109E-02 0.179E-02
   -.975E+01 -.495E+00 0.498E+02   0.948E+01 0.875E+00 -.491E+02   0.262E+00 -.381E+00 -.725E+00   0.900E-03 -.325E-03 -.962E-02
   0.116E+01 -.175E+02 -.791E+02   -.145E+01 0.174E+02 0.791E+02   0.292E+00 0.154E+00 -.299E-02   0.746E-03 -.220E-02 -.242E-02
   0.423E+02 0.644E+02 -.813E+02   -.421E+02 -.642E+02 0.807E+02   -.194E+00 -.160E+00 0.669E+00   -.935E-03 0.281E-02 -.903E-05
   -.274E+02 -.829E+01 0.476E+02   0.277E+02 0.852E+01 -.473E+02   -.274E+00 -.230E+00 -.255E+00   -.691E-03 -.218E-02 -.482E-02
   0.621E+01 -.482E+02 -.577E+01   -.716E+01 0.481E+02 0.611E+01   0.948E+00 0.550E-01 -.342E+00   0.275E-03 -.107E-03 -.230E-02
   0.775E+02 0.122E+03 0.276E+02   -.767E+02 -.122E+03 -.276E+02   -.743E+00 -.379E+00 -.224E-01   -.146E-03 0.276E-02 0.866E-02
   0.113E+02 -.436E+02 0.503E+02   -.113E+02 0.437E+02 -.498E+02   -.358E-01 -.103E+00 -.512E+00   0.791E-03 0.402E-03 -.499E-02
   -.608E+02 -.522E+02 -.112E+03   0.610E+02 0.518E+02 0.111E+03   -.145E+00 0.364E+00 0.509E+00   0.269E-03 -.358E-02 0.130E-02
   -.600E+02 -.689E+02 0.321E+01   0.603E+02 0.680E+02 -.313E+01   -.305E+00 0.868E+00 -.719E-01   0.176E-03 0.823E-03 0.567E-02
   -.891E+00 -.101E+03 -.207E+02   0.102E+01 0.101E+03 0.200E+02   -.126E+00 0.621E-01 0.723E+00   -.974E-04 -.221E-02 0.575E-02
   -.320E+02 0.353E+02 -.280E+02   0.320E+02 -.355E+02 0.288E+02   -.481E-01 0.227E+00 -.769E+00   -.748E-03 -.145E-03 -.820E-02
   0.459E+02 -.117E+02 0.983E+02   -.460E+02 0.114E+02 -.981E+02   0.163E+00 0.363E+00 -.210E+00   -.653E-03 0.100E-02 -.847E-02
   0.601E+02 -.801E+02 -.103E+03   -.603E+02 0.797E+02 0.103E+03   0.143E+00 0.438E+00 0.195E+00   -.934E-03 -.437E-02 0.105E-02
   -.378E+02 -.644E+02 0.232E+02   0.377E+02 0.641E+02 -.223E+02   0.623E-01 0.298E+00 -.878E+00   -.532E-03 0.467E-02 -.163E-01
   0.122E+03 -.139E+03 -.897E+02   -.122E+03 0.140E+03 0.899E+02   -.335E+00 -.826E+00 -.206E+00   0.233E-02 -.576E-02 0.900E-02
   -.969E+02 0.147E+03 -.125E+03   0.967E+02 -.146E+03 0.124E+03   0.230E+00 -.185E+00 0.115E+01   0.878E-03 0.188E-01 -.254E-02
   -.236E+02 -.343E+02 -.102E+02   0.243E+02 0.346E+02 0.109E+02   -.674E+00 -.318E+00 -.745E+00   -.124E-03 -.791E-02 -.117E-01
   0.266E+02 0.647E+02 0.637E+02   -.273E+02 -.649E+02 -.631E+02   0.721E+00 0.161E+00 -.588E+00   0.597E-02 -.555E-02 -.107E-01
   0.103E+02 -.302E+03 -.465E+02   -.105E+02 0.302E+03 0.458E+02   0.181E+00 -.393E+00 0.747E+00   0.218E-02 -.139E-01 0.163E-01
   0.138E+03 0.843E+02 0.100E+03   -.139E+03 -.848E+02 -.100E+03   0.496E+00 0.517E+00 0.478E+00   -.114E-03 -.256E-03 0.231E-01
   0.804E+02 0.588E+02 -.792E+02   -.804E+02 -.586E+02 0.802E+02   0.207E-01 -.187E+00 -.955E+00   0.461E-02 -.122E-02 -.255E-01
   -.135E+03 0.285E+03 -.104E+02   0.134E+03 -.284E+03 0.103E+02   0.158E+01 -.101E+01 0.270E-01   0.471E-03 -.666E-02 0.379E-01
   0.244E+02 0.972E-01 0.394E+02   -.247E+02 -.144E-01 -.391E+02   0.288E+00 -.887E-01 -.271E+00   0.412E-03 -.156E-02 -.335E-02
   -.431E+02 0.580E+02 -.413E+02   0.432E+02 -.581E+02 0.409E+02   -.583E-01 0.392E-01 0.458E+00   -.478E-03 -.712E-04 0.758E-02
   0.381E+02 0.619E+02 -.387E+02   -.381E+02 -.619E+02 0.384E+02   -.392E-01 0.124E-01 0.347E+00   0.563E-03 -.308E-03 0.750E-02
   0.447E+02 -.586E+02 0.199E+01   -.450E+02 0.578E+02 -.224E+01   0.262E+00 0.840E+00 0.257E+00   -.333E-03 -.530E-03 0.549E-02
   -.336E+02 0.265E+02 0.112E+02   0.341E+02 -.265E+02 -.116E+02   -.418E+00 0.355E-01 0.359E+00   0.726E-04 0.233E-02 0.508E-02
   -.368E+02 0.580E+02 0.528E+02   0.366E+02 -.579E+02 -.532E+02   0.246E+00 -.894E-01 0.363E+00   -.547E-03 0.178E-02 -.678E-03
 -----------------------------------------------------------------------------------------------
   -.433E+00 0.563E+00 0.828E+00   0.199E-12 0.185E-12 0.277E-12   0.420E+00 -.544E+00 -.811E+00   0.153E-01 -.227E-01 -.163E-01
 
 
 POSITION                                       TOTAL-FORCE (eV/Angst)
 -----------------------------------------------------------------------------------
      1.61153      8.47886      8.45449        -0.000375     -0.006817      0.002563
      5.07108      4.93606      1.79127         0.000742     -0.002320     -0.000932
      0.11253      3.36129     10.10119         0.002951      0.004563     -0.001658
      3.40712      6.66811     10.09335        -0.001459      0.005615     -0.001345
      1.71183      1.63137      1.76389         0.001364      0.001607     -0.005541
      3.50469     10.03853      0.03547        -0.000875     -0.001735      0.002600
      1.63033      8.44569      5.03745         0.000978     -0.005319     -0.003813
      5.09635      8.41897      5.03684         0.003292     -0.004279     -0.004363
      1.64162      5.12309      1.81812        -0.000296     -0.001434     -0.006084
      6.65808      6.74398      0.01151         0.001907      0.002472      0.000573
      5.07884      5.03949      4.98947         0.004840     -0.006658     -0.002894
      5.05630      8.42927      1.75073         0.000979     -0.008480     -0.002346
      6.61270     10.03812      0.05074         0.001894     -0.004993     -0.001862
      5.20203      5.04121      8.37965         0.000712      0.009100     -0.000370
      6.73689      6.71851      3.43101        -0.004536      0.000529      0.001623
      1.70525      1.58776      5.01036        -0.000334     -0.004246     -0.002724
      1.73152      1.42780      8.44596         0.000326      0.003721      0.004979
      3.37782     10.02720      6.67267         0.001023      0.004714      0.002961
      3.36549      3.32055      3.51690        -0.001072      0.006367      0.001907
      5.06088      1.63498      1.74856        -0.003159     -0.003295     -0.003164
      5.06660      1.60893      5.05062        -0.003152     -0.004952     -0.007291
      3.35158      6.69671      3.48380        -0.000171      0.004629      0.001182
      5.09220      8.45856      8.42678        -0.003480     -0.004762      0.000563
      1.64503      5.08188      4.96464         0.001495     -0.006762     -0.000336
      3.43874     -0.00872      3.43721         0.005136      0.002625      0.002713
      6.70192     10.05059      3.39171        -0.006807     -0.001007      0.003405
     -0.01672      0.04009      6.70667         0.000222      0.000615      0.001552
      6.71219      6.70160      6.69557        -0.000097      0.009083      0.001203
      0.00543      3.34743      3.49974         0.000029      0.007238      0.001922
      1.45669      5.28565      8.44825         0.002799     -0.001396      0.001355
      1.67614      8.36397      1.73604         0.000584     -0.007378     -0.004462
      3.28660      3.40909      6.75367         0.004612      0.000999      0.006938
      0.07119      3.34109      6.72271        -0.003499      0.007714      0.003755
      5.02056      1.61777      8.45142        -0.002975     -0.005395      0.006573
      3.38273      6.73579      6.72681        -0.001804      0.003270      0.006260
      3.23582      3.41487     10.05856        -0.001796      0.006366     -0.005442
 -----------------------------------------------------------------------------------
    total drift:                                0.001805     -0.003142     -0.000097


--------------------------------------------------------------------------------------------------------



  FREE ENERGIE OF THE ION-ELECTRON SYSTEM (eV)
  ---------------------------------------------------
  free  energy   TOTEN  =      -381.01808586 eV

  energy  without entropy=     -381.03466636  energy(sigma->0) =     -381.02361269
 
 d Force = 0.9374218E-04[ 0.829E-04, 0.105E-03]  d Energy = 0.1111859E-03-0.174E-04
 d Force = 0.1404320E+00[ 0.140E+00, 0.141E+00]  d Ewald  = 0.1436936E+00-0.326E-02


--------------------------------------------------------------------------------------------------------


    POTLOK:  cpu time    0.0360: real time    0.0361


--------------------------------------------------------------------------------------------------------




--------------------------------------------------------------------------------------------------------


  
 reached required accuracy - stopping structural energy minimisation
     LOOP+:  cpu time    4.4815: real time    5.1062
    4ORBIT:  cpu time    0.0000: real time    0.0000

 total amount of memory used by VASP on root node    66330. kBytes
========================================================================

   base      :      30000. kBytes
   nonlr-proj:      11136. kBytes
   fftplans  :       2814. kBytes
   grid      :       5360. kBytes
   one-center:        124. kBytes
   wavefun   :      16896. kBytes
 
  
  
 General timing and accounting informations for this job:
 ========================================================
  
                  Total CPU time used (sec):      286.232
                            User time (sec):      285.139
                          System time (sec):        1.093
                         Elapsed time (sec):      324.766
  
                   Maximum memory used (kb):      290524.
                   Average memory used (kb):           0.
  
                          Minor page faults:       144119
                          Major page faults:           34
                 Voluntary context switches:        11409
