 vasp.5.4.1 05Feb16 (build Jan 29 2020 16:04:39) complex                        
  
 executed on           IFC91_ompi date 2020.06.15  05:42:41
 running on  160 total cores
 distrk:  each k-point on   20 cores,    8 groups
 distr:  one band on NCORES_PER_BAND=   5 cores,    4 groups


--------------------------------------------------------------------------------------------------------


 INCAR:
 POTCAR:    PAW_PBE Ta 17Jan2003                  
 POTCAR:    PAW_PBE Nb_sv 25May2007               
 POTCAR:    PAW_PBE Zr_sv 04Jan2005               
 POTCAR:    PAW_PBE Hf 20Jan2003                  

 ----------------------------------------------------------------------------- 
|                                                                             |
|           W    W    AA    RRRRR   N    N  II  N    N   GGGG   !!!           |
|           W    W   A  A   R    R  NN   N  II  NN   N  G    G  !!!           |
|           W    W  A    A  R    R  N N  N  II  N N  N  G       !!!           |
|           W WW W  AAAAAA  RRRRR   N  N N  II  N  N N  G  GGG   !            |
|           WW  WW  A    A  R   R   N   NN  II  N   NN  G    G                |
|           W    W  A    A  R    R  N    N  II  N    N   GGGG   !!!           |
|                                                                             |
|      For optimal performance we recommend to set                            |
|        NCORE= 4 - approx SQRT( number of cores)                             |
|      NCORE specifies how many cores store one orbital (NPAR=cpu/NCORE).     |
|      This setting can  greatly improve the performance of VASP for DFT.     |
|      The default, NPAR=number of cores might be grossly inefficient         |
|      on modern multi-core architectures or massively parallel machines.     |
|      Do your own testing !!!!                                               |
|      Unfortunately you need to use the default for GW and RPA calculations. |
|      (for HF NCORE is supported but not extensively tested yet)             |
|                                                                             |
 ----------------------------------------------------------------------------- 


 ----------------------------------------------------------------------------- 
|                                                                             |
|           W    W    AA    RRRRR   N    N  II  N    N   GGGG   !!!           |
|           W    W   A  A   R    R  NN   N  II  NN   N  G    G  !!!           |
|           W    W  A    A  R    R  N N  N  II  N N  N  G       !!!           |
|           W WW W  AAAAAA  RRRRR   N  N N  II  N  N N  G  GGG   !            |
|           WW  WW  A    A  R   R   N   NN  II  N   NN  G    G                |
|           W    W  A    A  R    R  N    N  II  N    N   GGGG   !!!           |
|                                                                             |
|      You have enabled k-point parallelism (KPAR>1).                         |
|      This developmental code was originally  written by Paul Kent at ORNL,  |
|      and carefully double checked in Vienna.                                |
|      GW as well as linear response parallelism added by Martijn Marsman     |
|      and Georg Kresse.                                                      |
|      Carefully verify results versus KPAR=1.                                |
|      Report problems to Paul Kent and Vienna.                               |
|                                                                             |
 ----------------------------------------------------------------------------- 

 POTCAR:    PAW_PBE Ta 17Jan2003                  
   VRHFIN =Ta:  6s5d                                                            
   LEXCH  = PE                                                                  
   EATOM  =   130.6506 eV,    9.6025 Ry                                         
                                                                                
   TITEL  = PAW_PBE Ta 17Jan2003                                                
   LULTRA =        F    use ultrasoft PP ?                                      
   IUNSCR =        1    unscreen: 0-lin 1-nonlin 2-no                           
   RPACOR =    2.330    partial core radius                                     
   POMASS =  180.948; ZVAL   =    5.000    mass and valenz                      
   RCORE  =    2.900    outmost cutoff radius                                   
   RWIGS  =    2.840; RWIGS  =    1.503    wigner-seitz radius (au A)           
   ENMAX  =  223.667; ENMIN  =  167.750 eV                                      
   RCLOC  =    2.205    cutoff for local pot                                    
   LCOR   =        T    correct aug charges                                     
   LPAW   =        T    paw PP                                                  
   EAUG   =  332.075                                                            
   DEXC   =    0.000                                                            
   RMAX   =    2.970    core radius for proj-oper                               
   RAUG   =    1.300    factor for augmentation sphere                          
   RDEP   =    3.060    radius for radial grids                                 
   RDEPT  =    2.354    core radius for aug-charge                              
                                                                                
   Atomic configuration                                                         
   16 entries                                                                   
     n  l   j            E        occ.                                          
     1  0  0.50    -67341.2807   2.0000                                         
     2  0  0.50    -11566.9376   2.0000                                         
     2  1  1.50    -10134.1182   6.0000                                         
     3  0  0.50     -2648.5620   2.0000                                         
     3  1  1.50     -2222.6012   6.0000                                         
     3  2  2.50     -1726.3120  10.0000                                         
     4  0  0.50      -538.6961   2.0000                                         
     4  1  1.50      -399.0129   6.0000                                         
     4  2  2.50      -220.3959  10.0000                                         
     4  3  3.50       -23.0374  14.0000                                         
     5  0  0.50       -71.2901   2.0000                                         
     5  1  1.50       -37.8225   6.0000                                         
     5  2  2.50        -2.6455   4.0000                                         
     6  0  0.50        -4.9623   1.0000                                         
     6  1  1.50        -1.3606   0.0000                                         
     5  3  2.50        -1.3606   0.0000                                         
   Description                                                                  
     l       E           TYP  RCUT    TYP  RCUT                                 
     2     -2.6455043     23  2.500                                             
     2     -0.6258895     23  2.500                                             
     0     -4.9622780     23  2.500                                             
     0      4.7531321     23  2.500                                             
     1     -1.3605826     23  2.900                                             
     1     27.2116520     23  2.900                                             
  local pseudopotential read in
  partial core-charges read in
  partial kinetic energy density read in
  atomic valenz-charges read in
  non local Contribution for L=           2  read in
    real space projection operators read in
  non local Contribution for L=           2  read in
    real space projection operators read in
  non local Contribution for L=           0  read in
    real space projection operators read in
  non local Contribution for L=           0  read in
    real space projection operators read in
  non local Contribution for L=           1  read in
    real space projection operators read in
  non local Contribution for L=           1  read in
    real space projection operators read in
    PAW grid and wavefunctions read in
 
   number of l-projection  operators is LMAX  =           6
   number of lm-projection operators is LMMAX =          18
 
 POTCAR:    PAW_PBE Nb_sv 25May2007               
   VRHFIN =Nb: 4p5s4d                                                           
   LEXCH  = PE                                                                  
   EATOM  =  1555.1913 eV,  114.3033 Ry                                         
                                                                                
   TITEL  = PAW_PBE Nb_sv 25May2007                                             
   LULTRA =        F    use ultrasoft PP ?                                      
   IUNSCR =        1    unscreen: 0-lin 1-nonlin 2-no                           
   RPACOR =    1.800    partial core radius                                     
   POMASS =   92.910; ZVAL   =   13.000    mass and valenz                      
   RCORE  =    2.400    outmost cutoff radius                                   
   RWIGS  =    2.400; RWIGS  =    1.270    wigner-seitz radius (au A)           
   ENMAX  =  293.235; ENMIN  =  219.927 eV                                      
   ICORE  =        3    local potential                                         
   LCOR   =        T    correct aug charges                                     
   LPAW   =        T    paw PP                                                  
   EAUG   =  455.659                                                            
   DEXC   =    0.000                                                            
   RMAX   =    2.456    core radius for proj-oper                               
   RAUG   =    1.300    factor for augmentation sphere                          
   RDEP   =    2.451    radius for radial grids                                 
   RDEPT  =    1.956    core radius for aug-charge                              
                                                                                
   Atomic configuration                                                         
   11 entries                                                                   
     n  l   j            E        occ.                                          
     1  0  0.50    -18805.2457   2.0000                                         
     2  0  0.50     -2630.2869   2.0000                                         
     2  1  1.50     -2348.4046   6.0000                                         
     3  0  0.50      -438.8757   2.0000                                         
     3  1  1.50      -346.7588   6.0000                                         
     3  2  2.50      -196.2560  10.0000                                         
     4  0  0.50       -58.3859   2.0000                                         
     5  0  0.50        -3.9816   1.0000                                         
     4  1  1.50       -34.5141   6.0000                                         
     4  2  2.50        -3.0408   4.0000                                         
     4  3  2.50        -1.3606   0.0000                                         
   Description                                                                  
     l       E           TYP  RCUT    TYP  RCUT                                 
     0    -58.3859094     23  2.200                                             
     0     -3.9816262     23  2.200                                             
     1    -34.5140738     23  2.200                                             
     1     13.6058260     23  2.200                                             
     2     -3.0408010     23  2.200                                             
     2     -0.1283038     23  2.200                                             
     3     -1.3605826     23  2.400                                             
  local pseudopotential read in
  partial core-charges read in
  partial kinetic energy density read in
  atomic valenz-charges read in
  non local Contribution for L=           0  read in
    real space projection operators read in
  non local Contribution for L=           0  read in
    real space projection operators read in
  non local Contribution for L=           1  read in
    real space projection operators read in
  non local Contribution for L=           1  read in
    real space projection operators read in
  non local Contribution for L=           2  read in
    real space projection operators read in
  non local Contribution for L=           2  read in
    real space projection operators read in
    PAW grid and wavefunctions read in
 
   number of l-projection  operators is LMAX  =           6
   number of lm-projection operators is LMMAX =          18
 
 POTCAR:    PAW_PBE Zr_sv 04Jan2005               
   VRHFIN =Zr: 4s4p5s4d                                                         
   LEXCH  = PE                                                                  
   EATOM  =  1284.2219 eV,   94.3876 Ry                                         
                                                                                
   TITEL  = PAW_PBE Zr_sv 04Jan2005                                             
   LULTRA =        F    use ultrasoft PP ?                                      
   IUNSCR =        1    unscreen: 0-lin 1-nonlin 2-no                           
   RPACOR =    2.200    partial core radius                                     
   POMASS =   91.224; ZVAL   =   12.000    mass and valenz                      
   RCORE  =    2.500    outmost cutoff radius                                   
   RWIGS  =    3.070; RWIGS  =    1.625    wigner-seitz radius (au A)           
   ENMAX  =  229.898; ENMIN  =  172.424 eV                                      
   ICORE  =        3    local potential                                         
   LCOR   =        T    correct aug charges                                     
   LPAW   =        T    paw PP                                                  
   EAUG   =  461.257                                                            
   DEXC   =    0.000                                                            
   RMAX   =    2.561    core radius for proj-oper                               
   RAUG   =    1.300    factor for augmentation sphere                          
   RDEP   =    2.597    radius for radial grids                                 
   RDEPT  =    2.007    core radius for aug-charge                              
                                                                                
   Atomic configuration                                                         
   11 entries                                                                   
     n  l   j            E        occ.                                          
     1  0  0.50    -17820.0161   2.0000                                         
     2  0  0.50     -2467.0882   2.0000                                         
     2  1  1.50     -2199.6095   6.0000                                         
     3  0  0.50      -402.4863   2.0000                                         
     3  1  1.50      -315.3675   6.0000                                         
     3  2  2.50      -172.4472  10.0000                                         
     4  0  0.50       -52.4146   2.0000                                         
     5  0  0.50        -3.8421   1.0000                                         
     4  1  1.50       -30.5054   6.0000                                         
     4  2  2.50        -2.3341   3.0000                                         
     4  3  2.50        -1.3606   0.0000                                         
   Description                                                                  
     l       E           TYP  RCUT    TYP  RCUT                                 
     0    -52.4145962     23  2.200                                             
     0     -3.8421270     23  2.500                                             
     1    -30.5053914     23  2.200                                             
     1     20.4087390     23  2.200                                             
     2     -2.3340816     23  2.500                                             
     2     -0.6120942     23  2.500                                             
     3     -4.0817478     23  2.500                                             
  local pseudopotential read in
  partial core-charges read in
  partial kinetic energy density read in
  atomic valenz-charges read in
  non local Contribution for L=           0  read in
    real space projection operators read in
  non local Contribution for L=           0  read in
    real space projection operators read in
  non local Contribution for L=           1  read in
    real space projection operators read in
  non local Contribution for L=           1  read in
    real space projection operators read in
  non local Contribution for L=           2  read in
    real space projection operators read in
  non local Contribution for L=           2  read in
    real space projection operators read in
    PAW grid and wavefunctions read in
 
   number of l-projection  operators is LMAX  =           6
   number of lm-projection operators is LMMAX =          18
 
 POTCAR:    PAW_PBE Hf 20Jan2003                  
   VRHFIN =Hf: 6s5d                                                             
   LEXCH  = PE                                                                  
   EATOM  =    75.9011 eV,    5.5786 Ry                                         
                                                                                
   TITEL  = PAW_PBE Hf 20Jan2003                                                
   LULTRA =        F    use ultrasoft PP ?                                      
   IUNSCR =        1    unscreen: 0-lin 1-nonlin 2-no                           
   RPACOR =    2.500    partial core radius                                     
   POMASS =  178.490; ZVAL   =    4.000    mass and valenz                      
   RCORE  =    3.000    outmost cutoff radius                                   
   RWIGS  =    3.050; RWIGS  =    1.614    wigner-seitz radius (au A)           
   ENMAX  =  220.334; ENMIN  =  165.250 eV                                      
   RCLOC  =    2.212    cutoff for local pot                                    
   LCOR   =        T    correct aug charges                                     
   LPAW   =        T    paw PP                                                  
   EAUG   =  335.116                                                            
   DEXC   =    0.000                                                            
   RMAX   =    3.077    core radius for proj-oper                               
   RAUG   =    1.300    factor for augmentation sphere                          
   RDEP   =    3.047    radius for radial grids                                 
   RDEPT  =    2.344    core radius for aug-charge                              
                                                                                
   Atomic configuration                                                         
   16 entries                                                                   
     n  l   j            E        occ.                                          
     1  0  0.50    -65259.4397   2.0000                                         
     2  0  0.50    -11157.9882   2.0000                                         
     2  1  1.50     -9795.2113   6.0000                                         
     3  0  0.50     -2541.4058   2.0000                                         
     3  1  1.50     -2134.4770   6.0000                                         
     3  2  2.50     -1653.5418  10.0000                                         
     4  0  0.50      -510.9575   2.0000                                         
     4  1  1.50      -377.5023   6.0000                                         
     4  2  2.50      -205.2085  10.0000                                         
     4  3  3.50       -15.4905  14.0000                                         
     5  0  0.50       -65.6020   2.0000                                         
     5  1  1.50       -34.2798   6.0000                                         
     5  2  2.50        -1.9877   3.0000                                         
     6  0  0.50        -4.7357   1.0000                                         
     6  1  1.50        -1.3606   0.0000                                         
     5  3  2.50        -1.3606   0.0000                                         
   Description                                                                  
     l       E           TYP  RCUT    TYP  RCUT                                 
     2     -1.9876627     23  2.500                                             
     2      0.0744703     23  2.500                                             
     0     -4.7356889     23  2.600                                             
     0      3.2364747     23  2.600                                             
     1     -1.3605826     23  3.000                                             
     1     27.2116520     23  3.000                                             
  local pseudopotential read in
  partial core-charges read in
  partial kinetic energy density read in
  atomic valenz-charges read in
  non local Contribution for L=           2  read in
    real space projection operators read in
  non local Contribution for L=           2  read in
    real space projection operators read in
  non local Contribution for L=           0  read in
    real space projection operators read in
  non local Contribution for L=           0  read in
    real space projection operators read in
  non local Contribution for L=           1  read in
    real space projection operators read in
  non local Contribution for L=           1  read in
    real space projection operators read in
    PAW grid and wavefunctions read in
 
   number of l-projection  operators is LMAX  =           6
   number of lm-projection operators is LMMAX =          18
 
 Optimization of the real space projectors (new method)

 maximal supplied QI-value         = 12.85
 optimisation between [QCUT,QGAM] = [  8.87, 17.73] = [ 22.01, 88.06] Ry 
 Optimized for a Real-space Cutoff    1.90 Angstroem

   l    n(q)    QCUT    max X(q) W(low)/X(q) W(high)/X(q)  e(spline) 
   2      9     8.867    62.315    0.23E-03    0.62E-04    0.11E-05
   2      9     8.867    52.185    0.23E-03    0.62E-04    0.11E-05
   0     10     8.867   103.837    0.15E-04    0.23E-04    0.98E-07
   0     10     8.867    59.728    0.12E-04    0.21E-04    0.89E-07
   1     10     8.867    13.958    0.50E-04    0.22E-04    0.14E-06
   1     10     8.867     8.441    0.36E-04    0.19E-04    0.98E-07
 Optimization of the real space projectors (new method)

 maximal supplied QI-value         = 15.68
 optimisation between [QCUT,QGAM] = [  8.78, 17.72] = [ 21.60, 87.97] Ry 
 Optimized for a Real-space Cutoff    1.96 Angstroem

   l    n(q)    QCUT    max X(q) W(low)/X(q) W(high)/X(q)  e(spline) 
   0     10     8.783    10.201    0.29E-04    0.25E-05    0.69E-07
   0     10     8.783     8.174    0.45E-04    0.57E-05    0.14E-06
   1     10     8.783     3.488    0.76E-05    0.24E-04    0.95E-07
   1     10     8.783     4.917    0.78E-04    0.14E-03    0.46E-06
   2      9     8.783   153.744    0.22E-03    0.34E-04    0.15E-05
   2      9     8.783   126.342    0.22E-03    0.35E-04    0.15E-05
 Optimization of the real space projectors (new method)

 maximal supplied QI-value         = 15.12
 optimisation between [QCUT,QGAM] = [  8.77, 17.69] = [ 21.53, 87.61] Ry 
 Optimized for a Real-space Cutoff    1.74 Angstroem

   l    n(q)    QCUT    max X(q) W(low)/X(q) W(high)/X(q)  e(spline) 
   0      9     8.768    12.107    0.28E-04    0.53E-06    0.29E-07
   0      9     8.768     9.948    0.36E-04    0.50E-05    0.64E-07
   1      9     8.768     3.563    0.14E-04    0.16E-04    0.88E-07
   1      9     8.768     4.524    0.21E-03    0.33E-03    0.19E-06
   2      8     8.768    87.261    0.19E-03    0.25E-03    0.24E-06
   2      8     8.768    70.950    0.19E-03    0.24E-03    0.24E-06
 Optimization of the real space projectors (new method)

 maximal supplied QI-value         = 12.47
 optimisation between [QCUT,QGAM] = [  8.86, 17.71] = [ 21.96, 87.83] Ry 
 Optimized for a Real-space Cutoff    1.90 Angstroem

   l    n(q)    QCUT    max X(q) W(low)/X(q) W(high)/X(q)  e(spline) 
   2      9     8.855    48.111    0.22E-03    0.80E-04    0.10E-05
   2      9     8.855    40.545    0.21E-03    0.76E-04    0.95E-06
   0     10     8.855   121.658    0.27E-04    0.12E-04    0.11E-06
   0     10     8.855    71.177    0.22E-04    0.11E-04    0.99E-07
   1     10     8.855    14.183    0.65E-04    0.10E-03    0.98E-07
   1     10     8.855     8.257    0.43E-04    0.73E-04    0.72E-07
  PAW_PBE Ta 17Jan2003                  :
 energy of atom  1       EATOM= -130.6506
 kinetic energy error for atom=    0.0121 (will be added to EATOM!!)
  PAW_PBE Nb_sv 25May2007               :
 energy of atom  2       EATOM=-1555.1913
 kinetic energy error for atom=    0.0655 (will be added to EATOM!!)
  PAW_PBE Zr_sv 04Jan2005               :
 energy of atom  3       EATOM=-1284.2219
 kinetic energy error for atom=    0.0483 (will be added to EATOM!!)
  PAW_PBE Hf 20Jan2003                  :
 energy of atom  4       EATOM=  -75.9011
 kinetic energy error for atom=    0.0071 (will be added to EATOM!!)
 
 
 POSCAR: generated by pypospack                  
  positions in direct lattice
  No initial velocities read in
 exchange correlation table for  LEXCH =        8
   RHO(1)=    0.500       N(1)  =     2000
   RHO(2)=  100.500       N(2)  =     4000
 


--------------------------------------------------------------------------------------------------------


 ion  position               nearest neighbor table
   1  0.766  0.843  0.500-  17 2.77  14 2.83  15 2.90  16 2.92  10 2.95  13 2.97  36 3.01  23 3.06
                            34 3.24  29 3.30   7 3.35  30 3.35   6 3.57  34 3.65
   2  0.239  0.494  0.175-  18 2.82  19 2.89  10 2.91  25 2.94   4 2.96  31 2.99  23 3.01  27 3.05
                            32 3.29  12 3.29  22 3.33   5 3.46  22 3.56   3 3.58
   3  0.225  0.529  0.828-  16 2.74   4 2.81  25 2.87  27 2.95  36 2.96  33 3.02  31 3.03  26 3.09
                            21 3.10   9 3.13   2 3.58
   4  0.999  0.668  0.010-   3 2.81   7 2.84   9 2.85   5 2.89   2 2.96  22 3.01  21 3.03  30 3.04
                             8 3.23  10 3.33  25 3.33  27 3.44  27 3.46
   5  0.226  0.833  0.180-  14 2.75   8 2.79  10 2.82   4 2.89  28 2.89  13 2.89  23 3.03  27 3.12
                             7 3.13  34 3.27  32 3.45   2 3.46  21 3.64
   6  0.759  0.492  0.493-  18 2.77  19 2.85  16 2.88  10 2.91  33 2.96  23 2.97  26 2.99  36 2.99
                            22 3.28  12 3.31  29 3.33   9 3.50   1 3.57
   7  0.773  0.830  0.175-   8 2.77  14 2.78  10 2.81   4 2.84  28 2.87  13 2.92  23 3.02  27 3.09
                             5 3.13   1 3.35  20 3.46  22 3.50  30 3.59
   8  0.000  0.985  0.014-   7 2.77   5 2.79  30 2.93  21 2.97  20 3.01  32 3.03  35 3.07  24 3.08
                             4 3.23  14 3.26  28 3.44  28 3.46  25 3.66
   9  0.771  0.519  0.832-  16 2.74   4 2.85  25 2.92  36 2.94  27 2.97  33 3.04  31 3.04  26 3.07
                             3 3.13  30 3.24   6 3.50  22 3.53
  10  0.996  0.665  0.333-   7 2.81   5 2.82  12 2.89   6 2.91   2 2.91  22 2.95   1 2.95  34 2.97
                            18 3.30   4 3.33  23 3.41  23 3.49
  11  0.254  0.161  0.491-  15 2.83  19 2.85  18 2.89  14 2.94  17 2.97  13 2.97  33 3.02  26 3.12
                            32 3.26  34 3.27  29 3.38  24 3.51  29 3.52
  12  0.238  0.503  0.495-  18 2.72  19 2.78  16 2.88  10 2.89  23 2.94  33 2.95  36 3.01  26 3.02
                             2 3.29   6 3.31  34 3.44
  13  0.502  0.990  0.326-   5 2.89   7 2.92  11 2.97  34 2.97  29 2.97   1 2.97  20 2.98  32 3.00
                            28 3.07  23 3.32
  14  0.998  0.995  0.331-   5 2.75   7 2.78   1 2.83  34 2.87  11 2.94  32 2.95  20 2.95  29 2.96
                             8 3.26
  15  0.002  0.018  0.656-  11 2.83  24 2.86  35 2.88  29 2.89   1 2.90  34 2.92  30 3.03  21 3.07
                            33 3.19
  16  0.989  0.659  0.658-   9 2.74   3 2.74  12 2.88   6 2.88   1 2.92  30 2.95  34 3.00  21 3.03
                            36 3.31  33 3.35
  17  0.507  0.989  0.648-   1 2.77  34 2.85  29 2.92  24 2.96  11 2.97  35 2.98  30 2.98  21 3.03
                            36 3.30
  18  0.015  0.342  0.347-  12 2.72   6 2.77   2 2.82  11 2.89  22 2.94  32 2.95  29 2.98  20 3.09
                            33 3.27  10 3.30
  19  0.481  0.344  0.348-  12 2.78  11 2.85   6 2.85   2 2.89  29 2.97  32 2.98  22 2.98  20 3.15
                            23 3.28  26 3.33
  20  0.753  0.169  0.172-  14 2.95  28 2.97  13 2.98   8 3.01  18 3.09  19 3.15  25 3.18  22 3.24
                            31 3.25  29 3.28  32 3.39   7 3.46  35 3.48  32 3.50
  21  0.243  0.833  0.827-   8 2.97   4 3.03  16 3.03  17 3.03  36 3.04  27 3.06  15 3.07   3 3.10
                            28 3.12  24 3.16  30 3.31  34 3.38  30 3.59   5 3.64
  22  0.755  0.487  0.174-  18 2.94  10 2.95  19 2.98   4 3.01  23 3.03  25 3.03  31 3.04  27 3.09
                            20 3.24   6 3.28   2 3.33   7 3.50   9 3.53   2 3.56
  23  0.501  0.665  0.338-  12 2.94   6 2.97   2 3.01   7 3.02  22 3.03   5 3.03  34 3.04   1 3.06
                            19 3.28  36 3.31  13 3.32  10 3.41  27 3.44  10 3.49
  24  0.267  0.143  0.832-  15 2.86  17 2.96  31 3.02  28 3.07  26 3.08   8 3.08  25 3.09  33 3.15
                            21 3.16  35 3.28  11 3.51  32 3.54  35 3.62
  25  0.015  0.342  0.983-   3 2.87   9 2.92   2 2.94  22 3.03  32 3.08  24 3.09  35 3.12  20 3.18
                            31 3.25  33 3.27   4 3.33  31 3.65   8 3.66
  26  0.496  0.345  0.672-   6 2.99  12 3.02   9 3.07  24 3.08   3 3.09  29 3.12  35 3.12  11 3.12
                            31 3.20  36 3.26  19 3.33  33 3.38  33 3.52
  27  0.498  0.665  0.004-   3 2.95   9 2.97   2 3.05  21 3.06   7 3.09  22 3.09   5 3.12  30 3.12
                            31 3.22  28 3.24   4 3.44  23 3.44   4 3.46  36 3.54
  28  0.502  0.982  0.027-   7 2.87   5 2.89  20 2.97  32 3.02  13 3.07  24 3.07  35 3.10  30 3.11
                            21 3.12  27 3.24   8 3.44   8 3.46  31 3.78
  29  0.744  0.166  0.491-  15 2.89  17 2.92  14 2.96  19 2.97  13 2.97  18 2.98  33 3.05  26 3.12
                            20 3.28   1 3.30   6 3.33  11 3.38  11 3.52  35 3.53
  30  0.763  0.837  0.826-   8 2.93  16 2.95  17 2.98  36 3.01  15 3.03   4 3.04  28 3.11  27 3.12
                            35 3.18   9 3.24  21 3.31   1 3.35  21 3.59   7 3.59
  31  0.486  0.350  0.983-   2 2.99  24 3.02   3 3.03  22 3.04   9 3.04  35 3.11  32 3.15  26 3.20
                            27 3.22  25 3.25  20 3.25  25 3.65  28 3.78
  32  0.245  0.171  0.174-  18 2.95  14 2.95  19 2.98  13 3.00  28 3.02   8 3.03  25 3.08  31 3.15
                            11 3.26   2 3.29  20 3.39   5 3.45  20 3.50  24 3.54
  33  0.006  0.331  0.665-  12 2.95   6 2.96   3 3.02  11 3.02   9 3.04  29 3.05  35 3.13  24 3.15
                            15 3.19  18 3.27  25 3.27  16 3.35  26 3.38  26 3.52
  34  0.236  0.840  0.498-  17 2.85  14 2.87  15 2.92  10 2.97  13 2.97  16 3.00  23 3.04  36 3.09
                             1 3.24  11 3.27   5 3.27  21 3.38  12 3.44   1 3.65
  35  0.742  0.149  0.834-  15 2.88  17 2.98   8 3.07  28 3.10  31 3.11  26 3.12  25 3.12  33 3.13
                            30 3.18  24 3.28  20 3.48  29 3.53  24 3.62
  36  0.510  0.665  0.660-   9 2.94   3 2.96   6 2.99  30 3.01  12 3.01   1 3.01  21 3.04  34 3.09
                            26 3.26  17 3.30  16 3.31  23 3.31  27 3.54
 
  LATTYP: Found a triclinic cell.
 ALAT       =    12.3677435303
 B/A-ratio  =     1.1682337935
 C/A-ratio  =     0.5574595258
 COS(alpha) =     0.0001406151
 COS(beta)  =     0.5557131749
 COS(gamma) =     0.5891634074
  
  Lattice vectors:
  
 A1 = (  -6.8837081741,  -0.0143663328,  10.2749907743)
 A2 = (  -0.0007831647,  10.1730097647,  10.2599510197)
 A3 = (  -6.8945078652,   0.0081309453,  -0.0072230729)


Analysis of symmetry for initial positions (statically):
=====================================================================
 Subroutine PRICEL returns:
 Original cell was already a primitive cell.
 

 Routine SETGRP: Setting up the symmetry group for a 
 triclinic supercell.


 Subroutine GETGRP returns: Found  1 space group operations
 (whereof  1 operations were pure point group operations)
 out of a pool of  2 trial point group operations.


The static configuration has the point symmetry C_1 .


Analysis of symmetry for dynamics (positions and initial velocities):
=====================================================================
 Subroutine PRICEL returns:
 Original cell was already a primitive cell.
 

 Routine SETGRP: Setting up the symmetry group for a 
 triclinic supercell.


 Subroutine GETGRP returns: Found  1 space group operations
 (whereof  1 operations were pure point group operations)
 out of a pool of  2 trial point group operations.


The dynamic configuration has the point symmetry C_1 .


 Subroutine INISYM returns: Found  1 space group operations
 (whereof  1 operations are pure point group operations),
 and found     1 'primitive' translations

 
 
 KPOINTS: k-points                                

Automatic generation of k-mesh.
Space group operators:
 irot       det(A)        alpha          n_x          n_y          n_z        tau_x        tau_y        tau_z
    1     1.000000     0.000000     1.000000     0.000000     0.000000     0.000000     0.000000     0.000000
 
 Subroutine IBZKPT returns following result:
 ===========================================
 
 Found     14 irreducible k-points:
 
 Following reciprocal coordinates:
            Coordinates               Weight
  0.000000  0.000000  0.000000      1.000000
  0.333333  0.000000 -0.000000      2.000000
  0.000000  0.333333 -0.000000      2.000000
  0.333333  0.333333 -0.000000      2.000000
 -0.333333  0.333333  0.000000      2.000000
  0.000000  0.000000  0.333333      2.000000
  0.333333  0.000000  0.333333      2.000000
 -0.333333  0.000000  0.333333      2.000000
  0.000000  0.333333  0.333333      2.000000
  0.333333  0.333333  0.333333      2.000000
 -0.333333  0.333333  0.333333      2.000000
 -0.000000 -0.333333  0.333333      2.000000
  0.333333 -0.333333  0.333333      2.000000
 -0.333333 -0.333333  0.333333      2.000000
 
 Following cartesian coordinates:
            Coordinates               Weight
  0.000000  0.000000  0.000000      1.000000
  0.241174  0.000273 -0.000253      2.000000
  0.000192  0.163090  0.000357      2.000000
  0.241366  0.163363  0.000104      2.000000
 -0.240982  0.162816  0.000609      2.000000
 -0.000169  0.000353  0.161714      2.000000
  0.241005  0.000626  0.161461      2.000000
 -0.241343  0.000079  0.161967      2.000000
  0.000023  0.163442  0.162071      2.000000
  0.241197  0.163716  0.161818      2.000000
 -0.241151  0.163169  0.162324      2.000000
 -0.000361 -0.162737  0.161358      2.000000
  0.240813 -0.162463  0.161105      2.000000
 -0.241535 -0.163010  0.161610      2.000000
 


--------------------------------------------------------------------------------------------------------




 Dimension of arrays:
   k-points           NKPTS =     14   k-points in BZ     NKDIM =     14   number of bands    NBANDS=    176
   number of dos      NEDOS =    301   number of ions     NIONS =     36
   non local maximal  LDIM  =      6   non local SUM 2l+1 LMDIM =     18
   total plane-waves  NPLWV = 144000
   max r-space proj   IRMAX =   6339   max aug-charges    IRDMAX=  13760
   dimension x,y,z NGX =    40 NGY =   60 NGZ =   60
   dimension x,y,z NGXF=    80 NGYF=  120 NGZF=  120
   support grid    NGXF=    80 NGYF=  120 NGZF=  120
   ions per type =              11   8   8   9
 NGX,Y,Z   is equivalent  to a cutoff of   9.65,  9.78,  9.70 a.u.
 NGXF,Y,Z  is equivalent  to a cutoff of  19.29, 19.57, 19.40 a.u.


 I would recommend the setting:
   dimension x,y,z NGX =    39 NGY =   58 NGZ =   58
 SYSTEM =  automatically generated by mexm         
 POSCAR =  generated by pypospack                  

 Startparameter for this run:
   NWRITE =      2    write-flag & timer
   PREC   = accura    normal or accurate (medium, high low for compatibility)
   ISTART =      0    job   : 0-new  1-cont  2-samecut
   ICHARG =      2    charge: 1-file 2-atom 10-const
   ISPIN  =      1    spin polarized calculation?
   LNONCOLLINEAR =      F non collinear calculations
   LSORBIT =      F    spin-orbit coupling
   INIWAV =      1    electr: 0-lowe 1-rand  2-diag
   LASPH  =      F    aspherical Exc in radial PAW
   METAGGA=      F    non-selfconsistent MetaGGA calc.

 Electronic Relaxation 1
   ENCUT  =  300.0 eV  22.05 Ry    4.70 a.u.   9.74 14.40 14.52*2*pi/ulx,y,z
   ENINI  =  300.0     initial cutoff
   ENAUG  =  461.3 eV  augmentation charge cutoff
   NELM   =     70;   NELMIN=  2; NELMDL= -5     # of ELM steps 
   EDIFF  = 0.1E-04   stopping-criterion for ELM
   LREAL  =      T    real-space projection
   NLSPLINE    = F    spline interpolate recip. space projectors
   LCOMPAT=      F    compatible to vasp.4.4
   GGA_COMPAT  = T    GGA compatible to vasp.4.4-vasp.4.6
   LMAXPAW     = -100 max onsite density
   LMAXMIX     =    2 max onsite mixed and CHGCAR
   VOSKOWN=      0    Vosko Wilk Nusair interpolation
   ROPT   =   -0.00025  -0.00025  -0.00025  -0.00025
 Ionic relaxation
   EDIFFG = -.1E-01   stopping-criterion for IOM
   NSW    =    300    number of steps for IOM
   NBLOCK =      1;   KBLOCK =    300    inner block; outer block 
   IBRION =      2    ionic relax: 0-MD 1-quasi-New 2-CG
   NFREE  =      1    steps in history (QN), initial steepest desc. (CG)
   ISIF   =      3    stress and relaxation
   IWAVPR =     11    prediction:  0-non 1-charg 2-wave 3-comb
   ISYM   =      1    0-nonsym 1-usesym 2-fastsym
   LCORR  =      T    Harris-Foulkes like correction to forces

   POTIM  = 0.1500    time-step for ionic-motion
   TEIN   =    0.0    initial temperature
   TEBEG  =    0.0;   TEEND  =   0.0 temperature during run
   SMASS  =  -3.00    Nose mass-parameter (am)
   estimated Nose-frequenzy (Omega)   =  0.10E-29 period in steps =****** mass=  -0.109E-26a.u.
   SCALEE = 1.0000    scale energy and forces
   NPACO  =    256;   APACO  = 16.0  distance and # of slots for P.C.
   PSTRESS=    0.0 pullay stress

  Mass of Ions in am
   POMASS = 180.95 92.91 91.22178.49
  Ionic Valenz
   ZVAL   =   5.00 13.00 12.00  4.00
  Atomic Wigner-Seitz radii
   RWIGS  =  -1.00 -1.00 -1.00 -1.00
  virtual crystal weights 
   VCA    =   1.00  1.00  1.00  1.00
   NELECT =     291.0000    total number of electrons
   NUPDOWN=      -1.0000    fix difference up-down

 DOS related values:
   EMIN   =  10.00;   EMAX   =-10.00  energy-range for DOS
   EFERMI =   0.00
   ISMEAR =     1;   SIGMA  =   0.15  broadening in eV -4-tet -1-fermi 0-gaus

 Electronic relaxation 2 (details)
   IALGO  =     68    algorithm
   LDIAG  =      T    sub-space diagonalisation (order eigenvalues)
   LSUBROT=      F    optimize rotation matrix (better conditioning)
   TURBO    =      0    0=normal 1=particle mesh
   IRESTART =      0    0=no restart 2=restart with 2 vectors
   NREBOOT  =      0    no. of reboots
   NMIN     =      0    reboot dimension
   EREF     =   0.00    reference energy to select bands
   IMIX   =      4    mixing-type and parameters
     AMIX     =   0.40;   BMIX     =  1.00
     AMIX_MAG =   1.60;   BMIX_MAG =  1.00
     AMIN     =   0.10
     WC   =   100.;   INIMIX=   1;  MIXPRE=   1;  MAXMIX= -45

 Intra band minimization:
   WEIMIN = 0.0010     energy-eigenvalue tresh-hold
   EBREAK =  0.14E-07  absolut break condition
   DEPER  =   0.30     relativ break condition  

   TIME   =   0.40     timestep for ELM

  volume/ion in A,a.u.               =      20.08       135.48
  Fermi-wavevector in a.u.,A,eV,Ry     =   1.208854  2.284403 19.882584  1.461329
  Thomas-Fermi vector in A             =   2.344449
 
 Write flags
   LWAVE  =      F    write WAVECAR
   LCHARG =      F    write CHGCAR
   LVTOT  =      F    write LOCPOT, total local potential
   LVHAR  =      F    write LOCPOT, Hartree potential only
   LELF   =      F    write electronic localiz. function (ELF)
   LORBIT =      0    0 simple, 1 ext, 2 COOP (PROOUT)


 Dipole corrections
   LMONO  =      F    monopole corrections only (constant potential shift)
   LDIPOL =      F    correct potential (dipole corrections)
   IDIPOL =      0    1-x, 2-y, 3-z, 4-all directions 
   EPSILON=  1.0000000 bulk dielectric constant

 Exchange correlation treatment:
   GGA     =    --    GGA type
   LEXCH   =     8    internal setting for exchange type
   VOSKOWN=      0    Vosko Wilk Nusair interpolation
   LHFCALC =     F    Hartree Fock is set to
   LHFONE  =     F    Hartree Fock one center treatment
   AEXX    =    0.0000 exact exchange contribution

 Linear response parameters
   LEPSILON=     F    determine dielectric tensor
   LRPA    =     F    only Hartree local field effects (RPA)
   LNABLA  =     F    use nabla operator in PAW spheres
   LVEL    =     F    velocity operator in full k-point grid
   LINTERFAST=   F  fast interpolation
   KINTER  =     0    interpolate to denser k-point grid
   CSHIFT  =0.1000    complex shift for real part using Kramers Kronig
   OMEGAMAX=  -1.0    maximum frequency
   DEG_THRESHOLD= 0.2000000E-02 threshold for treating states as degnerate
   RTIME   =    0.100 relaxation time in fs

 Orbital magnetization related:
   ORBITALMAG=     F  switch on orbital magnetization
   LCHIMAG   =     F  perturbation theory with respect to B field
   DQ        =  0.001000  dq finite difference perturbation B field



--------------------------------------------------------------------------------------------------------


 conjugate gradient relaxation of ions
 charge density and potential will be updated during run
 non-spin polarized calculation
 RMM-DIIS sequential band-by-band and
  variant of blocked Davidson during initial phase
 perform sub-space diagonalisation
    before iterative eigenvector-optimisation
 modified Broyden-mixing scheme, WC =      100.0
 initial mixing is a Kerker type mixing with AMIX =  0.4000 and BMIX =      1.0000
 Hartree-type preconditioning will be used
 using additional bands           30
 real space projection scheme for non local part
 use partial core corrections
 calculate Harris-corrections to forces 
   (improved forces if not selfconsistent)
 use gradient corrections 
 use of overlap-Matrix (Vanderbilt PP)
 Methfessel and Paxton  Order N= 1 SIGMA  =   0.15


--------------------------------------------------------------------------------------------------------


  energy-cutoff  :      300.00
  volume of cell :      722.76
      direct lattice vectors                 reciprocal lattice vectors
     6.894507865 -0.008130945  0.007223073     0.145043338  0.000164448 -0.000151983
    -0.011582856 10.195507043 -0.022262828     0.000115448  0.098083019  0.000214482
     0.010799691 -0.022497278 10.282213847    -0.000101640  0.000212252  0.097255891

  length of vectors
     6.894516443 10.195537929 10.282244131     0.145043511  0.098083322  0.097256176


 
 k-points in units of 2pi/SCALE and weight: k-points                                
   0.00000000  0.00000000  0.00000000       0.037
   0.24117371  0.00027344 -0.00025271       0.074
   0.00019196  0.16308950  0.00035663       0.074
   0.24136567  0.16336294  0.00010392       0.074
  -0.24098175  0.16281606  0.00060935       0.074
  -0.00016900  0.00035293  0.16171418       0.074
   0.24100471  0.00062637  0.16146147       0.074
  -0.24134272  0.00007949  0.16196689       0.074
   0.00002296  0.16344243  0.16207081       0.074
   0.24119667  0.16371587  0.16181810       0.074
  -0.24115075  0.16316899  0.16232353       0.074
  -0.00036097 -0.16273658  0.16135754       0.074
   0.24081274 -0.16246314  0.16110483       0.074
  -0.24153468 -0.16301002  0.16161026       0.074
 
 k-points in reciprocal lattice and weights: k-points                                
   0.00000000  0.00000000  0.00000000       0.037
   0.33333333  0.00000000 -0.00000000       0.074
   0.00000000  0.33333333 -0.00000000       0.074
   0.33333333  0.33333333 -0.00000000       0.074
  -0.33333333  0.33333333  0.00000000       0.074
   0.00000000  0.00000000  0.33333333       0.074
   0.33333333  0.00000000  0.33333333       0.074
  -0.33333333  0.00000000  0.33333333       0.074
   0.00000000  0.33333333  0.33333333       0.074
   0.33333333  0.33333333  0.33333333       0.074
  -0.33333333  0.33333333  0.33333333       0.074
  -0.00000000 -0.33333333  0.33333333       0.074
   0.33333333 -0.33333333  0.33333333       0.074
  -0.33333333 -0.33333333  0.33333333       0.074
 
 position of ions in fractional coordinates (direct lattice) 
   0.76578000  0.84254200  0.50040900
   0.23860700  0.49428400  0.17474500
   0.22516000  0.52889800  0.82814200
   0.99941800  0.66823300  0.00991100
   0.22648200  0.83318800  0.18033600
   0.75867300  0.49220400  0.49272600
   0.77291400  0.83046500  0.17527900
   0.00012200  0.98456100  0.01372100
   0.77081700  0.51945800  0.83187000
   0.99575600  0.66458000  0.33344400
   0.25409600  0.16071000  0.49086800
   0.23842900  0.50296500  0.49510300
   0.50169600  0.99004800  0.32592100
   0.99781500  0.99517800  0.33066000
   0.00232200  0.01847200  0.65630400
   0.98912900  0.65921900  0.65778200
   0.50725900  0.98866400  0.64822700
   0.01451200  0.34151700  0.34748100
   0.48117000  0.34385100  0.34777500
   0.75310300  0.16935200  0.17164500
   0.24277100  0.83317400  0.82679700
   0.75502800  0.48736000  0.17365500
   0.50129100  0.66489100  0.33782500
   0.26657000  0.14267100  0.83166700
   0.01464500  0.34243000  0.98291900
   0.49573400  0.34508700  0.67191100
   0.49766000  0.66508700  0.00358300
   0.50152500  0.98162500  0.02746600
   0.74376000  0.16572400  0.49090400
   0.76297800  0.83723900  0.82648100
   0.48595500  0.34964000  0.98308700
   0.24523800  0.17141000  0.17441400
   0.00581600  0.33146200  0.66506700
   0.23589100  0.84031400  0.49849300
   0.74216100  0.14869600  0.83360900
   0.50971400  0.66480100  0.65976700
 
 position of ions in cartesian coordinates  (Angst):
   5.27532145  8.57265854  5.13208627
   1.64123981  5.03360462  1.78748478
   1.55518492  5.37192158  8.50498472
   6.88286225  6.80462507  0.09424913
   1.55377881  8.48887554  1.83734009
   5.23029713  5.00101563  5.06083620
   5.32113545  8.45678393  1.78935048
  -0.01041472 10.03778893  0.11916403
   5.31737100  5.27115542  8.54746830
   6.86115093  6.76013205  3.42093950
   1.75530661  1.62541070  5.04546724
   1.64337180  5.11490608  5.08127969
   3.45099928 10.08262976  3.33277194
   6.87148739 10.13079218  3.38496865
   0.02288297  0.17354747  6.74786361
   6.81902587  6.69823110  6.75592366
   3.49285026 10.06122294  6.64686215
   0.09985004  3.47400361  3.56537564
   3.31720344  3.49399893  3.57171735
   5.19216669  1.71664452  1.76656006
   1.67306519  8.47405675  8.48450831
   5.20177688  4.95883646  1.78016146
   3.45210181  6.76722476  3.46240740
   1.84519817  1.43372548  8.55012714
   0.10761897  3.46901540 10.09906567
   3.42110130  3.49918998  6.90463070
   3.42345587  6.77677214  0.02562909
   3.44669466 10.00346882  0.26418009
   5.13124122  1.67254873  5.04926265
   5.25958594  8.51127882  8.48492612
   3.35698778  3.53868903 10.10403688
   1.69069352  1.74169401  1.79131735
   0.04344170  3.36441367  6.83102384
   1.62200269  8.55429455  5.10860772
   5.12411525  1.49124271  8.57339629
   3.51365217  6.75899586  6.77274673
 


--------------------------------------------------------------------------------------------------------


 k-point  1 :   0.0000 0.0000 0.0000  plane waves:    8581
 k-point  2 :   0.3333 0.0000-0.0000  plane waves:    8526
 k-point  3 :   0.0000 0.3333-0.0000  plane waves:    8531
 k-point  4 :   0.3333 0.3333-0.0000  plane waves:    8523
 k-point  5 :  -0.3333 0.3333 0.0000  plane waves:    8518
 k-point  6 :   0.0000 0.0000 0.3333  plane waves:    8521
 k-point  7 :   0.3333 0.0000 0.3333  plane waves:    8525
 k-point  8 :  -0.3333 0.0000 0.3333  plane waves:    8526
 k-point  9 :   0.0000 0.3333 0.3333  plane waves:    8534
 k-point 10 :   0.3333 0.3333 0.3333  plane waves:    8528
 k-point 11 :  -0.3333 0.3333 0.3333  plane waves:    8523
 k-point 12 :  -0.0000-0.3333 0.3333  plane waves:    8524
 k-point 13 :   0.3333-0.3333 0.3333  plane waves:    8527
 k-point 14 :  -0.3333-0.3333 0.3333  plane waves:    8534

 maximum and minimum number of plane-waves per node :      1731     1677

 maximum number of plane-waves:      8581
 maximum index in each direction: 
   IXMAX=   10   IYMAX=   14   IZMAX=   14
   IXMIN=  -10   IYMIN=  -14   IZMIN=  -14

 WARNING: aliasing errors must be expected set NGX to  42 to avoid them
 NGY is ok and might be reduce to  58
 NGZ is ok and might be reduce to  58
 aliasing errors are usually negligible using standard VASP settings
 and one can safely disregard these warnings

 real space projection operators:
  total allocation   :      27381.38 KBytes
  max/ min on nodes  :       5525.86       5420.25


 parallel 3D FFT for wavefunctions:
    minimum data exchange during FFTs selected (reduces bandwidth)
 parallel 3D FFT for charge:
    minimum data exchange during FFTs selected (reduces bandwidth)


 total amount of memory used by VASP on root node    67201. kBytes
========================================================================

   base      :      30000. kBytes
   nonlr-proj:      10532. kBytes
   fftplans  :       2814. kBytes
   grid      :       5360. kBytes
   one-center:        124. kBytes
   wavefun   :      18371. kBytes
 
     INWAV:  cpu time    0.0000: real time    0.0000
 Broyden mixing: mesh for mixing (old mesh)
   NGX = 19   NGY = 29   NGZ = 29
  (NGX  = 80   NGY  =120   NGZ  =120)
  gives a total of  15979 points

 initial charge density was supplied:
 charge density of overlapping atoms calculated
 number of electron     291.0000000 magnetization 
 keeping initial charge density in first step


--------------------------------------------------------------------------------------------------------


 Maximum index for non-local projection operator         1231
 Maximum index for augmentation-charges          680 (set IRDMAX)


--------------------------------------------------------------------------------------------------------


 First call to EWALD:  gamma=   0.198
 Maximum number of real-space cells 3x 2x 2
 Maximum number of reciprocal cells 2x 3x 3

 FEWALD executed in parallel
    FEWALD:  cpu time    0.0951: real time    0.0958


----------------------------------------- Iteration    1(   1)  ---------------------------------------


    POTLOK:  cpu time    0.0360: real time    0.0879
    SETDIJ:  cpu time    0.0060: real time    0.0095
     EDDAV:  cpu time    1.0157: real time    1.0539
       DOS:  cpu time    0.0022: real time    0.0022
    --------------------------------------------
      LOOP:  cpu time    1.0674: real time    1.5957

 eigenvalue-minimisations  :  5400
 total energy-change (2. order) : 0.1802529E+04  (-0.1086394E+05)
 number of electron     291.0000000 magnetization 
 augmentation part      291.0000000 magnetization 

 Free energy of the ion-electron system (eV)
  ---------------------------------------------------
  alpha Z        PSCENC =      1516.22995370
  Ewald energy   TEWEN  =    -19518.73027992
  -Hartree energ DENC   =     -6253.50994517
  -exchange      EXHF   =         0.00000000
  -V(xc)+E(xc)   XCENC  =      -356.99187547
  PAW double counting   =     21096.87946096   -19449.64100719
  entropy T*S    EENTRO =        -0.00940511
  eigenvalues    EBANDS =       -66.16276801
  atomic energy  EATOM  =     24834.46488499
  Solvation  Ediel_sol  =         0.00000000
  ---------------------------------------------------
  free energy    TOTEN  =      1802.52901878 eV

  energy without entropy =     1802.53842389  energy(sigma->0) =     1802.53215382


--------------------------------------------------------------------------------------------------------




----------------------------------------- Iteration    1(   2)  ---------------------------------------


     EDDAV:  cpu time    1.0942: real time    1.1865
       DOS:  cpu time    0.0009: real time    0.0009
    --------------------------------------------
      LOOP:  cpu time    1.0956: real time    1.4101

 eigenvalue-minimisations  :  5560
 total energy-change (2. order) :-0.1900278E+04  (-0.1830939E+04)
 number of electron     291.0000000 magnetization 
 augmentation part      291.0000000 magnetization 

 Free energy of the ion-electron system (eV)
  ---------------------------------------------------
  alpha Z        PSCENC =      1516.22995370
  Ewald energy   TEWEN  =    -19518.73027992
  -Hartree energ DENC   =     -6253.50994517
  -exchange      EXHF   =         0.00000000
  -V(xc)+E(xc)   XCENC  =      -356.99187547
  PAW double counting   =     21096.87946096   -19449.64100719
  entropy T*S    EENTRO =         0.00960611
  eigenvalues    EBANDS =     -1966.46007743
  atomic energy  EATOM  =     24834.46488499
  Solvation  Ediel_sol  =         0.00000000
  ---------------------------------------------------
  free energy    TOTEN  =       -97.74927941 eV

  energy without entropy =      -97.75888552  energy(sigma->0) =      -97.75248145


--------------------------------------------------------------------------------------------------------




----------------------------------------- Iteration    1(   3)  ---------------------------------------


     EDDAV:  cpu time    1.4346: real time    1.4469
       DOS:  cpu time    0.0013: real time    0.0013
    --------------------------------------------
      LOOP:  cpu time    1.4364: real time    1.5023

 eigenvalue-minimisations  :  8320
 total energy-change (2. order) :-0.2513978E+03  (-0.2385164E+03)
 number of electron     291.0000000 magnetization 
 augmentation part      291.0000000 magnetization 

 Free energy of the ion-electron system (eV)
  ---------------------------------------------------
  alpha Z        PSCENC =      1516.22995370
  Ewald energy   TEWEN  =    -19518.73027992
  -Hartree energ DENC   =     -6253.50994517
  -exchange      EXHF   =         0.00000000
  -V(xc)+E(xc)   XCENC  =      -356.99187547
  PAW double counting   =     21096.87946096   -19449.64100719
  entropy T*S    EENTRO =        -0.00112126
  eigenvalues    EBANDS =     -2217.84716334
  atomic energy  EATOM  =     24834.46488499
  Solvation  Ediel_sol  =         0.00000000
  ---------------------------------------------------
  free energy    TOTEN  =      -349.14709270 eV

  energy without entropy =     -349.14597144  energy(sigma->0) =     -349.14671895


--------------------------------------------------------------------------------------------------------




----------------------------------------- Iteration    1(   4)  ---------------------------------------


     EDDAV:  cpu time    1.3484: real time    1.3573
       DOS:  cpu time    0.0014: real time    0.0014
    --------------------------------------------
      LOOP:  cpu time    1.3501: real time    1.4014

 eigenvalue-minimisations  :  8144
 total energy-change (2. order) :-0.2948995E+02  (-0.2802426E+02)
 number of electron     291.0000000 magnetization 
 augmentation part      291.0000000 magnetization 

 Free energy of the ion-electron system (eV)
  ---------------------------------------------------
  alpha Z        PSCENC =      1516.22995370
  Ewald energy   TEWEN  =    -19518.73027992
  -Hartree energ DENC   =     -6253.50994517
  -exchange      EXHF   =         0.00000000
  -V(xc)+E(xc)   XCENC  =      -356.99187547
  PAW double counting   =     21096.87946096   -19449.64100719
  entropy T*S    EENTRO =         0.00615836
  eigenvalues    EBANDS =     -2247.34439353
  atomic energy  EATOM  =     24834.46488499
  Solvation  Ediel_sol  =         0.00000000
  ---------------------------------------------------
  free energy    TOTEN  =      -378.63704326 eV

  energy without entropy =     -378.64320162  energy(sigma->0) =     -378.63909605


--------------------------------------------------------------------------------------------------------




----------------------------------------- Iteration    1(   5)  ---------------------------------------


     EDDAV:  cpu time    1.3219: real time    1.3273
       DOS:  cpu time    0.0014: real time    0.0014
    CHARGE:  cpu time    0.0315: real time    0.0316
    MIXING:  cpu time    0.0014: real time    0.0014
    --------------------------------------------
      LOOP:  cpu time    1.3566: real time    1.4049

 eigenvalue-minimisations  :  7952
 total energy-change (2. order) :-0.3108692E+01  (-0.3050763E+01)
 number of electron     290.9999997 magnetization 
 augmentation part       16.7678337 magnetization 

 Broyden mixing:
  rms(total) = 0.65272E+01    rms(broyden)= 0.65267E+01
  rms(prec ) = 0.68034E+01
  weight for this iteration     100.00

 Free energy of the ion-electron system (eV)
  ---------------------------------------------------
  alpha Z        PSCENC =      1516.22995370
  Ewald energy   TEWEN  =    -19518.73027992
  -Hartree energ DENC   =     -6253.50994517
  -exchange      EXHF   =         0.00000000
  -V(xc)+E(xc)   XCENC  =      -356.99187547
  PAW double counting   =     21096.87946096   -19449.64100719
  entropy T*S    EENTRO =         0.01083692
  eigenvalues    EBANDS =     -2250.45776389
  atomic energy  EATOM  =     24834.46488499
  Solvation  Ediel_sol  =         0.00000000
  ---------------------------------------------------
  free energy    TOTEN  =      -381.74573508 eV

  energy without entropy =     -381.75657199  energy(sigma->0) =     -381.74934738


--------------------------------------------------------------------------------------------------------




----------------------------------------- Iteration    1(   6)  ---------------------------------------


    POTLOK:  cpu time    0.0298: real time    0.0300
    SETDIJ:  cpu time    0.0037: real time    0.0037
    EDDIAG:  cpu time    0.0764: real time    0.0767
  RMM-DIIS:  cpu time    0.7238: real time    0.7290
    ORTHCH:  cpu time    0.0121: real time    0.0121
       DOS:  cpu time    0.0010: real time    0.0010
    CHARGE:  cpu time    0.0314: real time    0.0314
    MIXING:  cpu time    0.0019: real time    0.0026
    --------------------------------------------
      LOOP:  cpu time    0.8806: real time    0.9331

 eigenvalue-minimisations  :  6962
 total energy-change (2. order) : 0.1046221E+02  (-0.2361662E+01)
 number of electron     290.9999997 magnetization 
 augmentation part       17.4146913 magnetization 

 Broyden mixing:
  rms(total) = 0.31528E+01    rms(broyden)= 0.31528E+01
  rms(prec ) = 0.34328E+01
  weight for this iteration     100.00

 eigenvalues of (default mixing * dielectric matrix)
  average eigenvalue GAMMA=   1.8525
  1.8525

 Free energy of the ion-electron system (eV)
  ---------------------------------------------------
  alpha Z        PSCENC =      1516.22995370
  Ewald energy   TEWEN  =    -19518.73027992
  -Hartree energ DENC   =     -6088.19700318
  -exchange      EXHF   =         0.00000000
  -V(xc)+E(xc)   XCENC  =      -360.02573062
  PAW double counting   =     26454.07962127   -24815.91128814
  entropy T*S    EENTRO =         0.01111291
  eigenvalues    EBANDS =     -2393.20479794
  atomic energy  EATOM  =     24834.46488499
  Solvation  Ediel_sol  =         0.00000000
  ---------------------------------------------------
  free energy    TOTEN  =      -371.28352692 eV

  energy without entropy =     -371.29463983  energy(sigma->0) =     -371.28723122


--------------------------------------------------------------------------------------------------------




----------------------------------------- Iteration    1(   7)  ---------------------------------------


    POTLOK:  cpu time    0.0291: real time    0.0292
    SETDIJ:  cpu time    0.0038: real time    0.0038
    EDDIAG:  cpu time    0.0741: real time    0.0752
  RMM-DIIS:  cpu time    0.8003: real time    0.8038
    ORTHCH:  cpu time    0.0334: real time    0.0335
       DOS:  cpu time    0.0015: real time    0.0015
    CHARGE:  cpu time    0.0325: real time    0.0326
    MIXING:  cpu time    0.0013: real time    0.0013
    --------------------------------------------
      LOOP:  cpu time    0.9765: real time    1.0260

 eigenvalue-minimisations  :  7368
 total energy-change (2. order) :-0.1628271E+01  (-0.2596050E+01)
 number of electron     290.9999997 magnetization 
 augmentation part       17.9289531 magnetization 

 Broyden mixing:
  rms(total) = 0.11592E+01    rms(broyden)= 0.11589E+01
  rms(prec ) = 0.34305E+01
  weight for this iteration     100.00

 eigenvalues of (default mixing * dielectric matrix)
  average eigenvalue GAMMA=   1.1722
  1.8399  0.5045

 Free energy of the ion-electron system (eV)
  ---------------------------------------------------
  alpha Z        PSCENC =      1516.22995370
  Ewald energy   TEWEN  =    -19518.73027992
  -Hartree energ DENC   =     -6004.61919175
  -exchange      EXHF   =         0.00000000
  -V(xc)+E(xc)   XCENC  =      -358.66682640
  PAW double counting   =     31730.94113994   -30086.86526093
  entropy T*S    EENTRO =        -0.00120121
  eigenvalues    EBANDS =     -2485.66501659
  atomic energy  EATOM  =     24834.46488499
  Solvation  Ediel_sol  =         0.00000000
  ---------------------------------------------------
  free energy    TOTEN  =      -372.91179816 eV

  energy without entropy =     -372.91059695  energy(sigma->0) =     -372.91139775


--------------------------------------------------------------------------------------------------------




----------------------------------------- Iteration    1(   8)  ---------------------------------------


    POTLOK:  cpu time    0.0285: real time    0.0286
    SETDIJ:  cpu time    0.0042: real time    0.0043
    EDDIAG:  cpu time    0.1289: real time    0.1294
  RMM-DIIS:  cpu time    0.8588: real time    0.8642
    ORTHCH:  cpu time    0.0712: real time    0.0745
       DOS:  cpu time    0.0012: real time    0.0012
    CHARGE:  cpu time    0.0632: real time    0.0653
    MIXING:  cpu time    0.0012: real time    0.0012
    --------------------------------------------
      LOOP:  cpu time    1.1579: real time    1.2121

 eigenvalue-minimisations  :  7432
 total energy-change (2. order) : 0.5985566E+01  (-0.6526080E+00)
 number of electron     290.9999997 magnetization 
 augmentation part       17.6917469 magnetization 

 Broyden mixing:
  rms(total) = 0.39728E+00    rms(broyden)= 0.39669E+00
  rms(prec ) = 0.64956E+00
  weight for this iteration     100.00

 eigenvalues of (default mixing * dielectric matrix)
  average eigenvalue GAMMA=   1.1459
  1.8360  1.2186  0.3831

 Free energy of the ion-electron system (eV)
  ---------------------------------------------------
  alpha Z        PSCENC =      1516.22995370
  Ewald energy   TEWEN  =    -19518.73027992
  -Hartree energ DENC   =     -6008.98281691
  -exchange      EXHF   =         0.00000000
  -V(xc)+E(xc)   XCENC  =      -357.85206227
  PAW double counting   =     32758.46721306   -31112.11797710
  entropy T*S    EENTRO =         0.01299799
  eigenvalues    EBANDS =     -2478.41814549
  atomic energy  EATOM  =     24834.46488499
  Solvation  Ediel_sol  =         0.00000000
  ---------------------------------------------------
  free energy    TOTEN  =      -366.92623193 eV

  energy without entropy =     -366.93922992  energy(sigma->0) =     -366.93056459


--------------------------------------------------------------------------------------------------------




----------------------------------------- Iteration    1(   9)  ---------------------------------------


    POTLOK:  cpu time    0.0330: real time    0.0375
    SETDIJ:  cpu time    0.0042: real time    0.0046
    EDDIAG:  cpu time    0.0849: real time    0.0908
  RMM-DIIS:  cpu time    0.7828: real time    0.7885
    ORTHCH:  cpu time    0.0129: real time    0.0129
       DOS:  cpu time    0.0009: real time    0.0009
    CHARGE:  cpu time    0.0316: real time    0.0317
    MIXING:  cpu time    0.0017: real time    0.0017
    --------------------------------------------
      LOOP:  cpu time    0.9528: real time    1.0527

 eigenvalue-minimisations  :  7545
 total energy-change (2. order) : 0.1583935E+00  (-0.2174706E+00)
 number of electron     290.9999997 magnetization 
 augmentation part       17.5683981 magnetization 

 Broyden mixing:
  rms(total) = 0.28562E+00    rms(broyden)= 0.28552E+00
  rms(prec ) = 0.41069E+00
  weight for this iteration     100.00

 eigenvalues of (default mixing * dielectric matrix)
  average eigenvalue GAMMA=   1.1279
  1.8254  1.8254  0.4846  0.3761

 Free energy of the ion-electron system (eV)
  ---------------------------------------------------
  alpha Z        PSCENC =      1516.22995370
  Ewald energy   TEWEN  =    -19518.73027992
  -Hartree energ DENC   =     -6004.45855026
  -exchange      EXHF   =         0.00000000
  -V(xc)+E(xc)   XCENC  =      -357.58337789
  PAW double counting   =     32977.54555870   -31327.53893925
  entropy T*S    EENTRO =         0.00898214
  eigenvalues    EBANDS =     -2486.70607062
  atomic energy  EATOM  =     24834.46488499
  Solvation  Ediel_sol  =         0.00000000
  ---------------------------------------------------
  free energy    TOTEN  =      -366.76783842 eV

  energy without entropy =     -366.77682055  energy(sigma->0) =     -366.77083246


--------------------------------------------------------------------------------------------------------




----------------------------------------- Iteration    1(  10)  ---------------------------------------


    POTLOK:  cpu time    0.0314: real time    0.0319
    SETDIJ:  cpu time    0.0039: real time    0.0039
    EDDIAG:  cpu time    0.0786: real time    0.0788
  RMM-DIIS:  cpu time    0.8352: real time    0.8389
    ORTHCH:  cpu time    0.0121: real time    0.0121
       DOS:  cpu time    0.0009: real time    0.0009
    CHARGE:  cpu time    0.0294: real time    0.0295
    MIXING:  cpu time    0.0014: real time    0.0014
    --------------------------------------------
      LOOP:  cpu time    0.9936: real time    1.0445

 eigenvalue-minimisations  :  7515
 total energy-change (2. order) : 0.5941560E-01  (-0.4222014E-01)
 number of electron     290.9999997 magnetization 
 augmentation part       17.4901673 magnetization 

 Broyden mixing:
  rms(total) = 0.14987E+00    rms(broyden)= 0.14979E+00
  rms(prec ) = 0.25298E+00
  weight for this iteration     100.00

 eigenvalues of (default mixing * dielectric matrix)
  average eigenvalue GAMMA=   1.0979
  1.9675  1.9675  0.7005  0.3765  0.4777

 Free energy of the ion-electron system (eV)
  ---------------------------------------------------
  alpha Z        PSCENC =      1516.22995370
  Ewald energy   TEWEN  =    -19518.73027992
  -Hartree energ DENC   =     -6015.48140529
  -exchange      EXHF   =         0.00000000
  -V(xc)+E(xc)   XCENC  =      -356.75143592
  PAW double counting   =     33180.84400275   -31524.60949734
  entropy T*S    EENTRO =         0.01090511
  eigenvalues    EBANDS =     -2482.68555090
  atomic energy  EATOM  =     24834.46488499
  Solvation  Ediel_sol  =         0.00000000
  ---------------------------------------------------
  free energy    TOTEN  =      -366.70842282 eV

  energy without entropy =     -366.71932793  energy(sigma->0) =     -366.71205785


--------------------------------------------------------------------------------------------------------




----------------------------------------- Iteration    1(  11)  ---------------------------------------


    POTLOK:  cpu time    0.0283: real time    0.0286
    SETDIJ:  cpu time    0.0036: real time    0.0036
    EDDIAG:  cpu time    0.0790: real time    0.0795
  RMM-DIIS:  cpu time    0.7816: real time    0.7861
    ORTHCH:  cpu time    0.0121: real time    0.0122
       DOS:  cpu time    0.0012: real time    0.0012
    CHARGE:  cpu time    0.0309: real time    0.0310
    MIXING:  cpu time    0.0015: real time    0.0015
    --------------------------------------------
      LOOP:  cpu time    0.9387: real time    0.9891

 eigenvalue-minimisations  :  7482
 total energy-change (2. order) : 0.2489689E-01  (-0.1377252E-01)
 number of electron     290.9999997 magnetization 
 augmentation part       17.4502759 magnetization 

 Broyden mixing:
  rms(total) = 0.73723E-01    rms(broyden)= 0.73654E-01
  rms(prec ) = 0.14385E+00
  weight for this iteration     100.00

 eigenvalues of (default mixing * dielectric matrix)
  average eigenvalue GAMMA=   1.0712
  2.1910  1.9240  0.9895  0.3658  0.4784  0.4784

 Free energy of the ion-electron system (eV)
  ---------------------------------------------------
  alpha Z        PSCENC =      1516.22995370
  Ewald energy   TEWEN  =    -19518.73027992
  -Hartree energ DENC   =     -6020.62792872
  -exchange      EXHF   =         0.00000000
  -V(xc)+E(xc)   XCENC  =      -356.30865290
  PAW double counting   =     33342.56458128   -31682.52697766
  entropy T*S    EENTRO =         0.00945640
  eigenvalues    EBANDS =     -2481.75856311
  atomic energy  EATOM  =     24834.46488499
  Solvation  Ediel_sol  =         0.00000000
  ---------------------------------------------------
  free energy    TOTEN  =      -366.68352593 eV

  energy without entropy =     -366.69298233  energy(sigma->0) =     -366.68667806


--------------------------------------------------------------------------------------------------------




----------------------------------------- Iteration    1(  12)  ---------------------------------------


    POTLOK:  cpu time    0.0291: real time    0.0294
    SETDIJ:  cpu time    0.0037: real time    0.0038
    EDDIAG:  cpu time    0.0769: real time    0.0775
  RMM-DIIS:  cpu time    0.8767: real time    0.8803
    ORTHCH:  cpu time    0.0122: real time    0.0122
       DOS:  cpu time    0.0009: real time    0.0009
    CHARGE:  cpu time    0.0311: real time    0.0312
    MIXING:  cpu time    0.0015: real time    0.0015
    --------------------------------------------
      LOOP:  cpu time    1.0327: real time    1.0788

 eigenvalue-minimisations  :  7614
 total energy-change (2. order) : 0.5504755E-02  (-0.5078451E-02)
 number of electron     290.9999997 magnetization 
 augmentation part       17.4490028 magnetization 

 Broyden mixing:
  rms(total) = 0.39868E-01    rms(broyden)= 0.39847E-01
  rms(prec ) = 0.63841E-01
  weight for this iteration     100.00

 eigenvalues of (default mixing * dielectric matrix)
  average eigenvalue GAMMA=   1.0432
  2.2862  1.8467  1.2845  0.6346  0.5138  0.3801  0.3568

 Free energy of the ion-electron system (eV)
  ---------------------------------------------------
  alpha Z        PSCENC =      1516.22995370
  Ewald energy   TEWEN  =    -19518.73027992
  -Hartree energ DENC   =     -6023.57722237
  -exchange      EXHF   =         0.00000000
  -V(xc)+E(xc)   XCENC  =      -356.09680393
  PAW double counting   =     33452.83490531   -31790.82013921
  entropy T*S    EENTRO =         0.00925268
  eigenvalues    EBANDS =     -2480.99257244
  atomic energy  EATOM  =     24834.46488499
  Solvation  Ediel_sol  =         0.00000000
  ---------------------------------------------------
  free energy    TOTEN  =      -366.67802117 eV

  energy without entropy =     -366.68727385  energy(sigma->0) =     -366.68110540


--------------------------------------------------------------------------------------------------------




----------------------------------------- Iteration    1(  13)  ---------------------------------------


    POTLOK:  cpu time    0.0279: real time    0.0281
    SETDIJ:  cpu time    0.0035: real time    0.0035
    EDDIAG:  cpu time    0.0756: real time    0.0759
  RMM-DIIS:  cpu time    0.9010: real time    0.9090
    ORTHCH:  cpu time    0.0120: real time    0.0121
       DOS:  cpu time    0.0026: real time    0.0030
    CHARGE:  cpu time    0.0339: real time    0.0340
    MIXING:  cpu time    0.0015: real time    0.0015
    --------------------------------------------
      LOOP:  cpu time    1.0586: real time    1.1260

 eigenvalue-minimisations  :  7590
 total energy-change (2. order) : 0.1223295E-02  (-0.1591920E-02)
 number of electron     290.9999997 magnetization 
 augmentation part       17.4472337 magnetization 

 Broyden mixing:
  rms(total) = 0.23005E-01    rms(broyden)= 0.22997E-01
  rms(prec ) = 0.33546E-01
  weight for this iteration     100.00

 eigenvalues of (default mixing * dielectric matrix)
  average eigenvalue GAMMA=   1.0668
  2.3643  1.9525  1.3822  1.0652  0.5606  0.4819  0.3791  0.3483

 Free energy of the ion-electron system (eV)
  ---------------------------------------------------
  alpha Z        PSCENC =      1516.22995370
  Ewald energy   TEWEN  =    -19518.73027992
  -Hartree energ DENC   =     -6023.59670330
  -exchange      EXHF   =         0.00000000
  -V(xc)+E(xc)   XCENC  =      -356.07653101
  PAW double counting   =     33523.62606803   -31860.70666874
  entropy T*S    EENTRO =         0.00976896
  eigenvalues    EBANDS =     -2481.89729060
  atomic energy  EATOM  =     24834.46488499
  Solvation  Ediel_sol  =         0.00000000
  ---------------------------------------------------
  free energy    TOTEN  =      -366.67679788 eV

  energy without entropy =     -366.68656683  energy(sigma->0) =     -366.68005420


--------------------------------------------------------------------------------------------------------




----------------------------------------- Iteration    1(  14)  ---------------------------------------


    POTLOK:  cpu time    0.0290: real time    0.0296
    SETDIJ:  cpu time    0.0037: real time    0.0037
    EDDIAG:  cpu time    0.1638: real time    0.1645
  RMM-DIIS:  cpu time    1.2191: real time    1.2276
    ORTHCH:  cpu time    0.0120: real time    0.0120
       DOS:  cpu time    0.0145: real time    0.0146
    CHARGE:  cpu time    0.0450: real time    0.0451
    MIXING:  cpu time    0.0015: real time    0.0015
    --------------------------------------------
      LOOP:  cpu time    1.4891: real time    1.5509

 eigenvalue-minimisations  :  7745
 total energy-change (2. order) :-0.1459779E-03  (-0.6750713E-03)
 number of electron     290.9999997 magnetization 
 augmentation part       17.4476389 magnetization 

 Broyden mixing:
  rms(total) = 0.14360E-01    rms(broyden)= 0.14357E-01
  rms(prec ) = 0.22703E-01
  weight for this iteration     100.00

 eigenvalues of (default mixing * dielectric matrix)
  average eigenvalue GAMMA=   1.0724
  2.5007  2.1092  1.5874  1.1664  0.5638  0.5638  0.4308  0.3858  0.3438

 Free energy of the ion-electron system (eV)
  ---------------------------------------------------
  alpha Z        PSCENC =      1516.22995370
  Ewald energy   TEWEN  =    -19518.73027992
  -Hartree energ DENC   =     -6023.55197120
  -exchange      EXHF   =         0.00000000
  -V(xc)+E(xc)   XCENC  =      -356.07707279
  PAW double counting   =     33552.23470986   -31888.86372236
  entropy T*S    EENTRO =         0.00937675
  eigenvalues    EBANDS =     -2482.39282288
  atomic energy  EATOM  =     24834.46488499
  Solvation  Ediel_sol  =         0.00000000
  ---------------------------------------------------
  free energy    TOTEN  =      -366.67694386 eV

  energy without entropy =     -366.68632061  energy(sigma->0) =     -366.68006944


--------------------------------------------------------------------------------------------------------




----------------------------------------- Iteration    1(  15)  ---------------------------------------


    POTLOK:  cpu time    0.0288: real time    0.0289
    SETDIJ:  cpu time    0.0040: real time    0.0040
    EDDIAG:  cpu time    1.0173: real time    1.0244
  RMM-DIIS:  cpu time    0.9819: real time    0.9896
    ORTHCH:  cpu time    0.0124: real time    0.0125
       DOS:  cpu time    0.0032: real time    0.0032
    CHARGE:  cpu time    0.0403: real time    0.0404
    MIXING:  cpu time    0.0016: real time    0.0017
    --------------------------------------------
      LOOP:  cpu time    2.0900: real time    2.1486

 eigenvalue-minimisations  :  7685
 total energy-change (2. order) :-0.1139621E-03  (-0.3071657E-03)
 number of electron     290.9999997 magnetization 
 augmentation part       17.4461459 magnetization 

 Broyden mixing:
  rms(total) = 0.69020E-02    rms(broyden)= 0.68982E-02
  rms(prec ) = 0.13700E-01
  weight for this iteration     100.00

 eigenvalues of (default mixing * dielectric matrix)
  average eigenvalue GAMMA=   1.0422
  2.5891  2.1049  1.6145  1.2166  0.6877  0.6178  0.4398  0.4398  0.3692  0.3424

 Free energy of the ion-electron system (eV)
  ---------------------------------------------------
  alpha Z        PSCENC =      1516.22995370
  Ewald energy   TEWEN  =    -19518.73027992
  -Hartree energ DENC   =     -6024.09935191
  -exchange      EXHF   =         0.00000000
  -V(xc)+E(xc)   XCENC  =      -356.06487801
  PAW double counting   =     33574.20600669   -31910.43765495
  entropy T*S    EENTRO =         0.00955527
  eigenvalues    EBANDS =     -2482.25529369
  atomic energy  EATOM  =     24834.46488499
  Solvation  Ediel_sol  =         0.00000000
  ---------------------------------------------------
  free energy    TOTEN  =      -366.67705782 eV

  energy without entropy =     -366.68661309  energy(sigma->0) =     -366.68024291


--------------------------------------------------------------------------------------------------------




----------------------------------------- Iteration    1(  16)  ---------------------------------------


    POTLOK:  cpu time    0.0280: real time    0.0281
    SETDIJ:  cpu time    0.0036: real time    0.0036
    EDDIAG:  cpu time    0.1191: real time    0.1196
  RMM-DIIS:  cpu time    0.7807: real time    0.7896
    ORTHCH:  cpu time    0.0120: real time    0.0121
       DOS:  cpu time    0.0017: real time    0.0018
    CHARGE:  cpu time    0.0478: real time    0.0480
    MIXING:  cpu time    0.0017: real time    0.0017
    --------------------------------------------
      LOOP:  cpu time    0.9953: real time    1.0509

 eigenvalue-minimisations  :  6992
 total energy-change (2. order) :-0.1375599E-04  (-0.1297498E-03)
 number of electron     290.9999997 magnetization 
 augmentation part       17.4454962 magnetization 

 Broyden mixing:
  rms(total) = 0.36184E-02    rms(broyden)= 0.36159E-02
  rms(prec ) = 0.66089E-02
  weight for this iteration     100.00

 eigenvalues of (default mixing * dielectric matrix)
  average eigenvalue GAMMA=   1.0247
  2.6290  2.0836  1.6042  1.3165  0.9783  0.5984  0.4883  0.4883  0.3381  0.3733
  0.3733

 Free energy of the ion-electron system (eV)
  ---------------------------------------------------
  alpha Z        PSCENC =      1516.22995370
  Ewald energy   TEWEN  =    -19518.73027992
  -Hartree energ DENC   =     -6024.21948325
[...]
     98       5.3714      2.00000
     99       5.4255      2.00000
    100       5.4929      2.00000
    101       5.5556      2.00000
    102       5.6063      2.00000
    103       5.6879      2.00000
    104       5.7215      2.00000
    105       5.7699      2.00000
    106       5.9794      2.00000
    107       6.0180      2.00000
    108       6.0711      2.00000
    109       6.0795      2.00000
    110       6.1224      2.00000
    111       6.1490      2.00000
    112       6.1742      2.00000
    113       6.2016      2.00000
    114       6.2499      2.00000
    115       6.2941      2.00000
    116       6.3155      2.00000
    117       6.3347      2.00000
    118       6.3692      2.00000
    119       6.3969      2.00000
    120       6.4176      2.00000
    121       6.4361      2.00000
    122       6.5161      2.00000
    123       6.5313      2.00000
    124       6.5723      2.00000
    125       6.6220      2.00000
    126       6.6528      2.00000
    127       6.6991      2.00000
    128       6.7440      2.00000
    129       6.8116      2.00000
    130       6.8434      2.00000
    131       6.8792      2.00000
    132       6.9241      2.00000
    133       6.9541      2.00001
    134       7.0100      2.00010
    135       7.0448      2.00038
    136       7.0783      2.00117
    137       7.1135      2.00341
    138       7.1741      2.01560
    139       7.1962      2.02443
    140       7.2456      2.05247
    141       7.2635      2.06265
    142       7.2998      2.06992
    143       7.3225      2.05384
    144       7.3546      1.98242
    145       7.3912      1.80278
    146       7.4312      1.47392
    147       7.4554      1.22215
    148       7.4956      0.77347
    149       7.5703      0.13109
    150       7.5837      0.06481
    151       7.6139     -0.03082
    152       7.6631     -0.07070
    153       7.6849     -0.06371
    154       7.7096     -0.04963
    155       7.7347     -0.03453
    156       7.7857     -0.01268
    157       7.8186     -0.00564
    158       7.8456     -0.00266
    159       7.8726     -0.00116
    160       7.9481     -0.00008
    161       8.0104     -0.00001
    162       8.0149     -0.00000
    163       8.0666     -0.00000
    164       8.1676     -0.00000
    165       8.2105     -0.00000
    166       8.2370     -0.00000
    167       8.3005     -0.00000
    168       8.3515     -0.00000
    169       8.6499     -0.00000
    170       8.7366     -0.00000
    171       8.7748     -0.00000
    172       9.3703     -0.00000
    173       9.4354     -0.00000
    174       9.4687     -0.00000
    175       9.5095     -0.00000
    176       9.5893     -0.00000


--------------------------------------------------------------------------------------------------------


 soft charge-density along one line, spin component           1
         0         1         2         3         4         5         6         7         8         9
 total charge-density along one line
 
 pseudopotential strength for first ion, spin component:           1
 -6.396  -0.004   0.000   0.000  -0.000  -7.597  -0.005   0.001
 -0.004  -6.393  -0.000  -0.002   0.000  -0.005  -7.594  -0.000
  0.000  -0.000  -6.402  -0.002   0.000   0.001  -0.000  -7.604
  0.000  -0.002  -0.002  -6.395  -0.003   0.000  -0.003  -0.002
 -0.000   0.000   0.000  -0.003  -6.406  -0.000   0.000   0.000
 -7.597  -0.005   0.001   0.000  -0.000  -9.003  -0.006   0.001
 -0.005  -7.594  -0.000  -0.003   0.000  -0.006  -8.999  -0.000
  0.001  -0.000  -7.604  -0.002   0.000   0.001  -0.000  -9.011
  0.000  -0.003  -0.002  -7.596  -0.004   0.000  -0.004  -0.003
 -0.000   0.000   0.000  -0.004  -7.609  -0.000   0.000   0.000
  0.002  -0.000  -0.001   0.003   0.000   0.002  -0.000  -0.001
  0.003  -0.000  -0.002   0.006   0.000   0.003  -0.000  -0.002
 -0.006   0.000   0.003  -0.003   0.006  -0.008   0.001   0.004
 -0.003  -0.005  -0.000  -0.004   0.001  -0.003  -0.006  -0.000
 -0.005  -0.003   0.004   0.002  -0.005  -0.006  -0.003   0.004
  0.008  -0.001  -0.004   0.004  -0.006   0.010  -0.001  -0.004
  0.004   0.005  -0.000   0.005  -0.001   0.004   0.006  -0.000
  0.005   0.004  -0.005  -0.003   0.006   0.006   0.004  -0.006
 total augmentation occupancy for first ion, spin component:           1
  5.047  -0.231   0.012   0.061  -0.009  -2.603   0.125  -0.023  -0.036   0.000  -0.096   0.031   0.054  -0.001   0.071   0.005
 -0.231   4.953  -0.029  -0.185  -0.018   0.125  -2.547   0.014   0.103   0.013   0.026  -0.004   0.027   0.055  -0.000  -0.000
  0.012  -0.029   4.620  -0.104  -0.023  -0.023   0.013  -2.533   0.066   0.008   0.031  -0.017  -0.029  -0.002  -0.034  -0.003
  0.061  -0.185  -0.104   4.988  -0.183  -0.035   0.103   0.067  -2.577   0.113  -0.219   0.059   0.016   0.001  -0.006   0.002
 -0.009  -0.018  -0.023  -0.183   4.535   0.000   0.013   0.008   0.112  -2.486   0.029   0.000  -0.037  -0.015   0.020  -0.004
 -2.603   0.125  -0.023  -0.035   0.000   1.369  -0.071   0.020   0.022   0.002   0.056  -0.017  -0.028  -0.004  -0.036  -0.003
  0.125  -2.547   0.013   0.103   0.013  -0.071   1.337  -0.006  -0.058  -0.008  -0.014   0.003  -0.012  -0.026  -0.004  -0.000
 -0.023   0.014  -2.533   0.067   0.008   0.020  -0.006   1.402  -0.041  -0.002  -0.017   0.009   0.017   0.003   0.015   0.001
 -0.036   0.103   0.066  -2.577   0.112   0.022  -0.058  -0.041   1.358  -0.068   0.124  -0.032  -0.010  -0.005   0.004  -0.001
  0.000   0.013   0.008   0.113  -2.486   0.002  -0.008  -0.002  -0.068   1.376  -0.015   0.000   0.021   0.007  -0.010   0.002
 -0.096   0.026   0.031  -0.219   0.029   0.056  -0.014  -0.017   0.124  -0.015   2.227  -0.237   0.032   0.008   0.018   0.001
  0.031  -0.004  -0.017   0.059   0.000  -0.017   0.003   0.009  -0.032   0.000  -0.237   0.027   0.002   0.001   0.001  -0.000
  0.054   0.027  -0.029   0.016  -0.037  -0.028  -0.012   0.017  -0.010   0.021   0.032   0.002   0.295  -0.001  -0.003   0.008
 -0.001   0.055  -0.002   0.001  -0.015  -0.004  -0.026   0.003  -0.005   0.007   0.008   0.001  -0.001   0.306  -0.007  -0.000
  0.071  -0.000  -0.034  -0.006   0.020  -0.036  -0.004   0.015   0.004  -0.010   0.018   0.001  -0.003  -0.007   0.287   0.000
  0.005  -0.000  -0.003   0.002  -0.004  -0.003  -0.000   0.001  -0.001   0.002   0.001  -0.000   0.008  -0.000   0.000   0.000
  0.002   0.004  -0.000   0.003  -0.001  -0.001  -0.002   0.000  -0.002   0.000  -0.001   0.000  -0.000   0.008   0.000   0.000
  0.005   0.002  -0.003  -0.002   0.003  -0.003  -0.001   0.001   0.001  -0.001   0.002  -0.000   0.000   0.000   0.007  -0.000


------------------------ aborting loop because EDIFF is reached ----------------------------------------


    CHARGE:  cpu time    0.0283: real time    0.0284
    FORLOC:  cpu time    0.0133: real time    0.0133
    FORNL :  cpu time    0.3008: real time    0.3055
    STRESS:  cpu time    0.9490: real time    0.9622
    FORCOR:  cpu time    0.0429: real time    0.0432
    FORHAR:  cpu time    0.0180: real time    0.0182
    MIXING:  cpu time    0.0012: real time    0.0012
    OFIELD:  cpu time    0.0000: real time    0.0000

  FORCE on cell =-STRESS in cart. coord.  units (eV):
  Direction    XX          YY          ZZ          XY          YZ          ZX
  --------------------------------------------------------------------------------------
  Alpha Z  1515.27410  1515.27410  1515.27410
  Ewald   -6170.11792 -6187.61217 -7157.31852  -103.54270   -16.32309  -161.58512
  Hartree  2321.13228  2302.89278  1401.19233   -95.98063   -36.99030  -138.70026
  E(xc)   -1271.16056 -1271.65750 -1271.83959     0.08765     0.15463     0.17264
  Local   -1174.89835 -1137.34926   731.96984   198.92616    55.07860   301.11600
  n-local  -288.75953  -294.76559  -294.59368    -1.58977    -0.51709    -0.20147
  augment   210.46196   211.09224   211.11711     0.19752    -0.07446    -0.01630
  Kinetic  4857.96792  4862.07776  4864.09744     1.92835    -1.30810    -0.90911
  Fock        0.00000     0.00000     0.00000     0.00000     0.00000     0.00000
  -------------------------------------------------------------------------------------
  Total      -0.10009    -0.04764    -0.10097     0.02659     0.02019    -0.12362
  in kB      -0.22173    -0.10555    -0.22368     0.05890     0.04473    -0.27387
  external pressure =       -0.18 kB  Pullay stress =        0.00 kB


 VOLUME and BASIS-vectors are now :
 -----------------------------------------------------------------------------
  energy-cutoff  :      300.00
  volume of cell :      723.22
      direct lattice vectors                 reciprocal lattice vectors
     6.897178392 -0.007375209  0.003078075     0.144987013  0.000148503 -0.000064607
    -0.010453359 10.194590432 -0.025873004     0.000104779  0.098091978  0.000249177
     0.004610077 -0.026132894 10.285646436    -0.000043125  0.000246701  0.097223510

  length of vectors
     6.897183022 10.194628623 10.285680667     0.144987104  0.098092351  0.097223832


 FORCES acting on ions
    electron-ion (+dipol)            ewald-force                    non-local-force                 convergence-correction
 -----------------------------------------------------------------------------------------------
   0.649E+01 0.636E+02 -.157E+02   -.599E+01 -.629E+02 0.158E+02   -.501E+00 -.686E+00 -.247E-01   -.126E-02 -.250E-02 -.823E-02
   0.989E+00 -.458E+02 0.118E+03   -.156E+01 0.457E+02 -.117E+03   0.565E+00 0.149E+00 -.584E+00   0.847E-03 -.665E-02 0.971E-02
   -.257E+02 0.240E+02 -.456E+02   0.249E+02 -.232E+02 0.455E+02   0.777E+00 -.806E+00 0.592E-01   -.331E-03 -.966E-02 -.247E-02
   0.766E+01 -.355E+02 0.103E+02   -.764E+01 0.353E+02 -.999E+01   -.183E-01 0.217E+00 -.269E+00   0.105E-03 -.901E-02 0.813E-02
   0.134E+02 0.184E+02 0.833E+02   -.146E+02 -.181E+02 -.829E+02   0.119E+01 -.375E+00 -.404E+00   0.847E-03 -.358E-02 0.887E-02
   0.209E+01 -.368E+02 -.900E+02   -.151E+01 0.365E+02 0.895E+02   -.575E+00 0.242E+00 0.488E+00   -.103E-02 -.627E-02 -.785E-02
   -.152E+02 0.195E+02 0.993E+02   0.165E+02 -.193E+02 -.991E+02   -.130E+01 -.196E+00 -.168E+00   -.101E-02 -.324E-02 0.846E-02
   0.228E+02 0.201E+02 0.220E+02   -.229E+02 -.206E+02 -.211E+02   0.130E+00 0.563E+00 -.944E+00   0.108E-02 0.681E-02 0.651E-02
   0.299E+02 0.129E+02 -.146E+02   -.290E+02 -.121E+02 0.147E+02   -.891E+00 -.840E+00 -.118E+00   0.119E-03 -.923E-02 -.167E-02
   0.602E+01 -.681E+02 0.449E+02   -.598E+01 0.680E+02 -.449E+02   -.464E-01 0.109E+00 0.191E-01   -.552E-03 -.916E-02 0.179E-02
   0.665E+01 0.613E+01 -.313E+02   -.659E+01 -.662E+01 0.310E+02   -.684E-01 0.476E+00 0.328E+00   0.162E-02 0.106E-01 -.681E-02
   0.160E+02 -.143E+03 -.194E+03   -.167E+02 0.143E+03 0.193E+03   0.743E+00 -.117E-01 0.654E+00   0.434E-02 -.220E-01 -.194E-01
   0.536E+02 0.776E+02 0.121E+03   -.536E+02 -.781E+02 -.122E+03   0.622E-02 0.521E+00 0.537E+00   0.661E-03 0.121E-01 0.530E-02
   -.539E+02 0.113E+03 0.946E+02   0.538E+02 -.114E+03 -.948E+02   0.978E-01 0.765E+00 0.273E+00   -.151E-02 0.177E-01 0.493E-02
   0.135E+03 -.243E+02 -.108E+03   -.135E+03 0.247E+02 0.107E+03   0.253E+00 -.481E+00 0.108E+01   0.815E-03 0.208E-01 -.215E-01
   0.127E+03 -.146E+02 -.127E+03   -.127E+03 0.137E+02 0.127E+03   0.614E+00 0.921E+00 0.870E-01   0.443E-02 -.294E-01 -.315E-01
   -.116E+03 0.581E+02 -.119E+03   0.117E+03 -.584E+02 0.118E+03   -.426E+00 0.281E+00 0.516E+00   -.244E-02 0.163E-01 -.200E-01
   0.407E+02 0.790E+02 0.221E+02   -.398E+02 -.780E+02 -.214E+02   -.885E+00 -.983E+00 -.773E+00   0.255E-02 0.543E-02 0.535E-02
   -.407E+02 0.110E+03 0.947E+02   0.398E+02 -.109E+03 -.939E+02   0.953E+00 -.115E+01 -.800E+00   0.478E-03 0.594E-02 0.190E-03
   0.607E+02 0.861E+02 0.306E+03   -.603E+02 -.867E+02 -.305E+03   -.349E+00 0.508E+00 -.326E+00   -.523E-02 0.240E-01 0.205E-01
   -.265E+02 0.634E+02 -.181E+03   0.259E+02 -.636E+02 0.180E+03   0.617E+00 0.279E+00 0.246E+00   0.227E-02 -.238E-02 -.385E-02
   -.143E+02 -.122E+03 0.226E+03   0.150E+02 0.122E+03 -.225E+03   -.704E+00 -.194E+00 -.606E+00   -.318E-02 -.153E-01 0.240E-01
   -.196E+02 -.161E+03 0.336E+02   0.196E+02 0.161E+03 -.332E+02   -.106E-01 0.491E+00 -.342E+00   0.130E-02 -.232E-01 0.420E-02
   -.366E+02 -.895E+02 -.233E+03   0.368E+02 0.888E+02 0.233E+03   -.205E+00 0.692E+00 0.431E-01   0.117E-02 0.245E-01 -.286E-02
   -.163E+02 0.150E+02 0.140E+03   0.170E+02 -.139E+02 -.140E+03   -.642E+00 -.117E+01 0.296E+00   0.248E-03 0.289E-02 0.133E-01
   -.125E+03 -.333E+02 -.231E+03   0.125E+03 0.340E+02 0.231E+03   -.143E-01 -.779E+00 0.995E-01   -.635E-03 0.310E-02 -.236E-01
   -.205E+02 -.460E+02 0.927E+02   0.204E+02 0.458E+02 -.930E+02   0.608E-01 0.229E+00 0.249E+00   -.860E-03 -.209E-01 0.217E-01
   -.133E+02 -.432E-01 0.337E+02   0.133E+02 -.439E+00 -.329E+02   -.841E-02 0.473E+00 -.856E+00   -.143E-03 0.468E-02 0.596E-02
   -.873E+01 -.184E+02 -.564E+02   0.872E+01 0.180E+02 0.564E+02   0.192E-01 0.404E+00 0.682E-01   -.125E-02 0.797E-02 -.532E-02
   0.179E+02 0.339E+01 -.643E+02   -.173E+02 -.347E+01 0.642E+02   -.616E+00 0.809E-01 0.172E+00   -.798E-03 -.247E-03 -.649E-03
   -.294E+01 0.147E+02 0.300E+02   0.255E+01 -.141E+02 -.303E+02   0.386E+00 -.597E+00 0.243E+00   -.608E-04 0.140E-03 0.518E-02
   -.226E+02 0.276E+02 0.988E+02   0.224E+02 -.278E+02 -.982E+02   0.187E+00 0.231E+00 -.590E+00   0.130E-02 0.765E-02 0.676E-02
   0.442E+02 0.330E+01 -.646E+02   -.442E+02 -.304E+01 0.641E+02   0.719E-02 -.260E+00 0.489E+00   0.163E-03 0.179E-02 -.674E-02
   -.438E+01 0.405E+02 0.552E+01   0.376E+01 -.399E+02 -.581E+01   0.621E+00 -.554E+00 0.291E+00   0.972E-03 -.223E-02 -.582E-02
   0.424E+01 -.126E+02 -.540E+02   -.429E+01 0.117E+02 0.536E+02   0.493E-01 0.840E+00 0.384E+00   -.171E-03 0.717E-02 -.670E-03
   -.312E+02 -.507E+01 -.466E+02   0.317E+02 0.478E+01 0.465E+02   -.513E+00 0.306E+00 0.113E+00   -.162E-03 -.684E-02 -.809E-02
 -----------------------------------------------------------------------------------------------
   0.487E+00 0.305E+00 0.843E-01   0.355E-14 -.179E-12 0.995E-13   -.488E+00 -.306E+00 -.657E-01   0.471E-02 -.207E-02 -.161E-01
 
 
 POSITION                                       TOTAL-FORCE (eV/Angst)
 -----------------------------------------------------------------------------------
      5.27628      8.56498      5.12533        -0.000212      0.004287      0.001049
      1.64184      5.03397      1.78216        -0.004243     -0.000061     -0.000189
      1.54697      5.36324      8.50058        -0.000728      0.000528     -0.001424
      6.88495      6.80128      0.08168         0.005296      0.000836      0.001508
      1.54872      8.47884      1.82879        -0.001864     -0.005271      0.002308
      5.23386      5.00809      5.06035         0.003022      0.003241      0.002249
      5.32716      8.44850      1.77703        -0.000222      0.003923     -0.003144
      0.00631     10.04016      0.11705         0.006683      0.000061     -0.003963
      5.31254      5.26715      8.54490        -0.000578     -0.003930     -0.001780
      6.87295      6.75839      3.42011        -0.004983      0.000764      0.003268
      1.76180      1.61218      5.03649        -0.000893     -0.006464     -0.000180
      1.64289      5.09844      5.07830        -0.000534      0.004150     -0.003851
      3.45482     10.07356      3.32716         0.005105      0.003993      0.001220
      6.87026     10.12997      3.37582        -0.002857     -0.005234     -0.002960
      0.00205      0.17910      6.76314         0.000432     -0.000750     -0.001084
      6.81779      6.69888      6.75198        -0.005934      0.003389     -0.001322
      3.50171     10.05818      6.64022         0.000410      0.005344     -0.002460
      0.09295      3.47569      3.56120         0.001405      0.001796      0.002855
      3.33007      3.50726      3.56605        -0.001996     -0.002650      0.002938
      5.19708      1.71489      1.75614        -0.003144     -0.002137     -0.002102
      1.66513      8.46758      8.48447        -0.003109     -0.001805     -0.000807
      5.20279      4.97250      1.77088        -0.000097     -0.008485     -0.002934
      3.44316      6.76941      3.46457        -0.000325      0.001738     -0.004511
      1.85650      1.42315      8.52724         0.007365      0.003075     -0.001864
      0.10882      3.45604     10.10157        -0.002107     -0.000536      0.008160
      3.41928      3.49611      6.90022         0.001450     -0.004199      0.001326
      3.42261      6.77225      0.01622        -0.000278      0.002761      0.001743
      3.43175     10.00427      0.26529        -0.005331     -0.003886     -0.003022
      5.12249      1.67471      5.04174         0.001950     -0.000493      0.002497
      5.25191      8.50554      8.49355         0.001168      0.004681      0.004886
      3.34573      3.53216     10.10626         0.002823     -0.001965     -0.001311
      1.69498      1.74757      1.81956        -0.001149      0.004688      0.007412
      0.04014      3.35347      6.83050        -0.000225     -0.001139     -0.004156
      1.61624      8.58018      5.11436        -0.003428     -0.002710     -0.001996
      5.11942      1.49190      8.59215        -0.000893     -0.001170     -0.001925
      3.50597      6.75889      6.76927         0.008022      0.003631      0.003565
 -----------------------------------------------------------------------------------
    total drift:                                0.003450     -0.003113      0.002429


--------------------------------------------------------------------------------------------------------



  FREE ENERGIE OF THE ION-ELECTRON SYSTEM (eV)
  ---------------------------------------------------
  free  energy   TOTEN  =      -366.68624745 eV

  energy  without entropy=     -366.69749086  energy(sigma->0) =     -366.68999525
 
 d Force = 0.3294852E-04[ 0.287E-04, 0.372E-04]  d Energy = 0.3769003E-04-0.474E-05
 d Force = 0.8013909E-01[ 0.801E-01, 0.802E-01]  d Ewald  = 0.1227301E+00-0.426E-01


--------------------------------------------------------------------------------------------------------


    POTLOK:  cpu time    0.0485: real time    0.0487


--------------------------------------------------------------------------------------------------------


 Conjugate gradient step on ions:
 trial-energy change:   -0.000038  1 .order   -0.000042   -0.000045   -0.000039
  (g-gl).g = 0.376E-04      g.g   = 0.351E-04  gl.gl    = 0.128E-03
 g(Force)  = 0.236E-04   g(Stress)= 0.115E-04 ortho     = 0.302E-05
 gamma     =   0.29486
 trial     =   1.25300
 opt step  =   5.01201  (harmonic =   9.46388) maximal distance =0.00205969
 next E    =  -366.686380   (d E  =  -0.00017)


--------------------------------------------------------------------------------------------------------


  
 reached required accuracy - stopping structural energy minimisation
     LOOP+:  cpu time    3.9388: real time    4.5710
    4ORBIT:  cpu time    0.0000: real time    0.0000

 total amount of memory used by VASP on root node    67201. kBytes
========================================================================

   base      :      30000. kBytes
   nonlr-proj:      10532. kBytes
   fftplans  :       2814. kBytes
   grid      :       5360. kBytes
   one-center:        124. kBytes
   wavefun   :      18371. kBytes
 
  
  
 General timing and accounting informations for this job:
 ========================================================
  
                  Total CPU time used (sec):      155.713
                            User time (sec):      154.887
                          System time (sec):        0.826
                         Elapsed time (sec):      183.530
  
                   Maximum memory used (kb):      264132.
                   Average memory used (kb):           0.
  
                          Minor page faults:       113426
                          Major page faults:           42
                 Voluntary context switches:         7081
