       N       E                     dE             d eps       ncg     rms          rms(c)
DAV:   1     0.157293083084E+04    0.15729E+04   -0.99503E+04  4992   0.103E+03
DAV:   2    -0.122054906875E+03   -0.16950E+04   -0.16354E+04  5180   0.362E+02
DAV:   3    -0.350167637935E+03   -0.22811E+03   -0.21617E+03  7816   0.974E+01
DAV:   4    -0.377501901114E+03   -0.27334E+02   -0.25925E+02  7792   0.297E+01
DAV:   5    -0.380356708008E+03   -0.28548E+01   -0.27679E+01  7448   0.986E+00    0.664E+01
RMM:   6    -0.369963246566E+03    0.10393E+02   -0.22669E+01  6466   0.992E+00    0.320E+01
RMM:   7    -0.368440798258E+03    0.15224E+01   -0.22935E+01  6496   0.821E+00    0.756E+00
RMM:   8    -0.365653788290E+03    0.27870E+01   -0.43477E+00  7233   0.356E+00    0.367E+00
RMM:   9    -0.365593737971E+03    0.60050E-01   -0.15631E+00  7171   0.155E+00    0.264E+00
RMM:  10    -0.365541443885E+03    0.52294E-01   -0.37197E-01  7130   0.116E+00    0.122E+00
RMM:  11    -0.365516518154E+03    0.24926E-01   -0.11943E-01  7114   0.533E-01    0.576E-01
RMM:  12    -0.365517955697E+03   -0.14375E-02   -0.49337E-02  7253   0.294E-01    0.375E-01
RMM:  13    -0.365517210168E+03    0.74553E-03   -0.17444E-02  7243   0.154E-01    0.237E-01
RMM:  14    -0.365517466646E+03   -0.25648E-03   -0.87898E-03  7226   0.103E-01    0.124E-01
RMM:  15    -0.365517695893E+03   -0.22925E-03   -0.43577E-03  7193   0.688E-02    0.489E-02
RMM:  16    -0.365517796183E+03   -0.10029E-03   -0.18442E-03  6328   0.386E-02    0.274E-02
RMM:  17    -0.365517848598E+03   -0.52415E-04   -0.85219E-04  5657   0.259E-02    0.150E-02
RMM:  18    -0.365517883455E+03   -0.34858E-04   -0.43931E-04  5292   0.189E-02    0.940E-03
RMM:  19    -0.365517897387E+03   -0.13932E-04   -0.18850E-04  4174   0.138E-02    0.539E-03
RMM:  20    -0.365517902992E+03   -0.56051E-05   -0.92535E-05  3968   0.112E-02
   1 F= -.36551790E+03 E0= -.36552762E+03  d E =-.365518E+03
       N       E                     dE             d eps       ncg     rms          rms(c)
DAV:   1    -0.365519542101E+03   -0.16447E-02   -0.84717E-02  5220   0.821E-01    0.162E-01
RMM:   2    -0.365519608500E+03   -0.66399E-04   -0.39438E-03  6902   0.166E-01    0.668E-02
RMM:   3    -0.365519501182E+03    0.10732E-03   -0.62177E-04  6959   0.537E-02    0.467E-02
RMM:   4    -0.365519457180E+03    0.44002E-04   -0.18534E-04  6946   0.254E-02    0.260E-02
RMM:   5    -0.365519446030E+03    0.11149E-04   -0.62264E-05  4839   0.151E-02    0.178E-02
RMM:   6    -0.365519442765E+03    0.32656E-05   -0.20305E-05  2956   0.101E-02
   2 F= -.36551944E+03 E0= -.36552916E+03  d E =-.153977E-02
       N       E                     dE             d eps       ncg     rms          rms(c)
DAV:   1    -0.365523441942E+03   -0.39959E-02   -0.76220E-01  4912   0.246E+00    0.483E-01
RMM:   2    -0.365523786424E+03   -0.34448E-03   -0.33541E-02  6889   0.489E-01    0.199E-01
RMM:   3    -0.365522819937E+03    0.96649E-03   -0.53114E-03  7080   0.154E-01    0.138E-01
RMM:   4    -0.365522449808E+03    0.37013E-03   -0.15788E-03  7296   0.741E-02    0.777E-02
RMM:   5    -0.365522367348E+03    0.82460E-04   -0.55266E-04  7329   0.424E-02    0.541E-02
RMM:   6    -0.365522365544E+03    0.18034E-05   -0.20640E-04  6670   0.239E-02    0.359E-02
RMM:   7    -0.365522359615E+03    0.59293E-05   -0.82502E-05  5203   0.169E-02
   3 F= -.36552236E+03 E0= -.36553203E+03  d E =-.445662E-02
       N       E                     dE             d eps       ncg     rms          rms(c)
DAV:   1    -0.365525286497E+03   -0.29210E-02   -0.30474E+00  4864   0.491E+00    0.959E-01
RMM:   2    -0.365526468237E+03   -0.11817E-02   -0.13313E-01  6889   0.971E-01    0.396E-01
RMM:   3    -0.365522590114E+03    0.38781E-02   -0.21232E-02  7105   0.305E-01    0.274E-01
RMM:   4    -0.365521160017E+03    0.14301E-02   -0.62779E-03  7311   0.149E-01    0.154E-01
RMM:   5    -0.365520849709E+03    0.31031E-03   -0.21986E-03  7323   0.843E-02    0.107E-01
RMM:   6    -0.365520866787E+03   -0.17078E-04   -0.83213E-04  7664   0.477E-02    0.717E-02
RMM:   7    -0.365520865552E+03    0.12356E-05   -0.35134E-04  6700   0.321E-02    0.415E-02
RMM:   8    -0.365520867695E+03   -0.21431E-05   -0.19177E-04  6068   0.227E-02    0.249E-02
RMM:   9    -0.365520870689E+03   -0.29939E-05   -0.88059E-05  4793   0.177E-02
   4 F= -.36552087E+03 E0= -.36553045E+03  d E =-.296770E-02
       N       E                     dE             d eps       ncg     rms          rms(c)
DAV:   1    -0.365524827639E+03   -0.39599E-02   -0.11984E+00  4840   0.306E+00    0.613E-01
RMM:   2    -0.365525138758E+03   -0.31112E-03   -0.53009E-02  6861   0.615E-01    0.250E-01
RMM:   3    -0.365523592895E+03    0.15459E-02   -0.83716E-03  7089   0.192E-01    0.176E-01
RMM:   4    -0.365522987009E+03    0.60589E-03   -0.24578E-03  7326   0.935E-02    0.970E-02
RMM:   5    -0.365522867405E+03    0.11960E-03   -0.80831E-04  7285   0.536E-02    0.672E-02
RMM:   6    -0.365522884679E+03   -0.17274E-04   -0.30419E-04  6962   0.296E-02    0.437E-02
RMM:   7    -0.365522897194E+03   -0.12515E-04   -0.12005E-04  5927   0.204E-02    0.247E-02
RMM:   8    -0.365522907368E+03   -0.10174E-04   -0.62363E-05  4289   0.149E-02    0.139E-02
RMM:   9    -0.365522915900E+03   -0.85319E-05   -0.31087E-05  3647   0.120E-02
   5 F= -.36552292E+03 E0= -.36553256E+03  d E =-.501291E-02
       N       E                     dE             d eps       ncg     rms          rms(c)
DAV:   1    -0.365524475932E+03   -0.15686E-02   -0.10392E-01  4960   0.954E-01    0.236E-01
RMM:   2    -0.365524390119E+03    0.85813E-04   -0.53400E-03  6520   0.196E-01    0.935E-02
RMM:   3    -0.365524154609E+03    0.23551E-03   -0.10680E-03  7061   0.668E-02    0.646E-02
RMM:   4    -0.365524057551E+03    0.97058E-04   -0.30193E-04  6996   0.360E-02    0.320E-02
RMM:   5    -0.365524051825E+03    0.57261E-05   -0.89217E-05  5663   0.206E-02
   6 F= -.36552405E+03 E0= -.36553363E+03  d E =-.113593E-02
       N       E                     dE             d eps       ncg     rms          rms(c)
DAV:   1    -0.365527911441E+03   -0.38539E-02   -0.68175E-01  4904   0.244E+00    0.607E-01
RMM:   2    -0.365527359538E+03    0.55190E-03   -0.35852E-02  6791   0.504E-01    0.241E-01
RMM:   3    -0.365525831702E+03    0.15278E-02   -0.74173E-03  7163   0.170E-01    0.172E-01
RMM:   4    -0.365525166519E+03    0.66518E-03   -0.21484E-03  7204   0.948E-02    0.879E-02
RMM:   5    -0.365525118004E+03    0.48515E-04   -0.71343E-04  7362   0.517E-02    0.683E-02
RMM:   6    -0.365525145843E+03   -0.27839E-04   -0.27666E-04  6866   0.283E-02    0.438E-02
RMM:   7    -0.365525172066E+03   -0.26223E-04   -0.11596E-04  5853   0.206E-02    0.222E-02
RMM:   8    -0.365525189328E+03   -0.17262E-04   -0.71377E-05  4242   0.155E-02    0.154E-02
RMM:   9    -0.365525200532E+03   -0.11204E-04   -0.38971E-05  3885   0.130E-02    0.957E-03
RMM:  10    -0.365525205054E+03   -0.45220E-05   -0.85570E-06  2864   0.106E-02
   7 F= -.36552521E+03 E0= -.36553462E+03  d E =-.228915E-02
       N       E                     dE             d eps       ncg     rms          rms(c)
DAV:   1    -0.365525235112E+03   -0.34580E-04   -0.31187E-03  5080   0.164E-01    0.438E-02
RMM:   2    -0.365525235751E+03   -0.63959E-06   -0.19358E-04  6925   0.368E-02    0.185E-02
RMM:   3    -0.365525227811E+03    0.79407E-05   -0.37750E-05  3831   0.125E-02
   8 F= -.36552523E+03 E0= -.36553465E+03  d E =-.231191E-02
       N       E                     dE             d eps       ncg     rms          rms(c)
DAV:   1    -0.365525374205E+03   -0.13845E-03   -0.51909E-02  4928   0.671E-01    0.170E-01
RMM:   2    -0.365525324931E+03    0.49274E-04   -0.28432E-03  6886   0.140E-01    0.686E-02
RMM:   3    -0.365525200531E+03    0.12440E-03   -0.59421E-04  6992   0.465E-02    0.496E-02
RMM:   4    -0.365525141679E+03    0.58851E-04   -0.16638E-04  6750   0.268E-02    0.259E-02
RMM:   5    -0.365525130934E+03    0.10746E-04   -0.49077E-05  3843   0.163E-02    0.196E-02
RMM:   6    -0.365525126961E+03    0.39732E-05   -0.17656E-05  2659   0.107E-02
   9 F= -.36552513E+03 E0= -.36553460E+03  d E =-.221106E-02
       N       E                     dE             d eps       ncg     rms          rms(c)
DAV:   1    -0.365525365483E+03   -0.23455E-03   -0.35243E-02  4928   0.555E-01    0.142E-01
RMM:   2    -0.365525329987E+03    0.35496E-04   -0.18957E-03  6745   0.116E-01    0.576E-02
RMM:   3    -0.365525251576E+03    0.78411E-04   -0.40291E-04  6863   0.396E-02    0.409E-02
RMM:   4    -0.365525211589E+03    0.39987E-04   -0.10397E-04  6093   0.220E-02    0.199E-02
RMM:   5    -0.365525206784E+03    0.48050E-05   -0.22361E-05  2651   0.141E-02
  10 F= -.36552521E+03 E0= -.36553464E+03  d E =-.229088E-02
       N       E                     dE             d eps       ncg     rms          rms(c)
DAV:   1    -0.365525211641E+03   -0.51972E-07   -0.38524E-04  4832   0.608E-02    0.137E-02
RMM:   2    -0.365525212526E+03   -0.88497E-06   -0.22249E-05  2686   0.132E-02
  11 F= -.36552521E+03 E0= -.36553464E+03  d E =-.229663E-02
       N       E                     dE             d eps       ncg     rms          rms(c)
DAV:   1    -0.365525452508E+03   -0.24087E-03   -0.12811E-02  4704   0.328E-01    0.295E-02
RMM:   2    -0.365525486803E+03   -0.34294E-04   -0.48418E-04  6347   0.633E-02    0.139E-02
RMM:   3    -0.365525484146E+03    0.26563E-05   -0.45274E-05  3639   0.175E-02
  12 F= -.36552548E+03 E0= -.36553491E+03  d E =-.271621E-03
       N       E                     dE             d eps       ncg     rms          rms(c)
DAV:   1    -0.365525886078E+03   -0.39928E-03   -0.11510E-01  4624   0.981E-01    0.900E-02
RMM:   2    -0.365526179089E+03   -0.29301E-03   -0.43425E-03  6903   0.189E-01    0.458E-02
RMM:   3    -0.365526165032E+03    0.14057E-04   -0.52389E-04  6711   0.476E-02    0.313E-02
RMM:   4    -0.365526162352E+03    0.26797E-05   -0.15260E-04  6161   0.200E-02    0.183E-02
RMM:   5    -0.365526164150E+03   -0.17979E-05   -0.43291E-05  3543   0.120E-02
  13 F= -.36552616E+03 E0= -.36553556E+03  d E =-.951625E-03
       N       E                     dE             d eps       ncg     rms          rms(c)
DAV:   1    -0.365525815467E+03    0.34689E-03   -0.46006E-01  4592   0.197E+00    0.178E-01
RMM:   2    -0.365526997856E+03   -0.11824E-02   -0.17124E-02  6896   0.379E-01    0.881E-02
RMM:   3    -0.365526945174E+03    0.52682E-04   -0.20106E-03  7063   0.943E-02    0.600E-02
RMM:   4    -0.365526926307E+03    0.18868E-04   -0.52653E-04  7556   0.363E-02    0.360E-02
RMM:   5    -0.365526929397E+03   -0.30903E-05   -0.17559E-04  6041   0.229E-02    0.192E-02
RMM:   6    -0.365526931274E+03   -0.18766E-05   -0.78256E-05  4317   0.148E-02
  14 F= -.36552693E+03 E0= -.36553627E+03  d E =-.171875E-02
       N       E                     dE             d eps       ncg     rms          rms(c)
DAV:   1    -0.365526779917E+03    0.14948E-03   -0.92869E-02  4624   0.884E-01    0.798E-02
RMM:   2    -0.365527028270E+03   -0.24835E-03   -0.35507E-03  6900   0.171E-01    0.404E-02
RMM:   3    -0.365527019758E+03    0.85119E-05   -0.42471E-04  6501   0.435E-02    0.282E-02
RMM:   4    -0.365527022457E+03   -0.26984E-05   -0.15239E-04  5329   0.188E-02    0.169E-02
RMM:   5    -0.365527024936E+03   -0.24789E-05   -0.46236E-05  3595   0.116E-02
  15 F= -.36552702E+03 E0= -.36553634E+03  d E =-.181241E-02
       N       E                     dE             d eps       ncg     rms          rms(c)
DAV:   1    -0.365527899485E+03   -0.87703E-03   -0.91297E-02  4904   0.958E-01    0.255E-01
RMM:   2    -0.365527834439E+03    0.65047E-04   -0.67789E-03  6820   0.218E-01    0.988E-02
RMM:   3    -0.365527551358E+03    0.28308E-03   -0.12479E-03  7114   0.704E-02    0.705E-02
RMM:   4    -0.365527427953E+03    0.12341E-03   -0.36064E-04  7080   0.377E-02    0.365E-02
RMM:   5    -0.365527407979E+03    0.19974E-04   -0.11050E-04  6204   0.220E-02    0.262E-02
RMM:   6    -0.365527403405E+03    0.45741E-05   -0.38889E-05  3557   0.123E-02
  16 F= -.36552740E+03 E0= -.36553671E+03  d E =-.378469E-03
       N       E                     dE             d eps       ncg     rms          rms(c)
DAV:   1    -0.365527812222E+03   -0.40424E-03   -0.65807E-02  4892   0.816E-01    0.210E-01
RMM:   2    -0.365527763717E+03    0.48505E-04   -0.47621E-03  6674   0.185E-01    0.809E-02
RMM:   3    -0.365527556294E+03    0.20742E-03   -0.83770E-04  7035   0.598E-02    0.571E-02
RMM:   4    -0.365527475409E+03    0.80885E-04   -0.25032E-04  6914   0.315E-02    0.315E-02
RMM:   5    -0.365527461934E+03    0.13475E-04   -0.76060E-05  5323   0.187E-02    0.234E-02
RMM:   6    -0.365527458520E+03    0.34139E-05   -0.27663E-05  3201   0.117E-02
  17 F= -.36552746E+03 E0= -.36553676E+03  d E =-.433584E-03
       N       E                     dE             d eps       ncg     rms          rms(c)
DAV:   1    -0.365527620755E+03   -0.15882E-03   -0.68355E-02  4616   0.734E-01    0.578E-02
RMM:   2    -0.365527780001E+03   -0.15925E-03   -0.20908E-03  6896   0.134E-01    0.332E-02
RMM:   3    -0.365527771108E+03    0.88929E-05   -0.27138E-04  6187   0.369E-02    0.242E-02
RMM:   4    -0.365527769405E+03    0.17032E-05   -0.72678E-05  4607   0.149E-02
  18 F= -.36552777E+03 E0= -.36553704E+03  d E =-.310885E-03
       N       E                     dE             d eps       ncg     rms          rms(c)
DAV:   1    -0.365527026356E+03    0.74475E-03   -0.61429E-01  4592   0.220E+00    0.166E-01
RMM:   2    -0.365528455934E+03   -0.14296E-02   -0.18364E-02  6855   0.398E-01    0.926E-02
RMM:   3    -0.365528389094E+03    0.66840E-04   -0.23072E-03  7041   0.106E-01    0.667E-02
RMM:   4    -0.365528378651E+03    0.10443E-04   -0.55634E-04  7450   0.357E-02    0.462E-02
RMM:   5    -0.365528375591E+03    0.30591E-05   -0.21649E-04  6676   0.244E-02    0.253E-02
RMM:   6    -0.365528371424E+03    0.41672E-05   -0.88800E-05  5773   0.172E-02
  19 F= -.36552837E+03 E0= -.36553754E+03  d E =-.912904E-03
       N       E                     dE             d eps       ncg     rms          rms(c)
DAV:   1    -0.365522683707E+03    0.56919E-02   -0.24589E+00  4592   0.441E+00    0.331E-01
RMM:   2    -0.365528367165E+03   -0.56835E-02   -0.73234E-02  6780   0.797E-01    0.179E-01
RMM:   3    -0.365528032944E+03    0.33422E-03   -0.87907E-03  7033   0.214E-01    0.127E-01
RMM:   4    -0.365528012084E+03    0.20860E-04   -0.21533E-03  8013   0.705E-02    0.865E-02
RMM:   5    -0.365528007441E+03    0.46437E-05   -0.80628E-04  7307   0.456E-02    0.499E-02
RMM:   6    -0.365527989070E+03    0.18371E-04   -0.33957E-04  7203   0.325E-02    0.218E-02
RMM:   7    -0.365527992862E+03   -0.37924E-05   -0.96888E-05  4808   0.164E-02
  20 F= -.36552799E+03 E0= -.36553695E+03  d E =-.534342E-03
       N       E                     dE             d eps       ncg     rms          rms(c)
DAV:   1    -0.365525822499E+03    0.21666E-02   -0.12860E+00  4592   0.319E+00    0.243E-01
RMM:   2    -0.365528798711E+03   -0.29762E-02   -0.37995E-02  6615   0.574E-01    0.127E-01
RMM:   3    -0.365528553471E+03    0.24524E-03   -0.41964E-03  7042   0.157E-01    0.943E-02
RMM:   4    -0.365528522869E+03    0.30602E-04   -0.97401E-04  7716   0.484E-02    0.653E-02
RMM:   5    -0.365528508663E+03    0.14206E-04   -0.36399E-04  7076   0.325E-02    0.371E-02
RMM:   6    -0.365528488506E+03    0.20157E-04   -0.14815E-04  6457   0.233E-02    0.155E-02
RMM:   7    -0.365528486863E+03    0.16433E-05   -0.36643E-05  3502   0.119E-02
  21 F= -.36552849E+03 E0= -.36553760E+03  d E =-.102834E-02
       N       E                     dE             d eps       ncg     rms          rms(c)
DAV:   1    -0.365528417174E+03    0.71332E-04   -0.35870E-02  4696   0.532E-01    0.412E-02
RMM:   2    -0.365528495909E+03   -0.78735E-04   -0.10324E-03  5960   0.957E-02    0.196E-02
RMM:   3    -0.365528485133E+03    0.10776E-04   -0.98007E-05  5415   0.283E-02    0.152E-02
RMM:   4    -0.365528482555E+03    0.25782E-05   -0.18651E-05  2703   0.945E-03
  22 F= -.36552848E+03 E0= -.36553757E+03  d E =-.102403E-02
       N       E                     dE             d eps       ncg     rms          rms(c)
DAV:   1    -0.365528468828E+03    0.16305E-04   -0.11057E-02  4704   0.297E-01    0.227E-02
RMM:   2    -0.365528495248E+03   -0.26420E-04   -0.32773E-04  5601   0.534E-02    0.974E-03
RMM:   3    -0.365528489676E+03    0.55715E-05   -0.18026E-05  2607   0.171E-02
  23 F= -.36552849E+03 E0= -.36553759E+03  d E =-.103116E-02
       N       E                     dE             d eps       ncg     rms          rms(c)
DAV:   1    -0.365529011216E+03   -0.51597E-03   -0.58483E-02  4648   0.764E-01    0.178E-01
RMM:   2    -0.365528858771E+03    0.15244E-03   -0.33399E-03  6899   0.158E-01    0.705E-02
RMM:   3    -0.365528798489E+03    0.60282E-04   -0.63577E-04  7118   0.513E-02    0.533E-02
RMM:   4    -0.365528720680E+03    0.77809E-04   -0.19264E-04  6906   0.286E-02    0.276E-02
RMM:   5    -0.365528715246E+03    0.54337E-05   -0.68399E-05  5141   0.145E-02
  24 F= -.36552872E+03 E0= -.36553777E+03  d E =-.225570E-03
       N       E                     dE             d eps       ncg     rms          rms(c)
DAV:   1    -0.365528951614E+03   -0.23093E-03   -0.40044E-02  4632   0.632E-01    0.145E-01
RMM:   2    -0.365528847386E+03    0.10423E-03   -0.23398E-03  7025   0.130E-01    0.581E-02
RMM:   3    -0.365528803169E+03    0.44218E-04   -0.45260E-04  7028   0.404E-02    0.441E-02
RMM:   4    -0.365528756602E+03    0.46566E-04   -0.14896E-04  6770   0.247E-02    0.240E-02
RMM:   5    -0.365528756034E+03    0.56811E-06   -0.54266E-05  3836   0.131E-02
  25 F= -.36552876E+03 E0= -.36553779E+03  d E =-.266358E-03
       N       E                     dE             d eps       ncg     rms          rms(c)
DAV:   1    -0.365529012156E+03   -0.25555E-03   -0.35946E-02  4624   0.577E-01    0.111E-01
RMM:   2    -0.365529038518E+03   -0.26362E-04   -0.20749E-03  7087   0.117E-01    0.570E-02
RMM:   3    -0.365528959762E+03    0.78756E-04   -0.39463E-04  6926   0.356E-02    0.397E-02
RMM:   4    -0.365528933162E+03    0.26599E-04   -0.13365E-04  6329   0.213E-02    0.204E-02
RMM:   5    -0.365528925679E+03    0.74831E-05   -0.47255E-05  3753   0.126E-02
  26 F= -.36552893E+03 E0= -.36553796E+03  d E =-.169645E-03
       N       E                     dE             d eps       ncg     rms          rms(c)
DAV:   1    -0.365529166709E+03   -0.23355E-03   -0.64064E-02  4592   0.771E-01    0.140E-01
RMM:   2    -0.365529203012E+03   -0.36302E-04   -0.35306E-03  7066   0.153E-01    0.715E-02
RMM:   3    -0.365529053637E+03    0.14937E-03   -0.59844E-04  7038   0.447E-02    0.488E-02
RMM:   4    -0.365529010225E+03    0.43412E-04   -0.21416E-04  6787   0.261E-02    0.266E-02
RMM:   5    -0.365528997283E+03    0.12942E-04   -0.80211E-05  5556   0.160E-02    0.175E-02
RMM:   6    -0.365528995014E+03    0.22693E-05   -0.25857E-05  3194   0.102E-02
  27 F= -.36552900E+03 E0= -.36553803E+03  d E =-.238980E-03
       N       E                     dE             d eps       ncg     rms          rms(c)
DAV:   1    -0.365529071955E+03   -0.74672E-04   -0.75146E-03  4704   0.260E-01    0.397E-02
RMM:   2    -0.365529080421E+03   -0.84662E-05   -0.35305E-04  6897   0.515E-02    0.200E-02
RMM:   3    -0.365529068956E+03    0.11466E-04   -0.44185E-05  4349   0.142E-02    0.144E-02
RMM:   4    -0.365529063788E+03    0.51679E-05   -0.13731E-05  2640   0.113E-02
  28 F= -.36552906E+03 E0= -.36553811E+03  d E =-.687738E-04
       N       E                     dE             d eps       ncg     rms          rms(c)
DAV:   1    -0.365529233546E+03   -0.16459E-03   -0.67234E-02  4600   0.780E-01    0.123E-01
RMM:   2    -0.365529300287E+03   -0.66741E-04   -0.32633E-03  7092   0.154E-01    0.614E-02
RMM:   3    -0.365529223248E+03    0.77039E-04   -0.50129E-04  7054   0.411E-02    0.431E-02
RMM:   4    -0.365529183864E+03    0.39384E-04   -0.16760E-04  6707   0.241E-02    0.225E-02
RMM:   5    -0.365529176934E+03    0.69305E-05   -0.62268E-05  4480   0.139E-02
  29 F= -.36552918E+03 E0= -.36553825E+03  d E =-.181919E-03
       N       E                     dE             d eps       ncg     rms          rms(c)
DAV:   1    -0.365529271776E+03   -0.87912E-04   -0.68300E-03  4880   0.264E-01    0.752E-02
RMM:   2    -0.365529255648E+03    0.16128E-04   -0.56629E-04  7077   0.623E-02    0.300E-02
RMM:   3    -0.365529241003E+03    0.14644E-04   -0.12770E-04  6168   0.205E-02    0.228E-02
RMM:   4    -0.365529229340E+03    0.11663E-04   -0.34548E-05  3671   0.138E-02    0.120E-02
RMM:   5    -0.365529227492E+03    0.18479E-05   -0.10969E-05  2591   0.100E-02
  30 F= -.36552923E+03 E0= -.36553829E+03  d E =-.505586E-04
