       N       E                     dE             d eps       ncg     rms          rms(c)
DAV:   1     0.224716948587E+04    0.22472E+04   -0.12358E+05  5856   0.108E+03
DAV:   2    -0.432577843877E+02   -0.22904E+04   -0.22138E+04  6048   0.412E+02
DAV:   3    -0.332505054887E+03   -0.28925E+03   -0.27515E+03  9056   0.102E+02
DAV:   4    -0.367463435682E+03   -0.34958E+02   -0.33368E+02  9032   0.325E+01
DAV:   5    -0.371047425227E+03   -0.35840E+01   -0.35114E+01  8624   0.104E+01    0.628E+01
RMM:   6    -0.360574683514E+03    0.10473E+02   -0.24065E+01  7375   0.103E+01    0.293E+01
RMM:   7    -0.360623660553E+03   -0.48977E-01   -0.22023E+01  7736   0.790E+00    0.990E+00
RMM:   8    -0.356743677994E+03    0.38800E+01   -0.46945E+00  8093   0.321E+00    0.431E+00
RMM:   9    -0.356629367676E+03    0.11431E+00   -0.18805E+00  8041   0.171E+00    0.311E+00
RMM:  10    -0.356543626002E+03    0.85742E-01   -0.37699E-01  7919   0.120E+00    0.120E+00
RMM:  11    -0.356529721292E+03    0.13905E-01   -0.12567E-01  8033   0.538E-01    0.615E-01
RMM:  12    -0.356527521794E+03    0.21995E-02   -0.42879E-02  8073   0.279E-01    0.375E-01
RMM:  13    -0.356526654696E+03    0.86710E-03   -0.16392E-02  8111   0.161E-01    0.224E-01
RMM:  14    -0.356527192642E+03   -0.53795E-03   -0.79366E-03  8413   0.956E-02    0.121E-01
RMM:  15    -0.356527262752E+03   -0.70110E-04   -0.32464E-03  8200   0.622E-02    0.526E-02
RMM:  16    -0.356527346337E+03   -0.83585E-04   -0.15045E-03  6869   0.357E-02    0.274E-02
RMM:  17    -0.356527381407E+03   -0.35070E-04   -0.64937E-04  6236   0.255E-02    0.142E-02
RMM:  18    -0.356527405325E+03   -0.23918E-04   -0.33798E-04  5925   0.181E-02    0.865E-03
RMM:  19    -0.356527412952E+03   -0.76275E-05   -0.12582E-04  5101   0.135E-02    0.505E-03
RMM:  20    -0.356527416699E+03   -0.37469E-05   -0.67660E-05  4594   0.112E-02
   1 F= -.35652742E+03 E0= -.35653401E+03  d E =-.356527E+03
       N       E                     dE             d eps       ncg     rms          rms(c)
DAV:   1    -0.356528514273E+03   -0.11013E-02   -0.46444E-02  6016   0.555E-01    0.734E-02
RMM:   2    -0.356528615485E+03   -0.10121E-03   -0.17001E-03  7796   0.109E-01    0.389E-02
RMM:   3    -0.356528590383E+03    0.25102E-04   -0.24554E-04  6927   0.310E-02    0.274E-02
RMM:   4    -0.356528581376E+03    0.90071E-05   -0.75657E-05  5624   0.148E-02
   2 F= -.35652858E+03 E0= -.35653519E+03  d E =-.116468E-02
       N       E                     dE             d eps       ncg     rms          rms(c)
DAV:   1    -0.356530931756E+03   -0.23414E-02   -0.41691E-01  5680   0.166E+00    0.220E-01
RMM:   2    -0.356531702135E+03   -0.77038E-03   -0.14101E-02  7851   0.322E-01    0.119E-01
RMM:   3    -0.356531468487E+03    0.23365E-03   -0.20837E-03  7950   0.828E-02    0.835E-02
RMM:   4    -0.356531381853E+03    0.86634E-04   -0.57814E-04  7870   0.377E-02    0.509E-02
RMM:   5    -0.356531362763E+03    0.19090E-04   -0.23842E-04  7638   0.274E-02    0.284E-02
RMM:   6    -0.356531357851E+03    0.49120E-05   -0.99613E-05  5809   0.156E-02
   3 F= -.35653136E+03 E0= -.35653802E+03  d E =-.394115E-02
       N       E                     dE             d eps       ncg     rms          rms(c)
DAV:   1    -0.356532200728E+03   -0.83797E-03   -0.16705E+00  5584   0.333E+00    0.436E-01
RMM:   2    -0.356535252422E+03   -0.30517E-02   -0.56037E-02  7840   0.642E-01    0.235E-01
RMM:   3    -0.356534300244E+03    0.95218E-03   -0.80673E-03  7988   0.163E-01    0.163E-01
RMM:   4    -0.356533979160E+03    0.32108E-03   -0.22554E-03  8044   0.737E-02    0.998E-02
RMM:   5    -0.356533910154E+03    0.69005E-04   -0.92006E-04  8200   0.536E-02    0.559E-02
RMM:   6    -0.356533902078E+03    0.80763E-05   -0.39934E-04  7781   0.302E-02    0.357E-02
RMM:   7    -0.356533898353E+03    0.37245E-05   -0.14741E-04  5921   0.183E-02    0.236E-02
RMM:   8    -0.356533897543E+03    0.81053E-06   -0.73391E-05  5134   0.145E-02
   4 F= -.35653390E+03 E0= -.35654064E+03  d E =-.648084E-02
       N       E                     dE             d eps       ncg     rms          rms(c)
DAV:   1    -0.356540581134E+03   -0.66828E-02   -0.41948E-01  6072   0.207E+00    0.722E-01
RMM:   2    -0.356537352737E+03    0.32284E-02   -0.36113E-02  7623   0.500E-01    0.245E-01
RMM:   3    -0.356536183705E+03    0.11690E-02   -0.83813E-03  8151   0.158E-01    0.195E-01
RMM:   4    -0.356535073021E+03    0.11107E-02   -0.24194E-03  8141   0.104E-01    0.988E-02
RMM:   5    -0.356535017505E+03    0.55516E-04   -0.77926E-04  8075   0.517E-02    0.774E-02
RMM:   6    -0.356535052021E+03   -0.34516E-04   -0.32142E-04  7278   0.286E-02    0.474E-02
RMM:   7    -0.356535075139E+03   -0.23118E-04   -0.13709E-04  6619   0.215E-02    0.223E-02
RMM:   8    -0.356535091701E+03   -0.16562E-04   -0.75200E-05  5063   0.147E-02    0.162E-02
RMM:   9    -0.356535101928E+03   -0.10227E-04   -0.23923E-05  3855   0.110E-02    0.118E-02
RMM:  10    -0.356535114394E+03   -0.12466E-04   -0.22368E-05  3737   0.106E-02    0.674E-03
RMM:  11    -0.356535121559E+03   -0.71646E-05   -0.16407E-05  3664   0.110E-02
   5 F= -.35653512E+03 E0= -.35654182E+03  d E =-.122402E-02
       N       E                     dE             d eps       ncg     rms          rms(c)
DAV:   1    -0.356535237938E+03   -0.12354E-03   -0.81202E-03  6296   0.289E-01    0.987E-02
RMM:   2    -0.356535171822E+03    0.66115E-04   -0.66626E-04  7245   0.692E-02    0.326E-02
RMM:   3    -0.356535150048E+03    0.21774E-04   -0.14352E-04  6870   0.224E-02    0.252E-02
RMM:   4    -0.356535131839E+03    0.18209E-04   -0.38897E-05  3900   0.157E-02    0.147E-02
RMM:   5    -0.356535132985E+03   -0.11459E-05   -0.11748E-05  3017   0.115E-02
   6 F= -.35653513E+03 E0= -.35654183E+03  d E =-.123544E-02
       N       E                     dE             d eps       ncg     rms          rms(c)
DAV:   1    -0.356535546671E+03   -0.41483E-03   -0.18650E-01  5600   0.119E+00    0.118E-01
RMM:   2    -0.356536111673E+03   -0.56500E-03   -0.66605E-03  7722   0.229E-01    0.708E-02
RMM:   3    -0.356535976199E+03    0.13547E-03   -0.80411E-04  7875   0.630E-02    0.476E-02
RMM:   4    -0.356535958691E+03    0.17509E-04   -0.17931E-04  7040   0.214E-02    0.295E-02
RMM:   5    -0.356535955707E+03    0.29833E-05   -0.71466E-05  5924   0.134E-02
   7 F= -.35653596E+03 E0= -.35654264E+03  d E =-.822722E-03
       N       E                     dE             d eps       ncg     rms          rms(c)
DAV:   1    -0.356533426685E+03    0.25320E-02   -0.16764E+00  5408   0.358E+00    0.344E-01
RMM:   2    -0.356538433347E+03   -0.50067E-02   -0.59389E-02  7720   0.685E-01    0.205E-01
RMM:   3    -0.356537241168E+03    0.11922E-02   -0.68998E-03  7892   0.184E-01    0.137E-01
RMM:   4    -0.356537099421E+03    0.14175E-03   -0.15716E-03  8514   0.624E-02    0.860E-02
RMM:   5    -0.356537078293E+03    0.21128E-04   -0.66145E-04  8184   0.448E-02    0.489E-02
RMM:   6    -0.356537058192E+03    0.20101E-04   -0.28213E-04  7856   0.287E-02    0.268E-02
RMM:   7    -0.356537054739E+03    0.34531E-05   -0.96926E-05  5417   0.154E-02
   8 F= -.35653705E+03 E0= -.35654371E+03  d E =-.192175E-02
       N       E                     dE             d eps       ncg     rms          rms(c)
DAV:   1    -0.356537140418E+03   -0.82226E-04   -0.97431E-02  5600   0.895E-01    0.880E-02
RMM:   2    -0.356537436466E+03   -0.29605E-03   -0.39272E-03  7605   0.175E-01    0.495E-02
RMM:   3    -0.356537377037E+03    0.59429E-04   -0.43985E-04  7529   0.472E-02    0.358E-02
RMM:   4    -0.356537364605E+03    0.12432E-04   -0.11578E-04  6676   0.177E-02    0.218E-02
RMM:   5    -0.356537361462E+03    0.31435E-05   -0.43991E-05  4555   0.120E-02
   9 F= -.35653736E+03 E0= -.35654398E+03  d E =-.306722E-03
       N       E                     dE             d eps       ncg     rms          rms(c)
DAV:   1    -0.356536993228E+03    0.37138E-03   -0.24369E-01  5472   0.141E+00    0.141E-01
RMM:   2    -0.356537732095E+03   -0.73887E-03   -0.97420E-03  7760   0.276E-01    0.792E-02
RMM:   3    -0.356537590223E+03    0.14187E-03   -0.10986E-03  7874   0.731E-02    0.567E-02
RMM:   4    -0.356537558201E+03    0.32022E-04   -0.27278E-04  7902   0.272E-02    0.342E-02
RMM:   5    -0.356537554138E+03    0.40631E-05   -0.12199E-04  6864   0.191E-02    0.211E-02
RMM:   6    -0.356537547273E+03    0.68647E-05   -0.42131E-05  4207   0.121E-02
  10 F= -.35653755E+03 E0= -.35654410E+03  d E =-.492534E-03
       N       E                     dE             d eps       ncg     rms          rms(c)
DAV:   1    -0.356538202183E+03   -0.64804E-03   -0.83001E-02  6088   0.915E-01    0.261E-01
RMM:   2    -0.356537946840E+03    0.25534E-03   -0.67628E-03  7428   0.221E-01    0.898E-02
RMM:   3    -0.356537794588E+03    0.15225E-03   -0.11996E-03  8094   0.688E-02    0.709E-02
RMM:   4    -0.356537652164E+03    0.14242E-03   -0.33542E-04  7971   0.361E-02    0.361E-02
RMM:   5    -0.356537646818E+03    0.53460E-05   -0.10264E-04  6786   0.201E-02    0.271E-02
RMM:   6    -0.356537655477E+03   -0.86591E-05   -0.41842E-05  4170   0.120E-02
  11 F= -.35653766E+03 E0= -.35654415E+03  d E =-.108204E-03
       N       E                     dE             d eps       ncg     rms          rms(c)
DAV:   1    -0.356537679262E+03   -0.32444E-04   -0.41162E-03  6136   0.205E-01    0.524E-02
RMM:   2    -0.356537670364E+03    0.88981E-05   -0.32834E-04  7323   0.497E-02    0.180E-02
RMM:   3    -0.356537662909E+03    0.74550E-05   -0.41470E-05  4562   0.148E-02
  12 F= -.35653766E+03 E0= -.35654415E+03  d E =-.115636E-03
       N       E                     dE             d eps       ncg     rms          rms(c)
DAV:   1    -0.356537727471E+03   -0.57107E-04   -0.16558E-02  5976   0.407E-01    0.112E-01
RMM:   2    -0.356537665014E+03    0.62457E-04   -0.13833E-03  7287   0.100E-01    0.378E-02
RMM:   3    -0.356537632978E+03    0.32036E-04   -0.21798E-04  7310   0.306E-02    0.308E-02
RMM:   4    -0.356537612495E+03    0.20483E-04   -0.59326E-05  4905   0.167E-02    0.184E-02
RMM:   5    -0.356537614316E+03   -0.18203E-05   -0.18002E-05  3216   0.123E-02
  13 F= -.35653761E+03 E0= -.35654408E+03  d E =-.670425E-04
       N       E                     dE             d eps       ncg     rms          rms(c)
DAV:   1    -0.356537725761E+03   -0.11327E-03   -0.94586E-03  6048   0.307E-01    0.925E-02
RMM:   2    -0.356537712647E+03    0.13114E-04   -0.77803E-04  7166   0.749E-02    0.333E-02
RMM:   3    -0.356537694913E+03    0.17734E-04   -0.13767E-04  6705   0.242E-02    0.260E-02
RMM:   4    -0.356537675638E+03    0.19275E-04   -0.33589E-05  3580   0.151E-02    0.136E-02
RMM:   5    -0.356537673136E+03    0.25025E-05   -0.90300E-06  2793   0.103E-02
  14 F= -.35653767E+03 E0= -.35654415E+03  d E =-.125862E-03
       N       E                     dE             d eps       ncg     rms          rms(c)
DAV:   1    -0.356537680024E+03   -0.43860E-05   -0.47821E-04  5696   0.693E-02    0.168E-02
RMM:   2    -0.356537679589E+03    0.43531E-06   -0.36992E-05  3736   0.162E-02
  15 F= -.35653768E+03 E0= -.35654416E+03  d E =-.132316E-03
       N       E                     dE             d eps       ncg     rms          rms(c)
DAV:   1    -0.356537516864E+03    0.16316E-03   -0.74370E-02  5440   0.801E-01    0.490E-02
RMM:   2    -0.356537767997E+03   -0.25113E-03   -0.28497E-03  6036   0.153E-01    0.245E-02
RMM:   3    -0.356537754355E+03    0.13643E-04   -0.23670E-04  6574   0.477E-02    0.228E-02
RMM:   4    -0.356537752994E+03    0.13611E-05   -0.66608E-05  5011   0.122E-02
  16 F= -.35653775E+03 E0= -.35654420E+03  d E =-.734048E-04
       N       E                     dE             d eps       ncg     rms          rms(c)
DAV:   1    -0.356537730909E+03    0.23446E-04   -0.11942E-02  5584   0.319E-01    0.226E-02
RMM:   2    -0.356537774035E+03   -0.43127E-04   -0.49875E-04  6880   0.625E-02    0.156E-02
RMM:   3    -0.356537771140E+03    0.28957E-05   -0.52176E-05  4548   0.191E-02
  17 F= -.35653777E+03 E0= -.35654420E+03  d E =-.915508E-04
       N       E                     dE             d eps       ncg     rms          rms(c)
DAV:   1    -0.356538374064E+03   -0.60003E-03   -0.23200E-02  7216   0.524E-01    0.201E-01
RMM:   2    -0.356538139770E+03    0.23429E-03   -0.32442E-03  7932   0.141E-01    0.783E-02
RMM:   3    -0.356537961493E+03    0.17828E-03   -0.65731E-04  8117   0.402E-02    0.532E-02
RMM:   4    -0.356537879200E+03    0.82293E-04   -0.20041E-04  7744   0.297E-02    0.274E-02
RMM:   5    -0.356537865611E+03    0.13589E-04   -0.56804E-05  5595   0.161E-02    0.213E-02
RMM:   6    -0.356537862090E+03    0.35208E-05   -0.17082E-05  3106   0.101E-02
  18 F= -.35653786E+03 E0= -.35654432E+03  d E =-.909510E-04
