<?xml version="1.0" encoding="ISO-8859-1"?>
<modeling>
 <generator>
  <i name="program" type="string">vasp </i>
  <i name="version" type="string">5.4.1  </i>
  <i name="subversion" type="string">05Feb16 (build Jan 29 2020 16:04:39) complex                          parallel </i>
  <i name="platform" type="string">IFC91_ompi </i>
  <i name="date" type="string">2020 06 15 </i>
  <i name="time" type="string">07:47:02 </i>
 </generator>
 <incar>
  <i type="string" name="SYSTEM"> automatically generated by mexm</i>
  <i type="int" name="ISTART">     0</i>
  <i type="string" name="PREC">accurate               ! avoid wrap aro</i>
  <i type="string" name="ALGO"> Fast                   ! blocked Davids</i>
  <i type="int" name="ISPIN">     1</i>
  <i type="int" name="ICHARG">     2</i>
  <i type="int" name="NELM">    70</i>
  <i type="int" name="IBRION">     2</i>
  <i name="EDIFF">      0.00001000</i>
  <i name="EDIFFG">     -0.01000000</i>
  <i type="int" name="NSW">   300</i>
  <i type="int" name="ISIF">     3</i>
  <i type="int" name="ISYM">     1</i>
  <i name="ENCUT">    300.00000000</i>
  <i name="POTIM">      0.15000000</i>
  <i type="string" name="LREAL"> Auto                  ! unpublished met</i>
  <i type="int" name="ISMEAR">     1</i>
  <i name="SIGMA">      0.15000000</i>
  <i type="logical" name="LWAVE"> F  </i>
  <i type="logical" name="LCHARG"> F  </i>
  <i type="logical" name="LVTOT"> F  </i>
  <v type="int" name="KPOINT_BSE">    -1     0     0     0</v>
  <i type="int" name="NELM">    70</i>
 </incar>
 <kpoints>
  <generation param="Gamma">
   <v type="int" name="divisions">       3        3        3 </v>
   <v name="usershift">      0.00000000       0.00000000       0.00000000 </v>
   <v name="genvec1">      0.33333333       0.00000000       0.00000000 </v>
   <v name="genvec2">     -0.00000000       0.33333333       0.00000000 </v>
   <v name="genvec3">     -0.00000000      -0.00000000       0.33333333 </v>
   <v name="shift">      0.00000000       0.00000000       0.00000000 </v>
  </generation>
  <varray name="kpointlist" >
   <v>       0.00000000       0.00000000       0.00000000 </v>
   <v>       0.33333333       0.00000000       0.00000000 </v>
   <v>      -0.00000000       0.33333333      -0.00000000 </v>
   <v>       0.33333333       0.33333333      -0.00000000 </v>
   <v>      -0.33333333       0.33333333      -0.00000000 </v>
   <v>       0.00000000      -0.00000000       0.33333333 </v>
   <v>       0.33333333      -0.00000000       0.33333333 </v>
   <v>      -0.33333333      -0.00000000       0.33333333 </v>
   <v>      -0.00000000       0.33333333       0.33333333 </v>
   <v>       0.33333333       0.33333333       0.33333333 </v>
   <v>      -0.33333333       0.33333333       0.33333333 </v>
   <v>       0.00000000      -0.33333333       0.33333333 </v>
   <v>       0.33333333      -0.33333333       0.33333333 </v>
   <v>      -0.33333333      -0.33333333       0.33333333 </v>
  </varray>
  <varray name="weights" >
   <v>       0.03703704 </v>
   <v>       0.07407407 </v>
   <v>       0.07407407 </v>
   <v>       0.07407407 </v>
   <v>       0.07407407 </v>
   <v>       0.07407407 </v>
   <v>       0.07407407 </v>
   <v>       0.07407407 </v>
   <v>       0.07407407 </v>
   <v>       0.07407407 </v>
   <v>       0.07407407 </v>
   <v>       0.07407407 </v>
   <v>       0.07407407 </v>
   <v>       0.07407407 </v>
  </varray>
 </kpoints>
 <parameters>
  <separator name="general" >
   <i type="string" name="SYSTEM">automatically generated by mexm</i>
   <i type="logical" name="LCOMPAT"> F  </i>
  </separator>
  <separator name="electronic" >
   <i type="string" name="PREC">accura</i>
   <i name="ENMAX">    300.00000000</i>
   <i name="ENAUG">    461.25700000</i>
   <i name="EDIFF">      0.00001000</i>
   <i type="int" name="IALGO">    68</i>
   <i type="int" name="IWAVPR">    11</i>
   <i type="int" name="NBANDS">   192</i>
   <i name="NELECT">    321.00000000</i>
   <i type="int" name="TURBO">     0</i>
   <i type="int" name="IRESTART">     0</i>
   <i type="int" name="NREBOOT">     0</i>
   <i type="int" name="NMIN">     0</i>
   <i name="EREF">      0.00000000</i>
   <separator name="electronic smearing" >
    <i type="int" name="ISMEAR">     1</i>
    <i name="SIGMA">      0.15000000</i>
    <i name="KSPACING">      0.50000000</i>
    <i type="logical" name="KGAMMA"> T  </i>
   </separator>
   <separator name="electronic projectors" >
    <i type="logical" name="LREAL"> T  </i>
    <v name="ROPT">     -0.00025000     -0.00025000     -0.00025000     -0.00025000</v>
    <i type="int" name="LMAXPAW">  -100</i>
    <i type="int" name="LMAXMIX">     2</i>
    <i type="logical" name="NLSPLINE"> F  </i>
   </separator>
   <separator name="electronic startup" >
    <i type="int" name="ISTART">     0</i>
    <i type="int" name="ICHARG">     2</i>
    <i type="int" name="INIWAV">     1</i>
   </separator>
   <separator name="electronic spin" >
    <i type="int" name="ISPIN">     1</i>
    <i type="logical" name="LNONCOLLINEAR"> F  </i>
    <v name="MAGMOM">      1.00000000      1.00000000      1.00000000      1.00000000      1.00000000      1.00000000      1.00000000      1.00000000      1.00000000      1.00000000      1.00000000      1.00000000      1.00000000      1.00000000      1.00000000      1.00000000      1.00000000      1.00000000      1.00000000      1.00000000
      1.00000000      1.00000000      1.00000000      1.00000000      1.00000000      1.00000000      1.00000000      1.00000000      1.00000000      1.00000000      1.00000000      1.00000000      1.00000000      1.00000000      1.00000000      1.00000000</v>
    <i name="NUPDOWN">     -1.00000000</i>
    <i type="logical" name="LSORBIT"> F  </i>
    <v name="SAXIS">      0.00000000      0.00000000      1.00000000</v>
    <i type="logical" name="LSPIRAL"> F  </i>
    <v name="QSPIRAL">      0.00000000      0.00000000      0.00000000</v>
    <i type="logical" name="LZEROZ"> F  </i>
   </separator>
   <separator name="electronic exchange-correlation" >
    <i type="logical" name="LASPH"> F  </i>
    <i type="logical" name="LMETAGGA"> F  </i>
   </separator>
   <separator name="electronic convergence" >
    <i type="int" name="NELM">    70</i>
    <i type="int" name="NELMDL">    -5</i>
    <i type="int" name="NELMIN">     2</i>
    <i name="ENINI">    300.00000000</i>
    <separator name="electronic convergence detail" >
     <i type="logical" name="LDIAG"> T  </i>
     <i type="logical" name="LSUBROT"> F  </i>
     <i name="WEIMIN">      0.00100000</i>
     <i name="EBREAK">      0.00000001</i>
     <i name="DEPER">      0.30000000</i>
     <i type="int" name="NRMM">     4</i>
     <i name="TIME">      0.40000000</i>
    </separator>
   </separator>
   <separator name="electronic mixer" >
    <i name="AMIX">      0.40000000</i>
    <i name="BMIX">      1.00000000</i>
    <i name="AMIN">      0.10000000</i>
    <i name="AMIX_MAG">      1.60000000</i>
    <i name="BMIX_MAG">      1.00000000</i>
    <separator name="electronic mixer details" >
     <i type="int" name="IMIX">     4</i>
     <i type="logical" name="MIXFIRST"> F  </i>
     <i type="int" name="MAXMIX">   -45</i>
     <i name="WC">    100.00000000</i>
     <i type="int" name="INIMIX">     1</i>
     <i type="int" name="MIXPRE">     1</i>
     <i type="int" name="MREMOVE">     5</i>
    </separator>
   </separator>
   <separator name="electronic dipolcorrection" >
    <i type="logical" name="LDIPOL"> F  </i>
    <i type="logical" name="LMONO"> F  </i>
    <i type="int" name="IDIPOL">     0</i>
    <i name="EPSILON">      1.00000000</i>
    <v name="DIPOL">   -100.00000000   -100.00000000   -100.00000000</v>
    <i name="EFIELD">      0.00000000</i>
   </separator>
  </separator>
  <separator name="grids" >
   <i type="int" name="NGX">    40</i>
   <i type="int" name="NGY">    60</i>
   <i type="int" name="NGZ">    60</i>
   <i type="int" name="NGXF">    80</i>
   <i type="int" name="NGYF">   120</i>
   <i type="int" name="NGZF">   120</i>
   <i type="logical" name="ADDGRID"> F  </i>
  </separator>
  <separator name="ionic" >
   <i type="int" name="NSW">   300</i>
   <i type="int" name="IBRION">     2</i>
   <i type="int" name="ISIF">     3</i>
   <i name="PSTRESS">      0.00000000</i>
   <i name="EDIFFG">     -0.01000000</i>
   <i type="int" name="NFREE">     1</i>
   <i name="POTIM">      0.15000000</i>
   <i name="SMASS">     -3.00000000</i>
   <i name="SCALEE">      1.00000000</i>
  </separator>
  <separator name="ionic md" >
   <i name="TEBEG">      0.00010000</i>
   <i name="TEEND">      0.00010000</i>
   <i type="int" name="NBLOCK">     1</i>
   <i type="int" name="KBLOCK">   300</i>
   <i type="int" name="NPACO">   256</i>
   <i name="APACO">     16.00000000</i>
  </separator>
  <separator name="symmetry" >
   <i type="int" name="ISYM">     1</i>
   <i name="SYMPREC">      0.00001000</i>
  </separator>
  <separator name="dos" >
   <i type="logical" name="LORBIT"> F  </i>
   <v name="RWIGS">     -1.00000000     -1.00000000     -1.00000000     -1.00000000</v>
   <i type="int" name="NEDOS">   301</i>
   <i name="EMIN">     10.00000000</i>
   <i name="EMAX">    -10.00000000</i>
   <i name="EFERMI">      0.00000000</i>
  </separator>
  <separator name="writing" >
   <i type="int" name="NWRITE">     2</i>
   <i type="logical" name="LWAVE"> F  </i>
   <i type="logical" name="LCHARG"> F  </i>
   <i type="logical" name="LPARD"> F  </i>
   <i type="logical" name="LVTOT"> F  </i>
   <i type="logical" name="LVHAR"> F  </i>
   <i type="logical" name="LELF"> F  </i>
   <i type="logical" name="LOPTICS"> F  </i>
   <v name="STM">      0.00000000      0.00000000      0.00000000      0.00000000      0.00000000      0.00000000      0.00000000</v>
  </separator>
  <separator name="performance" >
   <i type="int" name="NPAR">     4</i>
   <i type="int" name="NSIM">     4</i>
   <i type="int" name="NBLK">    -1</i>
   <i type="logical" name="LPLANE"> T  </i>
   <i type="logical" name="LSCALAPACK"> T  </i>
   <i type="logical" name="LSCAAWARE"> F  </i>
   <i type="logical" name="LSCALU"> F  </i>
   <i type="logical" name="LASYNC"> F  </i>
   <i type="logical" name="LORBITALREAL"> F  </i>
  </separator>
  <separator name="miscellaneous" >
   <i type="int" name="IDIOT">     3</i>
   <i type="logical" name="LMUSIC"> F  </i>
   <v name="POMASS">     92.91000000    178.49000000     91.22400000    180.94800000</v>
   <v name="DARWINR">      0.00000000      0.00000000      0.00000000      0.00000000</v>
   <v name="DARWINV">      1.00000000      1.00000000      1.00000000      1.00000000</v>
   <i type="logical" name="LCORR"> T  </i>
  </separator>
  <i type="logical" name="GGA_COMPAT"> T  </i>
  <i type="logical" name="LBERRY"> F  </i>
  <i type="int" name="ICORELEVEL">     0</i>
  <i type="logical" name="LDAU"> F  </i>
  <i type="int" name="I_CONSTRAINED_M">     0</i>
  <separator name="electronic exchange-correlation" >
   <i type="string" name="GGA">--</i>
   <i type="int" name="VOSKOWN">     0</i>
   <i type="logical" name="LHFCALC"> F  </i>
   <i type="string" name="PRECFOCK"></i>
   <i type="logical" name="LSYMGRAD"> F  </i>
   <i type="logical" name="LHFONE"> F  </i>
   <i type="logical" name="LRHFCALC"> F  </i>
   <i type="logical" name="LTHOMAS"> F  </i>
   <i type="logical" name="LMODELHF"> F  </i>
   <i name="ENCUT4O">     -1.00000000</i>
   <i type="int" name="EXXOEP">     0</i>
   <i type="int" name="FOURORBIT">     0</i>
   <i name="AEXX">      0.00000000</i>
   <i name="HFALPHA">      0.00000000</i>
   <i name="MCALPHA">      0.00000000</i>
   <i name="ALDAX">      1.00000000</i>
   <i name="AGGAX">      1.00000000</i>
   <i name="ALDAC">      1.00000000</i>
   <i name="AGGAC">      1.00000000</i>
   <i type="int" name="NKREDX">     1</i>
   <i type="int" name="NKREDY">     1</i>
   <i type="int" name="NKREDZ">     1</i>
   <i type="logical" name="SHIFTRED"> F  </i>
   <i type="logical" name="ODDONLY"> F  </i>
   <i type="logical" name="EVENONLY"> F  </i>
   <i type="int" name="LMAXFOCK">     0</i>
   <i type="int" name="NMAXFOCKAE">     0</i>
   <i type="logical" name="LFOCKAEDFT"> F  </i>
   <i name="HFSCREEN">      0.00000000</i>
   <i name="HFSCREENC">      0.00000000</i>
   <i type="int" name="NBANDSGWLOW">     0</i>
  </separator>
  <separator name="vdW DFT" >
   <i type="logical" name="LUSE_VDW"> F  </i>
   <i name="Zab_VDW">     -0.84910000</i>
   <i name="PARAM1">      0.12340000</i>
   <i name="PARAM2">      1.00000000</i>
   <i name="PARAM3">      0.00000000</i>
  </separator>
  <separator name="model GW" >
   <i type="int" name="MODEL_GW">     0</i>
   <i name="MODEL_EPS0">     12.18714875</i>
   <i name="MODEL_ALPHA">      1.00000000</i>
  </separator>
  <separator name="linear response parameters" >
   <i type="logical" name="LEPSILON"> F  </i>
   <i type="logical" name="LRPA"> F  </i>
   <i type="logical" name="LNABLA"> F  </i>
   <i type="logical" name="LVEL"> F  </i>
   <i type="int" name="KINTER">     0</i>
   <i name="CSHIFT">      0.10000000</i>
   <i name="OMEGAMAX">     -1.00000000</i>
   <i name="DEG_THRESHOLD">      0.00200000</i>
  </separator>
  <separator name="orbital magnetization" >
   <i type="logical" name="NUCIND"> F  </i>
   <v name="MAGPOS">      0.00000000      0.00000000      0.00000000</v>
   <i type="logical" name="LNICSALL"> T  </i>
   <i type="logical" name="ORBITALMAG"> F  </i>
   <i type="logical" name="LMAGBLOCH"> F  </i>
   <i type="logical" name="LCHIMAG"> F  </i>
   <i type="logical" name="LGAUGE"> T  </i>
   <i type="int" name="MAGATOM">     0</i>
   <v name="MAGDIPOL">      0.00000000      0.00000000      0.00000000</v>
   <v name="AVECCONST">      0.00000000      0.00000000      0.00000000</v>
  </separator>
  <separator name="response functions" >
   <i type="logical" name="LADDER"> F  </i>
   <i type="logical" name="LFXC"> F  </i>
   <i type="logical" name="LHARTREE"> T  </i>
   <i type="int" name="IBSE">     0</i>
   <v type="int" name="KPOINT">    -1     0     0     0</v>
   <i type="logical" name="LTCTE"> F  </i>
   <i type="logical" name="LTETE"> F  </i>
   <i type="logical" name="LTRIPLET"> F  </i>
   <i type="logical" name="LFXCEPS"> F  </i>
   <i type="logical" name="LFXHEG"> F  </i>
   <i type="int" name="NATURALO">     0</i>
   <i type="logical" name="L2ORDER"> F  </i>
   <i type="logical" name="LUSEW"> F  </i>
   <i name="ENCUTGW">     -2.00000000</i>
   <i name="ENCUTGWSOFT">     -2.00000000</i>
   <i name="ENCUTLF">     -1.00000000</i>
   <i type="int" name="LMAXMP2">    -1</i>
   <i name="SCISSOR">      0.00000000</i>
   <i type="int" name="NOMEGA">     0</i>
   <i type="int" name="NOMEGAR">     0</i>
   <i type="int" name="NBANDSGW">    -1</i>
   <i type="int" name="NBANDSO">    -1</i>
   <i type="int" name="NBANDSV">    -1</i>
   <i type="int" name="NELM">    70</i>
   <i type="int" name="NELMHF">     1</i>
   <i type="int" name="DIM">     3</i>
   <i type="int" name="ANTIRES">     0</i>
   <i name="OMEGAMAX">    -30.00000000</i>
   <i name="OMEGAMIN">    -30.00000000</i>
   <i name="OMEGATL">   -200.00000000</i>
   <i type="int" name="OMEGAGRID">     0</i>
   <i name="CSHIFT">     -0.10000000</i>
   <i type="logical" name="SELFENERGY"> F  </i>
   <i type="logical" name="LSPECTRAL"> F  </i>
   <i type="logical" name="LSPECTRALGW"> F  </i>
   <i type="logical" name="LSINGLES"> F  </i>
   <i type="logical" name="LFERMIGW"> F  </i>
   <i type="logical" name="ODDONLYGW"> F  </i>
   <i type="logical" name="EVENONLYGW"> F  </i>
   <i type="int" name="NKREDLFX">     1</i>
   <i type="int" name="NKREDLFY">     1</i>
   <i type="int" name="NKREDLFZ">     1</i>
   <i type="int" name="MAXMEM">  1800</i>
   <i type="int" name="TELESCOPE">     0</i>
   <i type="int" name="TAUPAR">     1</i>
   <i type="int" name="OMEGAPAR">    -1</i>
   <i name="LAMBDA">      1.00000000</i>
  </separator>
  <separator name="External order field" >
   <i name="OFIELD_KAPPA">      0.00000000</i>
   <v name="OFIELD_K">      0.00000000      0.00000000      0.00000000</v>
   <i name="OFIELD_Q6_NEAR">      0.00000000</i>
   <i name="OFIELD_Q6_FAR">      0.00000000</i>
   <i name="OFIELD_A">      0.00000000</i>
  </separator>
 </parameters>
 <atominfo>
  <atoms>      36 </atoms>
  <types>       4 </types>
  <array name="atoms" >
   <dimension dim="1">ion</dimension>
   <field type="string">element</field>
   <field type="int">atomtype</field>
   <set>
    <rc><c>Nb</c><c>   1</c></rc>
    <rc><c>Nb</c><c>   1</c></rc>
    <rc><c>Nb</c><c>   1</c></rc>
    <rc><c>Nb</c><c>   1</c></rc>
    <rc><c>Nb</c><c>   1</c></rc>
    <rc><c>Nb</c><c>   1</c></rc>
    <rc><c>Nb</c><c>   1</c></rc>
    <rc><c>Nb</c><c>   1</c></rc>
    <rc><c>Nb</c><c>   1</c></rc>
    <rc><c>Nb</c><c>   1</c></rc>
    <rc><c>Hf</c><c>   2</c></rc>
    <rc><c>Hf</c><c>   2</c></rc>
    <rc><c>Hf</c><c>   2</c></rc>
    <rc><c>Hf</c><c>   2</c></rc>
    <rc><c>Hf</c><c>   2</c></rc>
    <rc><c>Hf</c><c>   2</c></rc>
    <rc><c>Hf</c><c>   2</c></rc>
    <rc><c>Hf</c><c>   2</c></rc>
    <rc><c>Hf</c><c>   2</c></rc>
    <rc><c>Zr</c><c>   3</c></rc>
    <rc><c>Zr</c><c>   3</c></rc>
    <rc><c>Zr</c><c>   3</c></rc>
    <rc><c>Zr</c><c>   3</c></rc>
    <rc><c>Zr</c><c>   3</c></rc>
    <rc><c>Zr</c><c>   3</c></rc>
    <rc><c>Zr</c><c>   3</c></rc>
    <rc><c>Zr</c><c>   3</c></rc>
    <rc><c>Zr</c><c>   3</c></rc>
    <rc><c>Zr</c><c>   3</c></rc>
    <rc><c>Ta</c><c>   4</c></rc>
    <rc><c>Ta</c><c>   4</c></rc>
    <rc><c>Ta</c><c>   4</c></rc>
    <rc><c>Ta</c><c>   4</c></rc>
    <rc><c>Ta</c><c>   4</c></rc>
    <rc><c>Ta</c><c>   4</c></rc>
    <rc><c>Ta</c><c>   4</c></rc>
   </set>
  </array>
  <array name="atomtypes" >
   <dimension dim="1">type</dimension>
   <field type="int">atomspertype</field>
   <field type="string">element</field>
   <field>mass</field>
   <field>valence</field>
   <field type="string">pseudopotential</field>
   <set>
    <rc><c>  10</c><c>Nb</c><c>     92.91000000</c><c>     13.00000000</c><c>  PAW_PBE Nb_sv 25May2007               </c></rc>
    <rc><c>   9</c><c>Hf</c><c>    178.49000000</c><c>      4.00000000</c><c>  PAW_PBE Hf 20Jan2003                  </c></rc>
    <rc><c>  10</c><c>Zr</c><c>     91.22400000</c><c>     12.00000000</c><c>  PAW_PBE Zr_sv 04Jan2005               </c></rc>
    <rc><c>   7</c><c>Ta</c><c>    180.94800000</c><c>      5.00000000</c><c>  PAW_PBE Ta 17Jan2003                  </c></rc>
   </set>
  </array>
 </atominfo>
 <structure name="initialpos" >
  <crystal>
   <varray name="basis" >
    <v>       6.98073080      -0.00359657       0.04658583 </v>
    <v>      -0.00540234      10.24710113       0.01391240 </v>
    <v>       0.06834484       0.01286984      10.22284298 </v>
   </varray>
   <i name="volume">    731.22892521 </i>
   <varray name="rec_basis" >
    <v>       0.14325791       0.00007683      -0.00095785 </v>
    <v>       0.00005110       0.09758877      -0.00012320 </v>
    <v>      -0.00065290      -0.00013316       0.09782468 </v>
   </varray>
  </crystal>
  <varray name="positions" >
   <v>       0.99243900       0.98132700       0.32290800 </v>
   <v>       0.49735700       0.98658900       0.34406600 </v>
   <v>       0.74243300       0.83220700       0.18192800 </v>
   <v>       0.51418100       0.34610100       0.34515400 </v>
   <v>       0.26694200       0.50353800       0.83993300 </v>
   <v>       0.97609200       0.35445200       0.32181700 </v>
   <v>       0.01780700       0.34198200       0.67971200 </v>
   <v>       0.25052500       0.83318200       0.48771100 </v>
   <v>       0.48325200       0.33039000       0.99134700 </v>
   <v>       0.23431500       0.17139200       0.83028000 </v>
   <v>       0.22472600       0.16867100       0.48679300 </v>
   <v>       0.26581300       0.50598700       0.16795000 </v>
   <v>       0.00725200       0.33816900       0.99855300 </v>
   <v>       0.97609300       0.66279000       0.00627800 </v>
   <v>       0.26116800       0.82330300       0.16912100 </v>
   <v>       0.46768700       0.00563700       0.65918000 </v>
   <v>       0.75484300       0.83311400       0.50524500 </v>
   <v>       0.02791400       0.66530000       0.66341100 </v>
   <v>       0.27380200       0.81695200       0.84710600 </v>
   <v>       0.24872100       0.17233900       0.18438200 </v>
   <v>       0.99586600       0.99999400       0.00457600 </v>
   <v>       0.76657500       0.16271800       0.49967000 </v>
   <v>       0.76244600       0.16903800       0.82180700 </v>
   <v>       0.50086900       0.00977400       0.99964100 </v>
   <v>       0.73208800       0.17651200       0.17642800 </v>
   <v>       0.73972900       0.49619900       0.82525800 </v>
   <v>       0.48369600       0.32806200       0.66265500 </v>
   <v>       0.74437200       0.83391200       0.81675600 </v>
   <v>       0.24525500       0.49431600       0.48557000 </v>
   <v>       0.73286600       0.49783200       0.17366300 </v>
   <v>       0.53864000       0.66514300       0.01145000 </v>
   <v>       0.03564600       0.99117900       0.67163400 </v>
   <v>       0.51769700       0.66891800       0.33639400 </v>
   <v>       0.75134000       0.50742200       0.49679200 </v>
   <v>       0.98402400       0.66704800       0.33018200 </v>
   <v>       0.48552800       0.65852100       0.65464600 </v>
  </varray>
 </structure>
 <calculation>
  <scstep>
   <time name="dav">    1.09    1.14</time>
   <time name="total">    1.25    1.47</time>
   <energy>
    <i name="alphaZ">   1656.29882405 </i>
    <i name="ewald"> -22488.57696046 </i>
    <i name="hartreedc">  -8173.27713943 </i>
    <i name="XCdc">    123.28581340 </i>
    <i name="pawpsdc">  24815.49741299 </i>
    <i name="pawaedc"> -23389.33410035 </i>
    <i name="eentropy">      0.00244629 </i>
    <i name="bandstr">   -287.23627693 </i>
    <i name="atom">  29990.50946633 </i>
    <i name="e_fr_energy">   2247.16948587 </i>
    <i name="e_wo_entrp">   2247.16703958 </i>
    <i name="e_0_energy">   2247.16867044 </i>
   </energy>
  </scstep>
  <scstep>
   <time name="dav">    1.09    1.09</time>
   <time name="total">    1.13    1.21</time>
   <energy>
    <i name="e_fr_energy">    -43.25778439 </i>
    <i name="e_wo_entrp">    -43.26506287 </i>
    <i name="e_0_energy">    -43.26021055 </i>
   </energy>
  </scstep>
  <scstep>
   <time name="dav">    1.50    1.51</time>
   <time name="total">    1.50    1.52</time>
   <energy>
    <i name="e_fr_energy">   -332.50505489 </i>
    <i name="e_wo_entrp">   -332.50678827 </i>
    <i name="e_0_energy">   -332.50563268 </i>
   </energy>
  </scstep>
  <scstep>
   <time name="dav">    1.64    1.72</time>
   <time name="total">    1.65    1.74</time>
   <energy>
    <i name="e_fr_energy">   -367.46343568 </i>
    <i name="e_wo_entrp">   -367.47281482 </i>
    <i name="e_0_energy">   -367.46656206 </i>
   </energy>
  </scstep>
  <scstep>
   <time name="dav">    1.59    1.61</time>
   <time name="total">    1.62    1.68</time>
   <energy>
    <i name="e_fr_energy">   -371.04742523 </i>
    <i name="e_wo_entrp">   -371.05692174 </i>
    <i name="e_0_energy">   -371.05059073 </i>
   </energy>
  </scstep>
  <scstep>
   <time name="diag">    0.08    0.08</time>
   <time name="diis">    0.88    0.88</time>
   <time name="orth">    0.01    0.01</time>
   <time name="total">    1.05    1.08</time>
   <energy>
    <i name="e_fr_energy">   -360.57468351 </i>
    <i name="e_wo_entrp">   -360.58989710 </i>
    <i name="e_0_energy">   -360.57975471 </i>
   </energy>
  </scstep>
  <scstep>
   <time name="diag">    0.09    0.09</time>
   <time name="diis">    0.80    0.80</time>
   <time name="orth">    0.01    0.01</time>
   <time name="total">    1.00    1.02</time>
   <energy>
    <i name="e_fr_energy">   -360.62366055 </i>
    <i name="e_wo_entrp">   -360.62059966 </i>
    <i name="e_0_energy">   -360.62264026 </i>
   </energy>
  </scstep>
  <scstep>
   <time name="diag">    0.15    0.15</time>
   <time name="diis">    0.95    0.95</time>
   <time name="orth">    0.01    0.01</time>
   <time name="total">    1.21    1.23</time>
   <energy>
    <i name="e_fr_energy">   -356.74367799 </i>
    <i name="e_wo_entrp">   -356.76321850 </i>
    <i name="e_0_energy">   -356.75019150 </i>
   </energy>
  </scstep>
  <scstep>
   <time name="diag">    0.10    0.10</time>
   <time name="diis">    0.90    0.91</time>
   <time name="orth">    0.02    0.02</time>
   <time name="total">    1.09    1.11</time>
   <energy>
    <i name="e_fr_energy">   -356.62936768 </i>
    <i name="e_wo_entrp">   -356.65107621 </i>
    <i name="e_0_energy">   -356.63660385 </i>
   </energy>
  </scstep>
  <scstep>
   <time name="diag">    0.10    0.10</time>
   <time name="diis">    0.79    0.84</time>
   <time name="orth">    0.01    0.01</time>
   <time name="total">    1.01    1.07</time>
   <energy>
    <i name="e_fr_energy">   -356.54362600 </i>
    <i name="e_wo_entrp">   -356.56388404 </i>
    <i name="e_0_energy">   -356.55037868 </i>
   </energy>
  </scstep>
  <scstep>
   <time name="diag">    0.08    0.08</time>
   <time name="diis">    0.82    0.83</time>
   <time name="orth">    0.01    0.01</time>
   <time name="total">    0.99    1.01</time>
   <energy>
    <i name="e_fr_energy">   -356.52972129 </i>
    <i name="e_wo_entrp">   -356.54976782 </i>
    <i name="e_0_energy">   -356.53640347 </i>
   </energy>
  </scstep>
  <scstep>
   <time name="diag">    0.08    0.08</time>
   <time name="diis">    0.89    0.89</time>
   <time name="orth">    0.02    0.02</time>
   <time name="total">    1.06    1.09</time>
   <energy>
    <i name="e_fr_energy">   -356.52752179 </i>
    <i name="e_wo_entrp">   -356.54662742 </i>
    <i name="e_0_energy">   -356.53389033 </i>
   </energy>
  </scstep>
  <scstep>
   <time name="diag">    0.18    0.18</time>
   <time name="diis">    0.85    0.86</time>
   <time name="orth">    0.01    0.01</time>
   <time name="total">    1.24    1.29</time>
   <energy>
    <i name="e_fr_energy">   -356.52665470 </i>
    <i name="e_wo_entrp">   -356.54647850 </i>
    <i name="e_0_energy">   -356.53326263 </i>
   </energy>
  </scstep>
  <scstep>
   <time name="diag">    0.18    0.18</time>
   <time name="diis">    0.88    0.89</time>
   <time name="orth">    0.02    0.02</time>
   <time name="total">    1.15    1.17</time>
   <energy>
    <i name="e_fr_energy">   -356.52719264 </i>
    <i name="e_wo_entrp">   -356.54693236 </i>
    <i name="e_0_energy">   -356.53377255 </i>
   </energy>
  </scstep>
  <scstep>
   <time name="diag">    0.15    0.15</time>
   <time name="diis">    0.90    0.90</time>
   <time name="orth">    0.02    0.02</time>
   <time name="total">    1.13    1.16</time>
   <energy>
    <i name="e_fr_energy">   -356.52726275 </i>
    <i name="e_wo_entrp">   -356.54708243 </i>
    <i name="e_0_energy">   -356.53386931 </i>
   </energy>
  </scstep>
  <scstep>
   <time name="diag">    0.09    0.09</time>
   <time name="diis">    0.71    0.73</time>
   <time name="orth">    0.02    0.02</time>
   <time name="total">    0.91    0.97</time>
   <energy>
    <i name="e_fr_energy">   -356.52734634 </i>
    <i name="e_wo_entrp">   -356.54712808 </i>
    <i name="e_0_energy">   -356.53394025 </i>
   </energy>
  </scstep>
  <scstep>
   <time name="diag">    0.13    0.13</time>
   <time name="diis">    0.67    0.68</time>
   <time name="orth">    0.02    0.02</time>
   <time name="total">    0.90    0.93</time>
   <energy>
    <i name="e_fr_energy">   -356.52738141 </i>
    <i name="e_wo_entrp">   -356.54714752 </i>
    <i name="e_0_energy">   -356.53397011 </i>
   </energy>
  </scstep>
  <scstep>
   <time name="diag">    0.11    0.12</time>
   <time name="diis">    0.66    0.66</time>
   <time name="orth">    0.01    0.01</time>
   <time name="total">    0.87    0.90</time>
   <energy>
    <i name="e_fr_energy">   -356.52740532 </i>
    <i name="e_wo_entrp">   -356.54716802 </i>
    <i name="e_0_energy">   -356.53399289 </i>
   </energy>
  </scstep>
  <scstep>
   <time name="diag">    0.09    0.09</time>
   <time name="diis">    0.54    0.54</time>
   <time name="orth">    0.01    0.01</time>
   <time name="total">    0.71    0.74</time>
   <energy>
    <i name="e_fr_energy">   -356.52741295 </i>
    <i name="e_wo_entrp">   -356.54718146 </i>
    <i name="e_0_energy">   -356.53400245 </i>
   </energy>
  </scstep>
  <scstep>
   <time name="diag">    0.09    0.09</time>
   <time name="diis">    0.50    0.50</time>
   <time name="orth">    0.01    0.01</time>
   <time name="total">    0.63    0.65</time>
   <energy>
    <i name="alphaZ">   1656.29882405 </i>
    <i name="ewald"> -22488.57696046 </i>
    <i name="hartreedc">  -7897.99714897 </i>
    <i name="XCdc">    118.53686234 </i>
    <i name="pawpsdc">  37453.21153497 </i>
    <i name="pawaedc"> -35998.68809355 </i>
    <i name="eentropy">      0.01977124 </i>
    <i name="bandstr">  -3189.84167263 </i>
    <i name="atom">  29990.50946633 </i>
    <i name="e_fr_energy">   -356.52741670 </i>
    <i name="e_wo_entrp">   -356.54718794 </i>
    <i name="e_0_energy">   -356.53400711 </i>
   </energy>
  </scstep>
  <structure>
   <crystal>
    <varray name="basis" >
     <v>       6.98073080      -0.00359657       0.04658583 </v>
     <v>      -0.00540234      10.24710113       0.01391240 </v>
     <v>       0.06834484       0.01286984      10.22284298 </v>
    </varray>
    <i name="volume">    731.22892521 </i>
    <varray name="rec_basis" >
     <v>       0.14325791       0.00007683      -0.00095785 </v>
     <v>       0.00005110       0.09758877      -0.00012320 </v>
     <v>      -0.00065290      -0.00013316       0.09782468 </v>
    </varray>
   </crystal>
   <varray name="positions" >
    <v>       0.99243900       0.98132700       0.32290800 </v>
    <v>       0.49735700       0.98658900       0.34406600 </v>
    <v>       0.74243300       0.83220700       0.18192800 </v>
    <v>       0.51418100       0.34610100       0.34515400 </v>
    <v>       0.26694200       0.50353800       0.83993300 </v>
    <v>       0.97609200       0.35445200       0.32181700 </v>
    <v>       0.01780700       0.34198200       0.67971200 </v>
    <v>       0.25052500       0.83318200       0.48771100 </v>
    <v>       0.48325200       0.33039000       0.99134700 </v>
    <v>       0.23431500       0.17139200       0.83028000 </v>
    <v>       0.22472600       0.16867100       0.48679300 </v>
    <v>       0.26581300       0.50598700       0.16795000 </v>
    <v>       0.00725200       0.33816900       0.99855300 </v>
    <v>       0.97609300       0.66279000       0.00627800 </v>
    <v>       0.26116800       0.82330300       0.16912100 </v>
    <v>       0.46768700       0.00563700       0.65918000 </v>
    <v>       0.75484300       0.83311400       0.50524500 </v>
    <v>       0.02791400       0.66530000       0.66341100 </v>
    <v>       0.27380200       0.81695200       0.84710600 </v>
    <v>       0.24872100       0.17233900       0.18438200 </v>
    <v>       0.99586600       0.99999400       0.00457600 </v>
    <v>       0.76657500       0.16271800       0.49967000 </v>
    <v>       0.76244600       0.16903800       0.82180700 </v>
    <v>       0.50086900       0.00977400       0.99964100 </v>
    <v>       0.73208800       0.17651200       0.17642800 </v>
    <v>       0.73972900       0.49619900       0.82525800 </v>
    <v>       0.48369600       0.32806200       0.66265500 </v>
    <v>       0.74437200       0.83391200       0.81675600 </v>
    <v>       0.24525500       0.49431600       0.48557000 </v>
    <v>       0.73286600       0.49783200       0.17366300 </v>
    <v>       0.53864000       0.66514300       0.01145000 </v>
    <v>       0.03564600       0.99117900       0.67163400 </v>
    <v>       0.51769700       0.66891800       0.33639400 </v>
    <v>       0.75134000       0.50742200       0.49679200 </v>
    <v>       0.98402400       0.66704800       0.33018200 </v>
    <v>       0.48552800       0.65852100       0.65464600 </v>
   </varray>
  </structure>
  <varray name="forces" >
   <v>       0.00147761       0.00233218      -0.00316911 </v>
   <v>       0.00999276       0.01827450      -0.01918108 </v>
   <v>       0.00542987      -0.00835276      -0.00169772 </v>
   <v>       0.00417801      -0.01940492      -0.02350228 </v>
   <v>      -0.00666616       0.01951742      -0.01175682 </v>
   <v>      -0.00360994      -0.00194537      -0.00270483 </v>
   <v>      -0.00687378      -0.03512201       0.00582149 </v>
   <v>       0.01621950      -0.01680435       0.02793444 </v>
   <v>      -0.00162312      -0.01753989       0.01449328 </v>
   <v>      -0.00232768       0.00010345      -0.00776763 </v>
   <v>       0.00409211      -0.00000170       0.01158968 </v>
   <v>       0.00177673       0.00578012       0.00012788 </v>
   <v>       0.00893856      -0.01183616      -0.00214677 </v>
   <v>      -0.00559052       0.00283421       0.02653577 </v>
   <v>       0.00296570      -0.00342561      -0.00381681 </v>
   <v>      -0.00386779      -0.06614466      -0.00063027 </v>
   <v>       0.00697419       0.01660871      -0.00776675 </v>
   <v>       0.10316562      -0.00611037       0.00037098 </v>
   <v>       0.00061046      -0.00986868       0.01630060 </v>
   <v>       0.00485726       0.00102603       0.00185227 </v>
   <v>      -0.00093842       0.00952284       0.00249269 </v>
   <v>      -0.00261004      -0.00142500       0.01761671 </v>
   <v>      -0.00746613       0.00019160      -0.00679703 </v>
   <v>      -0.00240000       0.02084311       0.00560249 </v>
   <v>      -0.01135688       0.00578051      -0.00467080 </v>
   <v>       0.02036562      -0.03089386       0.01647098 </v>
   <v>       0.00899856       0.10320684       0.00045145 </v>
   <v>       0.00144175       0.02405862      -0.00047693 </v>
   <v>      -0.03170686      -0.02441823      -0.01104132 </v>
   <v>       0.00146654       0.00999040      -0.00197061 </v>
   <v>       0.00648236      -0.00891451      -0.04570043 </v>
   <v>      -0.01073779       0.02427685      -0.00314479 </v>
   <v>      -0.00960424      -0.00459876       0.12884331 </v>
   <v>      -0.00952623       0.00187825       0.01379782 </v>
   <v>       0.00256615       0.00906033      -0.02012962 </v>
   <v>      -0.09509380      -0.00847913      -0.11223023 </v>
  </varray>
  <varray name="stress" >
   <v>       0.44920610       0.08747615      -0.05574887 </v>
   <v>       0.08747615       0.39013270      -0.01927126 </v>
   <v>      -0.05574886      -0.01927129      -0.06073249 </v>
  </varray>
  <energy>
   <i name="e_fr_energy">   -356.52741670 </i>
   <i name="e_wo_entrp">   -356.53400711 </i>
   <i name="e_0_energy">      0.01977124 </i>
  </energy>
  <time name="totalsc">   23.74   24.73</time>
 </calculation>
 <calculation>
  <scstep>
   <time name="dav">    1.06    1.07</time>
   <time name="total">    1.21    1.29</time>
   <energy>
    <i name="alphaZ">   1656.06223269 </i>
    <i name="ewald"> -22487.08391559 </i>
    <i name="hartreedc">  -7898.04733142 </i>
    <i name="XCdc">    118.48785691 </i>
    <i name="pawpsdc">  37453.28338301 </i>
    <i name="pawaedc"> -35998.75746313 </i>
    <i name="eentropy">      0.01979936 </i>
    <i name="bandstr">  -3191.00254242 </i>
    <i name="atom">  29990.50946633 </i>
    <i name="e_fr_energy">   -356.52851427 </i>
    <i name="e_wo_entrp">   -356.54831364 </i>
    <i name="e_0_energy">   -356.53511406 </i>
   </energy>
  </scstep>
  <scstep>
   <time name="diag">    0.10    0.10</time>
   <time name="diis">    0.87    0.88</time>
   <time name="orth">    0.01    0.01</time>
   <time name="total">    1.19    1.21</time>
   <energy>
    <i name="e_fr_energy">   -356.52861549 </i>
    <i name="e_wo_entrp">   -356.54842733 </i>
    <i name="e_0_energy">   -356.53521943 </i>
   </energy>
  </scstep>
  <scstep>
   <time name="diag">    0.09    0.09</time>
   <time name="diis">    0.83    0.83</time>
   <time name="orth">    0.01    0.01</time>
   <time name="total">    0.99    1.01</time>
   <energy>
    <i name="e_fr_energy">   -356.52859038 </i>
    <i name="e_wo_entrp">   -356.54843161 </i>
    <i name="e_0_energy">   -356.53520413 </i>
   </energy>
  </scstep>
  <scstep>
   <time name="diag">    0.08    0.08</time>
   <time name="diis">    0.58    0.59</time>
   <time name="orth">    0.01    0.01</time>
   <time name="total">    0.72    0.74</time>
   <energy>
    <i name="alphaZ">   1656.06223269 </i>
    <i name="ewald"> -22487.08391559 </i>
    <i name="hartreedc">  -7898.72156872 </i>
    <i name="XCdc">    118.51759693 </i>
    <i name="pawpsdc">  37446.99187535 </i>
    <i name="pawaedc"> -35992.45084705 </i>
    <i name="eentropy">      0.01982660 </i>
    <i name="bandstr">  -3190.37324791 </i>
    <i name="atom">  29990.50946633 </i>
    <i name="e_fr_energy">   -356.52858138 </i>
    <i name="e_wo_entrp">   -356.54840798 </i>
    <i name="e_0_energy">   -356.53519024 </i>
   </energy>
  </scstep>
  <structure>
   <crystal>
    <varray name="basis" >
     <v>       6.98130563      -0.00348495       0.04651392 </v>
     <v>      -0.00523846      10.24783451       0.01387606 </v>
     <v>       0.06824611       0.01283571      10.22272832 </v>
    </varray>
    <i name="volume">    731.33339136 </i>
    <varray name="rec_basis" >
     <v>       0.14324609       0.00007452      -0.00095639 </v>
     <v>       0.00004953       0.09758178      -0.00012285 </v>
     <v>      -0.00065184      -0.00013279       0.09782576 </v>
    </varray>
   </crystal>
   <varray name="positions" >
    <v>       0.99244211       0.98133030       0.32290349 </v>
    <v>       0.49737800       0.98661485       0.34403871 </v>
    <v>       0.74244427       0.83219521       0.18192556 </v>
    <v>       0.51418997       0.34607364       0.34512072 </v>
    <v>       0.26692836       0.50356558       0.83991638 </v>
    <v>       0.97608455       0.35444925       0.32181321 </v>
    <v>       0.01779263       0.34193238       0.67972037 </v>
    <v>       0.25055822       0.83315823       0.48775043 </v>
    <v>       0.48324841       0.33036520       0.99136757 </v>
    <v>       0.23431028       0.17139216       0.83026902 </v>
    <v>       0.22473432       0.16867098       0.48680937 </v>
    <v>       0.26581669       0.50599516       0.16795015 </v>
    <v>       0.00727055       0.33815229       0.99854990 </v>
    <v>       0.97608104       0.66279395       0.00631562 </v>
    <v>       0.26117420       0.82329817       0.16911557 </v>
    <v>       0.46767892       0.00554358       0.65917927 </v>
    <v>       0.75485759       0.83313748       0.50523391 </v>
    <v>       0.02812789       0.66529145       0.66341056 </v>
    <v>       0.27380303       0.81693803       0.84712909 </v>
    <v>       0.24873105       0.17234045       0.18438457 </v>
    <v>       0.99586403       0.00000744       0.00457952 </v>
    <v>       0.76656934       0.16271595       0.49969497 </v>
    <v>       0.76243061       0.16903828       0.82179745 </v>
    <v>       0.50086397       0.00980343       0.99964891 </v>
    <v>       0.73206452       0.17652016       0.17642148 </v>
    <v>       0.73977096       0.49615535       0.82528119 </v>
    <v>       0.48371477       0.32820777       0.66265536 </v>
    <v>       0.74437502       0.83394598       0.81675526 </v>
    <v>       0.24518939       0.49428151       0.48555471 </v>
    <v>       0.73286908       0.49784611       0.17366018 </v>
    <v>       0.53865406       0.66513050       0.01138525 </v>
    <v>       0.03562381       0.99121329       0.67162960 </v>
    <v>       0.51767530       0.66891127       0.33657652 </v>
    <v>       0.75132006       0.50742462       0.49681162 </v>
    <v>       0.98402961       0.66706083       0.33015346 </v>
    <v>       0.48533238       0.65850915       0.65448802 </v>
   </varray>
  </structure>
  <varray name="forces" >
   <v>       0.00094503       0.00194954      -0.00385740 </v>
   <v>       0.00960887       0.01605418      -0.01641478 </v>
   <v>       0.00336437      -0.00852232       0.00037651 </v>
   <v>       0.00389961      -0.01806007      -0.02134562 </v>
   <v>      -0.00752872       0.01537946      -0.00974243 </v>
   <v>      -0.00513670      -0.00152762      -0.00342387 </v>
   <v>      -0.00622778      -0.03362239       0.00617191 </v>
   <v>       0.01367611      -0.01315755       0.02243598 </v>
   <v>      -0.00110111      -0.01545351       0.01220324 </v>
   <v>      -0.00152150      -0.00037790      -0.00870171 </v>
   <v>       0.00557937       0.00013942       0.01179897 </v>
   <v>       0.00385866       0.00597835       0.00036160 </v>
   <v>       0.00914832      -0.01037508      -0.00229983 </v>
   <v>      -0.00617350       0.00319511       0.02462103 </v>
   <v>       0.00493617      -0.00335710      -0.00245165 </v>
   <v>      -0.00620732      -0.05889739      -0.00040165 </v>
   <v>       0.00871407       0.01443568      -0.00616539 </v>
   <v>       0.09322637      -0.00463612       0.00193591 </v>
   <v>      -0.00018618      -0.00895123       0.01591982 </v>
   <v>       0.00505310       0.00068657       0.00285647 </v>
   <v>      -0.00055719       0.00858521       0.00249890 </v>
   <v>      -0.00283820      -0.00161890       0.01627529 </v>
   <v>      -0.00761538      -0.00027455      -0.00590389 </v>
   <v>      -0.00298486       0.01943864       0.00467863 </v>
   <v>      -0.01030894       0.00640165      -0.00453214 </v>
   <v>       0.01982035      -0.02612247       0.01337242 </v>
   <v>       0.00724958       0.09449594       0.00088522 </v>
   <v>       0.00347568       0.01986368      -0.00127273 </v>
   <v>      -0.03154774      -0.02507943      -0.01307440 </v>
   <v>      -0.00156795       0.01021410      -0.00096141 </v>
   <v>       0.00734454      -0.00934749      -0.04141678 </v>
   <v>      -0.00778117       0.02317847      -0.00181828 </v>
   <v>      -0.00993359      -0.00346182       0.11668177 </v>
   <v>      -0.00529458       0.00151237       0.01241586 </v>
   <v>       0.00161825       0.00787468      -0.01910723 </v>
   <v>      -0.08700600      -0.00654009      -0.10259834 </v>
  </varray>
  <varray name="stress" >
   <v>       0.46314371       0.11919083      -0.06615877 </v>
   <v>       0.11919082       0.38151503      -0.01259712 </v>
   <v>      -0.06615878      -0.01259715      -0.15908187 </v>
  </varray>
  <energy>
   <i name="e_fr_energy">   -356.52858138 </i>
   <i name="e_wo_entrp">   -356.53519024 </i>
   <i name="e_0_energy">      0.01982660 </i>
  </energy>
  <time name="totalsc">    5.83    6.05</time>
 </calculation>
 <calculation>
  <scstep>
   <time name="dav">    1.02    1.02</time>
   <time name="total">    1.16    1.24</time>
   <energy>
    <i name="alphaZ">   1655.35278837 </i>
    <i name="ewald"> -22482.59056199 </i>
    <i name="hartreedc">  -7898.92756652 </i>
    <i name="XCdc">    118.37417695 </i>
    <i name="pawpsdc">  37446.38014135 </i>
    <i name="pawaedc"> -35991.83068712 </i>
    <i name="eentropy">      0.01986817 </i>
    <i name="bandstr">  -3193.81855730 </i>
    <i name="atom">  29990.50946633 </i>
    <i name="e_fr_energy">   -356.53093176 </i>
    <i name="e_wo_entrp">   -356.55079993 </i>
    <i name="e_0_energy">   -356.53755448 </i>
   </energy>
  </scstep>
  <scstep>
   <time name="diag">    0.09    0.09</time>
   <time name="diis">    0.80    0.81</time>
   <time name="orth">    0.01    0.02</time>
   <time name="total">    0.97    0.99</time>
   <energy>
    <i name="e_fr_energy">   -356.53170214 </i>
    <i name="e_wo_entrp">   -356.55162874 </i>
    <i name="e_0_energy">   -356.53834434 </i>
   </energy>
  </scstep>
  <scstep>
   <time name="diag">    0.12    0.12</time>
   <time name="diis">    0.81    0.82</time>
   <time name="orth">    0.01    0.01</time>
   <time name="total">    1.01    1.04</time>
   <energy>
    <i name="e_fr_energy">   -356.53146849 </i>
    <i name="e_wo_entrp">   -356.55147069 </i>
    <i name="e_0_energy">   -356.53813589 </i>
   </energy>
  </scstep>
  <scstep>
   <time name="diag">    0.08    0.08</time>
   <time name="diis">    0.80    0.80</time>
   <time name="orth">    0.02    0.02</time>
   <time name="total">    0.97    0.99</time>
   <energy>
    <i name="e_fr_energy">   -356.53138185 </i>
    <i name="e_wo_entrp">   -356.55134457 </i>
    <i name="e_0_energy">   -356.53803609 </i>
   </energy>
  </scstep>
  <scstep>
   <time name="diag">    0.08    0.09</time>
   <time name="diis">    0.78    0.78</time>
   <time name="orth">    0.01    0.01</time>
   <time name="total">    0.94    0.97</time>
   <energy>
    <i name="e_fr_energy">   -356.53136276 </i>
    <i name="e_wo_entrp">   -356.55134029 </i>
    <i name="e_0_energy">   -356.53802194 </i>
   </energy>
  </scstep>
  <scstep>
   <time name="diag">    0.09    0.09</time>
   <time name="diis">    0.68    0.68</time>
   <time name="orth">    0.02    0.02</time>
   <time name="total">    0.82    0.84</time>
   <energy>
    <i name="alphaZ">   1655.35278837 </i>
    <i name="ewald"> -22482.59056199 </i>
    <i name="hartreedc">  -7901.15421294 </i>
    <i name="XCdc">    118.47370304 </i>
    <i name="pawpsdc">  37427.01324526 </i>
    <i name="pawaedc"> -35972.41963682 </i>
    <i name="eentropy">      0.01999990 </i>
    <i name="bandstr">  -3191.73614900 </i>
    <i name="atom">  29990.50946633 </i>
    <i name="e_fr_energy">   -356.53135785 </i>
    <i name="e_wo_entrp">   -356.55135775 </i>
    <i name="e_0_energy">   -356.53802448 </i>
   </energy>
  </scstep>
  <structure>
   <crystal>
    <varray name="basis" >
     <v>       6.98303010      -0.00315009       0.04629818 </v>
     <v>      -0.00474682      10.25003463       0.01376707 </v>
     <v>       0.06794992       0.01273332      10.22238434 </v>
    </varray>
    <i name="volume">    731.64682323 </i>
    <varray name="rec_basis" >
     <v>       0.14321065       0.00006760      -0.00095203 </v>
     <v>       0.00004482       0.09756083      -0.00012182 </v>
     <v>      -0.00064868      -0.00013170       0.09782901 </v>
    </varray>
   </crystal>
   <varray name="positions" >
    <v>       0.99245144       0.98134020       0.32288998 </v>
    <v>       0.49744101       0.98669240       0.34395686 </v>
    <v>       0.74247809       0.83215984       0.18191824 </v>
    <v>       0.51421686       0.34599156       0.34502089 </v>
    <v>       0.26688745       0.50364832       0.83986652 </v>
    <v>       0.97606220       0.35444102       0.32180183 </v>
    <v>       0.01774952       0.34178353       0.67974550 </v>
    <v>       0.25065789       0.83308692       0.48786872 </v>
    <v>       0.48323766       0.33029081       0.99142928 </v>
    <v>       0.23429613       0.17139263       0.83023610 </v>
    <v>       0.22475929       0.16867092       0.48685848 </v>
    <v>       0.26582775       0.50601966       0.16795061 </v>
    <v>       0.00732619       0.33810218       0.99854060 </v>
    <v>       0.97604518       0.66280581       0.00642847 </v>
    <v>       0.26119279       0.82328368       0.16909930 </v>
    <v>       0.46765467       0.00526333       0.65917709 </v>
    <v>       0.75490134       0.83320790       0.50520062 </v>
    <v>       0.02876949       0.66526578       0.66340925 </v>
    <v>       0.27380612       0.81689614       0.84719837 </v>
    <v>       0.24876118       0.17234480       0.18439230 </v>
    <v>       0.99585812       0.00004778       0.00459008 </v>
    <v>       0.76655237       0.16270982       0.49976988 </v>
    <v>       0.76238446       0.16903911       0.82176879 </v>
    <v>       0.50084888       0.00989170       0.99967266 </v>
    <v>       0.73199410       0.17654466       0.17640193 </v>
    <v>       0.73989684       0.49602442       0.82535075 </v>
    <v>       0.48377105       0.32864506       0.66265642 </v>
    <v>       0.74438409       0.83404792       0.81675306 </v>
    <v>       0.24499256       0.49417804       0.48550886 </v>
    <v>       0.73287831       0.49788846       0.17365171 </v>
    <v>       0.53869625       0.66509298       0.01119101 </v>
    <v>       0.03555723       0.99131614       0.67161641 </v>
    <v>       0.51761020       0.66889108       0.33712407 </v>
    <v>       0.75126024       0.50743248       0.49687049 </v>
    <v>       0.98404644       0.66709933       0.33006783 </v>
    <v>       0.48474558       0.65847362       0.65401407 </v>
   </varray>
  </structure>
  <varray name="forces" >
   <v>       0.00032250       0.00054112      -0.00511074 </v>
   <v>       0.00989781       0.01095279      -0.01113467 </v>
   <v>      -0.00435921      -0.01050605       0.00706577 </v>
   <v>       0.00412823      -0.01380811      -0.01850910 </v>
   <v>      -0.00969600       0.00533711      -0.00339440 </v>
   <v>      -0.00979096      -0.00072375      -0.00521722 </v>
   <v>      -0.00510779      -0.03475565       0.00909836 </v>
   <v>       0.00817001      -0.00349191       0.00551685 </v>
   <v>      -0.00139059      -0.01227713       0.00547531 </v>
   <v>       0.00410906       0.00115551      -0.01273729 </v>
   <v>       0.01167253       0.00061734       0.01282570 </v>
   <v>       0.00932964       0.00555025       0.00157457 </v>
   <v>       0.00973613      -0.00675303      -0.00209247 </v>
   <v>      -0.00954454       0.00266265       0.01988669 </v>
   <v>       0.01107686      -0.00338606       0.00294462 </v>
   <v>      -0.01230108      -0.03462939       0.00034003 </v>
   <v>       0.01327100       0.00907782      -0.00332791 </v>
   <v>       0.06188578      -0.00026557       0.00811460 </v>
   <v>      -0.00173405      -0.00591470       0.01578877 </v>
   <v>       0.00366024       0.00023197       0.00581324 </v>
   <v>       0.00048283       0.00755546       0.00189583 </v>
   <v>      -0.00566723      -0.00073502       0.01196797 </v>
   <v>      -0.00967442       0.00024054      -0.00384439 </v>
   <v>      -0.00453079       0.01656435       0.00158913 </v>
   <v>      -0.00546053       0.00863394      -0.00240043 </v>
   <v>       0.01778376      -0.01139318       0.00535740 </v>
   <v>       0.00295128       0.07063368       0.00395045 </v>
   <v>       0.00921572       0.00500655      -0.00389816 </v>
   <v>      -0.03213585      -0.02994255      -0.02129699 </v>
   <v>      -0.00983011       0.01002817       0.00249928 </v>
   <v>       0.01211933      -0.01172508      -0.03005877 </v>
   <v>      -0.00038337       0.02296330       0.00283091 </v>
   <v>      -0.00840315      -0.00080411       0.08431974 </v>
   <v>       0.00467149      -0.00021117       0.00768673 </v>
   <v>      -0.00327511       0.00432975      -0.01714410 </v>
   <v>      -0.06119943      -0.00075984      -0.07637530 </v>
  </varray>
  <varray name="stress" >
   <v>      -0.34066225       0.08256588      -0.00302868 </v>
   <v>       0.08256589      -0.31347936       0.02853030 </v>
   <v>      -0.00302863       0.02853033      -0.72978568 </v>
  </varray>
  <energy>
   <i name="e_fr_energy">   -356.53135785 </i>
   <i name="e_wo_entrp">   -356.53802448 </i>
   <i name="e_0_energy">      0.01999990 </i>
  </energy>
  <time name="totalsc">    7.64    7.89</time>
 </calculation>
 <calculation>
  <scstep>
   <time name="dav">    1.12    1.13</time>
   <time name="total">    1.25    1.34</time>
   <energy>
    <i name="alphaZ">   1653.93538209 </i>
    <i name="ewald"> -22473.54019369 </i>
    <i name="hartreedc">  -7901.43481932 </i>
    <i name="XCdc">    118.17920389 </i>
    <i name="pawpsdc">  37427.65619623 </i>
    <i name="pawaedc"> -35973.07850629 </i>
    <i name="eentropy">      0.01996952 </i>
    <i name="bandstr">  -3198.77889949 </i>
    <i name="atom">  29990.50946633 </i>
    <i name="e_fr_energy">   -356.53220073 </i>
    <i name="e_wo_entrp">   -356.55217025 </i>
    <i name="e_0_energy">   -356.53885724 </i>
   </energy>
  </scstep>
  <scstep>
   <time name="diag">    0.09    0.09</time>
   <time name="diis">    0.87    0.87</time>
   <time name="orth">    0.01    0.01</time>
   <time name="total">    1.04    1.06</time>
   <energy>
    <i name="e_fr_energy">   -356.53525242 </i>
    <i name="e_wo_entrp">   -356.55534744 </i>
    <i name="e_0_energy">   -356.54195076 </i>
   </energy>
  </scstep>
  <scstep>
   <time name="diag">    0.20    0.20</time>
   <time name="diis">    0.90    0.92</time>
   <time name="orth">    0.01    0.01</time>
   <time name="total">    1.19    1.22</time>
   <energy>
    <i name="e_fr_energy">   -356.53430024 </i>
    <i name="e_wo_entrp">   -356.55454201 </i>
    <i name="e_0_energy">   -356.54104750 </i>
   </energy>
  </scstep>
  <scstep>
   <time name="diag">    0.09    0.09</time>
   <time name="diis">    0.88    0.90</time>
   <time name="orth">    0.01    0.01</time>
   <time name="total">    1.06    1.10</time>
   <energy>
    <i name="e_fr_energy">   -356.53397916 </i>
    <i name="e_wo_entrp">   -356.55414808 </i>
    <i name="e_0_energy">   -356.54070213 </i>
   </energy>
  </scstep>
  <scstep>
   <time name="diag">    0.09    0.09</time>
   <time name="diis">    0.83    0.84</time>
   <time name="orth">    0.01    0.01</time>
   <time name="total">    1.00    1.02</time>
   <energy>
    <i name="e_fr_energy">   -356.53391015 </i>
    <i name="e_wo_entrp">   -356.55410421 </i>
    <i name="e_0_energy">   -356.54064151 </i>
   </energy>
  </scstep>
  <scstep>
   <time name="diag">    0.08    0.08</time>
   <time name="diis">    0.81    0.81</time>
   <time name="orth">    0.01    0.01</time>
   <time name="total">    0.98    1.00</time>
   <energy>
    <i name="e_fr_energy">   -356.53390208 </i>
    <i name="e_wo_entrp">   -356.55414036 </i>
    <i name="e_0_energy">   -356.54064817 </i>
   </energy>
  </scstep>
  <scstep>
   <time name="diag">    0.09    0.09</time>
   <time name="diis">    0.61    0.62</time>
   <time name="orth">    0.01    0.01</time>
   <time name="total">    0.80    0.84</time>
   <energy>
    <i name="e_fr_energy">   -356.53389835 </i>
    <i name="e_wo_entrp">   -356.55410105 </i>
    <i name="e_0_energy">   -356.54063259 </i>
   </energy>
  </scstep>
  <scstep>
   <time name="diag">    0.08    0.08</time>
   <time name="diis">    0.64    0.64</time>
   <time name="orth">    0.01    0.01</time>
   <time name="total">    0.77    0.79</time>
   <energy>
    <i name="alphaZ">   1653.93538209 </i>
    <i name="ewald"> -22473.54019369 </i>
    <i name="hartreedc">  -7905.70585498 </i>
    <i name="XCdc">    118.36949307 </i>
    <i name="pawpsdc">  37390.81891513 </i>
    <i name="pawaedc"> -35936.29204658 </i>
    <i name="eentropy">      0.02021619 </i>
    <i name="bandstr">  -3194.64927510 </i>
    <i name="atom">  29990.50946633 </i>
    <i name="e_fr_energy">   -356.53389754 </i>
    <i name="e_wo_entrp">   -356.55411373 </i>
    <i name="e_0_energy">   -356.54063627 </i>
   </energy>
  </scstep>
  <structure>
   <crystal>
    <varray name="basis" >
     <v>       6.98647906      -0.00248037       0.04586671 </v>
     <v>      -0.00376353      10.25443488       0.01354907 </v>
     <v>       0.06735755       0.01252855      10.22169637 </v>
    </varray>
    <i name="volume">    732.27383733 </i>
    <varray name="rec_basis" >
     <v>       0.14313983       0.00005378      -0.00094331 </v>
     <v>       0.00003541       0.09751895      -0.00011976 </v>
     <v>      -0.00064234      -0.00012950       0.09783551 </v>
    </varray>
   </crystal>
   <varray name="positions" >
    <v>       0.99247009       0.98136000       0.32286295 </v>
    <v>       0.49756697       0.98684746       0.34379314 </v>
    <v>       0.74254570       0.83208912       0.18190361 </v>
    <v>       0.51427065       0.34582743       0.34482122 </v>
    <v>       0.26680564       0.50381377       0.83976680 </v>
    <v>       0.97601752       0.35442455       0.32177908 </v>
    <v>       0.01766335       0.34148589       0.67979574 </v>
    <v>       0.25085718       0.83294432       0.48810530 </v>
    <v>       0.48321617       0.33014205       0.99155269 </v>
    <v>       0.23426782       0.17139358       0.83017024 </v>
    <v>       0.22480922       0.16867080       0.48695671 </v>
    <v>       0.26584987       0.50606863       0.16795153 </v>
    <v>       0.00743746       0.33800196       0.99852199 </v>
    <v>       0.97597348       0.66282951       0.00665418 </v>
    <v>       0.26122997       0.82325471       0.16906675 </v>
    <v>       0.46760624       0.00470295       0.65917271 </v>
    <v>       0.75498881       0.83334872       0.50513406 </v>
    <v>       0.03005239       0.66521441       0.66340666 </v>
    <v>       0.27381230       0.81681236       0.84733692 </v>
    <v>       0.24882144       0.17235349       0.18440775 </v>
    <v>       0.99584630       0.00012842       0.00461120 </v>
    <v>       0.76651845       0.16269755       0.49991970 </v>
    <v>       0.76229218       0.16904078       0.82171146 </v>
    <v>       0.50081869       0.01006821       0.99972015 </v>
    <v>       0.73185329       0.17659363       0.17636283 </v>
    <v>       0.74014857       0.49576259       0.82548988 </v>
    <v>       0.48388352       0.32951945       0.66265857 </v>
    <v>       0.74440220       0.83425175       0.81674865 </v>
    <v>       0.24459903       0.49397117       0.48541712 </v>
    <v>       0.73289677       0.49797312       0.17363477 </v>
    <v>       0.53878059       0.66501797       0.01080252 </v>
    <v>       0.03542410       0.99152180       0.67159002 </v>
    <v>       0.51748008       0.66885072       0.33821921 </v>
    <v>       0.75114065       0.50744821       0.49698822 </v>
    <v>       0.98408006       0.66717632       0.32989658 </v>
    <v>       0.48357223       0.65840261       0.65306611 </v>
   </varray>
  </structure>
  <varray name="forces" >
   <v>      -0.00063436      -0.00373960      -0.00886024 </v>
   <v>       0.00832684      -0.00270476       0.00143976 </v>
   <v>      -0.01894751      -0.01410670       0.01879239 </v>
   <v>       0.00247591      -0.00425027      -0.01183873 </v>
   <v>      -0.01181837      -0.01519490       0.01177129 </v>
   <v>      -0.01715430       0.00067270      -0.00862355 </v>
   <v>       0.00097232      -0.03222451       0.01397095 </v>
   <v>      -0.00604611       0.01785557      -0.02914503 </v>
   <v>      -0.00195066      -0.00416005      -0.00819820 </v>
   <v>       0.01532529       0.00148266      -0.02018375 </v>
   <v>       0.02340251       0.00215752       0.01367176 </v>
   <v>       0.02011538       0.00479130       0.00596648 </v>
   <v>       0.01156188      -0.00152130       0.00060462 </v>
   <v>      -0.01721967       0.00437784       0.01248207 </v>
   <v>       0.02265530      -0.00396251       0.01180680 </v>
   <v>      -0.02536718       0.01017851       0.00230998 </v>
   <v>       0.02353302      -0.00153203       0.00278596 </v>
   <v>       0.00097108       0.01066449       0.01737603 </v>
   <v>      -0.00507590       0.00202932       0.01674774 </v>
   <v>       0.00084445      -0.00089115       0.01172734 </v>
   <v>       0.00220662       0.00389481       0.00061781 </v>
   <v>      -0.01086058       0.00110239       0.00206442 </v>
   <v>      -0.01379510      -0.00281995       0.00119246 </v>
   <v>      -0.00752040       0.00985165      -0.00456690 </v>
   <v>       0.00441750       0.01341784       0.00266557 </v>
   <v>       0.01303834       0.01841504      -0.00801965 </v>
   <v>      -0.00726043       0.02193296       0.00803595 </v>
   <v>       0.02209086      -0.02233430      -0.00530935 </v>
   <v>      -0.03479175      -0.04093071      -0.04112662 </v>
   <v>      -0.02457543       0.00970174       0.01019904 </v>
   <v>       0.02048927      -0.01481775      -0.00587890 </v>
   <v>       0.01452903       0.02103620       0.01160279 </v>
   <v>      -0.00828610       0.00515272       0.01890645 </v>
   <v>       0.02632656      -0.00545185      -0.00438634 </v>
   <v>      -0.01026479      -0.00174687      -0.01399432 </v>
   <v>      -0.01171351       0.01367397      -0.02660611 </v>
  </varray>
  <varray name="stress" >
   <v>      -1.48759366       0.04074124       0.08025553 </v>
   <v>       0.04074127      -1.37718203       0.07879512 </v>
   <v>       0.08025550       0.07879517      -1.62452979 </v>
  </varray>
  <energy>
   <i name="e_fr_energy">   -356.53389754 </i>
   <i name="e_wo_entrp">   -356.54063627 </i>
   <i name="e_0_energy">      0.02021619 </i>
  </energy>
  <time name="totalsc">    9.87   10.22</time>
 </calculation>
 <calculation>
  <scstep>
   <time name="dav">    1.20    1.21</time>
   <time name="total">    1.36    1.48</time>
   <energy>
    <i name="alphaZ">   1656.56304397 </i>
    <i name="ewald"> -22483.91680895 </i>
    <i name="hartreedc">  -7911.31295469 </i>
    <i name="XCdc">    118.92069733 </i>
    <i name="pawpsdc">  37390.99087753 </i>
    <i name="pawaedc"> -35936.50202317 </i>
    <i name="eentropy">      0.02006371 </i>
    <i name="bandstr">  -3181.81294319 </i>
    <i name="atom">  29990.50946633 </i>
    <i name="e_fr_energy">   -356.54058113 </i>
    <i name="e_wo_entrp">   -356.56064484 </i>
    <i name="e_0_energy">   -356.54726904 </i>
   </energy>
  </scstep>
  <scstep>
   <time name="diag">    0.15    0.15</time>
   <time name="diis">    0.84    0.85</time>
   <time name="orth">    0.01    0.01</time>
   <time name="total">    1.08    1.10</time>
   <energy>
    <i name="e_fr_energy">   -356.53735274 </i>
    <i name="e_wo_entrp">   -356.55756405 </i>
    <i name="e_0_energy">   -356.54408984 </i>
   </energy>
  </scstep>
  <scstep>
   <time name="diag">    0.09    0.09</time>
   <time name="diis">    0.92    0.92</time>
   <time name="orth">    0.01    0.01</time>
   <time name="total">    1.08    1.10</time>
   <energy>
    <i name="e_fr_energy">   -356.53618371 </i>
    <i name="e_wo_entrp">   -356.55615340 </i>
    <i name="e_0_energy">   -356.54284027 </i>
   </energy>
  </scstep>
  <scstep>
   <time name="diag">    0.08    0.08</time>
   <time name="diis">    0.83    0.83</time>
   <time name="orth">    0.01    0.01</time>
   <time name="total">    0.99    1.01</time>
   <energy>
    <i name="e_fr_energy">   -356.53507302 </i>
    <i name="e_wo_entrp">   -356.55518760 </i>
    <i name="e_0_energy">   -356.54177788 </i>
   </energy>
  </scstep>
  <scstep>
   <time name="diag">    0.08    0.08</time>
   <time name="diis">    0.83    0.83</time>
   <time name="orth">    0.01    0.01</time>
   <time name="total">    0.99    1.01</time>
   <energy>
    <i name="e_fr_energy">   -356.53501750 </i>
    <i name="e_wo_entrp">   -356.55515177 </i>
    <i name="e_0_energy">   -356.54172893 </i>
   </energy>
  </scstep>
  <scstep>
   <time name="diag">    0.08    0.09</time>
   <time name="diis">    0.75    0.75</time>
   <time name="orth">    0.01    0.01</time>
   <time name="total">    0.91    0.93</time>
   <energy>
    <i name="e_fr_energy">   -356.53505202 </i>
    <i name="e_wo_entrp">   -356.55514056 </i>
    <i name="e_0_energy">   -356.54174820 </i>
   </energy>
  </scstep>
  <scstep>
   <time name="diag">    0.08    0.08</time>
   <time name="diis">    0.69    0.69</time>
   <time name="orth">    0.01    0.01</time>
   <time name="total">    0.85    0.87</time>
   <energy>
    <i name="e_fr_energy">   -356.53507514 </i>
    <i name="e_wo_entrp">   -356.55517984 </i>
    <i name="e_0_energy">   -356.54177670 </i>
   </energy>
  </scstep>
  <scstep>
   <time name="diag">    0.13    0.13</time>
   <time name="diis">    0.60    0.60</time>
   <time name="orth">    0.01    0.01</time>
   <time name="total">    0.83    0.85</time>
   <energy>
    <i name="e_fr_energy">   -356.53509170 </i>
    <i name="e_wo_entrp">   -356.55519318 </i>
    <i name="e_0_energy">   -356.54179219 </i>
   </energy>
  </scstep>
  <scstep>
   <time name="diag">    0.08    0.08</time>
   <time name="diis">    0.44    0.44</time>
   <time name="orth">    0.01    0.01</time>
   <time name="total">    0.64    0.65</time>
   <energy>
    <i name="e_fr_energy">   -356.53510193 </i>
    <i name="e_wo_entrp">   -356.55520928 </i>
    <i name="e_0_energy">   -356.54180438 </i>
   </energy>
  </scstep>
  <scstep>
   <time name="diag">    0.14    0.14</time>
   <time name="diis">    0.41    0.41</time>
   <time name="orth">    0.01    0.01</time>
   <time name="total">    0.63    0.65</time>
   <energy>
    <i name="e_fr_energy">   -356.53511439 </i>
    <i name="e_wo_entrp">   -356.55521616 </i>
    <i name="e_0_energy">   -356.54181498 </i>
   </energy>
  </scstep>
  <scstep>
   <time name="diag">    0.08    0.09</time>
   <time name="diis">    0.40    0.41</time>
   <time name="orth">    0.01    0.01</time>
   <time name="total">    0.54    0.56</time>
   <energy>
    <i name="alphaZ">   1656.56304397 </i>
    <i name="ewald"> -22483.91680895 </i>
    <i name="hartreedc">  -7903.52588874 </i>
    <i name="XCdc">    118.56659117 </i>
    <i name="pawpsdc">  37462.65917930 </i>
    <i name="pawaedc"> -36008.18292526 </i>
    <i name="eentropy">      0.02010194 </i>
    <i name="bandstr">  -3189.22788130 </i>
    <i name="atom">  29990.50946633 </i>
    <i name="e_fr_energy">   -356.53512156 </i>
    <i name="e_wo_entrp">   -356.55522350 </i>
    <i name="e_0_energy">   -356.54182221 </i>
   </energy>
  </scstep>
  <structure>
   <crystal>
    <varray name="basis" >
     <v>       6.98316259      -0.00220094       0.04595624 </v>
     <v>      -0.00335477      10.24985718       0.01381026 </v>
     <v>       0.06750182       0.01279505      10.21489218 </v>
    </varray>
    <i name="volume">    731.11229503 </i>
    <varray name="rec_basis" >
     <v>       0.14320784       0.00004815      -0.00094640 </v>
     <v>       0.00003156       0.09756251      -0.00012241 </v>
     <v>      -0.00064433      -0.00013212       0.09790071 </v>
    </varray>
   </crystal>
   <varray name="positions" >
    <v>       0.99247201       0.98135335       0.32282911 </v>
    <v>       0.49763501       0.98687678       0.34375768 </v>
    <v>       0.74247611       0.83202854       0.18195841 </v>
    <v>       0.51429521       0.34577460       0.34473625 </v>
    <v>       0.26673213       0.50380718       0.83977916 </v>
    <v>       0.97592961       0.35442264       0.32174733 </v>
    <v>       0.01764637       0.34131466       0.67985110 </v>
    <v>       0.25087918       0.83296467       0.48807297 </v>
    <v>       0.48320241       0.33009321       0.99155744 </v>
    <v>       0.23433065       0.17139846       0.83009174 </v>
    <v>       0.22492644       0.16867737       0.48702219 </v>
    <v>       0.26594575       0.50609523       0.16796972 </v>
    <v>       0.00751656       0.33797298       0.99851911 </v>
    <v>       0.97587810       0.66284865       0.00674775 </v>
    <v>       0.26134076       0.82323550       0.16909478 </v>
    <v>       0.46748009       0.00459822       0.65917923 </v>
    <v>       0.75511603       0.83337819       0.50512602 </v>
    <v>       0.03036749       0.66523462       0.66345953 </v>
    <v>       0.27379043       0.81679820       0.84742225 </v>
    <v>       0.24883952       0.17235282       0.18444762 </v>
    <v>       0.99585337       0.00015995       0.00461817 </v>
    <v>       0.76646120       0.16269794       0.49996264 </v>
    <v>       0.76220756       0.16903250       0.82170151 </v>
    <v>       0.50077761       0.01014130       0.99971772 </v>
    <v>       0.73183898       0.17664672       0.17636140 </v>
    <v>       0.74026869       0.49575567       0.82549860 </v>
    <v>       0.48387784       0.32979891       0.66268392 </v>
    <v>       0.74450629       0.83423265       0.81673087 </v>
    <v>       0.24434787       0.49379539       0.48526900 </v>
    <v>       0.73279017       0.49802339       0.17366254 </v>
    <v>       0.53889356       0.66495430       0.01068975 </v>
    <v>       0.03545699       0.99163628       0.67161899 </v>
    <v>       0.51741063       0.66885668       0.33854343 </v>
    <v>       0.75123044       0.50743533       0.49700276 </v>
    <v>       0.98404235       0.66718967       0.32981211 </v>
    <v>       0.48323557       0.65842748       0.65275420 </v>
   </varray>
  </structure>
  <varray name="forces" >
   <v>      -0.00005374       0.00259681      -0.00688164 </v>
   <v>       0.00895072       0.00164394       0.00181099 </v>
   <v>      -0.01841399      -0.00549082       0.00966575 </v>
   <v>      -0.00297204      -0.00800085      -0.00775841 </v>
   <v>      -0.01262007      -0.01666759       0.01500421 </v>
   <v>      -0.01070368      -0.00649257      -0.00805157 </v>
   <v>      -0.00262943      -0.02639462       0.00741327 </v>
   <v>      -0.01225817       0.01942872      -0.02945978 </v>
   <v>       0.00244934      -0.00139001      -0.00921016 </v>
   <v>       0.02021962       0.00111150      -0.01023668 </v>
   <v>       0.02379551       0.00282787       0.00917474 </v>
   <v>       0.01583793       0.00319678       0.00000724 </v>
   <v>       0.00675431      -0.00098184       0.00265573 </v>
   <v>      -0.00780491       0.00415162       0.00912321 </v>
   <v>       0.01945405      -0.00015313       0.00638771 </v>
   <v>      -0.01202636       0.01199614       0.00437014 </v>
   <v>       0.02120245       0.00059377       0.00764629 </v>
   <v>      -0.01073827       0.00888378       0.01580940 </v>
   <v>      -0.00572769       0.00607676       0.01800347 </v>
   <v>      -0.00262767      -0.00395439       0.00895796 </v>
   <v>       0.00269026       0.00277422       0.00182076 </v>
   <v>      -0.01192405       0.00122100       0.00269348 </v>
   <v>      -0.01838630      -0.00426190       0.00417413 </v>
   <v>      -0.00618912       0.00713800      -0.00445845 </v>
   <v>       0.00698466       0.00777766      -0.00193163 </v>
   <v>       0.01335499       0.02207114      -0.01250522 </v>
   <v>      -0.00406964       0.01004551       0.00745758 </v>
   <v>       0.02139775      -0.02218218      -0.00372483 </v>
   <v>      -0.03520700      -0.03590267      -0.03339135 </v>
   <v>      -0.02146543       0.00563341       0.00394341 </v>
   <v>       0.01110131      -0.01171626      -0.00597143 </v>
   <v>       0.00679443       0.01719562       0.01067528 </v>
   <v>      -0.01257440       0.00459419       0.00876510 </v>
   <v>       0.02764144      -0.00789849       0.00194040 </v>
   <v>      -0.00276782      -0.00290470      -0.01156961 </v>
   <v>       0.00253100       0.01343358      -0.01234950 </v>
  </varray>
  <varray name="stress" >
   <v>       0.45456082       0.01679851       0.07439581 </v>
   <v>       0.01679852       0.65183496       0.04202269 </v>
   <v>       0.07439584       0.04202269       0.47494349 </v>
  </varray>
  <energy>
   <i name="e_fr_energy">   -356.53512156 </i>
   <i name="e_wo_entrp">   -356.54182221 </i>
   <i name="e_0_energy">      0.02010194 </i>
  </energy>
  <time name="totalsc">   11.69   12.07</time>
 </calculation>
 <calculation>
  <scstep>
   <time name="dav">    1.11    1.11</time>
   <time name="total">    1.25    1.33</time>
   <energy>
    <i name="alphaZ">   1656.93093261 </i>
    <i name="ewald"> -22485.36820915 </i>
    <i name="hartreedc">  -7904.33175747 </i>
    <i name="XCdc">    118.64461192 </i>
    <i name="pawpsdc">  37462.58136476 </i>
    <i name="pawaedc"> -36008.09266541 </i>
    <i name="eentropy">      0.02008229 </i>
    <i name="bandstr">  -3187.42906381 </i>
    <i name="atom">  29990.50946633 </i>
    <i name="e_fr_energy">   -356.53523794 </i>
    <i name="e_wo_entrp">   -356.55532022 </i>
    <i name="e_0_energy">   -356.54193203 </i>
   </energy>
  </scstep>
  <scstep>
   <time name="diag">    0.09    0.09</time>
   <time name="diis">    0.75    0.76</time>
   <time name="orth">    0.01    0.01</time>
   <time name="total">    0.92    0.93</time>
   <energy>
    <i name="e_fr_energy">   -356.53517182 </i>
    <i name="e_wo_entrp">   -356.55527080 </i>
    <i name="e_0_energy">   -356.54187148 </i>
   </energy>
  </scstep>
  <scstep>
   <time name="diag">    0.08    0.08</time>
   <time name="diis">    0.71    0.72</time>
   <time name="orth">    0.01    0.01</time>
   <time name="total">    0.88    0.90</time>
   <energy>
    <i name="e_fr_energy">   -356.53515005 </i>
    <i name="e_wo_entrp">   -356.55521740 </i>
    <i name="e_0_energy">   -356.54183917 </i>
   </energy>
  </scstep>
  <scstep>
   <time name="diag">    0.08    0.08</time>
   <time name="diis">    0.42    0.42</time>
   <time name="orth">    0.01    0.01</time>
   <time name="total">    0.59    0.60</time>
   <energy>
    <i name="e_fr_energy">   -356.53513184 </i>
    <i name="e_wo_entrp">   -356.55521741 </i>
    <i name="e_0_energy">   -356.54182703 </i>
   </energy>
  </scstep>
  <scstep>
   <time name="diag">    0.08    0.08</time>
   <time name="diis">    0.33    0.33</time>
   <time name="orth">    0.01    0.01</time>
   <time name="total">    0.46    0.48</time>
   <energy>
    <i name="alphaZ">   1656.93093261 </i>
    <i name="ewald"> -22485.36820915 </i>
    <i name="hartreedc">  -7903.23746377 </i>
    <i name="XCdc">    118.59468381 </i>
    <i name="pawpsdc">  37475.40199536 </i>
    <i name="pawaedc"> -36020.92646931 </i>
    <i name="eentropy">      0.02008812 </i>
    <i name="bandstr">  -3188.46015699 </i>
    <i name="atom">  29990.50946633 </i>
    <i name="e_fr_energy">   -356.53513299 </i>
    <i name="e_wo_entrp">   -356.55522110 </i>
    <i name="e_0_energy">   -356.54182902 </i>
   </energy>
  </scstep>
  <structure>
   <crystal>
    <varray name="basis" >
     <v>       6.98269883      -0.00216186       0.04596876 </v>
     <v>      -0.00329761      10.24921705       0.01384679 </v>
     <v>       0.06752200       0.01283231      10.21394071 </v>
    </varray>
    <i name="volume">    730.94996605 </i>
    <varray name="rec_basis" >
     <v>       0.14321735       0.00004736      -0.00094684 </v>
     <v>       0.00003102       0.09756860      -0.00012279 </v>
     <v>      -0.00064460      -0.00013248       0.09790983 </v>
    </varray>
   </crystal>
   <varray name="positions" >
    <v>       0.99247228       0.98135242       0.32282438 </v>
    <v>       0.49764453       0.98688088       0.34375272 </v>
    <v>       0.74246637       0.83202006       0.18196608 </v>
    <v>       0.51429864       0.34576721       0.34472435 </v>
    <v>       0.26672185       0.50380626       0.83978089 </v>
    <v>       0.97591731       0.35442237       0.32174289 </v>
    <v>       0.01764400       0.34129070       0.67985884 </v>
    <v>       0.25088226       0.83296751       0.48806845 </v>
    <v>       0.48320049       0.33008638       0.99155811 </v>
    <v>       0.23433944       0.17139914       0.83008076 </v>
    <v>       0.22494284       0.16867829       0.48703136 </v>
    <v>       0.26595916       0.50609895       0.16797226 </v>
    <v>       0.00752763       0.33796893       0.99851871 </v>
    <v>       0.97586475       0.66285133       0.00676085 </v>
    <v>       0.26135626       0.82323281       0.16909871 </v>
    <v>       0.46746245       0.00458357       0.65918014 </v>
    <v>       0.75513383       0.83338231       0.50512490 </v>
    <v>       0.03041158       0.66523744       0.66346692 </v>
    <v>       0.27378737       0.81679622       0.84743419 </v>
    <v>       0.24884204       0.17235272       0.18445320 </v>
    <v>       0.99585436       0.00016436       0.00461914 </v>
    <v>       0.76645319       0.16269799       0.49996865 </v>
    <v>       0.76219572       0.16903134       0.82170012 </v>
    <v>       0.50077186       0.01015153       0.99971738 </v>
    <v>       0.73183698       0.17665415       0.17636120 </v>
    <v>       0.74028550       0.49575470       0.82549982 </v>
    <v>       0.48387705       0.32983800       0.66268746 </v>
    <v>       0.74452086       0.83422998       0.81672838 </v>
    <v>       0.24431273       0.49377080       0.48524827 </v>
    <v>       0.73277526       0.49803043       0.17366643 </v>
    <v>       0.53890937       0.66494539       0.01067397 </v>
    <v>       0.03546159       0.99165229       0.67162304 </v>
    <v>       0.51740091       0.66885751       0.33858880 </v>
    <v>       0.75124300       0.50743353       0.49700480 </v>
    <v>       0.98403708       0.66719153       0.32980029 </v>
    <v>       0.48318847       0.65843096       0.65271055 </v>
   </varray>
  </structure>
  <varray name="forces" >
   <v>       0.00018749       0.00310409      -0.00626198 </v>
   <v>       0.00902265       0.00200627       0.00196283 </v>
   <v>      -0.01860619      -0.00545323       0.00881528 </v>
   <v>      -0.00358280      -0.00800787      -0.00749465 </v>
   <v>      -0.01319575      -0.01649036       0.01568076 </v>
   <v>      -0.01014075      -0.00676433      -0.00839308 </v>
   <v>      -0.00362617      -0.02648772       0.00657017 </v>
   <v>      -0.01314284       0.01940374      -0.02951666 </v>
   <v>       0.00327848      -0.00072439      -0.00902083 </v>
   <v>       0.02106999       0.00055020      -0.00945257 </v>
   <v>       0.02378190       0.00299909       0.00893275 </v>
   <v>       0.01521693       0.00310913      -0.00086035 </v>
   <v>       0.00600138      -0.00046078       0.00285063 </v>
   <v>      -0.00637960       0.00399141       0.00844370 </v>
   <v>       0.01899545       0.00028610       0.00563776 </v>
   <v>      -0.01019918       0.01226401       0.00481981 </v>
   <v>       0.02084765       0.00089024       0.00847616 </v>
   <v>      -0.01245551       0.00861966       0.01566113 </v>
   <v>      -0.00584463       0.00646027       0.01797445 </v>
   <v>      -0.00307384      -0.00416757       0.00843430 </v>
   <v>       0.00310083       0.00255725       0.00151667 </v>
   <v>      -0.01222428       0.00125056       0.00321178 </v>
   <v>      -0.01897051      -0.00453818       0.00446152 </v>
   <v>      -0.00635128       0.00657969      -0.00484727 </v>
   <v>       0.00736189       0.00740592      -0.00267241 </v>
   <v>       0.01367125       0.02277027      -0.01290945 </v>
   <v>      -0.00329379       0.00849335       0.00734187 </v>
   <v>       0.02140588      -0.02202726      -0.00366154 </v>
   <v>      -0.03510220      -0.03455982      -0.03246232 </v>
   <v>      -0.02109428       0.00520270       0.00305930 </v>
   <v>       0.00971118      -0.01126295      -0.00606544 </v>
   <v>       0.00583749       0.01656299       0.01074130 </v>
   <v>      -0.01303283       0.00436416       0.00714579 </v>
   <v>       0.02788670      -0.00803516       0.00295498 </v>
   <v>      -0.00186235      -0.00329374      -0.01113924 </v>
   <v>       0.00480162       0.01340226      -0.00993515 </v>
  </varray>
  <varray name="stress" >
   <v>       0.65305681       0.01869022       0.07538789 </v>
   <v>       0.01869025       0.85833616       0.03695062 </v>
   <v>       0.07538788       0.03695061       0.67529493 </v>
  </varray>
  <energy>
   <i name="e_fr_energy">   -356.53513299 </i>
   <i name="e_wo_entrp">   -356.54182902 </i>
   <i name="e_0_energy">      0.02008812 </i>
  </energy>
  <time name="totalsc">    5.80    6.06</time>
 </calculation>
 <calculation>
  <scstep>
   <time name="dav">    1.13    1.14</time>
   <time name="total">    1.28    1.36</time>
   <energy>
    <i name="alphaZ">   1656.62997279 </i>
    <i name="ewald"> -22482.38550250 </i>
    <i name="hartreedc">  -7904.33059455 </i>
    <i name="XCdc">    118.53443672 </i>
    <i name="pawpsdc">  37474.59735367 </i>
    <i name="pawaedc"> -36020.10595251 </i>
    <i name="eentropy">      0.02000743 </i>
    <i name="bandstr">  -3190.00473404 </i>
    <i name="atom">  29990.50946633 </i>
    <i name="e_fr_energy">   -356.53554667 </i>
    <i name="e_wo_entrp">   -356.55555410 </i>
    <i name="e_0_energy">   -356.54221581 </i>
[...]
       <r>    7.2241    1.0000 </r>
       <r>    7.2908    1.0000 </r>
       <r>    7.3335    1.0000 </r>
       <r>    7.3656    1.0000 </r>
       <r>    7.4000    1.0000 </r>
       <r>    7.4501    1.0000 </r>
       <r>    7.4914    1.0001 </r>
       <r>    7.5549    1.0009 </r>
       <r>    7.6017    1.0032 </r>
       <r>    7.6085    1.0038 </r>
       <r>    7.6304    1.0065 </r>
       <r>    7.6775    1.0164 </r>
       <r>    7.7241    1.0302 </r>
       <r>    7.7414    1.0341 </r>
       <r>    7.7763    1.0322 </r>
       <r>    7.8227    0.9854 </r>
       <r>    7.9051    0.6915 </r>
       <r>    7.9167    0.6302 </r>
       <r>    7.9449    0.4728 </r>
       <r>    7.9670    0.3505 </r>
       <r>    8.0032    0.1764 </r>
       <r>    8.0369    0.0607 </r>
       <r>    8.1023   -0.0316 </r>
       <r>    8.1165   -0.0351 </r>
       <r>    8.1448   -0.0330 </r>
       <r>    8.1846   -0.0217 </r>
       <r>    8.2112   -0.0141 </r>
       <r>    8.2547   -0.0058 </r>
       <r>    8.2873   -0.0025 </r>
       <r>    8.3421   -0.0005 </r>
       <r>    8.3737   -0.0002 </r>
       <r>    8.4037   -0.0001 </r>
       <r>    8.4231   -0.0000 </r>
       <r>    8.4762   -0.0000 </r>
       <r>    8.5492   -0.0000 </r>
       <r>    8.6171   -0.0000 </r>
       <r>    8.6500   -0.0000 </r>
       <r>    8.6959   -0.0000 </r>
       <r>    8.7447   -0.0000 </r>
       <r>    8.7940   -0.0000 </r>
       <r>    8.8997   -0.0000 </r>
       <r>    9.0451   -0.0000 </r>
       <r>    9.1591   -0.0000 </r>
       <r>    9.2816   -0.0000 </r>
       <r>    9.7237   -0.0000 </r>
       <r>    9.8628   -0.0000 </r>
       <r>    9.9192   -0.0000 </r>
       <r>    9.9547   -0.0000 </r>
       <r>    9.9903   -0.0000 </r>
      </set>
     </set>
    </set>
   </array>
  </eigenvalues>
  <separator name="orbital magnetization" >
   <v name="MAGDIPOLOUT">      0.00000000      0.00000000      0.00000000</v>
  </separator>
  <dos>
   <i name="efermi">      7.94006344 </i>
   <total>
    <array>
     <dimension dim="1">gridpoints</dimension>
     <dimension dim="2">spin</dimension>
     <field>energy</field>
     <field>total</field>
     <field>integrated</field>
     <set>
      <set comment="spin 1">
       <r>   -49.1764     0.0000     0.0000 </r>
       <r>   -48.9697     0.0000     0.0000 </r>
       <r>   -48.7631     0.0000     0.0000 </r>
       <r>   -48.5565     0.0000     0.0000 </r>
       <r>   -48.3499     0.0000     0.0000 </r>
       <r>   -48.1433     0.0000     0.0000 </r>
       <r>   -47.9366     0.0000     0.0000 </r>
       <r>   -47.7300    -0.0000    -0.0000 </r>
       <r>   -47.5234    -0.0000    -0.0000 </r>
       <r>   -47.3168    -0.0000    -0.0000 </r>
       <r>   -47.1102    -0.0000    -0.0000 </r>
       <r>   -46.9035    -0.0000    -0.0000 </r>
       <r>   -46.6969    -0.0749    -0.0155 </r>
       <r>   -46.4903    -1.7298    -0.3729 </r>
       <r>   -46.2837    41.6131     8.2252 </r>
       <r>   -46.0771    51.5776    18.8821 </r>
       <r>   -45.8704     5.9755    20.1168 </r>
       <r>   -45.6638    -0.5622    20.0006 </r>
       <r>   -45.4572    -0.0030    20.0000 </r>
       <r>   -45.2506    -0.0000    20.0000 </r>
       <r>   -45.0440    -0.0000    20.0000 </r>
       <r>   -44.8374     0.0000    20.0000 </r>
       <r>   -44.6307     0.0000    20.0000 </r>
       <r>   -44.4241     0.0000    20.0000 </r>
       <r>   -44.2175     0.0000    20.0000 </r>
       <r>   -44.0109     0.0000    20.0000 </r>
       <r>   -43.8043     0.0000    20.0000 </r>
       <r>   -43.5976     0.0000    20.0000 </r>
       <r>   -43.3910     0.0000    20.0000 </r>
       <r>   -43.1844     0.0000    20.0000 </r>
       <r>   -42.9778     0.0000    20.0000 </r>
       <r>   -42.7712     0.0000    20.0000 </r>
       <r>   -42.5645     0.0000    20.0000 </r>
       <r>   -42.3579     0.0000    20.0000 </r>
       <r>   -42.1513     0.0000    20.0000 </r>
       <r>   -41.9447     0.0000    20.0000 </r>
       <r>   -41.7381    -0.0000    20.0000 </r>
       <r>   -41.5314    -0.0000    20.0000 </r>
       <r>   -41.3248    -0.0000    20.0000 </r>
       <r>   -41.1182    -0.0000    20.0000 </r>
       <r>   -40.9116    -0.0001    20.0000 </r>
       <r>   -40.7050    -0.0917    19.9810 </r>
       <r>   -40.4983    -0.7106    19.8342 </r>
       <r>   -40.2917    31.3814    26.3182 </r>
       <r>   -40.0851    58.1768    38.3387 </r>
       <r>   -39.8785     8.4260    40.0797 </r>
       <r>   -39.6719    -0.3596    40.0054 </r>
       <r>   -39.4652    -0.0259    40.0000 </r>
       <r>   -39.2586    -0.0000    40.0000 </r>
       <r>   -39.0520    -0.0000    40.0000 </r>
       <r>   -38.8454     0.0000    40.0000 </r>
       <r>   -38.6388     0.0000    40.0000 </r>
       <r>   -38.4321     0.0000    40.0000 </r>
       <r>   -38.2255     0.0000    40.0000 </r>
       <r>   -38.0189     0.0000    40.0000 </r>
       <r>   -37.8123     0.0000    40.0000 </r>
       <r>   -37.6057     0.0000    40.0000 </r>
       <r>   -37.3990     0.0000    40.0000 </r>
       <r>   -37.1924     0.0000    40.0000 </r>
       <r>   -36.9858     0.0000    40.0000 </r>
       <r>   -36.7792     0.0000    40.0000 </r>
       <r>   -36.5726     0.0000    40.0000 </r>
       <r>   -36.3659     0.0000    40.0000 </r>
       <r>   -36.1593     0.0000    40.0000 </r>
       <r>   -35.9527     0.0000    40.0000 </r>
       <r>   -35.7461     0.0000    40.0000 </r>
       <r>   -35.5395     0.0000    40.0000 </r>
       <r>   -35.3329     0.0000    40.0000 </r>
       <r>   -35.1262     0.0000    40.0000 </r>
       <r>   -34.9196     0.0000    40.0000 </r>
       <r>   -34.7130     0.0000    40.0000 </r>
       <r>   -34.5064     0.0000    40.0000 </r>
       <r>   -34.2998     0.0000    40.0000 </r>
       <r>   -34.0931     0.0000    40.0000 </r>
       <r>   -33.8865     0.0000    40.0000 </r>
       <r>   -33.6799     0.0000    40.0000 </r>
       <r>   -33.4733     0.0000    40.0000 </r>
       <r>   -33.2667     0.0000    40.0000 </r>
       <r>   -33.0600     0.0000    40.0000 </r>
       <r>   -32.8534     0.0000    40.0000 </r>
       <r>   -32.6468     0.0000    40.0000 </r>
       <r>   -32.4402     0.0000    40.0000 </r>
       <r>   -32.2336     0.0000    40.0000 </r>
       <r>   -32.0269     0.0000    40.0000 </r>
       <r>   -31.8203     0.0000    40.0000 </r>
       <r>   -31.6137     0.0000    40.0000 </r>
       <r>   -31.4071     0.0000    40.0000 </r>
       <r>   -31.2005     0.0000    40.0000 </r>
       <r>   -30.9938     0.0000    40.0000 </r>
       <r>   -30.7872     0.0000    40.0000 </r>
       <r>   -30.5806     0.0000    40.0000 </r>
       <r>   -30.3740     0.0000    40.0000 </r>
       <r>   -30.1674     0.0000    40.0000 </r>
       <r>   -29.9607     0.0000    40.0000 </r>
       <r>   -29.7541     0.0000    40.0000 </r>
       <r>   -29.5475     0.0000    40.0000 </r>
       <r>   -29.3409     0.0000    40.0000 </r>
       <r>   -29.1343     0.0000    40.0000 </r>
       <r>   -28.9276     0.0000    40.0000 </r>
       <r>   -28.7210     0.0000    40.0000 </r>
       <r>   -28.5144     0.0000    40.0000 </r>
       <r>   -28.3078     0.0000    40.0000 </r>
       <r>   -28.1012     0.0000    40.0000 </r>
       <r>   -27.8945     0.0000    40.0000 </r>
       <r>   -27.6879     0.0000    40.0000 </r>
       <r>   -27.4813     0.0000    40.0000 </r>
       <r>   -27.2747     0.0000    40.0000 </r>
       <r>   -27.0681     0.0000    40.0000 </r>
       <r>   -26.8615     0.0000    40.0000 </r>
       <r>   -26.6548     0.0000    40.0000 </r>
       <r>   -26.4482     0.0000    40.0000 </r>
       <r>   -26.2416     0.0000    40.0000 </r>
       <r>   -26.0350     0.0000    40.0000 </r>
       <r>   -25.8284     0.0000    40.0000 </r>
       <r>   -25.6217     0.0000    40.0000 </r>
       <r>   -25.4151     0.0000    40.0000 </r>
       <r>   -25.2085     0.0000    40.0000 </r>
       <r>   -25.0019     0.0000    40.0000 </r>
       <r>   -24.7953     0.0000    40.0000 </r>
       <r>   -24.5886     0.0000    40.0000 </r>
       <r>   -24.3820     0.0000    40.0000 </r>
       <r>   -24.1754    -0.0000    40.0000 </r>
       <r>   -23.9688    -0.0000    40.0000 </r>
       <r>   -23.7622    -0.0000    40.0000 </r>
       <r>   -23.5555    -0.0000    40.0000 </r>
       <r>   -23.3489    -0.0000    40.0000 </r>
       <r>   -23.1423    -0.0108    39.9978 </r>
       <r>   -22.9357    -0.9570    39.8000 </r>
       <r>   -22.7291    12.8757    42.4604 </r>
       <r>   -22.5224    65.2970    55.9521 </r>
       <r>   -22.3158   107.0187    78.0642 </r>
       <r>   -22.1092    70.7870    92.6902 </r>
       <r>   -21.9026    35.5863   100.0430 </r>
       <r>   -21.6960    -0.0563   100.0314 </r>
       <r>   -21.4893    -0.1517   100.0000 </r>
       <r>   -21.2827    -0.0001   100.0000 </r>
       <r>   -21.0761    -0.0000   100.0000 </r>
       <r>   -20.8695     0.0000   100.0000 </r>
       <r>   -20.6629     0.0000   100.0000 </r>
       <r>   -20.4562     0.0000   100.0000 </r>
       <r>   -20.2496     0.0000   100.0000 </r>
       <r>   -20.0430    -0.0000   100.0000 </r>
       <r>   -19.8364    -0.0000   100.0000 </r>
       <r>   -19.6298    -0.0000   100.0000 </r>
       <r>   -19.4231    -0.0000   100.0000 </r>
       <r>   -19.2165    -0.0018    99.9996 </r>
       <r>   -19.0099    -0.3406    99.9292 </r>
       <r>   -18.8033     3.0325   100.5558 </r>
       <r>   -18.5967    37.0884   108.2190 </r>
       <r>   -18.3900    70.8494   122.8579 </r>
       <r>   -18.1834   104.0681   144.3604 </r>
       <r>   -17.9768    70.6888   158.9661 </r>
       <r>   -17.7702     5.5572   160.1143 </r>
       <r>   -17.5636    -0.5442   160.0019 </r>
       <r>   -17.3570    -0.0091   160.0000 </r>
       <r>   -17.1503    -0.0000   160.0000 </r>
       <r>   -16.9437    -0.0000   160.0000 </r>
       <r>   -16.7371     0.0000   160.0000 </r>
       <r>   -16.5305     0.0000   160.0000 </r>
       <r>   -16.3239     0.0000   160.0000 </r>
       <r>   -16.1172     0.0000   160.0000 </r>
       <r>   -15.9106     0.0000   160.0000 </r>
       <r>   -15.7040     0.0000   160.0000 </r>
       <r>   -15.4974     0.0000   160.0000 </r>
       <r>   -15.2908     0.0000   160.0000 </r>
       <r>   -15.0841     0.0000   160.0000 </r>
       <r>   -14.8775     0.0000   160.0000 </r>
       <r>   -14.6709     0.0000   160.0000 </r>
       <r>   -14.4643     0.0000   160.0000 </r>
       <r>   -14.2577     0.0000   160.0000 </r>
       <r>   -14.0510     0.0000   160.0000 </r>
       <r>   -13.8444     0.0000   160.0000 </r>
       <r>   -13.6378     0.0000   160.0000 </r>
       <r>   -13.4312     0.0000   160.0000 </r>
       <r>   -13.2246     0.0000   160.0000 </r>
       <r>   -13.0179     0.0000   160.0000 </r>
       <r>   -12.8113     0.0000   160.0000 </r>
       <r>   -12.6047     0.0000   160.0000 </r>
       <r>   -12.3981     0.0000   160.0000 </r>
       <r>   -12.1915     0.0000   160.0000 </r>
       <r>   -11.9848     0.0000   160.0000 </r>
       <r>   -11.7782     0.0000   160.0000 </r>
       <r>   -11.5716     0.0000   160.0000 </r>
       <r>   -11.3650     0.0000   160.0000 </r>
       <r>   -11.1584     0.0000   160.0000 </r>
       <r>   -10.9517     0.0000   160.0000 </r>
       <r>   -10.7451     0.0000   160.0000 </r>
       <r>   -10.5385     0.0000   160.0000 </r>
       <r>   -10.3319     0.0000   160.0000 </r>
       <r>   -10.1253     0.0000   160.0000 </r>
       <r>    -9.9186     0.0000   160.0000 </r>
       <r>    -9.7120     0.0000   160.0000 </r>
       <r>    -9.5054     0.0000   160.0000 </r>
       <r>    -9.2988     0.0000   160.0000 </r>
       <r>    -9.0922     0.0000   160.0000 </r>
       <r>    -8.8855     0.0000   160.0000 </r>
       <r>    -8.6789     0.0000   160.0000 </r>
       <r>    -8.4723     0.0000   160.0000 </r>
       <r>    -8.2657     0.0000   160.0000 </r>
       <r>    -8.0591     0.0000   160.0000 </r>
       <r>    -7.8525     0.0000   160.0000 </r>
       <r>    -7.6458     0.0000   160.0000 </r>
       <r>    -7.4392     0.0000   160.0000 </r>
       <r>    -7.2326     0.0000   160.0000 </r>
       <r>    -7.0260     0.0000   160.0000 </r>
       <r>    -6.8194     0.0000   160.0000 </r>
       <r>    -6.6127     0.0000   160.0000 </r>
       <r>    -6.4061     0.0000   160.0000 </r>
       <r>    -6.1995     0.0000   160.0000 </r>
       <r>    -5.9929     0.0000   160.0000 </r>
       <r>    -5.7863     0.0000   160.0000 </r>
       <r>    -5.5796     0.0000   160.0000 </r>
       <r>    -5.3730     0.0000   160.0000 </r>
       <r>    -5.1664     0.0000   160.0000 </r>
       <r>    -4.9598     0.0000   160.0000 </r>
       <r>    -4.7532     0.0000   160.0000 </r>
       <r>    -4.5465     0.0000   160.0000 </r>
       <r>    -4.3399     0.0000   160.0000 </r>
       <r>    -4.1333     0.0000   160.0000 </r>
       <r>    -3.9267     0.0000   160.0000 </r>
       <r>    -3.7201     0.0000   160.0000 </r>
       <r>    -3.5134     0.0000   160.0000 </r>
       <r>    -3.3068     0.0000   160.0000 </r>
       <r>    -3.1002     0.0000   160.0000 </r>
       <r>    -2.8936     0.0000   160.0000 </r>
       <r>    -2.6870     0.0000   160.0000 </r>
       <r>    -2.4803     0.0000   160.0000 </r>
       <r>    -2.2737     0.0000   160.0000 </r>
       <r>    -2.0671     0.0000   160.0000 </r>
       <r>    -1.8605     0.0000   160.0000 </r>
       <r>    -1.6539     0.0000   160.0000 </r>
       <r>    -1.4472     0.0000   160.0000 </r>
       <r>    -1.2406     0.0000   160.0000 </r>
       <r>    -1.0340     0.0000   160.0000 </r>
       <r>    -0.8274     0.0000   160.0000 </r>
       <r>    -0.6208     0.0000   160.0000 </r>
       <r>    -0.4141     0.0000   160.0000 </r>
       <r>    -0.2075     0.0000   160.0000 </r>
       <r>    -0.0009    -0.0000   160.0000 </r>
       <r>     0.2057    -0.0000   160.0000 </r>
       <r>     0.4123    -0.0000   160.0000 </r>
       <r>     0.6189    -0.0000   160.0000 </r>
       <r>     0.8256    -0.0000   160.0000 </r>
       <r>     1.0322    -0.0088   159.9982 </r>
       <r>     1.2388     0.0878   160.0163 </r>
       <r>     1.4454     0.8054   160.1827 </r>
       <r>     1.6520     1.7048   160.5350 </r>
       <r>     1.8587     1.6746   160.8810 </r>
       <r>     2.0653     3.3560   161.5744 </r>
       <r>     2.2719     3.5234   162.3024 </r>
       <r>     2.4785     1.3057   162.5722 </r>
       <r>     2.6851     3.6721   163.3309 </r>
       <r>     2.8918     3.7354   164.1027 </r>
       <r>     3.0984     3.5960   164.8457 </r>
       <r>     3.3050     7.1830   166.3298 </r>
       <r>     3.5116     5.8744   167.5436 </r>
       <r>     3.7182     7.9074   169.1774 </r>
       <r>     3.9249     8.9688   171.0306 </r>
       <r>     4.1315     8.7260   172.8335 </r>
       <r>     4.3381    13.8403   175.6932 </r>
       <r>     4.5447    20.8508   180.0014 </r>
       <r>     4.7513    22.9131   184.7357 </r>
       <r>     4.9580    26.4144   190.1934 </r>
       <r>     5.1646    33.5746   197.1305 </r>
       <r>     5.3712    37.7307   204.9264 </r>
       <r>     5.5778    41.6315   213.5283 </r>
       <r>     5.7844    39.3770   221.6644 </r>
       <r>     5.9911    34.8646   228.8681 </r>
       <r>     6.1977    35.8427   236.2739 </r>
       <r>     6.4043    20.7885   240.5692 </r>
       <r>     6.6109    35.9927   248.0060 </r>
       <r>     6.8175    59.9196   260.3865 </r>
       <r>     7.0242    59.5644   272.6937 </r>
       <r>     7.2308    56.8925   284.4488 </r>
       <r>     7.4374    51.9218   295.1769 </r>
       <r>     7.6440    54.2124   306.3782 </r>
       <r>     7.8506    50.9423   316.9039 </r>
       <r>     8.0573    45.7622   326.3593 </r>
       <r>     8.2639    51.2334   336.9451 </r>
       <r>     8.4705    50.3519   347.3488 </r>
       <r>     8.6771    37.1558   355.0259 </r>
       <r>     8.8837    31.2653   361.4859 </r>
       <r>     9.0904    24.0274   366.4504 </r>
       <r>     9.2970    16.7175   369.9046 </r>
       <r>     9.5036    15.5918   373.1261 </r>
       <r>     9.7102    23.2236   377.9246 </r>
       <r>     9.9168    22.9221   382.6607 </r>
       <r>    10.1234     6.8772   384.0817 </r>
       <r>    10.3301    -0.3852   384.0021 </r>
       <r>    10.5367    -0.0103   384.0000 </r>
       <r>    10.7433    -0.0000   384.0000 </r>
       <r>    10.9499    -0.0000   384.0000 </r>
       <r>    11.1565     0.0000   384.0000 </r>
       <r>    11.3632     0.0000   384.0000 </r>
       <r>    11.5698     0.0000   384.0000 </r>
       <r>    11.7764     0.0000   384.0000 </r>
       <r>    11.9830     0.0000   384.0000 </r>
       <r>    12.1896     0.0000   384.0000 </r>
       <r>    12.3963     0.0000   384.0000 </r>
       <r>    12.6029     0.0000   384.0000 </r>
       <r>    12.8095     0.0000   384.0000 </r>
      </set>
     </set>
    </array>
   </total>
  </dos>
 </calculation>
 <structure name="finalpos" >
  <crystal>
   <varray name="basis" >
    <v>       6.98328206      -0.00092863       0.04690121 </v>
    <v>      -0.00147409      10.25810150       0.01252715 </v>
    <v>       0.06890464       0.01154444      10.21224763 </v>
   </varray>
   <i name="volume">    731.52238883 </i>
   <varray name="rec_basis" >
    <v>       0.14320563       0.00002176      -0.00096627 </v>
    <v>       0.00001370       0.09748406      -0.00011029 </v>
    <v>      -0.00065771      -0.00011968       0.09792621 </v>
   </varray>
  </crystal>
  <varray name="positions" >
   <v>       0.99228321       0.98158795       0.32250577 </v>
   <v>       0.49821381       0.98701030       0.34388340 </v>
   <v>       0.74160448       0.83185369       0.18226059 </v>
   <v>       0.51422824       0.34563505       0.34463040 </v>
   <v>       0.26632713       0.50343901       0.84010994 </v>
   <v>       0.97528011       0.35397512       0.32104465 </v>
   <v>       0.01751632       0.34025035       0.68013840 </v>
   <v>       0.24998498       0.83352902       0.48750214 </v>
   <v>       0.48334115       0.33017714       0.99113150 </v>
   <v>       0.23526755       0.17150553       0.83011884 </v>
   <v>       0.22595333       0.16871839       0.48725811 </v>
   <v>       0.26650514       0.50606044       0.16771692 </v>
   <v>       0.00765433       0.33797310       0.99849813 </v>
   <v>       0.97575901       0.66290920       0.00750390 </v>
   <v>       0.26213441       0.82328982       0.16915492 </v>
   <v>       0.46754075       0.00417620       0.65945767 </v>
   <v>       0.75607393       0.83357645       0.50525825 </v>
   <v>       0.03147117       0.66542744       0.66364279 </v>
   <v>       0.27373081       0.81693508       0.84802965 </v>
   <v>       0.24861840       0.17220861       0.18472803 </v>
   <v>       0.99621904       0.00022669       0.00484469 </v>
   <v>       0.76602694       0.16271144       0.50022284 </v>
   <v>       0.76133812       0.16900579       0.82194516 </v>
   <v>       0.50046671       0.01042045       0.99960751 </v>
   <v>       0.73199378       0.17684171       0.17603736 </v>
   <v>       0.74115073       0.49651221       0.82479155 </v>
   <v>       0.48385463       0.33068430       0.66288040 </v>
   <v>       0.74527515       0.83368978       0.81671851 </v>
   <v>       0.24211755       0.49282419       0.48464463 </v>
   <v>       0.73175822       0.49814579       0.17378155 </v>
   <v>       0.53913288       0.66462373       0.01031981 </v>
   <v>       0.03573536       0.99229781       0.67191021 </v>
   <v>       0.51669808       0.66878956       0.33961297 </v>
   <v>       0.75215291       0.50725175       0.49701160 </v>
   <v>       0.98397445       0.66718288       0.32916708 </v>
   <v>       0.48261620       0.65856404       0.65192714 </v>
  </varray>
 </structure>
</modeling>
