 vasp.5.4.1 05Feb16 (build Jan 29 2020 16:04:39) complex                        
  
 executed on           IFC91_ompi date 2020.06.15  05:34:27
 running on  160 total cores
 distrk:  each k-point on   20 cores,    8 groups
 distr:  one band on NCORES_PER_BAND=   5 cores,    4 groups


--------------------------------------------------------------------------------------------------------


 INCAR:
 POTCAR:    PAW_PBE Ta 17Jan2003                  
 POTCAR:    PAW_PBE Hf 20Jan2003                  
 POTCAR:    PAW_PBE Nb_sv 25May2007               
 POTCAR:    PAW_PBE Zr_sv 04Jan2005               

 ----------------------------------------------------------------------------- 
|                                                                             |
|           W    W    AA    RRRRR   N    N  II  N    N   GGGG   !!!           |
|           W    W   A  A   R    R  NN   N  II  NN   N  G    G  !!!           |
|           W    W  A    A  R    R  N N  N  II  N N  N  G       !!!           |
|           W WW W  AAAAAA  RRRRR   N  N N  II  N  N N  G  GGG   !            |
|           WW  WW  A    A  R   R   N   NN  II  N   NN  G    G                |
|           W    W  A    A  R    R  N    N  II  N    N   GGGG   !!!           |
|                                                                             |
|      For optimal performance we recommend to set                            |
|        NCORE= 4 - approx SQRT( number of cores)                             |
|      NCORE specifies how many cores store one orbital (NPAR=cpu/NCORE).     |
|      This setting can  greatly improve the performance of VASP for DFT.     |
|      The default, NPAR=number of cores might be grossly inefficient         |
|      on modern multi-core architectures or massively parallel machines.     |
|      Do your own testing !!!!                                               |
|      Unfortunately you need to use the default for GW and RPA calculations. |
|      (for HF NCORE is supported but not extensively tested yet)             |
|                                                                             |
 ----------------------------------------------------------------------------- 


 ----------------------------------------------------------------------------- 
|                                                                             |
|           W    W    AA    RRRRR   N    N  II  N    N   GGGG   !!!           |
|           W    W   A  A   R    R  NN   N  II  NN   N  G    G  !!!           |
|           W    W  A    A  R    R  N N  N  II  N N  N  G       !!!           |
|           W WW W  AAAAAA  RRRRR   N  N N  II  N  N N  G  GGG   !            |
|           WW  WW  A    A  R   R   N   NN  II  N   NN  G    G                |
|           W    W  A    A  R    R  N    N  II  N    N   GGGG   !!!           |
|                                                                             |
|      You have enabled k-point parallelism (KPAR>1).                         |
|      This developmental code was originally  written by Paul Kent at ORNL,  |
|      and carefully double checked in Vienna.                                |
|      GW as well as linear response parallelism added by Martijn Marsman     |
|      and Georg Kresse.                                                      |
|      Carefully verify results versus KPAR=1.                                |
|      Report problems to Paul Kent and Vienna.                               |
|                                                                             |
 ----------------------------------------------------------------------------- 

 POTCAR:    PAW_PBE Ta 17Jan2003                  
   VRHFIN =Ta:  6s5d                                                            
   LEXCH  = PE                                                                  
   EATOM  =   130.6506 eV,    9.6025 Ry                                         
                                                                                
   TITEL  = PAW_PBE Ta 17Jan2003                                                
   LULTRA =        F    use ultrasoft PP ?                                      
   IUNSCR =        1    unscreen: 0-lin 1-nonlin 2-no                           
   RPACOR =    2.330    partial core radius                                     
   POMASS =  180.948; ZVAL   =    5.000    mass and valenz                      
   RCORE  =    2.900    outmost cutoff radius                                   
   RWIGS  =    2.840; RWIGS  =    1.503    wigner-seitz radius (au A)           
   ENMAX  =  223.667; ENMIN  =  167.750 eV                                      
   RCLOC  =    2.205    cutoff for local pot                                    
   LCOR   =        T    correct aug charges                                     
   LPAW   =        T    paw PP                                                  
   EAUG   =  332.075                                                            
   DEXC   =    0.000                                                            
   RMAX   =    2.970    core radius for proj-oper                               
   RAUG   =    1.300    factor for augmentation sphere                          
   RDEP   =    3.060    radius for radial grids                                 
   RDEPT  =    2.354    core radius for aug-charge                              
                                                                                
   Atomic configuration                                                         
   16 entries                                                                   
     n  l   j            E        occ.                                          
     1  0  0.50    -67341.2807   2.0000                                         
     2  0  0.50    -11566.9376   2.0000                                         
     2  1  1.50    -10134.1182   6.0000                                         
     3  0  0.50     -2648.5620   2.0000                                         
     3  1  1.50     -2222.6012   6.0000                                         
     3  2  2.50     -1726.3120  10.0000                                         
     4  0  0.50      -538.6961   2.0000                                         
     4  1  1.50      -399.0129   6.0000                                         
     4  2  2.50      -220.3959  10.0000                                         
     4  3  3.50       -23.0374  14.0000                                         
     5  0  0.50       -71.2901   2.0000                                         
     5  1  1.50       -37.8225   6.0000                                         
     5  2  2.50        -2.6455   4.0000                                         
     6  0  0.50        -4.9623   1.0000                                         
     6  1  1.50        -1.3606   0.0000                                         
     5  3  2.50        -1.3606   0.0000                                         
   Description                                                                  
     l       E           TYP  RCUT    TYP  RCUT                                 
     2     -2.6455043     23  2.500                                             
     2     -0.6258895     23  2.500                                             
     0     -4.9622780     23  2.500                                             
     0      4.7531321     23  2.500                                             
     1     -1.3605826     23  2.900                                             
     1     27.2116520     23  2.900                                             
  local pseudopotential read in
  partial core-charges read in
  partial kinetic energy density read in
  atomic valenz-charges read in
  non local Contribution for L=           2  read in
    real space projection operators read in
  non local Contribution for L=           2  read in
    real space projection operators read in
  non local Contribution for L=           0  read in
    real space projection operators read in
  non local Contribution for L=           0  read in
    real space projection operators read in
  non local Contribution for L=           1  read in
    real space projection operators read in
  non local Contribution for L=           1  read in
    real space projection operators read in
    PAW grid and wavefunctions read in
 
   number of l-projection  operators is LMAX  =           6
   number of lm-projection operators is LMMAX =          18
 
 POTCAR:    PAW_PBE Hf 20Jan2003                  
   VRHFIN =Hf: 6s5d                                                             
   LEXCH  = PE                                                                  
   EATOM  =    75.9011 eV,    5.5786 Ry                                         
                                                                                
   TITEL  = PAW_PBE Hf 20Jan2003                                                
   LULTRA =        F    use ultrasoft PP ?                                      
   IUNSCR =        1    unscreen: 0-lin 1-nonlin 2-no                           
   RPACOR =    2.500    partial core radius                                     
   POMASS =  178.490; ZVAL   =    4.000    mass and valenz                      
   RCORE  =    3.000    outmost cutoff radius                                   
   RWIGS  =    3.050; RWIGS  =    1.614    wigner-seitz radius (au A)           
   ENMAX  =  220.334; ENMIN  =  165.250 eV                                      
   RCLOC  =    2.212    cutoff for local pot                                    
   LCOR   =        T    correct aug charges                                     
   LPAW   =        T    paw PP                                                  
   EAUG   =  335.116                                                            
   DEXC   =    0.000                                                            
   RMAX   =    3.077    core radius for proj-oper                               
   RAUG   =    1.300    factor for augmentation sphere                          
   RDEP   =    3.047    radius for radial grids                                 
   RDEPT  =    2.344    core radius for aug-charge                              
                                                                                
   Atomic configuration                                                         
   16 entries                                                                   
     n  l   j            E        occ.                                          
     1  0  0.50    -65259.4397   2.0000                                         
     2  0  0.50    -11157.9882   2.0000                                         
     2  1  1.50     -9795.2113   6.0000                                         
     3  0  0.50     -2541.4058   2.0000                                         
     3  1  1.50     -2134.4770   6.0000                                         
     3  2  2.50     -1653.5418  10.0000                                         
     4  0  0.50      -510.9575   2.0000                                         
     4  1  1.50      -377.5023   6.0000                                         
     4  2  2.50      -205.2085  10.0000                                         
     4  3  3.50       -15.4905  14.0000                                         
     5  0  0.50       -65.6020   2.0000                                         
     5  1  1.50       -34.2798   6.0000                                         
     5  2  2.50        -1.9877   3.0000                                         
     6  0  0.50        -4.7357   1.0000                                         
     6  1  1.50        -1.3606   0.0000                                         
     5  3  2.50        -1.3606   0.0000                                         
   Description                                                                  
     l       E           TYP  RCUT    TYP  RCUT                                 
     2     -1.9876627     23  2.500                                             
     2      0.0744703     23  2.500                                             
     0     -4.7356889     23  2.600                                             
     0      3.2364747     23  2.600                                             
     1     -1.3605826     23  3.000                                             
     1     27.2116520     23  3.000                                             
  local pseudopotential read in
  partial core-charges read in
  partial kinetic energy density read in
  atomic valenz-charges read in
  non local Contribution for L=           2  read in
    real space projection operators read in
  non local Contribution for L=           2  read in
    real space projection operators read in
  non local Contribution for L=           0  read in
    real space projection operators read in
  non local Contribution for L=           0  read in
    real space projection operators read in
  non local Contribution for L=           1  read in
    real space projection operators read in
  non local Contribution for L=           1  read in
    real space projection operators read in
    PAW grid and wavefunctions read in
 
   number of l-projection  operators is LMAX  =           6
   number of lm-projection operators is LMMAX =          18
 
 POTCAR:    PAW_PBE Nb_sv 25May2007               
   VRHFIN =Nb: 4p5s4d                                                           
   LEXCH  = PE                                                                  
   EATOM  =  1555.1913 eV,  114.3033 Ry                                         
                                                                                
   TITEL  = PAW_PBE Nb_sv 25May2007                                             
   LULTRA =        F    use ultrasoft PP ?                                      
   IUNSCR =        1    unscreen: 0-lin 1-nonlin 2-no                           
   RPACOR =    1.800    partial core radius                                     
   POMASS =   92.910; ZVAL   =   13.000    mass and valenz                      
   RCORE  =    2.400    outmost cutoff radius                                   
   RWIGS  =    2.400; RWIGS  =    1.270    wigner-seitz radius (au A)           
   ENMAX  =  293.235; ENMIN  =  219.927 eV                                      
   ICORE  =        3    local potential                                         
   LCOR   =        T    correct aug charges                                     
   LPAW   =        T    paw PP                                                  
   EAUG   =  455.659                                                            
   DEXC   =    0.000                                                            
   RMAX   =    2.456    core radius for proj-oper                               
   RAUG   =    1.300    factor for augmentation sphere                          
   RDEP   =    2.451    radius for radial grids                                 
   RDEPT  =    1.956    core radius for aug-charge                              
                                                                                
   Atomic configuration                                                         
   11 entries                                                                   
     n  l   j            E        occ.                                          
     1  0  0.50    -18805.2457   2.0000                                         
     2  0  0.50     -2630.2869   2.0000                                         
     2  1  1.50     -2348.4046   6.0000                                         
     3  0  0.50      -438.8757   2.0000                                         
     3  1  1.50      -346.7588   6.0000                                         
     3  2  2.50      -196.2560  10.0000                                         
     4  0  0.50       -58.3859   2.0000                                         
     5  0  0.50        -3.9816   1.0000                                         
     4  1  1.50       -34.5141   6.0000                                         
     4  2  2.50        -3.0408   4.0000                                         
     4  3  2.50        -1.3606   0.0000                                         
   Description                                                                  
     l       E           TYP  RCUT    TYP  RCUT                                 
     0    -58.3859094     23  2.200                                             
     0     -3.9816262     23  2.200                                             
     1    -34.5140738     23  2.200                                             
     1     13.6058260     23  2.200                                             
     2     -3.0408010     23  2.200                                             
     2     -0.1283038     23  2.200                                             
     3     -1.3605826     23  2.400                                             
  local pseudopotential read in
  partial core-charges read in
  partial kinetic energy density read in
  atomic valenz-charges read in
  non local Contribution for L=           0  read in
    real space projection operators read in
  non local Contribution for L=           0  read in
    real space projection operators read in
  non local Contribution for L=           1  read in
    real space projection operators read in
  non local Contribution for L=           1  read in
    real space projection operators read in
  non local Contribution for L=           2  read in
    real space projection operators read in
  non local Contribution for L=           2  read in
    real space projection operators read in
    PAW grid and wavefunctions read in
 
   number of l-projection  operators is LMAX  =           6
   number of lm-projection operators is LMMAX =          18
 
 POTCAR:    PAW_PBE Zr_sv 04Jan2005               
   VRHFIN =Zr: 4s4p5s4d                                                         
   LEXCH  = PE                                                                  
   EATOM  =  1284.2219 eV,   94.3876 Ry                                         
                                                                                
   TITEL  = PAW_PBE Zr_sv 04Jan2005                                             
   LULTRA =        F    use ultrasoft PP ?                                      
   IUNSCR =        1    unscreen: 0-lin 1-nonlin 2-no                           
   RPACOR =    2.200    partial core radius                                     
   POMASS =   91.224; ZVAL   =   12.000    mass and valenz                      
   RCORE  =    2.500    outmost cutoff radius                                   
   RWIGS  =    3.070; RWIGS  =    1.625    wigner-seitz radius (au A)           
   ENMAX  =  229.898; ENMIN  =  172.424 eV                                      
   ICORE  =        3    local potential                                         
   LCOR   =        T    correct aug charges                                     
   LPAW   =        T    paw PP                                                  
   EAUG   =  461.257                                                            
   DEXC   =    0.000                                                            
   RMAX   =    2.561    core radius for proj-oper                               
   RAUG   =    1.300    factor for augmentation sphere                          
   RDEP   =    2.597    radius for radial grids                                 
   RDEPT  =    2.007    core radius for aug-charge                              
                                                                                
   Atomic configuration                                                         
   11 entries                                                                   
     n  l   j            E        occ.                                          
     1  0  0.50    -17820.0161   2.0000                                         
     2  0  0.50     -2467.0882   2.0000                                         
     2  1  1.50     -2199.6095   6.0000                                         
     3  0  0.50      -402.4863   2.0000                                         
     3  1  1.50      -315.3675   6.0000                                         
     3  2  2.50      -172.4472  10.0000                                         
     4  0  0.50       -52.4146   2.0000                                         
     5  0  0.50        -3.8421   1.0000                                         
     4  1  1.50       -30.5054   6.0000                                         
     4  2  2.50        -2.3341   3.0000                                         
     4  3  2.50        -1.3606   0.0000                                         
   Description                                                                  
     l       E           TYP  RCUT    TYP  RCUT                                 
     0    -52.4145962     23  2.200                                             
     0     -3.8421270     23  2.500                                             
     1    -30.5053914     23  2.200                                             
     1     20.4087390     23  2.200                                             
     2     -2.3340816     23  2.500                                             
     2     -0.6120942     23  2.500                                             
     3     -4.0817478     23  2.500                                             
  local pseudopotential read in
  partial core-charges read in
  partial kinetic energy density read in
  atomic valenz-charges read in
  non local Contribution for L=           0  read in
    real space projection operators read in
  non local Contribution for L=           0  read in
    real space projection operators read in
  non local Contribution for L=           1  read in
    real space projection operators read in
  non local Contribution for L=           1  read in
    real space projection operators read in
  non local Contribution for L=           2  read in
    real space projection operators read in
  non local Contribution for L=           2  read in
    real space projection operators read in
    PAW grid and wavefunctions read in
 
   number of l-projection  operators is LMAX  =           6
   number of lm-projection operators is LMMAX =          18
 
 Optimization of the real space projectors (new method)

 maximal supplied QI-value         = 12.85
 optimisation between [QCUT,QGAM] = [  8.87, 17.73] = [ 22.01, 88.06] Ry 
 Optimized for a Real-space Cutoff    1.90 Angstroem

   l    n(q)    QCUT    max X(q) W(low)/X(q) W(high)/X(q)  e(spline) 
   2      9     8.867    62.315    0.23E-03    0.62E-04    0.11E-05
   2      9     8.867    52.185    0.23E-03    0.62E-04    0.11E-05
   0     10     8.867   103.837    0.15E-04    0.23E-04    0.98E-07
   0     10     8.867    59.728    0.12E-04    0.21E-04    0.89E-07
   1     10     8.867    13.958    0.50E-04    0.22E-04    0.14E-06
   1     10     8.867     8.441    0.36E-04    0.19E-04    0.98E-07
 Optimization of the real space projectors (new method)

 maximal supplied QI-value         = 12.47
 optimisation between [QCUT,QGAM] = [  8.86, 17.71] = [ 21.96, 87.83] Ry 
 Optimized for a Real-space Cutoff    1.90 Angstroem

   l    n(q)    QCUT    max X(q) W(low)/X(q) W(high)/X(q)  e(spline) 
   2      9     8.855    48.111    0.22E-03    0.80E-04    0.10E-05
   2      9     8.855    40.545    0.21E-03    0.76E-04    0.95E-06
   0     10     8.855   121.658    0.27E-04    0.12E-04    0.11E-06
   0     10     8.855    71.177    0.22E-04    0.11E-04    0.99E-07
   1     10     8.855    14.183    0.65E-04    0.10E-03    0.98E-07
   1     10     8.855     8.257    0.43E-04    0.73E-04    0.72E-07
 Optimization of the real space projectors (new method)

 maximal supplied QI-value         = 15.68
 optimisation between [QCUT,QGAM] = [  8.78, 17.72] = [ 21.60, 87.97] Ry 
 Optimized for a Real-space Cutoff    1.96 Angstroem

   l    n(q)    QCUT    max X(q) W(low)/X(q) W(high)/X(q)  e(spline) 
   0     10     8.783    10.201    0.29E-04    0.25E-05    0.69E-07
   0     10     8.783     8.174    0.45E-04    0.57E-05    0.14E-06
   1     10     8.783     3.488    0.76E-05    0.24E-04    0.95E-07
   1     10     8.783     4.917    0.78E-04    0.14E-03    0.46E-06
   2      9     8.783   153.744    0.22E-03    0.34E-04    0.15E-05
   2      9     8.783   126.342    0.22E-03    0.35E-04    0.15E-05
 Optimization of the real space projectors (new method)

 maximal supplied QI-value         = 15.12
 optimisation between [QCUT,QGAM] = [  8.77, 17.69] = [ 21.53, 87.61] Ry 
 Optimized for a Real-space Cutoff    1.74 Angstroem

   l    n(q)    QCUT    max X(q) W(low)/X(q) W(high)/X(q)  e(spline) 
   0      9     8.768    12.107    0.28E-04    0.53E-06    0.29E-07
   0      9     8.768     9.948    0.36E-04    0.50E-05    0.64E-07
   1      9     8.768     3.563    0.14E-04    0.16E-04    0.88E-07
   1      9     8.768     4.524    0.21E-03    0.33E-03    0.19E-06
   2      8     8.768    87.261    0.19E-03    0.25E-03    0.24E-06
   2      8     8.768    70.950    0.19E-03    0.24E-03    0.24E-06
  PAW_PBE Ta 17Jan2003                  :
 energy of atom  1       EATOM= -130.6506
 kinetic energy error for atom=    0.0121 (will be added to EATOM!!)
  PAW_PBE Hf 20Jan2003                  :
 energy of atom  2       EATOM=  -75.9011
 kinetic energy error for atom=    0.0071 (will be added to EATOM!!)
  PAW_PBE Nb_sv 25May2007               :
 energy of atom  3       EATOM=-1555.1913
 kinetic energy error for atom=    0.0655 (will be added to EATOM!!)
  PAW_PBE Zr_sv 04Jan2005               :
 energy of atom  4       EATOM=-1284.2219
 kinetic energy error for atom=    0.0483 (will be added to EATOM!!)
 
 
 POSCAR: generated by pypospack                  
  positions in direct lattice
  No initial velocities read in
 exchange correlation table for  LEXCH =        8
   RHO(1)=    0.500       N(1)  =     2000
   RHO(2)=  100.500       N(2)  =     4000
 


--------------------------------------------------------------------------------------------------------


 ion  position               nearest neighbor table
   1  0.766  0.842  0.501-  26 2.78  22 2.84  24 2.90  25 2.92  10 2.95  21 2.96  19 3.02  32 3.06
                            17 3.23  12 3.31  13 3.34   7 3.34   6 3.57  17 3.67
   2  0.239  0.495  0.174-  27 2.83  28 2.89  10 2.91  34 2.94   4 2.96  14 2.99  32 3.02  36 3.05
                            15 3.30  20 3.30  31 3.34   5 3.45  31 3.56   3 3.57
   3  0.225  0.529  0.829-  25 2.75   4 2.82  34 2.87  36 2.94  19 2.96  16 3.02  14 3.02  35 3.09
                            30 3.10   9 3.14   2 3.57
   4  1.000  0.669  0.010-   3 2.82   7 2.84   9 2.86   5 2.89   2 2.96  31 3.01  30 3.03  13 3.04
                             8 3.22  10 3.32  34 3.34  36 3.44  36 3.47
   5  0.228  0.834  0.181-  22 2.75   8 2.79  10 2.83   4 2.89  21 2.90  11 2.92  32 3.03  36 3.12
                             7 3.14  17 3.27  15 3.45   2 3.45  30 3.64
   6  0.758  0.492  0.492-  27 2.77  28 2.85  25 2.88  10 2.91  16 2.96  32 2.98  35 2.99  19 3.00
                            31 3.29  20 3.31  12 3.32   9 3.51   1 3.57
   7  0.772  0.831  0.176-   8 2.77  22 2.78  10 2.81   4 2.84  11 2.88  21 2.93  32 3.01  36 3.10
                             5 3.14   1 3.34  29 3.46  31 3.50  13 3.61
   8  0.999  0.984  0.014-   7 2.77   5 2.79  13 2.94  30 2.99  29 3.02  15 3.04  18 3.07  33 3.08
                             4 3.22  22 3.25  11 3.42  11 3.48  34 3.66
   9  0.771  0.519  0.833-  25 2.74   4 2.86  34 2.92  19 2.94  36 2.97  16 3.04  14 3.04  35 3.07
                             3 3.14  13 3.24   6 3.51  31 3.52
  10  0.995  0.665  0.333-   7 2.81   5 2.83  20 2.89   6 2.91   2 2.91   1 2.95  31 2.95  17 2.96
                            27 3.30   4 3.32  32 3.41  32 3.49
  11  0.503  0.984  0.025-   7 2.88   5 2.92  29 2.98  15 3.04  33 3.06  18 3.09  13 3.12  30 3.12
                            21 3.13  36 3.25   8 3.42   8 3.48  14 3.76
  12  0.744  0.166  0.492-  24 2.89  26 2.92  21 2.97  28 2.97  22 2.97  27 2.98  16 3.05  35 3.11
                            29 3.28   1 3.31   6 3.32  23 3.37  18 3.51
  13  0.765  0.836  0.825-  25 2.94   8 2.94  26 2.98  19 3.01  24 3.03   4 3.04  11 3.12  36 3.13
                            18 3.19   9 3.24  30 3.30   1 3.34  30 3.60   7 3.61
  14  0.486  0.349  0.983-   2 2.99   3 3.02  33 3.04  31 3.04   9 3.04  18 3.13  15 3.15  35 3.20
                            36 3.23  34 3.25  29 3.25  34 3.65  11 3.76
  15  0.245  0.172  0.175-  27 2.94  22 2.94  28 2.98  21 3.01  11 3.04   8 3.04  34 3.08  14 3.15
                            23 3.25   2 3.30  29 3.39   5 3.45  29 3.51  33 3.56
  16  0.007  0.332  0.665-  20 2.94   6 2.96   3 3.02  23 3.03   9 3.04  12 3.05  18 3.12  33 3.14
                            24 3.20  27 3.27  34 3.28  25 3.33  35 3.38  35 3.53
  17  0.235  0.840  0.499-  26 2.86  22 2.87  24 2.91  21 2.96  10 2.96  25 2.99  32 3.04  19 3.10
                             1 3.23   5 3.27  23 3.28  30 3.37  20 3.43   1 3.67
  18  0.745  0.149  0.832-  24 2.87  26 2.99   8 3.07  11 3.09  16 3.12  35 3.12  34 3.12  14 3.13
                            13 3.19  33 3.31  12 3.51  29 3.51  33 3.59
  19  0.509  0.664  0.660-   9 2.94   3 2.96   6 3.00  13 3.01  20 3.01   1 3.02  30 3.05  17 3.10
                            35 3.25  26 3.31  25 3.31  32 3.32  36 3.53
  20  0.238  0.503  0.495-  27 2.72  28 2.78  25 2.87  10 2.89  32 2.94  16 2.94  19 3.01  35 3.02
                             2 3.30   6 3.31  17 3.43
  21  0.501  0.990  0.329-   5 2.90   7 2.93  23 2.95  17 2.96   1 2.96  12 2.97  29 2.99  15 3.01
                            11 3.13  32 3.31
  22  0.998  0.995  0.330-   5 2.75   7 2.78   1 2.84  17 2.87  15 2.94  29 2.95  23 2.95  12 2.97
                             8 3.25
  23  0.255  0.161  0.491-  24 2.83  28 2.85  27 2.90  21 2.95  22 2.95  26 2.96  16 3.03  35 3.12
                            15 3.25  17 3.28  12 3.37
  24  0.003  0.018  0.656-  23 2.83  33 2.85  18 2.87  12 2.89   1 2.90  17 2.91  13 3.03  30 3.07
                            16 3.20
  25  0.989  0.658  0.658-   9 2.74   3 2.75  20 2.87   6 2.88   1 2.92  13 2.94  17 2.99  30 3.04
                            19 3.31  16 3.33
  26  0.507  0.988  0.648-   1 2.78  17 2.86  12 2.92  23 2.96  33 2.97  13 2.98  18 2.99  30 3.04
                            19 3.31
  27  0.014  0.342  0.347-  20 2.72   6 2.77   2 2.83  23 2.90  15 2.94  31 2.95  12 2.98  29 3.09
                            16 3.27  10 3.30
  28  0.481  0.344  0.347-  20 2.78  23 2.85   6 2.85   2 2.89  12 2.97  15 2.98  31 2.98  29 3.14
                            32 3.28  35 3.34
  29  0.753  0.170  0.173-  22 2.95  11 2.98  21 2.99   8 3.02  27 3.09  28 3.14  34 3.18  31 3.24
                            14 3.25  12 3.28  15 3.39   7 3.46  15 3.51  18 3.51
  30  0.242  0.833  0.826-   8 2.99   4 3.03  25 3.04  26 3.04  19 3.05  36 3.06  24 3.07   3 3.10
                            11 3.12  33 3.16  13 3.30  17 3.37  13 3.60   5 3.64
  31  0.755  0.488  0.173-  27 2.95  10 2.95  28 2.98   4 3.01  32 3.03  34 3.04  14 3.04  36 3.08
                            29 3.24   6 3.29   2 3.34   7 3.50   9 3.52   2 3.56
  32  0.501  0.665  0.337-  20 2.94   6 2.98   7 3.01   2 3.02   5 3.03  31 3.03  17 3.04   1 3.06
                            28 3.28  21 3.31  19 3.32  10 3.41  36 3.44  10 3.49
  33  0.264  0.142  0.831-  24 2.85  26 2.97  14 3.04  11 3.06  35 3.08   8 3.08  34 3.09  16 3.14
                            30 3.16  18 3.31  15 3.56  18 3.59
  34  0.015  0.342  0.983-   3 2.87   9 2.92   2 2.94  31 3.04  15 3.08  33 3.09  18 3.12  29 3.18
                            14 3.25  16 3.28   4 3.34  14 3.65   8 3.66
  35  0.496  0.345  0.672-   6 2.99  20 3.02   9 3.07  33 3.08   3 3.09  12 3.11  18 3.12  23 3.12
                            14 3.20  19 3.25  28 3.34  16 3.38  16 3.53
  36  0.497  0.665  0.003-   3 2.94   9 2.97   2 3.05  30 3.06  31 3.08   7 3.10   5 3.12  13 3.13
                            14 3.23  11 3.25   4 3.44  32 3.44   4 3.47  19 3.53
 
  LATTYP: Found a triclinic cell.
 ALAT       =    12.3998925288
 B/A-ratio  =     1.1661058255
 C/A-ratio  =     0.5563850146
 COS(alpha) =     0.0000498929
 COS(beta)  =     0.5580989436
 COS(gamma) =     0.5886715254
  
  Lattice vectors:
  
 A1 = (  -6.9097421640,   0.0229761559, -10.2962260100)
 A2 = (  -0.0005836323, -10.1753343172, -10.2733745619)
 A3 = (  -6.8991070870,   0.0070834002,  -0.0071083417)


Analysis of symmetry for initial positions (statically):
=====================================================================
 Subroutine PRICEL returns:
 Original cell was already a primitive cell.
 

 Routine SETGRP: Setting up the symmetry group for a 
 triclinic supercell.


 Subroutine GETGRP returns: Found  1 space group operations
 (whereof  1 operations were pure point group operations)
 out of a pool of  2 trial point group operations.


The static configuration has the point symmetry C_1 .


Analysis of symmetry for dynamics (positions and initial velocities):
=====================================================================
 Subroutine PRICEL returns:
 Original cell was already a primitive cell.
 

 Routine SETGRP: Setting up the symmetry group for a 
 triclinic supercell.


 Subroutine GETGRP returns: Found  1 space group operations
 (whereof  1 operations were pure point group operations)
 out of a pool of  2 trial point group operations.


The dynamic configuration has the point symmetry C_1 .


 Subroutine INISYM returns: Found  1 space group operations
 (whereof  1 operations are pure point group operations),
 and found     1 'primitive' translations

 
 
 KPOINTS: k-points                                

Automatic generation of k-mesh.
Space group operators:
 irot       det(A)        alpha          n_x          n_y          n_z        tau_x        tau_y        tau_z
    1     1.000000     0.000000     1.000000     0.000000     0.000000     0.000000     0.000000     0.000000
 
 Subroutine IBZKPT returns following result:
 ===========================================
 
 Found     14 irreducible k-points:
 
 Following reciprocal coordinates:
            Coordinates               Weight
  0.000000  0.000000  0.000000      1.000000
  0.333333 -0.000000 -0.000000      2.000000
  0.000000  0.333333  0.000000      2.000000
  0.333333  0.333333  0.000000      2.000000
 -0.333333  0.333333 -0.000000      2.000000
  0.000000 -0.000000  0.333333      2.000000
  0.333333  0.000000  0.333333      2.000000
 -0.333333 -0.000000  0.333333      2.000000
  0.000000  0.333333  0.333333      2.000000
  0.333333  0.333333  0.333333      2.000000
 -0.333333  0.333333  0.333333      2.000000
  0.000000 -0.333333  0.333333      2.000000
  0.333333 -0.333333  0.333333      2.000000
 -0.333333 -0.333333  0.333333      2.000000
 
 Following cartesian coordinates:
            Coordinates               Weight
  0.000000  0.000000  0.000000      1.000000
  0.241013  0.000237 -0.000249      2.000000
  0.000167  0.163158  0.000252      2.000000
  0.241180  0.163395  0.000003      2.000000
 -0.240846  0.162920  0.000501      2.000000
 -0.000166  0.000249  0.161605      2.000000
  0.240847  0.000487  0.161357      2.000000
 -0.241179  0.000012  0.161854      2.000000
  0.000001  0.163407  0.161857      2.000000
  0.241014  0.163644  0.161608      2.000000
 -0.241012  0.163170  0.162106      2.000000
 -0.000334 -0.162908  0.161353      2.000000
  0.240679 -0.162671  0.161105      2.000000
 -0.241346 -0.163145  0.161602      2.000000
 


--------------------------------------------------------------------------------------------------------




 Dimension of arrays:
   k-points           NKPTS =     14   k-points in BZ     NKDIM =     14   number of bands    NBANDS=    180
   number of dos      NEDOS =    301   number of ions     NIONS =     36
   non local maximal  LDIM  =      6   non local SUM 2l+1 LMDIM =     18
   total plane-waves  NPLWV = 144000
   max r-space proj   IRMAX =   6333   max aug-charges    IRDMAX=  13748
   dimension x,y,z NGX =    40 NGY =   60 NGZ =   60
   dimension x,y,z NGXF=    80 NGYF=  120 NGZF=  120
   support grid    NGXF=    80 NGYF=  120 NGZF=  120
   ions per type =              10   9   9   8
 NGX,Y,Z   is equivalent  to a cutoff of   9.64,  9.79,  9.69 a.u.
 NGXF,Y,Z  is equivalent  to a cutoff of  19.28, 19.58, 19.39 a.u.


 I would recommend the setting:
   dimension x,y,z NGX =    39 NGY =   58 NGZ =   58
 SYSTEM =  automatically generated by mexm         
 POSCAR =  generated by pypospack                  

 Startparameter for this run:
   NWRITE =      2    write-flag & timer
   PREC   = accura    normal or accurate (medium, high low for compatibility)
   ISTART =      0    job   : 0-new  1-cont  2-samecut
   ICHARG =      2    charge: 1-file 2-atom 10-const
   ISPIN  =      1    spin polarized calculation?
   LNONCOLLINEAR =      F non collinear calculations
   LSORBIT =      F    spin-orbit coupling
   INIWAV =      1    electr: 0-lowe 1-rand  2-diag
   LASPH  =      F    aspherical Exc in radial PAW
   METAGGA=      F    non-selfconsistent MetaGGA calc.

 Electronic Relaxation 1
   ENCUT  =  300.0 eV  22.05 Ry    4.70 a.u.   9.74 14.39 14.53*2*pi/ulx,y,z
   ENINI  =  300.0     initial cutoff
   ENAUG  =  461.3 eV  augmentation charge cutoff
   NELM   =     70;   NELMIN=  2; NELMDL= -5     # of ELM steps 
   EDIFF  = 0.1E-04   stopping-criterion for ELM
   LREAL  =      T    real-space projection
   NLSPLINE    = F    spline interpolate recip. space projectors
   LCOMPAT=      F    compatible to vasp.4.4
   GGA_COMPAT  = T    GGA compatible to vasp.4.4-vasp.4.6
   LMAXPAW     = -100 max onsite density
   LMAXMIX     =    2 max onsite mixed and CHGCAR
   VOSKOWN=      0    Vosko Wilk Nusair interpolation
   ROPT   =   -0.00025  -0.00025  -0.00025  -0.00025
 Ionic relaxation
   EDIFFG = -.1E-01   stopping-criterion for IOM
   NSW    =    300    number of steps for IOM
   NBLOCK =      1;   KBLOCK =    300    inner block; outer block 
   IBRION =      2    ionic relax: 0-MD 1-quasi-New 2-CG
   NFREE  =      1    steps in history (QN), initial steepest desc. (CG)
   ISIF   =      3    stress and relaxation
   IWAVPR =     11    prediction:  0-non 1-charg 2-wave 3-comb
   ISYM   =      1    0-nonsym 1-usesym 2-fastsym
   LCORR  =      T    Harris-Foulkes like correction to forces

   POTIM  = 0.1500    time-step for ionic-motion
   TEIN   =    0.0    initial temperature
   TEBEG  =    0.0;   TEEND  =   0.0 temperature during run
   SMASS  =  -3.00    Nose mass-parameter (am)
   estimated Nose-frequenzy (Omega)   =  0.10E-29 period in steps =****** mass=  -0.109E-26a.u.
   SCALEE = 1.0000    scale energy and forces
   NPACO  =    256;   APACO  = 16.0  distance and # of slots for P.C.
   PSTRESS=    0.0 pullay stress

  Mass of Ions in am
   POMASS = 180.95178.49 92.91 91.22
  Ionic Valenz
   ZVAL   =   5.00  4.00 13.00 12.00
  Atomic Wigner-Seitz radii
   RWIGS  =  -1.00 -1.00 -1.00 -1.00
  virtual crystal weights 
   VCA    =   1.00  1.00  1.00  1.00
   NELECT =     299.0000    total number of electrons
   NUPDOWN=      -1.0000    fix difference up-down

 DOS related values:
   EMIN   =  10.00;   EMAX   =-10.00  energy-range for DOS
   EFERMI =   0.00
   ISMEAR =     1;   SIGMA  =   0.15  broadening in eV -4-tet -1-fermi 0-gaus

 Electronic relaxation 2 (details)
   IALGO  =     68    algorithm
   LDIAG  =      T    sub-space diagonalisation (order eigenvalues)
   LSUBROT=      F    optimize rotation matrix (better conditioning)
   TURBO    =      0    0=normal 1=particle mesh
   IRESTART =      0    0=no restart 2=restart with 2 vectors
   NREBOOT  =      0    no. of reboots
   NMIN     =      0    reboot dimension
   EREF     =   0.00    reference energy to select bands
   IMIX   =      4    mixing-type and parameters
     AMIX     =   0.40;   BMIX     =  1.00
     AMIX_MAG =   1.60;   BMIX_MAG =  1.00
     AMIN     =   0.10
     WC   =   100.;   INIMIX=   1;  MIXPRE=   1;  MAXMIX= -45

 Intra band minimization:
   WEIMIN = 0.0010     energy-eigenvalue tresh-hold
   EBREAK =  0.14E-07  absolut break condition
   DEPER  =   0.30     relativ break condition  

   TIME   =   0.40     timestep for ELM

  volume/ion in A,a.u.               =      20.10       135.61
  Fermi-wavevector in a.u.,A,eV,Ry     =   1.219458  2.304441 20.232909  1.487077
  Thomas-Fermi vector in A             =   2.354709
 
 Write flags
   LWAVE  =      F    write WAVECAR
   LCHARG =      F    write CHGCAR
   LVTOT  =      F    write LOCPOT, total local potential
   LVHAR  =      F    write LOCPOT, Hartree potential only
   LELF   =      F    write electronic localiz. function (ELF)
   LORBIT =      0    0 simple, 1 ext, 2 COOP (PROOUT)


 Dipole corrections
   LMONO  =      F    monopole corrections only (constant potential shift)
   LDIPOL =      F    correct potential (dipole corrections)
   IDIPOL =      0    1-x, 2-y, 3-z, 4-all directions 
   EPSILON=  1.0000000 bulk dielectric constant

 Exchange correlation treatment:
   GGA     =    --    GGA type
   LEXCH   =     8    internal setting for exchange type
   VOSKOWN=      0    Vosko Wilk Nusair interpolation
   LHFCALC =     F    Hartree Fock is set to
   LHFONE  =     F    Hartree Fock one center treatment
   AEXX    =    0.0000 exact exchange contribution

 Linear response parameters
   LEPSILON=     F    determine dielectric tensor
   LRPA    =     F    only Hartree local field effects (RPA)
   LNABLA  =     F    use nabla operator in PAW spheres
   LVEL    =     F    velocity operator in full k-point grid
   LINTERFAST=   F  fast interpolation
   KINTER  =     0    interpolate to denser k-point grid
   CSHIFT  =0.1000    complex shift for real part using Kramers Kronig
   OMEGAMAX=  -1.0    maximum frequency
   DEG_THRESHOLD= 0.2000000E-02 threshold for treating states as degnerate
   RTIME   =    0.100 relaxation time in fs

 Orbital magnetization related:
   ORBITALMAG=     F  switch on orbital magnetization
   LCHIMAG   =     F  perturbation theory with respect to B field
   DQ        =  0.001000  dq finite difference perturbation B field



--------------------------------------------------------------------------------------------------------


 conjugate gradient relaxation of ions
 charge density and potential will be updated during run
 non-spin polarized calculation
 RMM-DIIS sequential band-by-band and
  variant of blocked Davidson during initial phase
 perform sub-space diagonalisation
    before iterative eigenvector-optimisation
 modified Broyden-mixing scheme, WC =      100.0
 initial mixing is a Kerker type mixing with AMIX =  0.4000 and BMIX =      1.0000
 Hartree-type preconditioning will be used
 using additional bands           30
 real space projection scheme for non local part
 use partial core corrections
 calculate Harris-corrections to forces 
   (improved forces if not selfconsistent)
 use gradient corrections 
 use of overlap-Matrix (Vanderbilt PP)
 Methfessel and Paxton  Order N= 1 SIGMA  =   0.15


--------------------------------------------------------------------------------------------------------


  energy-cutoff  :      300.00
  volume of cell :      723.43
      direct lattice vectors                 reciprocal lattice vectors
     6.899107087 -0.007083400  0.007108342     0.144946594  0.000142727 -0.000149600
    -0.010051445 10.191227073 -0.015743106     0.000100589  0.098123944  0.000151460
     0.010635077 -0.015892756 10.289117668    -0.000099984  0.000150038  0.097190399

  length of vectors
     6.899114385 10.191244189 10.289135439     0.144946742  0.098124113  0.097190566


 
 k-points in units of 2pi/SCALE and weight: k-points                                
   0.00000000  0.00000000  0.00000000       0.037
   0.24101285  0.00023732 -0.00024875       0.074
   0.00016726  0.16315755  0.00025184       0.074
   0.24118010  0.16339487  0.00000309       0.074
  -0.24084559  0.16292023  0.00050059       0.074
  -0.00016625  0.00024948  0.16160528       0.074
   0.24084660  0.00048680  0.16135653       0.074
  -0.24117910  0.00001216  0.16185403       0.074
   0.00000101  0.16340703  0.16185712       0.074
   0.24101385  0.16364435  0.16160837       0.074
  -0.24101184  0.16316971  0.16210587       0.074
  -0.00033351 -0.16290807  0.16135344       0.074
   0.24067934 -0.16267075  0.16110469       0.074
  -0.24134635 -0.16314539  0.16160219       0.074
 
 k-points in reciprocal lattice and weights: k-points                                
   0.00000000  0.00000000  0.00000000       0.037
   0.33333333 -0.00000000 -0.00000000       0.074
   0.00000000  0.33333333  0.00000000       0.074
   0.33333333  0.33333333  0.00000000       0.074
  -0.33333333  0.33333333 -0.00000000       0.074
   0.00000000 -0.00000000  0.33333333       0.074
   0.33333333  0.00000000  0.33333333       0.074
  -0.33333333 -0.00000000  0.33333333       0.074
   0.00000000  0.33333333  0.33333333       0.074
   0.33333333  0.33333333  0.33333333       0.074
  -0.33333333  0.33333333  0.33333333       0.074
   0.00000000 -0.33333333  0.33333333       0.074
   0.33333333 -0.33333333  0.33333333       0.074
  -0.33333333 -0.33333333  0.33333333       0.074
 
 position of ions in fractional coordinates (direct lattice) 
   0.76618300  0.84187000  0.50058200
   0.23858700  0.49489000  0.17420500
   0.22534400  0.52868300  0.82892000
   0.99961200  0.66876300  0.01041700
   0.22751000  0.83366900  0.18051700
   0.75849700  0.49191900  0.49242800
   0.77183100  0.83097700  0.17601700
   0.99875200  0.98427200  0.01440600
   0.77052200  0.51895900  0.83274600
   0.99523100  0.66490900  0.33294800
   0.50337200  0.98352600  0.02492700
   0.74389100  0.16638100  0.49157500
   0.76462100  0.83627300  0.82513000
   0.48567000  0.34929500  0.98330600
   0.24463400  0.17160000  0.17542400
   0.00658300  0.33197100  0.66505400
   0.23489600  0.83952100  0.49871000
   0.74463400  0.14870500  0.83217000
   0.50942500  0.66389000  0.66001700
   0.23825600  0.50302400  0.49479500
   0.50132900  0.99029000  0.32899400
   0.99798800  0.99541500  0.33045500
   0.25493700  0.16091300  0.49116900
   0.00276300  0.01779800  0.65550900
   0.98907200  0.65832100  0.65759000
   0.50737100  0.98827600  0.64810000
   0.01435100  0.34179900  0.34717800
   0.48112200  0.34413100  0.34738500
   0.75280800  0.16985200  0.17284600
   0.24219300  0.83280300  0.82645400
   0.75454700  0.48761800  0.17301000
   0.50132200  0.66544900  0.33729700
   0.26428900  0.14228300  0.83111400
   0.01475300  0.34192400  0.98317100
   0.49563900  0.34492300  0.67214000
   0.49746000  0.66510900  0.00328900
 
 position of ions in cartesian coordinates  (Angst):
   5.28284028  8.56630553  5.14273974
   1.64291559  5.03907776  1.78632060
   1.55817399  5.37315848  8.52213413
   6.88981898  6.80826938  0.10375892
   1.56315609  8.49162963  1.84585333
   5.23324454  5.00005945  5.06429696
   5.31846416  8.46041072  1.80346390
   6.88075685 10.02363594  0.13982900
   5.31955382  5.27013647  8.56552869
   6.86306288  6.76389752  3.42234786
   3.46319658 10.01937505  0.24457122
   5.13573924  1.68254479  5.06054150
   5.27557173  8.50411833  8.48212931
   3.35763595  3.54067702 10.11530446
   1.68789698  1.74429375  1.80399560
   0.04915293  3.37257567  6.83763940
   1.61743808  8.54615940  5.11973892
   5.14466520  1.49698641  8.56524708
   3.51492391  6.75175579  6.78416205
   1.64395972  5.11688049  5.08477842
   3.45226749 10.08349052  3.37303136
   6.87873514 10.13217931  3.39151349
   1.76244388  1.63028907  5.05297454
   0.02585473  0.17094604  6.74434868
   6.82409009  6.69164189  6.76268753
   3.49736585 10.05785112  6.65642519
   0.09926578  3.47773195  3.56687633
   3.31954765  3.49818828  3.57228743
   5.19383398  1.72292086  1.78111005
   1.67133397  8.47243430  8.49209314
   5.20263926  4.96133140  1.77780720
   3.45557262  6.77283022  3.46357586
   1.83076692  1.43495761  8.55106842
   0.10880180  3.46889533 10.11068403
   3.42314782  3.50099565  6.91382056
   3.42537948  6.77470087  0.02690614
 


--------------------------------------------------------------------------------------------------------


 k-point  1 :   0.0000 0.0000 0.0000  plane waves:    8579
 k-point  2 :   0.3333-0.0000-0.0000  plane waves:    8535
 k-point  3 :   0.0000 0.3333 0.0000  plane waves:    8532
 k-point  4 :   0.3333 0.3333 0.0000  plane waves:    8528
 k-point  5 :  -0.3333 0.3333-0.0000  plane waves:    8526
 k-point  6 :   0.0000-0.0000 0.3333  plane waves:    8531
 k-point  7 :   0.3333 0.0000 0.3333  plane waves:    8531
 k-point  8 :  -0.3333-0.0000 0.3333  plane waves:    8527
 k-point  9 :   0.0000 0.3333 0.3333  plane waves:    8537
 k-point 10 :   0.3333 0.3333 0.3333  plane waves:    8528
 k-point 11 :  -0.3333 0.3333 0.3333  plane waves:    8531
 k-point 12 :   0.0000-0.3333 0.3333  plane waves:    8533
 k-point 13 :   0.3333-0.3333 0.3333  plane waves:    8535
 k-point 14 :  -0.3333-0.3333 0.3333  plane waves:    8538

 maximum and minimum number of plane-waves per node :      1734     1676

 maximum number of plane-waves:      8579
 maximum index in each direction: 
   IXMAX=   10   IYMAX=   14   IZMAX=   14
   IXMIN=  -10   IYMIN=  -14   IZMIN=  -14

 WARNING: aliasing errors must be expected set NGX to  42 to avoid them
 NGY is ok and might be reduce to  58
 NGZ is ok and might be reduce to  58
 aliasing errors are usually negligible using standard VASP settings
 and one can safely disregard these warnings

 real space projection operators:
  total allocation   :      27426.66 KBytes
  max/ min on nodes  :       5537.11       5427.42


 parallel 3D FFT for wavefunctions:
    minimum data exchange during FFTs selected (reduces bandwidth)
 parallel 3D FFT for charge:
    minimum data exchange during FFTs selected (reduces bandwidth)


 total amount of memory used by VASP on root node    67783. kBytes
========================================================================

   base      :      30000. kBytes
   nonlr-proj:      10535. kBytes
   fftplans  :       2814. kBytes
   grid      :       5360. kBytes
   one-center:        124. kBytes
   wavefun   :      18950. kBytes
 
     INWAV:  cpu time    0.0000: real time    0.0000
 Broyden mixing: mesh for mixing (old mesh)
   NGX = 19   NGY = 29   NGZ = 29
  (NGX  = 80   NGY  =120   NGZ  =120)
  gives a total of  15979 points

 initial charge density was supplied:
 charge density of overlapping atoms calculated
 number of electron     299.0000000 magnetization 
 keeping initial charge density in first step


--------------------------------------------------------------------------------------------------------


 Maximum index for non-local projection operator         1231
 Maximum index for augmentation-charges          679 (set IRDMAX)


--------------------------------------------------------------------------------------------------------


 First call to EWALD:  gamma=   0.197
 Maximum number of real-space cells 3x 2x 2
 Maximum number of reciprocal cells 2x 3x 3

 FEWALD executed in parallel
    FEWALD:  cpu time    0.0569: real time    0.0573


----------------------------------------- Iteration    1(   1)  ---------------------------------------


    POTLOK:  cpu time    0.0499: real time    0.0502
    SETDIJ:  cpu time    0.0557: real time    0.0559
     EDDAV:  cpu time    1.1204: real time    1.1360
       DOS:  cpu time    0.0014: real time    0.0014
    --------------------------------------------
      LOOP:  cpu time    1.2341: real time    1.6170

 eigenvalue-minimisations  :  5568
 total energy-change (2. order) : 0.1916614E+04  (-0.1130697E+05)
 number of electron     299.0000000 magnetization 
 augmentation part      299.0000000 magnetization 

 Free energy of the ion-electron system (eV)
  ---------------------------------------------------
  alpha Z        PSCENC =      1558.02730669
  Ewald energy   TEWEN  =    -20178.14133163
  -Hartree energ DENC   =     -6949.06294817
  -exchange      EXHF   =         0.00000000
  -V(xc)+E(xc)   XCENC  =      -233.56462235
  PAW double counting   =     22141.40317339   -20549.38285755
  entropy T*S    EENTRO =         0.00382613
  eigenvalues    EBANDS =      -131.62116176
  atomic energy  EATOM  =     26258.95213085
  Solvation  Ediel_sol  =         0.00000000
  ---------------------------------------------------
  free energy    TOTEN  =      1916.61351562 eV

  energy without entropy =     1916.60968949  energy(sigma->0) =     1916.61224024


--------------------------------------------------------------------------------------------------------




----------------------------------------- Iteration    1(   2)  ---------------------------------------


     EDDAV:  cpu time    1.0697: real time    1.0773
       DOS:  cpu time    0.0013: real time    0.0013
    --------------------------------------------
      LOOP:  cpu time    1.0715: real time    1.3008

 eigenvalue-minimisations  :  5732
 total energy-change (2. order) :-0.2003757E+04  (-0.1935520E+04)
 number of electron     299.0000000 magnetization 
 augmentation part      299.0000000 magnetization 

 Free energy of the ion-electron system (eV)
  ---------------------------------------------------
  alpha Z        PSCENC =      1558.02730669
  Ewald energy   TEWEN  =    -20178.14133163
  -Hartree energ DENC   =     -6949.06294817
  -exchange      EXHF   =         0.00000000
  -V(xc)+E(xc)   XCENC  =      -233.56462235
  PAW double counting   =     22141.40317339   -20549.38285755
  entropy T*S    EENTRO =         0.00502527
  eigenvalues    EBANDS =     -2135.37887554
  atomic energy  EATOM  =     26258.95213085
  Solvation  Ediel_sol  =         0.00000000
  ---------------------------------------------------
  free energy    TOTEN  =       -87.14299902 eV

  energy without entropy =      -87.14802430  energy(sigma->0) =      -87.14467411


--------------------------------------------------------------------------------------------------------




----------------------------------------- Iteration    1(   3)  ---------------------------------------


     EDDAV:  cpu time    1.5240: real time    1.5365
       DOS:  cpu time    0.0012: real time    0.0012
    --------------------------------------------
      LOOP:  cpu time    1.5257: real time    1.5774

 eigenvalue-minimisations  :  8760
 total energy-change (2. order) :-0.2591000E+03  (-0.2463067E+03)
 number of electron     299.0000000 magnetization 
 augmentation part      299.0000000 magnetization 

 Free energy of the ion-electron system (eV)
  ---------------------------------------------------
  alpha Z        PSCENC =      1558.02730669
  Ewald energy   TEWEN  =    -20178.14133163
  -Hartree energ DENC   =     -6949.06294817
  -exchange      EXHF   =         0.00000000
  -V(xc)+E(xc)   XCENC  =      -233.56462235
  PAW double counting   =     22141.40317339   -20549.38285755
  entropy T*S    EENTRO =        -0.00955472
  eigenvalues    EBANDS =     -2394.46429103
  atomic energy  EATOM  =     26258.95213085
  Solvation  Ediel_sol  =         0.00000000
  ---------------------------------------------------
  free energy    TOTEN  =      -346.24299450 eV

  energy without entropy =     -346.23343978  energy(sigma->0) =     -346.23980959


--------------------------------------------------------------------------------------------------------




----------------------------------------- Iteration    1(   4)  ---------------------------------------


     EDDAV:  cpu time    1.4795: real time    1.4889
       DOS:  cpu time    0.0012: real time    0.0012
    --------------------------------------------
      LOOP:  cpu time    1.4812: real time    1.5314

 eigenvalue-minimisations  :  8344
 total energy-change (2. order) :-0.3073785E+02  (-0.2917518E+02)
 number of electron     299.0000000 magnetization 
 augmentation part      299.0000000 magnetization 

 Free energy of the ion-electron system (eV)
  ---------------------------------------------------
  alpha Z        PSCENC =      1558.02730669
  Ewald energy   TEWEN  =    -20178.14133163
  -Hartree energ DENC   =     -6949.06294817
  -exchange      EXHF   =         0.00000000
  -V(xc)+E(xc)   XCENC  =      -233.56462235
  PAW double counting   =     22141.40317339   -20549.38285755
  entropy T*S    EENTRO =         0.00949141
  eigenvalues    EBANDS =     -2425.22119025
  atomic energy  EATOM  =     26258.95213085
  Solvation  Ediel_sol  =         0.00000000
  ---------------------------------------------------
  free energy    TOTEN  =      -376.98084760 eV

  energy without entropy =     -376.99033900  energy(sigma->0) =     -376.98401140


--------------------------------------------------------------------------------------------------------




----------------------------------------- Iteration    1(   5)  ---------------------------------------


     EDDAV:  cpu time    1.4770: real time    1.4949
       DOS:  cpu time    0.0012: real time    0.0012
    CHARGE:  cpu time    0.0310: real time    0.0312
    MIXING:  cpu time    0.0013: real time    0.0014
    --------------------------------------------
      LOOP:  cpu time    1.5110: real time    1.5720

 eigenvalue-minimisations  :  8128
 total energy-change (2. order) :-0.3106577E+01  (-0.3032783E+01)
 number of electron     298.9999998 magnetization 
 augmentation part       17.6322041 magnetization 

 Broyden mixing:
  rms(total) = 0.64298E+01    rms(broyden)= 0.64293E+01
  rms(prec ) = 0.67114E+01
  weight for this iteration     100.00

 Free energy of the ion-electron system (eV)
  ---------------------------------------------------
  alpha Z        PSCENC =      1558.02730669
  Ewald energy   TEWEN  =    -20178.14133163
  -Hartree energ DENC   =     -6949.06294817
  -exchange      EXHF   =         0.00000000
  -V(xc)+E(xc)   XCENC  =      -233.56462235
  PAW double counting   =     22141.40317339   -20549.38285755
  entropy T*S    EENTRO =         0.01039915
  eigenvalues    EBANDS =     -2428.32867488
  atomic energy  EATOM  =     26258.95213085
  Solvation  Ediel_sol  =         0.00000000
  ---------------------------------------------------
  free energy    TOTEN  =      -380.08742449 eV

  energy without entropy =     -380.09782364  energy(sigma->0) =     -380.09089087


--------------------------------------------------------------------------------------------------------




----------------------------------------- Iteration    1(   6)  ---------------------------------------


    POTLOK:  cpu time    0.0296: real time    0.0298
    SETDIJ:  cpu time    0.0035: real time    0.0036
    EDDIAG:  cpu time    0.0782: real time    0.0786
  RMM-DIIS:  cpu time    0.7330: real time    0.7408
    ORTHCH:  cpu time    0.0126: real time    0.0127
       DOS:  cpu time    0.0034: real time    0.0034
    CHARGE:  cpu time    0.0313: real time    0.0313
    MIXING:  cpu time    0.0014: real time    0.0022
    --------------------------------------------
      LOOP:  cpu time    0.8937: real time    0.9512

 eigenvalue-minimisations  :  7105
 total energy-change (2. order) : 0.1049896E+02  (-0.2450656E+01)
 number of electron     298.9999998 magnetization 
 augmentation part       18.3034909 magnetization 

 Broyden mixing:
  rms(total) = 0.30943E+01    rms(broyden)= 0.30943E+01
  rms(prec ) = 0.33831E+01
  weight for this iteration     100.00

 eigenvalues of (default mixing * dielectric matrix)
  average eigenvalue GAMMA=   1.8365
  1.8365

 Free energy of the ion-electron system (eV)
  ---------------------------------------------------
  alpha Z        PSCENC =      1558.02730669
  Ewald energy   TEWEN  =    -20178.14133163
  -Hartree energ DENC   =     -6775.36610044
  -exchange      EXHF   =         0.00000000
  -V(xc)+E(xc)   XCENC  =      -237.50676422
  PAW double counting   =     27518.11498416   -25934.71129546
  entropy T*S    EENTRO =         0.01303940
  eigenvalues    EBANDS =     -2578.97043368
  atomic energy  EATOM  =     26258.95213085
  Solvation  Ediel_sol  =         0.00000000
  ---------------------------------------------------
  free energy    TOTEN  =      -369.58846433 eV

  energy without entropy =     -369.60150373  energy(sigma->0) =     -369.59281080


--------------------------------------------------------------------------------------------------------




----------------------------------------- Iteration    1(   7)  ---------------------------------------


    POTLOK:  cpu time    0.0292: real time    0.0293
    SETDIJ:  cpu time    0.0037: real time    0.0037
    EDDIAG:  cpu time    0.0764: real time    0.0769
  RMM-DIIS:  cpu time    0.8777: real time    0.8861
    ORTHCH:  cpu time    0.0124: real time    0.0124
       DOS:  cpu time    0.0025: real time    0.0025
    CHARGE:  cpu time    0.0306: real time    0.0312
    MIXING:  cpu time    0.0012: real time    0.0013
    --------------------------------------------
      LOOP:  cpu time    1.0344: real time    1.0886

 eigenvalue-minimisations  :  7544
 total energy-change (2. order) :-0.1720233E+01  (-0.2615492E+01)
 number of electron     298.9999998 magnetization 
 augmentation part       18.7809482 magnetization 

 Broyden mixing:
  rms(total) = 0.11697E+01    rms(broyden)= 0.11693E+01
  rms(prec ) = 0.34370E+01
  weight for this iteration     100.00

 eigenvalues of (default mixing * dielectric matrix)
  average eigenvalue GAMMA=   1.1696
  1.8234  0.5159

 Free energy of the ion-electron system (eV)
  ---------------------------------------------------
  alpha Z        PSCENC =      1558.02730669
  Ewald energy   TEWEN  =    -20178.14133163
  -Hartree energ DENC   =     -6683.11416557
  -exchange      EXHF   =         0.00000000
  -V(xc)+E(xc)   XCENC  =      -236.85774497
  PAW double counting   =     32620.80903377   -31030.72402815
  entropy T*S    EENTRO =         0.00156609
  eigenvalues    EBANDS =     -2680.26146400
  atomic energy  EATOM  =     26258.95213085
  Solvation  Ediel_sol  =         0.00000000
  ---------------------------------------------------
  free energy    TOTEN  =      -371.30869691 eV

  energy without entropy =     -371.31026300  energy(sigma->0) =     -371.30921894


--------------------------------------------------------------------------------------------------------




----------------------------------------- Iteration    1(   8)  ---------------------------------------


    POTLOK:  cpu time    0.0286: real time    0.0287
    SETDIJ:  cpu time    0.0037: real time    0.0037
    EDDIAG:  cpu time    0.0778: real time    0.0781
  RMM-DIIS:  cpu time    0.8463: real time    0.8537
    ORTHCH:  cpu time    0.0138: real time    0.0138
       DOS:  cpu time    0.0026: real time    0.0026
    CHARGE:  cpu time    0.0327: real time    0.0329
    MIXING:  cpu time    0.0016: real time    0.0016
    --------------------------------------------
      LOOP:  cpu time    1.0077: real time    1.0856

 eigenvalue-minimisations  :  7599
 total energy-change (2. order) : 0.5988395E+01  (-0.6458713E+00)
 number of electron     298.9999998 magnetization 
 augmentation part       18.5453800 magnetization 

 Broyden mixing:
  rms(total) = 0.40904E+00    rms(broyden)= 0.40845E+00
  rms(prec ) = 0.68021E+00
  weight for this iteration     100.00

 eigenvalues of (default mixing * dielectric matrix)
  average eigenvalue GAMMA=   1.1450
  1.8385  1.2122  0.3844

 Free energy of the ion-electron system (eV)
  ---------------------------------------------------
  alpha Z        PSCENC =      1558.02730669
  Ewald energy   TEWEN  =    -20178.14133163
  -Hartree energ DENC   =     -6691.76258154
  -exchange      EXHF   =         0.00000000
  -V(xc)+E(xc)   XCENC  =      -236.04465859
  PAW double counting   =     33662.81412913   -32069.85194495
  entropy T*S    EENTRO =         0.01230681
  eigenvalues    EBANDS =     -2669.32565822
  atomic energy  EATOM  =     26258.95213085
  Solvation  Ediel_sol  =         0.00000000
  ---------------------------------------------------
  free energy    TOTEN  =      -365.32030143 eV

  energy without entropy =     -365.33260824  energy(sigma->0) =     -365.32440370


--------------------------------------------------------------------------------------------------------




----------------------------------------- Iteration    1(   9)  ---------------------------------------


    POTLOK:  cpu time    0.0389: real time    0.0397
    SETDIJ:  cpu time    0.0047: real time    0.0047
    EDDIAG:  cpu time    0.1340: real time    0.1345
  RMM-DIIS:  cpu time    0.8623: real time    0.8883
    ORTHCH:  cpu time    0.0126: real time    0.0131
       DOS:  cpu time    0.0010: real time    0.0010
    CHARGE:  cpu time    0.0420: real time    0.0428
    MIXING:  cpu time    0.0014: real time    0.0014
    --------------------------------------------
      LOOP:  cpu time    1.0978: real time    1.1958

 eigenvalue-minimisations  :  7684
 total energy-change (2. order) : 0.1588079E+00  (-0.2324887E+00)
 number of electron     298.9999998 magnetization 
 augmentation part       18.4079545 magnetization 

 Broyden mixing:
  rms(total) = 0.29739E+00    rms(broyden)= 0.29728E+00
  rms(prec ) = 0.43556E+00
  weight for this iteration     100.00

 eigenvalues of (default mixing * dielectric matrix)
  average eigenvalue GAMMA=   1.1173
  1.8075  1.8075  0.4810  0.3733

 Free energy of the ion-electron system (eV)
  ---------------------------------------------------
  alpha Z        PSCENC =      1558.02730669
  Ewald energy   TEWEN  =    -20178.14133163
  -Hartree energ DENC   =     -6685.90451720
  -exchange      EXHF   =         0.00000000
  -V(xc)+E(xc)   XCENC  =      -235.76113197
  PAW double counting   =     33898.94045248   -32301.95325001
  entropy T*S    EENTRO =         0.00942156
  eigenvalues    EBANDS =     -2679.33057427
  atomic energy  EATOM  =     26258.95213085
  Solvation  Ediel_sol  =         0.00000000
  ---------------------------------------------------
  free energy    TOTEN  =      -365.16149350 eV

  energy without entropy =     -365.17091506  energy(sigma->0) =     -365.16463402


--------------------------------------------------------------------------------------------------------




----------------------------------------- Iteration    1(  10)  ---------------------------------------


    POTLOK:  cpu time    0.0285: real time    0.0287
    SETDIJ:  cpu time    0.0036: real time    0.0036
    EDDIAG:  cpu time    0.0791: real time    0.0797
  RMM-DIIS:  cpu time    0.7851: real time    0.7939
    ORTHCH:  cpu time    0.0124: real time    0.0125
       DOS:  cpu time    0.0024: real time    0.0024
    CHARGE:  cpu time    0.0303: real time    0.0304
    MIXING:  cpu time    0.0014: real time    0.0014
    --------------------------------------------
      LOOP:  cpu time    0.9436: real time    0.9910

 eigenvalue-minimisations  :  7612
 total energy-change (2. order) : 0.6476221E-01  (-0.4561199E-01)
 number of electron     298.9999998 magnetization 
 augmentation part       18.3245731 magnetization 

 Broyden mixing:
  rms(total) = 0.15518E+00    rms(broyden)= 0.15511E+00
  rms(prec ) = 0.26805E+00
  weight for this iteration     100.00

 eigenvalues of (default mixing * dielectric matrix)
  average eigenvalue GAMMA=   1.0873
  1.9406  1.9406  0.7087  0.3751  0.4717

 Free energy of the ion-electron system (eV)
  ---------------------------------------------------
  alpha Z        PSCENC =      1558.02730669
  Ewald energy   TEWEN  =    -20178.14133163
  -Hartree energ DENC   =     -6699.01757450
  -exchange      EXHF   =         0.00000000
  -V(xc)+E(xc)   XCENC  =      -234.86666886
  PAW double counting   =     34100.90475548   -32497.21333752
  entropy T*S    EENTRO =         0.01065581
  eigenvalues    EBANDS =     -2673.75266762
  atomic energy  EATOM  =     26258.95213085
  Solvation  Ediel_sol  =         0.00000000
  ---------------------------------------------------
  free energy    TOTEN  =      -365.09673129 eV

  energy without entropy =     -365.10738710  energy(sigma->0) =     -365.10028323


--------------------------------------------------------------------------------------------------------




----------------------------------------- Iteration    1(  11)  ---------------------------------------


    POTLOK:  cpu time    0.0295: real time    0.0296
    SETDIJ:  cpu time    0.0036: real time    0.0036
    EDDIAG:  cpu time    0.0787: real time    0.0791
  RMM-DIIS:  cpu time    0.8022: real time    0.8085
    ORTHCH:  cpu time    0.0125: real time    0.0126
       DOS:  cpu time    0.0013: real time    0.0013
    CHARGE:  cpu time    0.0318: real time    0.0319
    MIXING:  cpu time    0.0015: real time    0.0015
    --------------------------------------------
      LOOP:  cpu time    0.9617: real time    1.0058

 eigenvalue-minimisations  :  7576
 total energy-change (2. order) : 0.2875055E-01  (-0.1478000E-01)
 number of electron     298.9999998 magnetization 
 augmentation part       18.2811331 magnetization 

 Broyden mixing:
  rms(total) = 0.77576E-01    rms(broyden)= 0.77514E-01
  rms(prec ) = 0.14520E+00
  weight for this iteration     100.00

 eigenvalues of (default mixing * dielectric matrix)
  average eigenvalue GAMMA=   1.0665
  2.1586  1.9286  0.9977  0.3644  0.4748  0.4748

 Free energy of the ion-electron system (eV)
  ---------------------------------------------------
  alpha Z        PSCENC =      1558.02730669
  Ewald energy   TEWEN  =    -20178.14133163
  -Hartree energ DENC   =     -6703.46242809
  -exchange      EXHF   =         0.00000000
  -V(xc)+E(xc)   XCENC  =      -234.43002724
  PAW double counting   =     34258.36385711   -32650.64168505
  entropy T*S    EENTRO =         0.00911214
  eigenvalues    EBANDS =     -2673.74491553
  atomic energy  EATOM  =     26258.95213085
  Solvation  Ediel_sol  =         0.00000000
  ---------------------------------------------------
  free energy    TOTEN  =      -365.06798074 eV

  energy without entropy =     -365.07709287  energy(sigma->0) =     -365.07101812


--------------------------------------------------------------------------------------------------------




----------------------------------------- Iteration    1(  12)  ---------------------------------------


    POTLOK:  cpu time    0.0291: real time    0.0292
    SETDIJ:  cpu time    0.0216: real time    0.0217
    EDDIAG:  cpu time    0.1381: real time    0.1388
  RMM-DIIS:  cpu time    0.8108: real time    0.8208
    ORTHCH:  cpu time    0.0126: real time    0.0127
       DOS:  cpu time    0.0009: real time    0.0009
    CHARGE:  cpu time    0.0312: real time    0.0313
    MIXING:  cpu time    0.0014: real time    0.0014
    --------------------------------------------
      LOOP:  cpu time    1.0463: real time    1.1046

 eigenvalue-minimisations  :  7714
 total energy-change (2. order) : 0.4949096E-02  (-0.5698360E-02)
 number of electron     298.9999998 magnetization 
 augmentation part       18.2781807 magnetization 

 Broyden mixing:
  rms(total) = 0.41140E-01    rms(broyden)= 0.41120E-01
  rms(prec ) = 0.62557E-01
  weight for this iteration     100.00

 eigenvalues of (default mixing * dielectric matrix)
  average eigenvalue GAMMA=   1.0448
  2.2861  1.8307  1.3074  0.6319  0.5220  0.3772  0.3582

 Free energy of the ion-electron system (eV)
  ---------------------------------------------------
  alpha Z        PSCENC =      1558.02730669
  Ewald energy   TEWEN  =    -20178.14133163
  -Hartree energ DENC   =     -6707.16763800
  -exchange      EXHF   =         0.00000000
  -V(xc)+E(xc)   XCENC  =      -234.19866972
  PAW double counting   =     34371.66426486   -32761.67609115
  entropy T*S    EENTRO =         0.00917107
  eigenvalues    EBANDS =     -2672.53217462
  atomic energy  EATOM  =     26258.95213085
  Solvation  Ediel_sol  =         0.00000000
  ---------------------------------------------------
  free energy    TOTEN  =      -365.06303164 eV

  energy without entropy =     -365.07220272  energy(sigma->0) =     -365.06608867


--------------------------------------------------------------------------------------------------------




----------------------------------------- Iteration    1(  13)  ---------------------------------------


    POTLOK:  cpu time    0.0279: real time    0.0280
    SETDIJ:  cpu time    0.0104: real time    0.0104
    EDDIAG:  cpu time    0.0851: real time    0.0855
  RMM-DIIS:  cpu time    0.8033: real time    0.8170
    ORTHCH:  cpu time    0.0482: real time    0.0485
       DOS:  cpu time    0.0008: real time    0.0009
    CHARGE:  cpu time    0.0296: real time    0.0338
    MIXING:  cpu time    0.0051: real time    0.0058
    --------------------------------------------
      LOOP:  cpu time    1.0109: real time    1.0836

 eigenvalue-minimisations  :  7657
 total energy-change (2. order) : 0.1091454E-02  (-0.1811754E-02)
 number of electron     298.9999998 magnetization 
 augmentation part       18.2755786 magnetization 

 Broyden mixing:
  rms(total) = 0.23444E-01    rms(broyden)= 0.23436E-01
  rms(prec ) = 0.34410E-01
  weight for this iteration     100.00

 eigenvalues of (default mixing * dielectric matrix)
  average eigenvalue GAMMA=   1.0725
  2.3941  1.9453  1.3731  1.0931  0.5645  0.4826  0.3788  0.3486

 Free energy of the ion-electron system (eV)
  ---------------------------------------------------
  alpha Z        PSCENC =      1558.02730669
  Ewald energy   TEWEN  =    -20178.14133163
  -Hartree energ DENC   =     -6706.99848622
  -exchange      EXHF   =         0.00000000
  -V(xc)+E(xc)   XCENC  =      -234.18435817
  PAW double counting   =     34445.94869302   -32834.91327590
  entropy T*S    EENTRO =         0.00934725
  eigenvalues    EBANDS =     -2673.76196610
  atomic energy  EATOM  =     26258.95213085
  Solvation  Ediel_sol  =         0.00000000
  ---------------------------------------------------
  free energy    TOTEN  =      -365.06194019 eV

  energy without entropy =     -365.07128744  energy(sigma->0) =     -365.06505594


--------------------------------------------------------------------------------------------------------




----------------------------------------- Iteration    1(  14)  ---------------------------------------


    POTLOK:  cpu time    0.0281: real time    0.0284
    SETDIJ:  cpu time    0.0035: real time    0.0035
    EDDIAG:  cpu time    0.0752: real time    0.0815
  RMM-DIIS:  cpu time    0.7970: real time    0.8710
    ORTHCH:  cpu time    0.0123: real time    0.0124
       DOS:  cpu time    0.0029: real time    0.0029
    CHARGE:  cpu time    0.0297: real time    0.0298
    MIXING:  cpu time    0.0016: real time    0.0016
    --------------------------------------------
      LOOP:  cpu time    0.9510: real time    1.0799

 eigenvalue-minimisations  :  7938
 total energy-change (2. order) :-0.2461210E-03  (-0.7735055E-03)
 number of electron     298.9999998 magnetization 
 augmentation part       18.2761771 magnetization 

 Broyden mixing:
  rms(total) = 0.14010E-01    rms(broyden)= 0.14005E-01
  rms(prec ) = 0.23928E-01
  weight for this iteration     100.00

 eigenvalues of (default mixing * dielectric matrix)
  average eigenvalue GAMMA=   1.0699
  2.5170  2.0609  1.5483  1.1814  0.5761  0.5761  0.4359  0.3869  0.3464

 Free energy of the ion-electron system (eV)
  ---------------------------------------------------
  alpha Z        PSCENC =      1558.02730669
  Ewald energy   TEWEN  =    -20178.14133163
  -Hartree energ DENC   =     -6707.13542773
  -exchange      EXHF   =         0.00000000
  -V(xc)+E(xc)   XCENC  =      -234.17894596
  PAW double counting   =     34475.25458832   -32863.69021826
  entropy T*S    EENTRO =         0.00921422
  eigenvalues    EBANDS =     -2674.15950282
  atomic energy  EATOM  =     26258.95213085
  Solvation  Ediel_sol  =         0.00000000
  ---------------------------------------------------
  free energy    TOTEN  =      -365.06218631 eV

  energy without entropy =     -365.07140053  energy(sigma->0) =     -365.06525772


--------------------------------------------------------------------------------------------------------




----------------------------------------- Iteration    1(  15)  ---------------------------------------


    POTLOK:  cpu time    0.0278: real time    0.0320
    SETDIJ:  cpu time    0.0036: real time    0.0039
    EDDIAG:  cpu time    0.0821: real time    0.1123
  RMM-DIIS:  cpu time    0.8040: real time    0.8077
    ORTHCH:  cpu time    0.0124: real time    0.0125
       DOS:  cpu time    0.0010: real time    0.0010
    CHARGE:  cpu time    0.0322: real time    0.0324
    MIXING:  cpu time    0.0016: real time    0.0016
    --------------------------------------------
      LOOP:  cpu time    0.9654: real time    1.0502

 eigenvalue-minimisations  :  7763
 total energy-change (2. order) :-0.1374364E-03  (-0.3587215E-03)
 number of electron     298.9999998 magnetization 
 augmentation part       18.2742276 magnetization 

 Broyden mixing:
  rms(total) = 0.71861E-02    rms(broyden)= 0.71819E-02
  rms(prec ) = 0.14006E-01
  weight for this iteration     100.00

 eigenvalues of (default mixing * dielectric matrix)
  average eigenvalue GAMMA=   1.0401
  2.5977  2.0789  1.5574  1.2708  0.6897  0.6259  0.4339  0.4339  0.3458  0.3668

 Free energy of the ion-electron system (eV)
  ---------------------------------------------------
  alpha Z        PSCENC =      1558.02730669
  Ewald energy   TEWEN  =    -20178.14133163
  -Hartree energ DENC   =     -6707.64700298
  -exchange      EXHF   =         0.00000000
  -V(xc)+E(xc)   XCENC  =      -234.16718182
  PAW double counting   =     34494.63719130   -32882.69043270
  entropy T*S    EENTRO =         0.00926262
  eigenvalues    EBANDS =     -2674.04226607
  atomic energy  EATOM  =     26258.95213085
  Solvation  Ediel_sol  =         0.00000000
  ---------------------------------------------------
  free energy    TOTEN  =      -365.06232375 eV

  energy without entropy =     -365.07158636  energy(sigma->0) =     -365.06541128


--------------------------------------------------------------------------------------------------------




----------------------------------------- Iteration    1(  16)  ---------------------------------------


    POTLOK:  cpu time    0.0283: real time    0.0284
    SETDIJ:  cpu time    0.0036: real time    0.0036
    EDDIAG:  cpu time    0.0791: real time    0.0795
  RMM-DIIS:  cpu time    0.8380: real time    0.8431
    ORTHCH:  cpu time    0.0131: real time    0.0161
       DOS:  cpu time    0.0012: real time    0.0012
    CHARGE:  cpu time    0.0308: real time    0.0309
    MIXING:  cpu time    0.0017: real time    0.0017
    --------------------------------------------
      LOOP:  cpu time    0.9963: real time    1.0509

 eigenvalue-minimisations  :  7143
 total energy-change (2. order) :-0.3945656E-04  (-0.1581240E-03)
 number of electron     298.9999998 magnetization 
 augmentation part       18.2734833 magnetization 

 Broyden mixing:
  rms(total) = 0.38310E-02    rms(broyden)= 0.38283E-02
  rms(prec ) = 0.67342E-02
  weight for this iteration     100.00

 eigenvalues of (default mixing * dielectric matrix)
  average eigenvalue GAMMA=   1.0230
  2.6400  2.0716  1.5852  1.3289  0.9570  0.6072  0.4937  0.4937  0.3684  0.3684
  0.3389

 Free energy of the ion-electron system (eV)
  ---------------------------------------------------
  alpha Z        PSCENC =      1558.02730669
  Ewald energy   TEWEN  =    -20178.14133163
  -Hartree energ DENC   =     -6707.78989183
  -exchange      EXHF   =         0.00000000
[...]
     90       4.9690      2.00000
     91       5.0537      2.00000
     92       5.0741      2.00000
     93       5.1204      2.00000
     94       5.1592      2.00000
     95       5.2253      2.00000
     96       5.2521      2.00000
     97       5.3164      2.00000
     98       5.3788      2.00000
     99       5.4045      2.00000
    100       5.4196      2.00000
    101       5.4750      2.00000
    102       5.5192      2.00000
    103       5.5715      2.00000
    104       5.6548      2.00000
    105       5.7024      2.00000
    106       5.7405      2.00000
    107       5.8273      2.00000
    108       5.8598      2.00000
    109       5.9145      2.00000
    110       6.1223      2.00000
    111       6.1619      2.00000
    112       6.2153      2.00000
    113       6.2246      2.00000
    114       6.2656      2.00000
    115       6.2929      2.00000
    116       6.3163      2.00000
    117       6.3454      2.00000
    118       6.3926      2.00000
    119       6.4360      2.00000
    120       6.4572      2.00000
    121       6.4750      2.00000
    122       6.5106      2.00000
    123       6.5351      2.00000
    124       6.5570      2.00000
    125       6.5808      2.00000
    126       6.6597      2.00000
    127       6.6720      2.00000
    128       6.7059      2.00000
    129       6.7547      2.00000
    130       6.7923      2.00000
    131       6.8363      2.00000
    132       6.8824      2.00000
    133       6.9505      2.00000
    134       6.9885      2.00000
    135       7.0219      2.00000
    136       7.0713      2.00000
    137       7.0919      2.00001
    138       7.1547      2.00012
    139       7.1883      2.00042
    140       7.2204      2.00125
    141       7.2511      2.00315
    142       7.3155      2.01597
    143       7.3418      2.02698
    144       7.3867      2.05299
    145       7.4028      2.06215
    146       7.4305      2.07089
    147       7.4638      2.05260
    148       7.4913      1.99389
    149       7.5424      1.72686
    150       7.5728      1.46183
    151       7.5941      1.24008
    152       7.6320      0.81636
    153       7.7101      0.13412
    154       7.7300      0.04006
    155       7.7540     -0.03020
    156       7.8017     -0.07084
    157       7.8279     -0.06241
    158       7.8506     -0.04924
    159       7.8686     -0.03825
    160       7.9325     -0.01092
    161       7.9599     -0.00550
    162       7.9866     -0.00261
    163       8.0198     -0.00093
    164       8.0932     -0.00006
    165       8.1466     -0.00001
    166       8.1539     -0.00000
    167       8.1963     -0.00000
    168       8.3006     -0.00000
    169       8.3600     -0.00000
    170       8.3793     -0.00000
    171       8.4400     -0.00000
    172       8.4973     -0.00000
    173       8.7846     -0.00000
    174       8.8832     -0.00000
    175       8.9016     -0.00000
    176       9.5073     -0.00000
    177       9.5721     -0.00000
    178       9.5997     -0.00000
    179       9.6448     -0.00000
    180       9.7157     -0.00000


--------------------------------------------------------------------------------------------------------


 soft charge-density along one line, spin component           1
         0         1         2         3         4         5         6         7         8         9
 total charge-density along one line
 
 pseudopotential strength for first ion, spin component:           1
 -6.378  -0.004   0.001   0.000  -0.000  -7.575  -0.005   0.001
 -0.004  -6.375  -0.000  -0.002   0.000  -0.005  -7.572  -0.000
  0.001  -0.000  -6.383  -0.002   0.000   0.001  -0.000  -7.582
  0.000  -0.002  -0.002  -6.377  -0.003   0.000  -0.003  -0.002
 -0.000   0.000   0.000  -0.003  -6.387  -0.000   0.000   0.000
 -7.575  -0.005   0.001   0.000  -0.000  -8.975  -0.006   0.001
 -0.005  -7.572  -0.000  -0.003   0.000  -0.006  -8.971  -0.000
  0.001  -0.000  -7.582  -0.002   0.000   0.001  -0.000  -8.983
  0.000  -0.003  -0.002  -7.573  -0.004   0.000  -0.004  -0.003
 -0.000   0.000   0.000  -0.004  -7.586  -0.000   0.000   0.000
  0.002  -0.000  -0.001   0.003   0.000   0.002  -0.000  -0.001
  0.003  -0.000  -0.002   0.006   0.000   0.003  -0.000  -0.002
 -0.006   0.000   0.004  -0.002   0.006  -0.007   0.001   0.004
 -0.002  -0.005  -0.000  -0.004   0.001  -0.003  -0.006  -0.001
 -0.005  -0.002   0.004   0.002  -0.004  -0.006  -0.003   0.004
  0.008  -0.001  -0.004   0.003  -0.007   0.010  -0.001  -0.005
  0.003   0.005  -0.000   0.005  -0.001   0.004   0.006  -0.000
  0.005   0.003  -0.005  -0.003   0.005   0.006   0.004  -0.006
 total augmentation occupancy for first ion, spin component:           1
  5.043  -0.230   0.006   0.058  -0.014  -2.601   0.125  -0.017  -0.034   0.002  -0.091   0.031   0.058  -0.002   0.073   0.005
 -0.230   4.951  -0.032  -0.176  -0.015   0.124  -2.548   0.015   0.098   0.012   0.022  -0.003   0.023   0.049   0.000  -0.000
  0.006  -0.032   4.626  -0.105  -0.024  -0.018   0.015  -2.536   0.067   0.009   0.037  -0.018  -0.033  -0.002  -0.034  -0.003
  0.058  -0.176  -0.105   4.976  -0.186  -0.034   0.098   0.068  -2.572   0.115  -0.220   0.059   0.017   0.002  -0.005   0.002
 -0.014  -0.015  -0.024  -0.186   4.536   0.002   0.012   0.009   0.113  -2.485   0.029  -0.001  -0.041  -0.013   0.020  -0.004
 -2.601   0.124  -0.018  -0.034   0.002   1.368  -0.071   0.017   0.021   0.001   0.053  -0.017  -0.030  -0.004  -0.037  -0.003
  0.125  -2.548   0.015   0.098   0.012  -0.071   1.337  -0.007  -0.055  -0.007  -0.012   0.002  -0.011  -0.024  -0.004   0.000
 -0.017   0.015  -2.536   0.068   0.009   0.017  -0.007   1.403  -0.041  -0.003  -0.020   0.010   0.019   0.003   0.016   0.002
 -0.034   0.098   0.067  -2.572   0.113   0.021  -0.055  -0.041   1.356  -0.069   0.125  -0.032  -0.011  -0.005   0.004  -0.001
  0.002   0.012   0.009   0.115  -2.485   0.001  -0.007  -0.003  -0.069   1.375  -0.015   0.000   0.023   0.006  -0.010   0.002
 -0.091   0.022   0.037  -0.220   0.029   0.053  -0.012  -0.020   0.125  -0.015   2.230  -0.237   0.033   0.008   0.018   0.001
  0.031  -0.003  -0.018   0.059  -0.001  -0.017   0.002   0.010  -0.032   0.000  -0.237   0.027   0.002   0.001   0.001  -0.000
  0.058   0.023  -0.033   0.017  -0.041  -0.030  -0.011   0.019  -0.011   0.023   0.033   0.002   0.295  -0.001  -0.003   0.008
 -0.002   0.049  -0.002   0.002  -0.013  -0.004  -0.024   0.003  -0.005   0.006   0.008   0.001  -0.001   0.308  -0.007  -0.000
  0.073   0.000  -0.034  -0.005   0.020  -0.037  -0.004   0.016   0.004  -0.010   0.018   0.001  -0.003  -0.007   0.289   0.000
  0.005  -0.000  -0.003   0.002  -0.004  -0.003   0.000   0.002  -0.001   0.002   0.001  -0.000   0.008  -0.000   0.000   0.000
  0.002   0.004  -0.000   0.003  -0.001  -0.001  -0.002   0.000  -0.002   0.000  -0.001   0.000  -0.000   0.008   0.000   0.000
  0.005   0.002  -0.003  -0.002   0.003  -0.003  -0.001   0.001   0.001  -0.001   0.002  -0.000   0.000   0.000   0.007  -0.000


------------------------ aborting loop because EDIFF is reached ----------------------------------------


    CHARGE:  cpu time    0.0287: real time    0.0288
    FORLOC:  cpu time    0.0132: real time    0.0133
    FORNL :  cpu time    0.3297: real time    0.3332
    STRESS:  cpu time    0.9471: real time    0.9536
    FORCOR:  cpu time    0.0428: real time    0.0434
    FORHAR:  cpu time    0.0181: real time    0.0181
    MIXING:  cpu time    0.0012: real time    0.0012
    OFIELD:  cpu time    0.0000: real time    0.0000

  FORCE on cell =-STRESS in cart. coord.  units (eV):
  Direction    XX          YY          ZZ          XY          YZ          ZX
  --------------------------------------------------------------------------------------
  Alpha Z  1559.46267  1559.46267  1559.46267
  Ewald   -6309.21861 -6241.97084 -7647.65294   -52.02697  -230.15630  -142.92052
  Hartree  2641.28140  2675.37125  1374.61849   -53.20322  -221.44575  -114.38970
  E(xc)   -1308.38842 -1308.77083 -1308.99513     0.12041     0.03015     0.00925
  Local   -1569.11862 -1668.99775  1035.26693   104.51710   453.40144   258.34644
  n-local  -292.36058  -299.09685  -298.88755    -1.59717     0.26451     0.91015
  augment   226.01650   226.75487   226.79553     0.18566    -0.15235    -0.17624
  Kinetic  5052.49692  5057.40954  5059.56982     2.01040    -1.94222    -1.78907
  Fock        0.00000     0.00000     0.00000     0.00000     0.00000     0.00000
  -------------------------------------------------------------------------------------
  Total       0.17126     0.16206     0.17780     0.00621    -0.00052    -0.00969
  in kB       0.37964     0.35925     0.39415     0.01376    -0.00115    -0.02148
  external pressure =        0.38 kB  Pullay stress =        0.00 kB


 VOLUME and BASIS-vectors are now :
 -----------------------------------------------------------------------------
  energy-cutoff  :      300.00
  volume of cell :      722.76
      direct lattice vectors                 reciprocal lattice vectors
     6.894507124 -0.008131415  0.007222162     0.145043354  0.000164440 -0.000151983
    -0.011582264 10.195509469 -0.022262522     0.000115455  0.098082996  0.000214469
     0.010799702 -0.022495870 10.282213533    -0.000101628  0.000212249  0.097255894

  length of vectors
     6.894515702 10.195540354 10.282243814     0.145043526  0.098083298  0.097256179


 FORCES acting on ions
    electron-ion (+dipol)            ewald-force                    non-local-force                 convergence-correction
 -----------------------------------------------------------------------------------------------
   0.845E+01 0.855E+02 -.172E+02   -.795E+01 -.848E+02 0.172E+02   -.500E+00 -.690E+00 -.232E-01   -.297E-02 -.320E-02 -.124E-02
   0.815E+00 -.600E+02 0.132E+03   -.138E+01 0.599E+02 -.131E+03   0.566E+00 0.150E+00 -.569E+00   0.546E-03 0.780E-02 0.106E-01
   -.258E+02 0.136E+02 -.565E+02   0.250E+02 -.128E+02 0.565E+02   0.783E+00 -.793E+00 0.419E-01   0.214E-02 0.365E-02 -.149E-01
   0.852E+01 -.356E+02 0.112E+02   -.850E+01 0.354E+02 -.109E+02   -.279E-01 0.217E+00 -.296E+00   0.968E-03 0.112E-01 -.742E-03
   0.140E+02 0.339E+02 0.990E+02   -.151E+02 -.335E+02 -.986E+02   0.117E+01 -.384E+00 -.417E+00   0.364E-03 0.418E-02 0.735E-02
   0.235E+01 -.571E+02 -.901E+02   -.177E+01 0.568E+02 0.896E+02   -.580E+00 0.246E+00 0.500E+00   -.204E-02 0.689E-02 0.624E-02
   -.153E+02 0.306E+02 0.110E+03   0.166E+02 -.304E+02 -.110E+03   -.130E+01 -.223E+00 -.211E+00   -.318E-04 0.517E-02 0.801E-02
   0.256E+02 0.292E+02 0.256E+02   -.258E+02 -.297E+02 -.247E+02   0.148E+00 0.562E+00 -.944E+00   0.798E-03 -.426E-02 0.148E-02
   0.309E+02 0.430E+01 -.234E+02   -.300E+02 -.348E+01 0.235E+02   -.886E+00 -.819E+00 -.119E+00   -.232E-02 0.341E-02 -.166E-01
   0.810E+01 -.670E+02 0.534E+02   -.807E+01 0.669E+02 -.534E+02   -.345E-01 0.983E-01 0.251E-01   -.136E-02 0.856E-02 0.117E-01
   -.153E+02 0.701E+01 0.379E+02   0.154E+02 -.748E+01 -.370E+02   -.558E-01 0.471E+00 -.857E+00   -.396E-03 -.337E-02 0.730E-03
   -.111E+02 -.195E+02 -.574E+02   0.112E+02 0.191E+02 0.574E+02   -.376E-01 0.408E+00 0.517E-01   -.220E-02 -.267E-02 0.327E-02
   0.184E+02 0.111E+02 -.725E+02   -.178E+02 -.111E+02 0.723E+02   -.587E+00 0.300E-01 0.198E+00   -.145E-02 0.276E-02 -.516E-02
   -.462E+01 0.765E+01 0.295E+02   0.422E+01 -.705E+01 -.298E+02   0.401E+00 -.587E+00 0.258E+00   0.230E-03 -.350E-02 -.648E-02
   -.221E+02 0.258E+02 0.135E+03   0.219E+02 -.260E+02 -.134E+03   0.187E+00 0.246E+00 -.450E+00   0.522E-04 -.986E-02 0.384E-02
   0.639E+02 -.244E+02 -.944E+02   -.639E+02 0.247E+02 0.940E+02   0.585E-01 -.310E+00 0.456E+00   -.117E-02 0.143E-02 -.585E-02
   -.391E+01 0.753E+02 0.464E+01   0.328E+01 -.748E+02 -.492E+01   0.623E+00 -.460E+00 0.288E+00   0.183E-02 -.155E-02 -.104E-02
   0.371E+01 -.119E+02 -.698E+02   -.371E+01 0.111E+02 0.694E+02   0.680E-02 0.848E+00 0.424E+00   -.209E-02 -.494E-02 -.547E-02
   -.335E+02 -.485E+01 -.534E+02   0.340E+02 0.455E+01 0.533E+02   -.509E+00 0.306E+00 0.129E+00   0.141E-02 0.193E-02 -.803E-02
   0.161E+02 -.242E+03 -.192E+03   -.169E+02 0.242E+03 0.192E+03   0.739E+00 -.625E-01 0.639E+00   0.142E-02 0.150E-01 0.163E-01
   -.152E+02 0.179E+03 0.216E+03   0.152E+02 -.179E+03 -.216E+03   -.276E-01 0.582E+00 0.618E+00   0.125E-02 -.170E-01 0.548E-02
   0.195E+02 0.212E+03 0.193E+03   -.197E+02 -.213E+03 -.193E+03   0.139E+00 0.827E+00 0.298E+00   0.233E-02 -.196E-01 0.833E-02
   0.150E+02 0.180E+02 -.846E+02   -.151E+02 -.186E+02 0.842E+02   0.142E+00 0.549E+00 0.345E+00   0.117E-01 -.128E-01 0.114E-01
   0.220E+03 0.719E+02 -.222E+03   -.220E+03 -.714E+02 0.221E+03   0.275E+00 -.415E+00 0.988E+00   0.380E-03 -.174E-01 -.162E-01
   0.135E+03 -.162E+02 -.150E+03   -.136E+03 0.153E+02 0.150E+03   0.609E+00 0.913E+00 0.114E+00   -.507E-02 0.116E-03 -.291E-01
   -.190E+03 0.155E+03 -.212E+03   0.190E+03 -.156E+03 0.212E+03   -.398E+00 0.367E+00 0.451E+00   -.577E-04 -.117E-01 -.829E-02
   0.116E+03 -.354E+02 0.113E+03   -.115E+03 0.364E+02 -.113E+03   -.840E+00 -.104E+01 -.736E+00   -.762E-03 0.746E-02 0.375E-01
   -.117E+03 -.114E+02 0.189E+03   0.116E+03 0.126E+02 -.188E+03   0.904E+00 -.120E+01 -.718E+00   -.816E-03 0.457E-02 0.354E-01
   0.583E+02 0.845E+02 0.359E+03   -.580E+02 -.850E+02 -.358E+03   -.321E+00 0.508E+00 -.376E+00   0.903E-03 -.328E-01 0.123E-01
   -.254E+02 0.949E+02 -.214E+03   0.248E+02 -.952E+02 0.214E+03   0.609E+00 0.284E+00 0.267E+00   0.446E-02 0.100E-01 -.136E-01
   -.124E+02 -.148E+03 0.250E+03   0.131E+02 0.148E+03 -.250E+03   -.702E+00 -.172E+00 -.639E+00   -.142E-02 0.169E-01 0.295E-01
   -.266E+02 -.159E+03 0.531E+02   0.267E+02 0.159E+03 -.528E+02   -.563E-01 0.482E+00 -.342E+00   0.410E-02 0.210E-01 0.312E-01
   -.393E+02 -.804E+02 -.319E+03   0.395E+02 0.798E+02 0.319E+03   -.168E+00 0.706E+00 -.510E-01   0.769E-02 -.167E-01 -.187E-01
   -.991E+01 -.560E+01 0.138E+03   0.105E+02 0.679E+01 -.138E+03   -.618E+00 -.118E+01 0.315E+00   -.331E-03 -.144E-01 -.173E-01
   -.175E+03 -.116E+03 -.314E+03   0.175E+03 0.116E+03 0.314E+03   -.612E-01 -.805E+00 0.567E-01   0.426E-02 0.208E-02 -.204E-01
   -.228E+02 -.455E+02 0.947E+02   0.228E+02 0.453E+02 -.949E+02   0.653E-01 0.225E+00 0.225E+00   -.216E-02 0.279E-01 -.446E-02
 -----------------------------------------------------------------------------------------------
   0.270E+00 0.129E+00 0.169E-01   -.249E-12 -.568E-13 -.199E-12   -.290E+00 -.115E+00 -.588E-01   0.202E-01 -.137E-01 0.470E-01
 
 
 POSITION                                       TOTAL-FORCE (eV/Angst)
 -----------------------------------------------------------------------------------
      5.27532      8.57266      5.13209        -0.001369      0.000657     -0.000313
      1.64124      5.03361      1.78748         0.000038      0.001442     -0.001770
      1.55518      5.37192      8.50499         0.002080     -0.001597      0.000058
      6.88286      6.80462      0.09425        -0.000073     -0.002025     -0.002721
      1.55378      8.48887      1.83734         0.003121     -0.004525     -0.000006
      5.23030      5.00102      5.06084        -0.000771      0.000192     -0.000147
      5.32114      8.45678      1.78935        -0.005624     -0.002811     -0.002367
     -0.01041     10.03779      0.11916         0.005793      0.000281      0.000504
      5.31737      5.27116      8.54747        -0.003431     -0.001061     -0.001844
      6.86115      6.76014      3.42094         0.000142      0.000571     -0.001709
      3.44670     10.00347      0.26418        -0.004140     -0.001211     -0.002994
      5.13124      1.67255      5.04926         0.002384      0.000605      0.000288
      5.25958      8.51129      8.48492         0.000886     -0.000890      0.001211
      3.35699      3.53869     10.10404         0.001132      0.000656      0.001739
      1.69069      1.74169      1.79132         0.000419      0.001474      0.003032
      0.04344      3.36442      6.83102         0.001593      0.000451     -0.000433
      1.62200      8.55430      5.10861        -0.003071     -0.000652      0.003252
      5.12411      1.49124      8.57339         0.003015      0.000263      0.004251
      3.51365      6.75900      6.77275        -0.001554      0.003662     -0.001339
      1.64337      5.11491      5.08128         0.000989      0.000033      0.000554
      3.45100     10.08263      3.33277         0.000651     -0.001017      0.004625
      6.87149     10.13080      3.38497         0.000238      0.000284     -0.003797
      1.75531      1.62541      5.04547         0.000292      0.002224      0.001361
      0.02288      0.17355      6.74786         0.000338      0.002075      0.004516
      6.81902      6.69823      6.75593         0.000590      0.002431     -0.001460
      3.49285     10.06122      6.64686         0.001228      0.004426      0.001508
      0.09985      3.47401      3.56538        -0.002639     -0.002641     -0.002697
      3.31720      3.49400      3.57171         0.003036     -0.000672     -0.000306
      5.19216      1.71664      1.76656        -0.001698     -0.000915      0.000642
      1.67307      8.47406      8.48451        -0.001510     -0.000582     -0.002023
      5.20178      4.95883      1.78016        -0.000850      0.001838     -0.000636
      3.45210      6.76723      3.46240        -0.000679      0.002065     -0.000613
      1.84520      1.43373      8.55013         0.001244      0.001344      0.002138
      0.10762      3.46901     10.09907        -0.002729     -0.001609      0.001008
      3.42110      3.49919      6.90463         0.001024     -0.001769     -0.000019
      3.42345      6.77677      0.02563        -0.000093     -0.002993     -0.003493
 -----------------------------------------------------------------------------------
    total drift:                                0.000413      0.000186      0.005021


--------------------------------------------------------------------------------------------------------



  FREE ENERGIE OF THE ION-ELECTRON SYSTEM (eV)
  ---------------------------------------------------
  free  energy   TOTEN  =      -365.07034627 eV

  energy  without entropy=     -365.07919794  energy(sigma->0) =     -365.07329683
 
 d Force = 0.7232051E-04[ 0.536E-04, 0.910E-04]  d Energy = 0.4238641E-04 0.299E-04
 d Force =-0.9538713E-01[-0.960E-01,-0.948E-01]  d Ewald  = 0.1775455E+01-0.187E+01


--------------------------------------------------------------------------------------------------------


    POTLOK:  cpu time    0.0948: real time    0.0952


--------------------------------------------------------------------------------------------------------




--------------------------------------------------------------------------------------------------------


  
 reached required accuracy - stopping structural energy minimisation
     LOOP+:  cpu time    5.9149: real time    6.6728
    4ORBIT:  cpu time    0.0000: real time    0.0000

 total amount of memory used by VASP on root node    67783. kBytes
========================================================================

   base      :      30000. kBytes
   nonlr-proj:      10535. kBytes
   fftplans  :       2814. kBytes
   grid      :       5360. kBytes
   one-center:        124. kBytes
   wavefun   :      18950. kBytes
 
  
  
 General timing and accounting informations for this job:
 ========================================================
  
                  Total CPU time used (sec):      163.256
                            User time (sec):      162.372
                          System time (sec):        0.884
                         Elapsed time (sec):      188.540
  
                   Maximum memory used (kb):      275908.
                   Average memory used (kb):           0.
  
                          Minor page faults:       132010
                          Major page faults:           31
                 Voluntary context switches:         7317
