<?xml version="1.0" encoding="ISO-8859-1"?>
<modeling>
 <generator>
  <i name="program" type="string">vasp </i>
  <i name="version" type="string">5.4.1  </i>
  <i name="subversion" type="string">05Feb16 (build Jan 29 2020 16:04:39) complex                          parallel </i>
  <i name="platform" type="string">IFC91_ompi </i>
  <i name="date" type="string">2020 06 15 </i>
  <i name="time" type="string">03:12:08 </i>
 </generator>
 <incar>
  <i type="string" name="SYSTEM"> automatically generated by mexm</i>
  <i type="int" name="ISTART">     0</i>
  <i type="string" name="PREC">accurate               ! avoid wrap aro</i>
  <i type="string" name="ALGO"> Fast                   ! blocked Davids</i>
  <i type="int" name="ISPIN">     1</i>
  <i type="int" name="ICHARG">     2</i>
  <i type="int" name="NELM">    70</i>
  <i type="int" name="IBRION">     2</i>
  <i name="EDIFF">      0.00001000</i>
  <i name="EDIFFG">     -0.01000000</i>
  <i type="int" name="NSW">   300</i>
  <i type="int" name="ISIF">     3</i>
  <i type="int" name="ISYM">     1</i>
  <i name="ENCUT">    300.00000000</i>
  <i name="POTIM">      0.15000000</i>
  <i type="string" name="LREAL"> Auto                  ! unpublished met</i>
  <i type="int" name="ISMEAR">     1</i>
  <i name="SIGMA">      0.15000000</i>
  <i type="logical" name="LWAVE"> F  </i>
  <i type="logical" name="LCHARG"> F  </i>
  <i type="logical" name="LVTOT"> F  </i>
  <v type="int" name="KPOINT_BSE">    -1     0     0     0</v>
  <i type="int" name="NELM">    70</i>
 </incar>
 <kpoints>
  <generation param="Gamma">
   <v type="int" name="divisions">       3        3        3 </v>
   <v name="usershift">      0.00000000       0.00000000       0.00000000 </v>
   <v name="genvec1">      0.33333333       0.00000000       0.00000000 </v>
   <v name="genvec2">      0.00000000       0.33333333       0.00000000 </v>
   <v name="genvec3">      0.00000000      -0.00000000       0.33333333 </v>
   <v name="shift">      0.00000000       0.00000000       0.00000000 </v>
  </generation>
  <varray name="kpointlist" >
   <v>       0.00000000       0.00000000       0.00000000 </v>
   <v>       0.33333333      -0.00000000      -0.00000000 </v>
   <v>      -0.00000000       0.33333333       0.00000000 </v>
   <v>       0.33333333       0.33333333      -0.00000000 </v>
   <v>      -0.33333333       0.33333333       0.00000000 </v>
   <v>       0.00000000       0.00000000       0.33333333 </v>
   <v>       0.33333333       0.00000000       0.33333333 </v>
   <v>      -0.33333333       0.00000000       0.33333333 </v>
   <v>      -0.00000000       0.33333333       0.33333333 </v>
   <v>       0.33333333       0.33333333       0.33333333 </v>
   <v>      -0.33333333       0.33333333       0.33333333 </v>
   <v>       0.00000000      -0.33333333       0.33333333 </v>
   <v>       0.33333333      -0.33333333       0.33333333 </v>
   <v>      -0.33333333      -0.33333333       0.33333333 </v>
  </varray>
  <varray name="weights" >
   <v>       0.03703704 </v>
   <v>       0.07407407 </v>
   <v>       0.07407407 </v>
   <v>       0.07407407 </v>
   <v>       0.07407407 </v>
   <v>       0.07407407 </v>
   <v>       0.07407407 </v>
   <v>       0.07407407 </v>
   <v>       0.07407407 </v>
   <v>       0.07407407 </v>
   <v>       0.07407407 </v>
   <v>       0.07407407 </v>
   <v>       0.07407407 </v>
   <v>       0.07407407 </v>
  </varray>
 </kpoints>
 <parameters>
  <separator name="general" >
   <i type="string" name="SYSTEM">automatically generated by mexm</i>
   <i type="logical" name="LCOMPAT"> F  </i>
  </separator>
  <separator name="electronic" >
   <i type="string" name="PREC">accura</i>
   <i name="ENMAX">    300.00000000</i>
   <i name="ENAUG">    461.25700000</i>
   <i name="EDIFF">      0.00001000</i>
   <i type="int" name="IALGO">    68</i>
   <i type="int" name="IWAVPR">    11</i>
   <i type="int" name="NBANDS">   164</i>
   <i name="NELECT">    271.00000000</i>
   <i type="int" name="TURBO">     0</i>
   <i type="int" name="IRESTART">     0</i>
   <i type="int" name="NREBOOT">     0</i>
   <i type="int" name="NMIN">     0</i>
   <i name="EREF">      0.00000000</i>
   <separator name="electronic smearing" >
    <i type="int" name="ISMEAR">     1</i>
    <i name="SIGMA">      0.15000000</i>
    <i name="KSPACING">      0.50000000</i>
    <i type="logical" name="KGAMMA"> T  </i>
   </separator>
   <separator name="electronic projectors" >
    <i type="logical" name="LREAL"> T  </i>
    <v name="ROPT">     -0.00025000     -0.00025000     -0.00025000     -0.00025000</v>
    <i type="int" name="LMAXPAW">  -100</i>
    <i type="int" name="LMAXMIX">     2</i>
    <i type="logical" name="NLSPLINE"> F  </i>
   </separator>
   <separator name="electronic startup" >
    <i type="int" name="ISTART">     0</i>
    <i type="int" name="ICHARG">     2</i>
    <i type="int" name="INIWAV">     1</i>
   </separator>
   <separator name="electronic spin" >
    <i type="int" name="ISPIN">     1</i>
    <i type="logical" name="LNONCOLLINEAR"> F  </i>
    <v name="MAGMOM">      1.00000000      1.00000000      1.00000000      1.00000000      1.00000000      1.00000000      1.00000000      1.00000000      1.00000000      1.00000000      1.00000000      1.00000000      1.00000000      1.00000000      1.00000000      1.00000000      1.00000000      1.00000000      1.00000000      1.00000000
      1.00000000      1.00000000      1.00000000      1.00000000      1.00000000      1.00000000      1.00000000      1.00000000      1.00000000      1.00000000      1.00000000      1.00000000      1.00000000      1.00000000      1.00000000      1.00000000</v>
    <i name="NUPDOWN">     -1.00000000</i>
    <i type="logical" name="LSORBIT"> F  </i>
    <v name="SAXIS">      0.00000000      0.00000000      1.00000000</v>
    <i type="logical" name="LSPIRAL"> F  </i>
    <v name="QSPIRAL">      0.00000000      0.00000000      0.00000000</v>
    <i type="logical" name="LZEROZ"> F  </i>
   </separator>
   <separator name="electronic exchange-correlation" >
    <i type="logical" name="LASPH"> F  </i>
    <i type="logical" name="LMETAGGA"> F  </i>
   </separator>
   <separator name="electronic convergence" >
    <i type="int" name="NELM">    70</i>
    <i type="int" name="NELMDL">    -5</i>
    <i type="int" name="NELMIN">     2</i>
    <i name="ENINI">    300.00000000</i>
    <separator name="electronic convergence detail" >
     <i type="logical" name="LDIAG"> T  </i>
     <i type="logical" name="LSUBROT"> F  </i>
     <i name="WEIMIN">      0.00100000</i>
     <i name="EBREAK">      0.00000002</i>
     <i name="DEPER">      0.30000000</i>
     <i type="int" name="NRMM">     4</i>
     <i name="TIME">      0.40000000</i>
    </separator>
   </separator>
   <separator name="electronic mixer" >
    <i name="AMIX">      0.40000000</i>
    <i name="BMIX">      1.00000000</i>
    <i name="AMIN">      0.10000000</i>
    <i name="AMIX_MAG">      1.60000000</i>
    <i name="BMIX_MAG">      1.00000000</i>
    <separator name="electronic mixer details" >
     <i type="int" name="IMIX">     4</i>
     <i type="logical" name="MIXFIRST"> F  </i>
     <i type="int" name="MAXMIX">   -45</i>
     <i name="WC">    100.00000000</i>
     <i type="int" name="INIMIX">     1</i>
     <i type="int" name="MIXPRE">     1</i>
     <i type="int" name="MREMOVE">     5</i>
    </separator>
   </separator>
   <separator name="electronic dipolcorrection" >
    <i type="logical" name="LDIPOL"> F  </i>
    <i type="logical" name="LMONO"> F  </i>
    <i type="int" name="IDIPOL">     0</i>
    <i name="EPSILON">      1.00000000</i>
    <v name="DIPOL">   -100.00000000   -100.00000000   -100.00000000</v>
    <i name="EFIELD">      0.00000000</i>
   </separator>
  </separator>
  <separator name="grids" >
   <i type="int" name="NGX">    40</i>
   <i type="int" name="NGY">    60</i>
   <i type="int" name="NGZ">    60</i>
   <i type="int" name="NGXF">    80</i>
   <i type="int" name="NGYF">   120</i>
   <i type="int" name="NGZF">   120</i>
   <i type="logical" name="ADDGRID"> F  </i>
  </separator>
  <separator name="ionic" >
   <i type="int" name="NSW">   300</i>
   <i type="int" name="IBRION">     2</i>
   <i type="int" name="ISIF">     3</i>
   <i name="PSTRESS">      0.00000000</i>
   <i name="EDIFFG">     -0.01000000</i>
   <i type="int" name="NFREE">     1</i>
   <i name="POTIM">      0.15000000</i>
   <i name="SMASS">     -3.00000000</i>
   <i name="SCALEE">      1.00000000</i>
  </separator>
  <separator name="ionic md" >
   <i name="TEBEG">      0.00010000</i>
   <i name="TEEND">      0.00010000</i>
   <i type="int" name="NBLOCK">     1</i>
   <i type="int" name="KBLOCK">   300</i>
   <i type="int" name="NPACO">   256</i>
   <i name="APACO">     16.00000000</i>
  </separator>
  <separator name="symmetry" >
   <i type="int" name="ISYM">     1</i>
   <i name="SYMPREC">      0.00001000</i>
  </separator>
  <separator name="dos" >
   <i type="logical" name="LORBIT"> F  </i>
   <v name="RWIGS">     -1.00000000     -1.00000000     -1.00000000     -1.00000000</v>
   <i type="int" name="NEDOS">   301</i>
   <i name="EMIN">     10.00000000</i>
   <i name="EMAX">    -10.00000000</i>
   <i name="EFERMI">      0.00000000</i>
  </separator>
  <separator name="writing" >
   <i type="int" name="NWRITE">     2</i>
   <i type="logical" name="LWAVE"> F  </i>
   <i type="logical" name="LCHARG"> F  </i>
   <i type="logical" name="LPARD"> F  </i>
   <i type="logical" name="LVTOT"> F  </i>
   <i type="logical" name="LVHAR"> F  </i>
   <i type="logical" name="LELF"> F  </i>
   <i type="logical" name="LOPTICS"> F  </i>
   <v name="STM">      0.00000000      0.00000000      0.00000000      0.00000000      0.00000000      0.00000000      0.00000000</v>
  </separator>
  <separator name="performance" >
   <i type="int" name="NPAR">     4</i>
   <i type="int" name="NSIM">     4</i>
   <i type="int" name="NBLK">    -1</i>
   <i type="logical" name="LPLANE"> T  </i>
   <i type="logical" name="LSCALAPACK"> T  </i>
   <i type="logical" name="LSCAAWARE"> F  </i>
   <i type="logical" name="LSCALU"> F  </i>
   <i type="logical" name="LASYNC"> F  </i>
   <i type="logical" name="LORBITALREAL"> F  </i>
  </separator>
  <separator name="miscellaneous" >
   <i type="int" name="IDIOT">     3</i>
   <i type="logical" name="LMUSIC"> F  </i>
   <v name="POMASS">    178.49000000     92.91000000    180.94800000     91.22400000</v>
   <v name="DARWINR">      0.00000000      0.00000000      0.00000000      0.00000000</v>
   <v name="DARWINV">      1.00000000      1.00000000      1.00000000      1.00000000</v>
   <i type="logical" name="LCORR"> T  </i>
  </separator>
  <i type="logical" name="GGA_COMPAT"> T  </i>
  <i type="logical" name="LBERRY"> F  </i>
  <i type="int" name="ICORELEVEL">     0</i>
  <i type="logical" name="LDAU"> F  </i>
  <i type="int" name="I_CONSTRAINED_M">     0</i>
  <separator name="electronic exchange-correlation" >
   <i type="string" name="GGA">--</i>
   <i type="int" name="VOSKOWN">     0</i>
   <i type="logical" name="LHFCALC"> F  </i>
   <i type="string" name="PRECFOCK"></i>
   <i type="logical" name="LSYMGRAD"> F  </i>
   <i type="logical" name="LHFONE"> F  </i>
   <i type="logical" name="LRHFCALC"> F  </i>
   <i type="logical" name="LTHOMAS"> F  </i>
   <i type="logical" name="LMODELHF"> F  </i>
   <i name="ENCUT4O">     -1.00000000</i>
   <i type="int" name="EXXOEP">     0</i>
   <i type="int" name="FOURORBIT">     0</i>
   <i name="AEXX">      0.00000000</i>
   <i name="HFALPHA">      0.00000000</i>
   <i name="MCALPHA">      0.00000000</i>
   <i name="ALDAX">      1.00000000</i>
   <i name="AGGAX">      1.00000000</i>
   <i name="ALDAC">      1.00000000</i>
   <i name="AGGAC">      1.00000000</i>
   <i type="int" name="NKREDX">     1</i>
   <i type="int" name="NKREDY">     1</i>
   <i type="int" name="NKREDZ">     1</i>
   <i type="logical" name="SHIFTRED"> F  </i>
   <i type="logical" name="ODDONLY"> F  </i>
   <i type="logical" name="EVENONLY"> F  </i>
   <i type="int" name="LMAXFOCK">     0</i>
   <i type="int" name="NMAXFOCKAE">     0</i>
   <i type="logical" name="LFOCKAEDFT"> F  </i>
   <i name="HFSCREEN">      0.00000000</i>
   <i name="HFSCREENC">      0.00000000</i>
   <i type="int" name="NBANDSGWLOW">     0</i>
  </separator>
  <separator name="vdW DFT" >
   <i type="logical" name="LUSE_VDW"> F  </i>
   <i name="Zab_VDW">     -0.84910000</i>
   <i name="PARAM1">      0.12340000</i>
   <i name="PARAM2">      1.00000000</i>
   <i name="PARAM3">      0.00000000</i>
  </separator>
  <separator name="model GW" >
   <i type="int" name="MODEL_GW">     0</i>
   <i name="MODEL_EPS0">     12.25779548</i>
   <i name="MODEL_ALPHA">      1.00000000</i>
  </separator>
  <separator name="linear response parameters" >
   <i type="logical" name="LEPSILON"> F  </i>
   <i type="logical" name="LRPA"> F  </i>
   <i type="logical" name="LNABLA"> F  </i>
   <i type="logical" name="LVEL"> F  </i>
   <i type="int" name="KINTER">     0</i>
   <i name="CSHIFT">      0.10000000</i>
   <i name="OMEGAMAX">     -1.00000000</i>
   <i name="DEG_THRESHOLD">      0.00200000</i>
  </separator>
  <separator name="orbital magnetization" >
   <i type="logical" name="NUCIND"> F  </i>
   <v name="MAGPOS">      0.00000000      0.00000000      0.00000000</v>
   <i type="logical" name="LNICSALL"> T  </i>
   <i type="logical" name="ORBITALMAG"> F  </i>
   <i type="logical" name="LMAGBLOCH"> F  </i>
   <i type="logical" name="LCHIMAG"> F  </i>
   <i type="logical" name="LGAUGE"> T  </i>
   <i type="int" name="MAGATOM">     0</i>
   <v name="MAGDIPOL">      0.00000000      0.00000000      0.00000000</v>
   <v name="AVECCONST">      0.00000000      0.00000000      0.00000000</v>
  </separator>
  <separator name="response functions" >
   <i type="logical" name="LADDER"> F  </i>
   <i type="logical" name="LFXC"> F  </i>
   <i type="logical" name="LHARTREE"> T  </i>
   <i type="int" name="IBSE">     0</i>
   <v type="int" name="KPOINT">    -1     0     0     0</v>
   <i type="logical" name="LTCTE"> F  </i>
   <i type="logical" name="LTETE"> F  </i>
   <i type="logical" name="LTRIPLET"> F  </i>
   <i type="logical" name="LFXCEPS"> F  </i>
   <i type="logical" name="LFXHEG"> F  </i>
   <i type="int" name="NATURALO">     0</i>
   <i type="logical" name="L2ORDER"> F  </i>
   <i type="logical" name="LUSEW"> F  </i>
   <i name="ENCUTGW">     -2.00000000</i>
   <i name="ENCUTGWSOFT">     -2.00000000</i>
   <i name="ENCUTLF">     -1.00000000</i>
   <i type="int" name="LMAXMP2">    -1</i>
   <i name="SCISSOR">      0.00000000</i>
   <i type="int" name="NOMEGA">     0</i>
   <i type="int" name="NOMEGAR">     0</i>
   <i type="int" name="NBANDSGW">    -1</i>
   <i type="int" name="NBANDSO">    -1</i>
   <i type="int" name="NBANDSV">    -1</i>
   <i type="int" name="NELM">    70</i>
   <i type="int" name="NELMHF">     1</i>
   <i type="int" name="DIM">     3</i>
   <i type="int" name="ANTIRES">     0</i>
   <i name="OMEGAMAX">    -30.00000000</i>
   <i name="OMEGAMIN">    -30.00000000</i>
   <i name="OMEGATL">   -200.00000000</i>
   <i type="int" name="OMEGAGRID">     0</i>
   <i name="CSHIFT">     -0.10000000</i>
   <i type="logical" name="SELFENERGY"> F  </i>
   <i type="logical" name="LSPECTRAL"> F  </i>
   <i type="logical" name="LSPECTRALGW"> F  </i>
   <i type="logical" name="LSINGLES"> F  </i>
   <i type="logical" name="LFERMIGW"> F  </i>
   <i type="logical" name="ODDONLYGW"> F  </i>
   <i type="logical" name="EVENONLYGW"> F  </i>
   <i type="int" name="NKREDLFX">     1</i>
   <i type="int" name="NKREDLFY">     1</i>
   <i type="int" name="NKREDLFZ">     1</i>
   <i type="int" name="MAXMEM">  1800</i>
   <i type="int" name="TELESCOPE">     0</i>
   <i type="int" name="TAUPAR">     1</i>
   <i type="int" name="OMEGAPAR">    -1</i>
   <i name="LAMBDA">      1.00000000</i>
  </separator>
  <separator name="External order field" >
   <i name="OFIELD_KAPPA">      0.00000000</i>
   <v name="OFIELD_K">      0.00000000      0.00000000      0.00000000</v>
   <i name="OFIELD_Q6_NEAR">      0.00000000</i>
   <i name="OFIELD_Q6_FAR">      0.00000000</i>
   <i name="OFIELD_A">      0.00000000</i>
  </separator>
 </parameters>
 <atominfo>
  <atoms>      36 </atoms>
  <types>       4 </types>
  <array name="atoms" >
   <dimension dim="1">ion</dimension>
   <field type="string">element</field>
   <field type="int">atomtype</field>
   <set>
    <rc><c>Hf</c><c>   1</c></rc>
    <rc><c>Hf</c><c>   1</c></rc>
    <rc><c>Hf</c><c>   1</c></rc>
    <rc><c>Hf</c><c>   1</c></rc>
    <rc><c>Hf</c><c>   1</c></rc>
    <rc><c>Hf</c><c>   1</c></rc>
    <rc><c>Hf</c><c>   1</c></rc>
    <rc><c>Hf</c><c>   1</c></rc>
    <rc><c>Hf</c><c>   1</c></rc>
    <rc><c>Hf</c><c>   1</c></rc>
    <rc><c>Hf</c><c>   1</c></rc>
    <rc><c>Hf</c><c>   1</c></rc>
    <rc><c>Nb</c><c>   2</c></rc>
    <rc><c>Nb</c><c>   2</c></rc>
    <rc><c>Nb</c><c>   2</c></rc>
    <rc><c>Nb</c><c>   2</c></rc>
    <rc><c>Nb</c><c>   2</c></rc>
    <rc><c>Ta</c><c>   3</c></rc>
    <rc><c>Ta</c><c>   3</c></rc>
    <rc><c>Ta</c><c>   3</c></rc>
    <rc><c>Ta</c><c>   3</c></rc>
    <rc><c>Ta</c><c>   3</c></rc>
    <rc><c>Ta</c><c>   3</c></rc>
    <rc><c>Ta</c><c>   3</c></rc>
    <rc><c>Ta</c><c>   3</c></rc>
    <rc><c>Ta</c><c>   3</c></rc>
    <rc><c>Ta</c><c>   3</c></rc>
    <rc><c>Zr</c><c>   4</c></rc>
    <rc><c>Zr</c><c>   4</c></rc>
    <rc><c>Zr</c><c>   4</c></rc>
    <rc><c>Zr</c><c>   4</c></rc>
    <rc><c>Zr</c><c>   4</c></rc>
    <rc><c>Zr</c><c>   4</c></rc>
    <rc><c>Zr</c><c>   4</c></rc>
    <rc><c>Zr</c><c>   4</c></rc>
    <rc><c>Zr</c><c>   4</c></rc>
   </set>
  </array>
  <array name="atomtypes" >
   <dimension dim="1">type</dimension>
   <field type="int">atomspertype</field>
   <field type="string">element</field>
   <field>mass</field>
   <field>valence</field>
   <field type="string">pseudopotential</field>
   <set>
    <rc><c>  12</c><c>Hf</c><c>    178.49000000</c><c>      4.00000000</c><c>  PAW_PBE Hf 20Jan2003                  </c></rc>
    <rc><c>   5</c><c>Nb</c><c>     92.91000000</c><c>     13.00000000</c><c>  PAW_PBE Nb_sv 25May2007               </c></rc>
    <rc><c>  10</c><c>Ta</c><c>    180.94800000</c><c>      5.00000000</c><c>  PAW_PBE Ta 17Jan2003                  </c></rc>
    <rc><c>   9</c><c>Zr</c><c>     91.22400000</c><c>     12.00000000</c><c>  PAW_PBE Zr_sv 04Jan2005               </c></rc>
   </set>
  </array>
 </atominfo>
 <structure name="initialpos" >
  <crystal>
   <varray name="basis" >
    <v>       6.90942291       0.00780671      -0.01470554 </v>
    <v>       0.01135339      10.30245142       0.00375121 </v>
    <v>      -0.02227779       0.00359158      10.33198720 </v>
   </varray>
   <i name="volume">    735.46772887 </i>
   <varray name="rec_basis" >
    <v>       0.14473073      -0.00015961       0.00031212 </v>
    <v>      -0.00010974       0.09706441      -0.00003398 </v>
    <v>       0.00020604      -0.00003547       0.09678726 </v>
   </varray>
  </crystal>
  <varray name="positions" >
   <v>       0.74914500       0.17400300       0.15733300 </v>
   <v>       0.25129100       0.16631200       0.15696000 </v>
   <v>       0.00102800       0.99330900       0.67369800 </v>
   <v>       0.00177700       0.34055700       0.32611500 </v>
   <v>       0.22525700       0.51207300       0.51755700 </v>
   <v>       0.01986500       0.66693700       0.31260000 </v>
   <v>       0.50551300       0.97165000       0.00014900 </v>
   <v>       0.50767700       0.00541400       0.34284700 </v>
   <v>       0.50028100       0.66769200       0.00101000 </v>
   <v>       0.48511000       0.66836600       0.31716400 </v>
   <v>       0.51541900       0.33468100       0.65685500 </v>
   <v>       0.74920000       0.82823100       0.81919200 </v>
   <v>       0.75961000       0.83711500       0.18288700 </v>
   <v>       0.00677700       0.67414100       0.68588100 </v>
   <v>       0.25246300       0.83251400       0.81874300 </v>
   <v>       0.50230100       0.35176100       0.99247300 </v>
   <v>       0.75674700       0.49573600       0.83821500 </v>
   <v>       0.99530200       0.34797200       0.99863900 </v>
   <v>       0.99543400       0.99591000       0.33483100 </v>
   <v>       0.26109900       0.48154000       0.14747400 </v>
   <v>       0.97731100       0.33319700       0.67570700 </v>
   <v>       0.23881500       0.48989100       0.83240100 </v>
   <v>       0.24397800       0.85906200       0.18315500 </v>
   <v>       0.24718800       0.83223400       0.49985700 </v>
   <v>       0.49552000       0.99367100       0.66142300 </v>
   <v>       0.74092700       0.48691600       0.15454200 </v>
   <v>       0.77872800       0.16187100       0.50344300 </v>
   <v>       0.73615600       0.16737600       0.84137100 </v>
   <v>       0.99327800       0.98177000       0.99639000 </v>
   <v>       0.22056600       0.16258400       0.50675300 </v>
   <v>       0.25674100       0.17326900       0.83754800 </v>
   <v>       0.00226000       0.66620000       0.00274400 </v>
   <v>       0.50254600       0.33590100       0.34151000 </v>
   <v>       0.77281400       0.51551200       0.50249200 </v>
   <v>       0.49536000       0.66733300       0.67950300 </v>
   <v>       0.75652700       0.82731000       0.50053900 </v>
  </varray>
 </structure>
 <calculation>
  <scstep>
   <time name="dav">    0.98    1.01</time>
   <time name="total">    1.18    1.57</time>
   <energy>
    <i name="alphaZ">   1352.05029686 </i>
    <i name="ewald"> -16586.43517400 </i>
    <i name="hartreedc">  -5925.81490293 </i>
    <i name="XCdc">   -570.05855860 </i>
    <i name="pawpsdc">  18580.96241167 </i>
    <i name="pawaedc"> -16870.99044863 </i>
    <i name="eentropy">     -0.00434237 </i>
    <i name="bandstr">      4.15556858 </i>
    <i name="atom">  21550.30470511 </i>
    <i name="e_fr_energy">   1534.16955569 </i>
    <i name="e_wo_entrp">   1534.17389806 </i>
    <i name="e_0_energy">   1534.17100315 </i>
   </energy>
  </scstep>
  <scstep>
   <time name="dav">    0.95    0.96</time>
   <time name="total">    0.95    1.15</time>
   <energy>
    <i name="e_fr_energy">   -115.52911036 </i>
    <i name="e_wo_entrp">   -115.52505246 </i>
    <i name="e_0_energy">   -115.52775773 </i>
   </energy>
  </scstep>
  <scstep>
   <time name="dav">    1.32    1.34</time>
   <time name="total">    1.32    1.38</time>
   <energy>
    <i name="e_fr_energy">   -346.02459125 </i>
    <i name="e_wo_entrp">   -346.02710637 </i>
    <i name="e_0_energy">   -346.02542962 </i>
   </energy>
  </scstep>
  <scstep>
   <time name="dav">    1.33    1.34</time>
   <time name="total">    1.33    1.42</time>
   <energy>
    <i name="e_fr_energy">   -373.66272444 </i>
    <i name="e_wo_entrp">   -373.67040487 </i>
    <i name="e_0_energy">   -373.66528458 </i>
   </energy>
  </scstep>
  <scstep>
   <time name="dav">    1.30    1.31</time>
   <time name="total">    1.33    1.38</time>
   <energy>
    <i name="e_fr_energy">   -376.59264850 </i>
    <i name="e_wo_entrp">   -376.60095757 </i>
    <i name="e_0_energy">   -376.59541819 </i>
   </energy>
  </scstep>
  <scstep>
   <time name="diag">    0.07    0.08</time>
   <time name="diis">    0.67    0.68</time>
   <time name="orth">    0.01    0.01</time>
   <time name="total">    0.82    0.87</time>
   <energy>
    <i name="e_fr_energy">   -366.77098611 </i>
    <i name="e_wo_entrp">   -366.79570671 </i>
    <i name="e_0_energy">   -366.77922631 </i>
   </energy>
  </scstep>
  <scstep>
   <time name="diag">    0.07    0.07</time>
   <time name="diis">    0.75    0.75</time>
   <time name="orth">    0.01    0.01</time>
   <time name="total">    0.90    0.94</time>
   <energy>
    <i name="e_fr_energy">   -370.77211042 </i>
    <i name="e_wo_entrp">   -370.78800292 </i>
    <i name="e_0_energy">   -370.77740792 </i>
   </energy>
  </scstep>
  <scstep>
   <time name="diag">    0.07    0.07</time>
   <time name="diis">    0.69    0.70</time>
   <time name="orth">    0.01    0.01</time>
   <time name="total">    0.84    0.89</time>
   <energy>
    <i name="e_fr_energy">   -362.29249367 </i>
    <i name="e_wo_entrp">   -362.30726031 </i>
    <i name="e_0_energy">   -362.29741588 </i>
   </energy>
  </scstep>
  <scstep>
   <time name="diag">    0.10    0.11</time>
   <time name="diis">    0.79    0.81</time>
   <time name="orth">    0.01    0.01</time>
   <time name="total">    1.00    1.08</time>
   <energy>
    <i name="e_fr_energy">   -361.64666978 </i>
    <i name="e_wo_entrp">   -361.66514411 </i>
    <i name="e_0_energy">   -361.65282789 </i>
   </energy>
  </scstep>
  <scstep>
   <time name="diag">    0.08    0.09</time>
   <time name="diis">    0.74    0.75</time>
   <time name="orth">    0.01    0.01</time>
   <time name="total">    0.94    1.02</time>
   <energy>
    <i name="e_fr_energy">   -361.65473591 </i>
    <i name="e_wo_entrp">   -361.67219218 </i>
    <i name="e_0_energy">   -361.66055467 </i>
   </energy>
  </scstep>
  <scstep>
   <time name="diag">    0.07    0.08</time>
   <time name="diis">    0.69    0.72</time>
   <time name="orth">    0.01    0.01</time>
   <time name="total">    0.84    0.90</time>
   <energy>
    <i name="e_fr_energy">   -361.63504166 </i>
    <i name="e_wo_entrp">   -361.65244213 </i>
    <i name="e_0_energy">   -361.64084182 </i>
   </energy>
  </scstep>
  <scstep>
   <time name="diag">    0.07    0.07</time>
   <time name="diis">    0.70    0.74</time>
   <time name="orth">    0.01    0.01</time>
   <time name="total">    0.84    0.93</time>
   <energy>
    <i name="e_fr_energy">   -361.62331291 </i>
    <i name="e_wo_entrp">   -361.64096746 </i>
    <i name="e_0_energy">   -361.62919776 </i>
   </energy>
  </scstep>
  <scstep>
   <time name="diag">    0.07    0.07</time>
   <time name="diis">    0.69    0.77</time>
   <time name="orth">    0.01    0.02</time>
   <time name="total">    0.83    0.97</time>
   <energy>
    <i name="e_fr_energy">   -361.62161473 </i>
    <i name="e_wo_entrp">   -361.63916955 </i>
    <i name="e_0_energy">   -361.62746633 </i>
   </energy>
  </scstep>
  <scstep>
   <time name="diag">    0.07    0.07</time>
   <time name="diis">    0.73    0.79</time>
   <time name="orth">    0.02    0.02</time>
   <time name="total">    0.90    1.03</time>
   <energy>
    <i name="e_fr_energy">   -361.62152617 </i>
    <i name="e_wo_entrp">   -361.63922589 </i>
    <i name="e_0_energy">   -361.62742608 </i>
   </energy>
  </scstep>
  <scstep>
   <time name="diag">    0.07    0.07</time>
   <time name="diis">    0.84    0.85</time>
   <time name="orth">    0.01    0.01</time>
   <time name="total">    1.01    1.06</time>
   <energy>
    <i name="e_fr_energy">   -361.62179339 </i>
    <i name="e_wo_entrp">   -361.63950585 </i>
    <i name="e_0_energy">   -361.62769754 </i>
   </energy>
  </scstep>
  <scstep>
   <time name="diag">    0.11    0.12</time>
   <time name="diis">    0.71    0.72</time>
   <time name="orth">    0.01    0.01</time>
   <time name="total">    0.90    0.96</time>
   <energy>
    <i name="e_fr_energy">   -361.62188920 </i>
    <i name="e_wo_entrp">   -361.63957424 </i>
    <i name="e_0_energy">   -361.62778421 </i>
   </energy>
  </scstep>
  <scstep>
   <time name="diag">    0.07    0.08</time>
   <time name="diis">    0.62    0.64</time>
   <time name="orth">    0.01    0.01</time>
   <time name="total">    0.76    0.82</time>
   <energy>
    <i name="e_fr_energy">   -361.62192491 </i>
    <i name="e_wo_entrp">   -361.63964084 </i>
    <i name="e_0_energy">   -361.62783022 </i>
   </energy>
  </scstep>
  <scstep>
   <time name="diag">    0.07    0.08</time>
   <time name="diis">    0.58    0.58</time>
   <time name="orth">    0.01    0.01</time>
   <time name="total">    0.73    0.86</time>
   <energy>
    <i name="e_fr_energy">   -361.62194766 </i>
    <i name="e_wo_entrp">   -361.63965278 </i>
    <i name="e_0_energy">   -361.62784937 </i>
   </energy>
  </scstep>
  <scstep>
   <time name="diag">    0.07    0.08</time>
   <time name="diis">    0.50    0.50</time>
   <time name="orth">    0.01    0.01</time>
   <time name="total">    0.65    0.70</time>
   <energy>
    <i name="e_fr_energy">   -361.62196065 </i>
    <i name="e_wo_entrp">   -361.63967343 </i>
    <i name="e_0_energy">   -361.62786491 </i>
   </energy>
  </scstep>
  <scstep>
   <time name="diag">    0.08    0.08</time>
   <time name="diis">    0.42    0.43</time>
   <time name="orth">    0.01    0.01</time>
   <time name="total">    0.54    0.58</time>
   <energy>
    <i name="alphaZ">   1352.05029686 </i>
    <i name="ewald"> -16586.43517400 </i>
    <i name="hartreedc">  -5730.08617859 </i>
    <i name="XCdc">   -566.19966207 </i>
    <i name="pawpsdc">  31364.05874292 </i>
    <i name="pawaedc"> -29643.31167083 </i>
    <i name="eentropy">      0.01771301 </i>
    <i name="bandstr">  -2102.02073647 </i>
    <i name="atom">  21550.30470511 </i>
    <i name="e_fr_energy">   -361.62196405 </i>
    <i name="e_wo_entrp">   -361.63967706 </i>
    <i name="e_0_energy">   -361.62786839 </i>
   </energy>
  </scstep>
  <structure>
   <crystal>
    <varray name="basis" >
     <v>       6.90942291       0.00780671      -0.01470554 </v>
     <v>       0.01135339      10.30245142       0.00375121 </v>
     <v>      -0.02227779       0.00359158      10.33198720 </v>
    </varray>
    <i name="volume">    735.46772887 </i>
    <varray name="rec_basis" >
     <v>       0.14473073      -0.00015961       0.00031212 </v>
     <v>      -0.00010974       0.09706441      -0.00003398 </v>
     <v>       0.00020604      -0.00003547       0.09678726 </v>
    </varray>
   </crystal>
   <varray name="positions" >
    <v>       0.74914500       0.17400300       0.15733300 </v>
    <v>       0.25129100       0.16631200       0.15696000 </v>
    <v>       0.00102800       0.99330900       0.67369800 </v>
    <v>       0.00177700       0.34055700       0.32611500 </v>
    <v>       0.22525700       0.51207300       0.51755700 </v>
    <v>       0.01986500       0.66693700       0.31260000 </v>
    <v>       0.50551300       0.97165000       0.00014900 </v>
    <v>       0.50767700       0.00541400       0.34284700 </v>
    <v>       0.50028100       0.66769200       0.00101000 </v>
    <v>       0.48511000       0.66836600       0.31716400 </v>
    <v>       0.51541900       0.33468100       0.65685500 </v>
    <v>       0.74920000       0.82823100       0.81919200 </v>
    <v>       0.75961000       0.83711500       0.18288700 </v>
    <v>       0.00677700       0.67414100       0.68588100 </v>
    <v>       0.25246300       0.83251400       0.81874300 </v>
    <v>       0.50230100       0.35176100       0.99247300 </v>
    <v>       0.75674700       0.49573600       0.83821500 </v>
    <v>       0.99530200       0.34797200       0.99863900 </v>
    <v>       0.99543400       0.99591000       0.33483100 </v>
    <v>       0.26109900       0.48154000       0.14747400 </v>
    <v>       0.97731100       0.33319700       0.67570700 </v>
    <v>       0.23881500       0.48989100       0.83240100 </v>
    <v>       0.24397800       0.85906200       0.18315500 </v>
    <v>       0.24718800       0.83223400       0.49985700 </v>
    <v>       0.49552000       0.99367100       0.66142300 </v>
    <v>       0.74092700       0.48691600       0.15454200 </v>
    <v>       0.77872800       0.16187100       0.50344300 </v>
    <v>       0.73615600       0.16737600       0.84137100 </v>
    <v>       0.99327800       0.98177000       0.99639000 </v>
    <v>       0.22056600       0.16258400       0.50675300 </v>
    <v>       0.25674100       0.17326900       0.83754800 </v>
    <v>       0.00226000       0.66620000       0.00274400 </v>
    <v>       0.50254600       0.33590100       0.34151000 </v>
    <v>       0.77281400       0.51551200       0.50249200 </v>
    <v>       0.49536000       0.66733300       0.67950300 </v>
    <v>       0.75652700       0.82731000       0.50053900 </v>
   </varray>
  </structure>
  <varray name="forces" >
   <v>      -0.00619523      -0.03081574       0.01540431 </v>
   <v>      -0.00351124      -0.00926398      -0.02310242 </v>
   <v>       0.38021033       0.32769849      -0.25962601 </v>
   <v>      -0.00588269       0.00179667       0.00096262 </v>
   <v>       0.01515233       0.03799026       0.01041803 </v>
   <v>      -0.00127334      -0.04047199      -0.00112170 </v>
   <v>      -0.28915694       0.14974562       0.34937839 </v>
   <v>      -0.00497472      -0.00016173       0.04516917 </v>
   <v>      -0.20661532      -0.19926946       0.23126046 </v>
   <v>      -0.01950235      -0.01108120       0.02112319 </v>
   <v>      -0.01444162       0.01848565       0.00108946 </v>
   <v>      -0.11622839       0.06762575       0.02105125 </v>
   <v>       0.00638127       0.00116625      -0.11504108 </v>
   <v>       0.60414619      -0.44406942      -0.32766869 </v>
   <v>       0.02277638       0.04210855       0.09354273 </v>
   <v>      -0.05418162      -0.01306033       0.01577917 </v>
   <v>       0.00186833       0.14715003      -0.01577466 </v>
   <v>       0.05891888      -0.00886890       0.01723690 </v>
   <v>       0.00995157       0.00617386       0.03703468 </v>
   <v>      -0.00547651      -0.01197889      -0.02259567 </v>
   <v>       0.04071717      -0.02984011      -0.02378840 </v>
   <v>      -0.01527624      -0.01085361      -0.01615461 </v>
   <v>      -0.02964031       0.04351272      -0.01325147 </v>
   <v>       0.01726236       0.02235428      -0.02195345 </v>
   <v>      -0.35892464       0.27605579      -0.38051363 </v>
   <v>       0.01491719       0.02048799      -0.00115131 </v>
   <v>      -0.01843676       0.01037034       0.00990795 </v>
   <v>      -0.02908382      -0.08372211      -0.02340576 </v>
   <v>       0.32161665       0.20758977       0.35478303 </v>
   <v>       0.03828026      -0.02214432       0.00943816 </v>
   <v>       0.00952727       0.01850659      -0.02969091 </v>
   <v>       0.19081218      -0.15233524       0.17442432 </v>
   <v>      -0.00749476       0.00042463       0.01468632 </v>
   <v>      -0.02728541       0.04330532       0.03593864 </v>
   <v>      -0.45852409      -0.41292908      -0.27778945 </v>
   <v>      -0.06043236       0.03831757       0.09400043 </v>
  </varray>
  <varray name="stress" >
   <v>       8.18564471       0.41522212      -0.18850094 </v>
   <v>       0.41522214       5.99605845      -0.01446730 </v>
   <v>      -0.18850097      -0.01446725       6.74244156 </v>
  </varray>
  <energy>
   <i name="e_fr_energy">   -361.62196405 </i>
   <i name="e_wo_entrp">   -361.62786839 </i>
   <i name="e_0_energy">      0.01771301 </i>
  </energy>
  <time name="totalsc">   20.10   22.11</time>
 </calculation>
 <calculation>
  <scstep>
   <time name="dav">    0.96    1.13</time>
   <time name="total">    1.09    1.42</time>
   <energy>
    <i name="alphaZ">   1346.84289636 </i>
    <i name="ewald"> -16572.19297499 </i>
    <i name="hartreedc">  -5715.87727830 </i>
    <i name="XCdc">   -567.15393238 </i>
    <i name="pawpsdc">  31364.18332392 </i>
    <i name="pawaedc"> -29643.43401969 </i>
    <i name="eentropy">      0.01623970 </i>
    <i name="bandstr">  -2124.37309586 </i>
    <i name="atom">  21550.30470511 </i>
    <i name="e_fr_energy">   -361.68413613 </i>
    <i name="e_wo_entrp">   -361.70037583 </i>
    <i name="e_0_energy">   -361.68954936 </i>
   </energy>
  </scstep>
  <scstep>
   <time name="diag">    0.07    0.08</time>
   <time name="diis">    0.59    0.65</time>
   <time name="orth">    0.01    0.01</time>
   <time name="total">    0.90    1.00</time>
   <energy>
    <i name="e_fr_energy">   -361.67402393 </i>
    <i name="e_wo_entrp">   -361.69193921 </i>
    <i name="e_0_energy">   -361.67999569 </i>
   </energy>
  </scstep>
  <scstep>
   <time name="diag">    0.12    0.12</time>
   <time name="diis">    0.65    0.89</time>
   <time name="orth">    0.01    0.01</time>
   <time name="total">    0.84    1.12</time>
   <energy>
    <i name="e_fr_energy">   -361.66898398 </i>
    <i name="e_wo_entrp">   -361.68594118 </i>
    <i name="e_0_energy">   -361.67463638 </i>
   </energy>
  </scstep>
  <scstep>
   <time name="diag">    0.10    0.11</time>
   <time name="diis">    0.70    0.81</time>
   <time name="orth">    0.01    0.01</time>
   <time name="total">    0.98    1.13</time>
   <energy>
    <i name="e_fr_energy">   -361.66602171 </i>
    <i name="e_wo_entrp">   -361.68301319 </i>
    <i name="e_0_energy">   -361.67168554 </i>
   </energy>
  </scstep>
  <scstep>
   <time name="diag">    0.07    0.09</time>
   <time name="diis">    0.76    0.79</time>
   <time name="orth">    0.01    0.01</time>
   <time name="total">    0.92    1.00</time>
   <energy>
    <i name="e_fr_energy">   -361.66560181 </i>
    <i name="e_wo_entrp">   -361.68277471 </i>
    <i name="e_0_energy">   -361.67132611 </i>
   </energy>
  </scstep>
  <scstep>
   <time name="diag">    0.07    0.08</time>
   <time name="diis">    0.77    0.78</time>
   <time name="orth">    0.01    0.01</time>
   <time name="total">    0.92    0.96</time>
   <energy>
    <i name="e_fr_energy">   -361.66560401 </i>
    <i name="e_wo_entrp">   -361.68276712 </i>
    <i name="e_0_energy">   -361.67132504 </i>
   </energy>
  </scstep>
  <scstep>
   <time name="diag">    0.08    0.08</time>
   <time name="diis">    0.71    0.71</time>
   <time name="orth">    0.01    0.01</time>
   <time name="total">    0.86    0.90</time>
   <energy>
    <i name="e_fr_energy">   -361.66560759 </i>
    <i name="e_wo_entrp">   -361.68269037 </i>
    <i name="e_0_energy">   -361.67130185 </i>
   </energy>
  </scstep>
  <scstep>
   <time name="diag">    0.07    0.07</time>
   <time name="diis">    0.65    0.65</time>
   <time name="orth">    0.01    0.01</time>
   <time name="total">    0.79    0.84</time>
   <energy>
    <i name="e_fr_energy">   -361.66561550 </i>
    <i name="e_wo_entrp">   -361.68271853 </i>
    <i name="e_0_energy">   -361.67131651 </i>
   </energy>
  </scstep>
  <scstep>
   <time name="diag">    0.07    0.07</time>
   <time name="diis">    0.51    0.52</time>
   <time name="orth">    0.01    0.01</time>
   <time name="total">    0.66    0.71</time>
   <energy>
    <i name="e_fr_energy">   -361.66562441 </i>
    <i name="e_wo_entrp">   -361.68275982 </i>
    <i name="e_0_energy">   -361.67133621 </i>
   </energy>
  </scstep>
  <scstep>
   <time name="diag">    0.07    0.08</time>
   <time name="diis">    0.47    0.52</time>
   <time name="orth">    0.01    0.01</time>
   <time name="total">    0.59    0.67</time>
   <energy>
    <i name="alphaZ">   1346.84289636 </i>
    <i name="ewald"> -16572.19297499 </i>
    <i name="hartreedc">  -5728.75791322 </i>
    <i name="XCdc">   -566.60952914 </i>
    <i name="pawpsdc">  31186.94523328 </i>
    <i name="pawaedc"> -29466.28464275 </i>
    <i name="eentropy">      0.01712598 </i>
    <i name="bandstr">  -2111.93053019 </i>
    <i name="atom">  21550.30470511 </i>
    <i name="e_fr_energy">   -361.66562957 </i>
    <i name="e_wo_entrp">   -361.68275555 </i>
    <i name="e_0_energy">   -361.67133823 </i>
   </energy>
  </scstep>
  <structure>
   <crystal>
    <varray name="basis" >
     <v>       6.91986155       0.00834483      -0.01496421 </v>
     <v>       0.01215986      10.31385240       0.00372798 </v>
     <v>      -0.02267059       0.00356627      10.34484392 </v>
    </varray>
    <i name="volume">    738.31132335 </i>
    <varray name="rec_basis" >
     <v>       0.14451245      -0.00017049       0.00031676 </v>
     <v>      -0.00011700       0.09695713      -0.00003368 </v>
     <v>       0.00020908      -0.00003519       0.09666698 </v>
    </varray>
   </crystal>
   <varray name="positions" >
    <v>       0.74913216       0.17395971       0.15735458 </v>
    <v>       0.25128356       0.16629900       0.15692763 </v>
    <v>       0.00182248       0.99376887       0.67333529 </v>
    <v>       0.00176468       0.34055953       0.32611633 </v>
    <v>       0.22528870       0.51212634       0.51757162 </v>
    <v>       0.01986242       0.66688015       0.31259845 </v>
    <v>       0.50490855       0.97186065       0.00063746 </v>
    <v>       0.50766678       0.00541376       0.34291026 </v>
    <v>       0.49984972       0.66741228       0.00133343 </v>
    <v>       0.48506927       0.66835045       0.31719354 </v>
    <v>       0.51538871       0.33470699       0.65685647 </v>
    <v>       0.74895648       0.82832617       0.81922111 </v>
    <v>       0.75962284       0.83711668       0.18272587 </v>
    <v>       0.00804203       0.67351638       0.68542404 </v>
    <v>       0.25251103       0.83257307       0.81887408 </v>
    <v>       0.50218761       0.35174273       0.99249495 </v>
    <v>       0.75675050       0.49594272       0.83819283 </v>
    <v>       0.99542551       0.34795944       0.99866333 </v>
    <v>       0.99545500       0.99591864       0.33488290 </v>
    <v>       0.26108745       0.48152319       0.14744234 </v>
    <v>       0.97739625       0.33315503       0.67567381 </v>
    <v>       0.23878295       0.48987579       0.83237833 </v>
    <v>       0.24391575       0.85912318       0.18313633 </v>
    <v>       0.24722401       0.83226539       0.49982629 </v>
    <v>       0.49476582       0.99405956       0.66088877 </v>
    <v>       0.74095819       0.48694476       0.15454042 </v>
    <v>       0.77868940       0.16188559       0.50345682 </v>
    <v>       0.73609517       0.16725845       0.84133817 </v>
    <v>       0.99395280       0.98206094       0.99688783 </v>
    <v>       0.22064628       0.16255283       0.50676635 </v>
    <v>       0.25676078       0.17329500       0.83750643 </v>
    <v>       0.00266083       0.66598561       0.00298898 </v>
    <v>       0.50253037       0.33590160       0.34153055 </v>
    <v>       0.77275691       0.51557286       0.50254224 </v>
    <v>       0.49439925       0.66675378       0.67911272 </v>
    <v>       0.75640075       0.82736388       0.50067047 </v>
   </varray>
  </structure>
  <varray name="forces" >
   <v>      -0.00214469      -0.01686071       0.01990790 </v>
   <v>      -0.00300194       0.00434053      -0.01017288 </v>
   <v>       0.34901575       0.27331665      -0.22151961 </v>
   <v>      -0.00933297       0.00668943      -0.00446641 </v>
   <v>       0.00262377       0.00415502      -0.01384269 </v>
   <v>      -0.00464651      -0.02684098      -0.00071540 </v>
   <v>      -0.25919971       0.11395387       0.32449186 </v>
   <v>       0.00422962      -0.00933251       0.03859982 </v>
   <v>      -0.17745535      -0.16263585       0.19255868 </v>
   <v>      -0.01463862       0.00027390       0.00840579 </v>
   <v>       0.00471810       0.02094997       0.00906488 </v>
   <v>      -0.10046431       0.05535689      -0.00260922 </v>
   <v>       0.01286784       0.00548086      -0.09488730 </v>
   <v>       0.53642906      -0.35108000      -0.25646507 </v>
   <v>       0.02690353       0.03223237       0.06540268 </v>
   <v>      -0.03987668       0.00247771       0.01580599 </v>
   <v>       0.01647257       0.12410891      -0.01299488 </v>
   <v>       0.04131139       0.00456664       0.01271283 </v>
   <v>      -0.00426843      -0.00491890       0.03294874 </v>
   <v>      -0.00387171      -0.03434039      -0.01788648 </v>
   <v>       0.01794199      -0.02819701      -0.01441148 </v>
   <v>      -0.02163655      -0.03048770      -0.01053426 </v>
   <v>      -0.03752271       0.03478653       0.02036931 </v>
   <v>       0.01378045       0.02110160      -0.03055420 </v>
   <v>      -0.32857932       0.23133397      -0.34173681 </v>
   <v>       0.01101180      -0.00262436      -0.01166079 </v>
   <v>      -0.01327220       0.01539043       0.00123711 </v>
   <v>      -0.02353724      -0.07957498      -0.02692521 </v>
   <v>       0.28256605       0.17030464       0.30777468 </v>
   <v>       0.02714710      -0.00652051      -0.00236438 </v>
   <v>       0.01555894       0.03394383      -0.03055956 </v>
   <v>       0.16112904      -0.12860369       0.14470676 </v>
   <v>      -0.00162473       0.00441356       0.00542071 </v>
   <v>      -0.01493268       0.03692393       0.03466839 </v>
   <v>      -0.41270141      -0.35710951      -0.22638170 </v>
   <v>      -0.05099923       0.04302588       0.09661220 </v>
  </varray>
  <varray name="stress" >
   <v>       2.97585536       0.41756896      -0.10163421 </v>
   <v>       0.41756895       0.85840263      -0.03575332 </v>
   <v>      -0.10163425      -0.03575337       1.57452560 </v>
  </varray>
  <energy>
   <i name="e_fr_energy">   -361.66562957 </i>
   <i name="e_wo_entrp">   -361.67133823 </i>
   <i name="e_0_energy">      0.01712598 </i>
  </energy>
  <time name="totalsc">    9.97   11.49</time>
 </calculation>
 <calculation>
  <scstep>
   <time name="dav">    0.93    0.95</time>
   <time name="total">    1.05    1.22</time>
   <energy>
    <i name="alphaZ">   1333.73793220 </i>
    <i name="ewald"> -16535.55306785 </i>
    <i name="hartreedc">  -5693.21105759 </i>
    <i name="XCdc">   -569.02455545 </i>
    <i name="pawpsdc">  31186.75583138 </i>
    <i name="pawaedc"> -29466.19248190 </i>
    <i name="eentropy">      0.01362839 </i>
    <i name="bandstr">  -2168.65942689 </i>
    <i name="atom">  21550.30470511 </i>
    <i name="e_fr_energy">   -361.82849260 </i>
    <i name="e_wo_entrp">   -361.84212099 </i>
    <i name="e_0_energy">   -361.83303540 </i>
   </energy>
  </scstep>
  <scstep>
   <time name="diag">    0.07    0.08</time>
   <time name="diis">    0.69    0.70</time>
   <time name="orth">    0.01    0.01</time>
   <time name="total">    0.84    0.88</time>
   <energy>
    <i name="e_fr_energy">   -361.76731606 </i>
    <i name="e_wo_entrp">   -361.78497419 </i>
    <i name="e_0_energy">   -361.77320211 </i>
   </energy>
  </scstep>
  <scstep>
   <time name="diag">    0.15    0.15</time>
   <time name="diis">    0.74    0.76</time>
   <time name="orth">    0.01    0.01</time>
   <time name="total">    0.99    1.05</time>
   <energy>
    <i name="e_fr_energy">   -361.73400681 </i>
    <i name="e_wo_entrp">   -361.74911681 </i>
    <i name="e_0_energy">   -361.73904347 </i>
   </energy>
  </scstep>
  <scstep>
   <time name="diag">    0.07    0.08</time>
   <time name="diis">    0.73    0.74</time>
   <time name="orth">    0.01    0.01</time>
   <time name="total">    0.88    0.93</time>
   <energy>
    <i name="e_fr_energy">   -361.71502697 </i>
    <i name="e_wo_entrp">   -361.73035469 </i>
    <i name="e_0_energy">   -361.72013621 </i>
   </energy>
  </scstep>
  <scstep>
   <time name="diag">    0.08    0.08</time>
   <time name="diis">    0.81    0.82</time>
   <time name="orth">    0.01    0.01</time>
   <time name="total">    0.96    1.01</time>
   <energy>
    <i name="e_fr_energy">   -361.71220921 </i>
    <i name="e_wo_entrp">   -361.72795369 </i>
    <i name="e_0_energy">   -361.71745737 </i>
   </energy>
  </scstep>
  <scstep>
   <time name="diag">    0.07    0.07</time>
   <time name="diis">    0.76    0.76</time>
   <time name="orth">    0.01    0.01</time>
   <time name="total">    0.91    0.95</time>
   <energy>
    <i name="e_fr_energy">   -361.71218091 </i>
    <i name="e_wo_entrp">   -361.72789359 </i>
    <i name="e_0_energy">   -361.71741847 </i>
   </energy>
  </scstep>
  <scstep>
   <time name="diag">    0.08    0.08</time>
   <time name="diis">    0.77    0.78</time>
   <time name="orth">    0.01    0.01</time>
   <time name="total">    0.92    0.97</time>
   <energy>
    <i name="e_fr_energy">   -361.71227265 </i>
    <i name="e_wo_entrp">   -361.72779713 </i>
    <i name="e_0_energy">   -361.71744748 </i>
   </energy>
  </scstep>
  <scstep>
   <time name="diag">    0.07    0.07</time>
   <time name="diis">    0.71    0.78</time>
   <time name="orth">    0.01    0.01</time>
   <time name="total">    0.86    0.97</time>
   <energy>
    <i name="e_fr_energy">   -361.71237205 </i>
    <i name="e_wo_entrp">   -361.72793879 </i>
    <i name="e_0_energy">   -361.71756097 </i>
   </energy>
  </scstep>
  <scstep>
   <time name="diag">    0.07    0.08</time>
   <time name="diis">    0.71    0.72</time>
   <time name="orth">    0.01    0.01</time>
   <time name="total">    0.86    0.92</time>
   <energy>
    <i name="e_fr_energy">   -361.71244562 </i>
    <i name="e_wo_entrp">   -361.72809440 </i>
    <i name="e_0_energy">   -361.71766188 </i>
   </energy>
  </scstep>
  <scstep>
   <time name="diag">    0.07    0.08</time>
   <time name="diis">    0.64    0.65</time>
   <time name="orth">    0.01    0.01</time>
   <time name="total">    0.80    0.84</time>
   <energy>
    <i name="e_fr_energy">   -361.71252289 </i>
    <i name="e_wo_entrp">   -361.72813575 </i>
    <i name="e_0_energy">   -361.71772717 </i>
   </energy>
  </scstep>
  <scstep>
   <time name="diag">    0.07    0.08</time>
   <time name="diis">    0.59    0.59</time>
   <time name="orth">    0.01    0.01</time>
   <time name="total">    0.74    0.79</time>
   <energy>
    <i name="e_fr_energy">   -361.71254251 </i>
    <i name="e_wo_entrp">   -361.72814368 </i>
    <i name="e_0_energy">   -361.71774290 </i>
   </energy>
  </scstep>
  <scstep>
   <time name="diag">    0.07    0.08</time>
   <time name="diis">    0.52    0.57</time>
   <time name="orth">    0.01    0.01</time>
   <time name="total">    0.67    0.76</time>
   <energy>
    <i name="e_fr_energy">   -361.71254483 </i>
    <i name="e_wo_entrp">   -361.72813943 </i>
    <i name="e_0_energy">   -361.71774303 </i>
   </energy>
  </scstep>
  <scstep>
   <time name="diag">    0.07    0.08</time>
   <time name="diis">    0.54    0.56</time>
   <time name="orth">    0.01    0.01</time>
   <time name="total">    0.66    0.73</time>
   <energy>
    <i name="alphaZ">   1333.73793220 </i>
    <i name="ewald"> -16535.55306785 </i>
    <i name="hartreedc">  -5725.24693860 </i>
    <i name="XCdc">   -567.67102459 </i>
    <i name="pawpsdc">  30747.97812940 </i>
    <i name="pawaedc"> -29028.15812466 </i>
    <i name="eentropy">      0.01558933 </i>
    <i name="bandstr">  -2137.11974465 </i>
    <i name="atom">  21550.30470511 </i>
    <i name="e_fr_energy">   -361.71254430 </i>
    <i name="e_wo_entrp">   -361.72813363 </i>
    <i name="e_0_energy">   -361.71774074 </i>
   </energy>
  </scstep>
  <structure>
   <crystal>
    <varray name="basis" >
     <v>       6.94637249       0.00971151      -0.01562117 </v>
     <v>       0.01420805      10.34280739       0.00366897 </v>
     <v>      -0.02366817       0.00350197      10.37749602 </v>
    </varray>
    <i name="volume">    745.56577956 </i>
    <varray name="rec_basis" >
     <v>       0.14396105      -0.00019788       0.00032840 </v>
     <v>      -0.00013525       0.09668575      -0.00003294 </v>
     <v>       0.00021675      -0.00003448       0.09636287 </v>
    </varray>
   </crystal>
   <varray name="positions" >
    <v>       0.74909963       0.17384990       0.15740930 </v>
    <v>       0.25126470       0.16626603       0.15684553 </v>
    <v>       0.00383699       0.99493541       0.67241530 </v>
    <v>       0.00173343       0.34056596       0.32611970 </v>
    <v>       0.22536907       0.51226165       0.51760870 </v>
    <v>       0.01985590       0.66673592       0.31259450 </v>
    <v>       0.50337574       0.97239512       0.00187644 </v>
    <v>       0.50764089       0.00541315       0.34307071 </v>
    <v>       0.49875617       0.66670273       0.00215380 </v>
    <v>       0.48496599       0.66831102       0.31726845 </v>
    <v>       0.51531190       0.33477293       0.65686021 </v>
    <v>       0.74833892       0.82856765       0.81929492 </v>
    <v>       0.75965539       0.83712096       0.18231716 </v>
    <v>       0.01125008       0.67193161       0.68426500 </v>
    <v>       0.25263284       0.83272292       0.81920657 </v>
    <v>       0.50190007       0.35169640       0.99255061 </v>
    <v>       0.75675932       0.49646715       0.83813661 </v>
    <v>       0.99573873       0.34792756       0.99872503 </v>
    <v>       0.99550825       0.99594055       0.33501456 </v>
    <v>       0.26105818       0.48148055       0.14736203 </v>
    <v>       0.97761244       0.33304854       0.67558964 </v>
    <v>       0.23870169       0.48983719       0.83232083 </v>
    <v>       0.24375788       0.85927839       0.18308896 </v>
    <v>       0.24731531       0.83234501       0.49974839 </v>
    <v>       0.49285313       0.99504538       0.65953364 </v>
    <v>       0.74103729       0.48701771       0.15453642 </v>
    <v>       0.77859152       0.16192262       0.50349187 </v>
    <v>       0.73594093       0.16696023       0.84125489 </v>
    <v>       0.99566398       0.98279892       0.99815062 </v>
    <v>       0.22084986       0.16247373       0.50680020 </v>
    <v>       0.25681092       0.17336095       0.83740098 </v>
    <v>       0.00367736       0.66544168       0.00361039 </v>
    <v>       0.50249072       0.33590313       0.34158267 </v>
    <v>       0.77261212       0.51572727       0.50266967 </v>
    <v>       0.49196303       0.66528450       0.67812271 </v>
    <v>       0.75608060       0.82750058       0.50100396 </v>
   </varray>
  </structure>
  <varray name="forces" >
   <v>       0.00641981       0.01641749       0.02967025 </v>
   <v>      -0.00171556       0.04015681       0.02318382 </v>
   <v>       0.27411169       0.14431496      -0.12954665 </v>
   <v>      -0.01814535       0.01866173      -0.01772929 </v>
   <v>      -0.02586093      -0.08409097      -0.07849043 </v>
   <v>      -0.01244320       0.00709516       0.00051475 </v>
   <v>      -0.18845913       0.02675581       0.26331621 </v>
   <v>       0.02721254      -0.03330288       0.02258081 </v>
   <v>      -0.10756035      -0.07404022       0.09949820 </v>
   <v>      -0.00196070       0.02859034      -0.02243070 </v>
   <v>       0.05258782       0.02524775       0.03132026 </v>
   <v>      -0.06350414       0.02584235      -0.05521247 </v>
   <v>       0.03062797       0.01672002      -0.04509430 </v>
   <v>       0.37839084      -0.12890583      -0.08579967 </v>
   <v>       0.03443812       0.00569283      -0.00237432 </v>
   <v>      -0.00411028       0.03929697       0.01597530 </v>
   <v>       0.05041406       0.06929764      -0.00497672 </v>
   <v>      -0.00102143       0.03805691      -0.00045291 </v>
   <v>      -0.04164005      -0.03350724       0.02171358 </v>
   <v>       0.00139220      -0.09003995      -0.00810896 </v>
   <v>      -0.03891710      -0.02255060       0.01130018 </v>
   <v>      -0.03651467      -0.07719373       0.00451378 </v>
   <v>      -0.06043641       0.01035097       0.10391765 </v>
   <v>       0.00558071       0.01915017      -0.05184010 </v>
   <v>      -0.25520919       0.12239010      -0.24760026 </v>
   <v>       0.00078949      -0.05958170      -0.03884204 </v>
   <v>      -0.00131606       0.02707229      -0.02066954 </v>
   <v>      -0.00964111      -0.06612102      -0.03523197 </v>
   <v>       0.18810867       0.07662453       0.19496584 </v>
   <v>      -0.00019549       0.03500246      -0.03405211 </v>
   <v>       0.03040116       0.07056073      -0.03220174 </v>
   <v>       0.08795980      -0.07079677       0.07164217 </v>
   <v>       0.01234948       0.01568570      -0.01939218 </v>
   <v>       0.01481644       0.02475869       0.03425188 </v>
   <v>      -0.29839341      -0.21867310      -0.09992959 </v>
   <v>      -0.02855625       0.05506159       0.10161127 </v>
  </varray>
  <varray name="stress" >
   <v>     -10.00078390       0.39475880       0.12628983 </v>
   <v>       0.39475879     -11.92115028      -0.09784225 </v>
   <v>       0.12628982      -0.09784223     -11.22545306 </v>
  </varray>
  <energy>
   <i name="e_fr_energy">   -361.71254430 </i>
   <i name="e_wo_entrp">   -361.71774074 </i>
   <i name="e_0_energy">      0.01558933 </i>
  </energy>
  <time name="totalsc">   12.75   13.88</time>
 </calculation>
 <calculation>
  <scstep>
   <time name="dav">    0.82    0.91</time>
   <time name="total">    0.94    1.18</time>
   <energy>
    <i name="alphaZ">   1337.09220754 </i>
    <i name="ewald"> -16557.16692935 </i>
    <i name="hartreedc">  -5722.42247941 </i>
    <i name="XCdc">   -567.06456432 </i>
    <i name="pawpsdc">  30747.29783031 </i>
    <i name="pawaedc"> -29027.50063932 </i>
    <i name="eentropy">      0.01535045 </i>
    <i name="bandstr">  -2122.30724006 </i>
    <i name="atom">  21550.30470511 </i>
    <i name="e_fr_energy">   -361.75175907 </i>
    <i name="e_wo_entrp">   -361.76710952 </i>
    <i name="e_0_energy">   -361.75687588 </i>
   </energy>
  </scstep>
  <scstep>
   <time name="diag">    0.07    0.08</time>
   <time name="diis">    0.64    0.71</time>
   <time name="orth">    0.01    0.01</time>
   <time name="total">    0.79    0.89</time>
   <energy>
    <i name="e_fr_energy">   -361.76089413 </i>
    <i name="e_wo_entrp">   -361.77575678 </i>
    <i name="e_0_energy">   -361.76584835 </i>
   </energy>
  </scstep>
  <scstep>
   <time name="diag">    0.07    0.07</time>
   <time name="diis">    0.69    0.70</time>
   <time name="orth">    0.01    0.01</time>
   <time name="total">    0.83    0.91</time>
   <energy>
    <i name="e_fr_energy">   -361.75076213 </i>
    <i name="e_wo_entrp">   -361.76590707 </i>
    <i name="e_0_energy">   -361.75581045 </i>
   </energy>
  </scstep>
  <scstep>
   <time name="diag">    0.07    0.07</time>
   <time name="diis">    0.72    0.73</time>
   <time name="orth">    0.01    0.01</time>
   <time name="total">    0.87    0.91</time>
   <energy>
    <i name="e_fr_energy">   -361.74886274 </i>
    <i name="e_wo_entrp">   -361.76409887 </i>
    <i name="e_0_energy">   -361.75394145 </i>
   </energy>
  </scstep>
  <scstep>
   <time name="diag">    0.07    0.08</time>
   <time name="diis">    0.73    0.73</time>
   <time name="orth">    0.01    0.01</time>
   <time name="total">    0.88    0.92</time>
   <energy>
    <i name="e_fr_energy">   -361.74841966 </i>
    <i name="e_wo_entrp">   -361.76361171 </i>
    <i name="e_0_energy">   -361.75348368 </i>
   </energy>
  </scstep>
  <scstep>
   <time name="diag">    0.07    0.07</time>
   <time name="diis">    0.73    0.74</time>
   <time name="orth">    0.01    0.01</time>
   <time name="total">    0.88    0.92</time>
   <energy>
    <i name="e_fr_energy">   -361.74845213 </i>
    <i name="e_wo_entrp">   -361.76362791 </i>
    <i name="e_0_energy">   -361.75351072 </i>
   </energy>
  </scstep>
  <scstep>
   <time name="diag">    0.07    0.08</time>
   <time name="diis">    0.69    0.70</time>
   <time name="orth">    0.01    0.01</time>
   <time name="total">    0.84    0.89</time>
   <energy>
    <i name="e_fr_energy">   -361.74845467 </i>
    <i name="e_wo_entrp">   -361.76362153 </i>
    <i name="e_0_energy">   -361.75351029 </i>
   </energy>
  </scstep>
  <scstep>
   <time name="diag">    0.13    0.14</time>
   <time name="diis">    0.64    0.66</time>
   <time name="orth">    0.01    0.01</time>
   <time name="total">    0.85    0.91</time>
   <energy>
    <i name="e_fr_energy">   -361.74848332 </i>
    <i name="e_wo_entrp">   -361.76367829 </i>
    <i name="e_0_energy">   -361.75354831 </i>
   </energy>
  </scstep>
  <scstep>
   <time name="diag">    0.07    0.07</time>
   <time name="diis">    0.56    0.61</time>
   <time name="orth">    0.01    0.01</time>
   <time name="total">    0.76    0.88</time>
   <energy>
    <i name="e_fr_energy">   -361.74850384 </i>
    <i name="e_wo_entrp">   -361.76368993 </i>
    <i name="e_0_energy">   -361.75356587 </i>
   </energy>
  </scstep>
  <scstep>
   <time name="diag">    0.11    0.12</time>
   <time name="diis">    0.37    0.54</time>
   <time name="orth">    0.01    0.01</time>
   <time name="total">    0.53    0.75</time>
   <energy>
    <i name="alphaZ">   1337.09220754 </i>
    <i name="ewald"> -16557.16692935 </i>
    <i name="hartreedc">  -5713.47567634 </i>
    <i name="XCdc">   -567.42223564 </i>
    <i name="pawpsdc">  30853.16550408 </i>
    <i name="pawaedc"> -29133.45160140 </i>
    <i name="eentropy">      0.01517495 </i>
    <i name="bandstr">  -2130.80966267 </i>
    <i name="atom">  21550.30470511 </i>
    <i name="e_fr_energy">   -361.74851371 </i>
    <i name="e_wo_entrp">   -361.76368867 </i>
    <i name="e_0_energy">   -361.75357203 </i>
   </energy>
  </scstep>
  <structure>
   <crystal>
    <varray name="basis" >
     <v>       6.94298997       0.01057481      -0.01564993 </v>
     <v>       0.01550234      10.33118738       0.00347512 </v>
     <v>      -0.02371990       0.00330395      10.36815819 </v>
    </varray>
    <i name="volume">    743.69542770 </i>
    <varray name="rec_basis" >
     <v>       0.14403124      -0.00021624       0.00032958 </v>
     <v>      -0.00014750       0.09679453      -0.00003118 </v>
     <v>       0.00021745      -0.00003277       0.09644965 </v>
    </varray>
   </crystal>
   <varray name="positions" >
    <v>       0.74910167       0.17383664       0.15746302 </v>
    <v>       0.25125572       0.16630602       0.15684914 </v>
    <v>       0.00496343       0.99547331       0.67197243 </v>
    <v>       0.00169000       0.34059127       0.32609862 </v>
    <v>       0.22534554       0.51219833       0.51752242 </v>
    <v>       0.01983077       0.66670050       0.31259389 </v>
    <v>       0.50255627       0.97259295       0.00258382 </v>
    <v>       0.50768370       0.00537134       0.34314816 </v>
    <v>       0.49822146       0.66639258       0.00252916 </v>
    <v>       0.48493050       0.66833461       0.31726353 </v>
    <v>       0.51538612       0.33482459       0.65690045 </v>
    <v>       0.74803111       0.82867423       0.81924871 </v>
    <v>       0.75972205       0.83714310       0.18213566 </v>
    <v>       0.01293763       0.67128323       0.68380359 </v>
    <v>       0.25273419       0.83277599       0.81930580 </v>
    <v>       0.50180419       0.35173123       0.99258754 </v>
    <v>       0.75685547       0.49671462       0.83811327 </v>
    <v>       0.99583284       0.34796525       0.99874340 </v>
    <v>       0.99544739       0.99590552       0.33508189 </v>
    <v>       0.26105198       0.48135508       0.14732732 </v>
    <v>       0.97760656       0.33298774       0.67557776 </v>
    <v>       0.23860912       0.48972906       0.83230872 </v>
    <v>       0.24359753       0.85933905       0.18320351 </v>
    <v>       0.24735341       0.83239337       0.49965999 </v>
    <v>       0.49179050       0.99550154       0.65880877 </v>
    <v>       0.74106300       0.48696576       0.15448690 </v>
    <v>       0.77855888       0.16196779       0.50347690 </v>
    <v>       0.73587574       0.16678615       0.84118549 </v>
    <v>       0.99653921       0.98312074       0.99878139 </v>
    <v>       0.22091174       0.16249313       0.50676823 </v>
    <v>       0.25688248       0.17346923       0.83732860 </v>
    <v>       0.00415328       0.66518604       0.00389060 </v>
    <v>       0.50250139       0.33592316       0.34157458 </v>
    <v>       0.77259531       0.51580556       0.50275143 </v>
    <v>       0.49066124       0.66456097       0.67769366 </v>
    <v>       0.75592960       0.82761131       0.50123263 </v>
   </varray>
  </structure>
  <varray name="forces" >
   <v>       0.00590853       0.01567401       0.03582269 </v>
   <v>       0.00217552       0.05557000       0.03690127 </v>
   <v>       0.23268533       0.09985108      -0.08276788 </v>
   <v>      -0.02112724       0.01658675      -0.01282773 </v>
   <v>      -0.01756849      -0.12917085      -0.12305319 </v>
   <v>      -0.02791899       0.01075753       0.01109185 </v>
   <v>      -0.15105521       0.00813138       0.22461991 </v>
   <v>       0.03331814      -0.02955571       0.01454489 </v>
   <v>      -0.07579922      -0.02625060       0.05760267 </v>
   <v>       0.01716029       0.03027038      -0.01872980 </v>
   <v>       0.05573371       0.02227063       0.03444971 </v>
   <v>      -0.05098252       0.01946099      -0.05745310 </v>
   <v>       0.02151959       0.01111409      -0.03735561 </v>
   <v>       0.28462101      -0.04072791      -0.02723040 </v>
   <v>       0.04097454      -0.00265540      -0.00410106 </v>
   <v>       0.01539047       0.01080767       0.00034287 </v>
   <v>       0.04718467       0.06709837      -0.00908366 </v>
   <v>      -0.01879034       0.00847832      -0.01532429 </v>
   <v>      -0.05865257      -0.02366894       0.02015169 </v>
   <v>      -0.00878245      -0.08297571       0.02976284 </v>
   <v>      -0.04687235      -0.02599838       0.01705552 </v>
   <v>      -0.02522911      -0.07874972       0.00596562 </v>
   <v>      -0.05134652      -0.02241941       0.11782067 </v>
   <v>       0.00418304       0.00627030      -0.06790788 </v>
   <v>      -0.20763817       0.09585212      -0.19970768 </v>
   <v>       0.00598551      -0.05164185      -0.02499042 </v>
   <v>      -0.01902333       0.03047185      -0.03489356 </v>
   <v>       0.00055150      -0.07621247      -0.03324766 </v>
   <v>       0.14187394       0.05071314       0.13635809 </v>
   <v>       0.00949535       0.06487747      -0.05609634 </v>
   <v>       0.03326644       0.07025002      -0.02373150 </v>
   <v>       0.05621811      -0.03180095       0.03932082 </v>
   <v>       0.01395277       0.02013759      -0.01931634 </v>
   <v>       0.01040653       0.02570770       0.02405427 </v>
   <v>      -0.22911050      -0.16455350      -0.05923128 </v>
   <v>      -0.02270800       0.04603000       0.10118401 </v>
  </varray>
  <varray name="stress" >
   <v>      -6.92050638       0.36927306       0.21212058 </v>
   <v>       0.36927306      -8.67973855      -0.06512077 </v>
   <v>       0.21212063      -0.06512082      -7.98033952 </v>
  </varray>
  <energy>
   <i name="e_fr_energy">   -361.74851371 </i>
   <i name="e_wo_entrp">   -361.75357203 </i>
   <i name="e_0_energy">      0.01517495 </i>
  </energy>
  <time name="totalsc">    9.67   11.00</time>
 </calculation>
 <calculation>
  <scstep>
   <time name="dav">    0.84    0.85</time>
   <time name="total">    0.96    1.14</time>
   <energy>
    <i name="alphaZ">   1344.87242496 </i>
    <i name="ewald"> -16606.39918252 </i>
    <i name="hartreedc">  -5707.62410067 </i>
    <i name="XCdc">   -566.01445581 </i>
    <i name="pawpsdc">  30853.80386152 </i>
    <i name="pawaedc"> -29134.04292575 </i>
    <i name="eentropy">      0.01473424 </i>
    <i name="bandstr">  -2096.72225983 </i>
    <i name="atom">  21550.30470511 </i>
    <i name="e_fr_energy">   -361.80719875 </i>
    <i name="e_wo_entrp">   -361.82193299 </i>
    <i name="e_0_energy">   -361.81211016 </i>
   </energy>
  </scstep>
  <scstep>
   <time name="diag">    0.07    0.08</time>
   <time name="diis">    0.69    0.71</time>
   <time name="orth">    0.01    0.01</time>
   <time name="total">    0.84    0.90</time>
   <energy>
    <i name="e_fr_energy">   -361.85764276 </i>
    <i name="e_wo_entrp">   -361.87141254 </i>
    <i name="e_0_energy">   -361.86223269 </i>
   </energy>
  </scstep>
  <scstep>
   <time name="diag">    0.07    0.08</time>
   <time name="diis">    0.69    0.72</time>
   <time name="orth">    0.01    0.01</time>
   <time name="total">    0.84    0.91</time>
   <energy>
    <i name="e_fr_energy">   -361.80053966 </i>
    <i name="e_wo_entrp">   -361.81475831 </i>
    <i name="e_0_energy">   -361.80527921 </i>
   </energy>
  </scstep>
  <scstep>
   <time name="diag">    0.07    0.08</time>
   <time name="diis">    0.72    0.74</time>
   <time name="orth">    0.01    0.01</time>
   <time name="total">    0.86    0.93</time>
   <energy>
    <i name="e_fr_energy">   -361.79101833 </i>
    <i name="e_wo_entrp">   -361.80541627 </i>
    <i name="e_0_energy">   -361.79581764 </i>
   </energy>
  </scstep>
  <scstep>
   <time name="diag">    0.07    0.08</time>
   <time name="diis">    0.72    0.74</time>
   <time name="orth">    0.01    0.01</time>
   <time name="total">    0.88    0.95</time>
   <energy>
    <i name="e_fr_energy">   -361.78876352 </i>
    <i name="e_wo_entrp">   -361.80302031 </i>
    <i name="e_0_energy">   -361.79351578 </i>
   </energy>
  </scstep>
  <scstep>
   <time name="diag">    0.07    0.07</time>
   <time name="diis">    0.74    0.75</time>
   <time name="orth">    0.01    0.01</time>
   <time name="total">    0.89    0.93</time>
   <energy>
    <i name="e_fr_energy">   -361.78897033 </i>
    <i name="e_wo_entrp">   -361.80320808 </i>
    <i name="e_0_energy">   -361.79371625 </i>
   </energy>
  </scstep>
  <scstep>
   <time name="diag">    0.07    0.07</time>
   <time name="diis">    0.84    0.84</time>
   <time name="orth">    0.04    0.04</time>
   <time name="total">    1.03    1.08</time>
   <energy>
    <i name="e_fr_energy">   -361.78897164 </i>
    <i name="e_wo_entrp">   -361.80319030 </i>
    <i name="e_0_energy">   -361.79371119 </i>
   </energy>
  </scstep>
  <scstep>
   <time name="diag">    0.11    0.13</time>
   <time name="diis">    0.78    0.79</time>
   <time name="orth">    0.01    0.01</time>
   <time name="total">    0.97    1.06</time>
   <energy>
    <i name="e_fr_energy">   -361.78910771 </i>
    <i name="e_wo_entrp">   -361.80336840 </i>
    <i name="e_0_energy">   -361.79386127 </i>
   </energy>
  </scstep>
  <scstep>
   <time name="diag">    0.08    0.09</time>
   <time name="diis">    0.74    0.75</time>
   <time name="orth">    0.01    0.01</time>
   <time name="total">    0.89    0.95</time>
   <energy>
    <i name="e_fr_energy">   -361.78919024 </i>
    <i name="e_wo_entrp">   -361.80344840 </i>
    <i name="e_0_energy">   -361.79394296 </i>
   </energy>
  </scstep>
  <scstep>
   <time name="diag">    0.07    0.07</time>
   <time name="diis">    0.59    0.63</time>
   <time name="orth">    0.01    0.01</time>
   <time name="total">    0.79    0.86</time>
   <energy>
    <i name="e_fr_energy">   -361.78923130 </i>
    <i name="e_wo_entrp">   -361.80345323 </i>
    <i name="e_0_energy">   -361.79397194 </i>
   </energy>
  </scstep>
  <scstep>
   <time name="diag">    0.07    0.07</time>
   <time name="diis">    0.52    0.52</time>
   <time name="orth">    0.01    0.01</time>
   <time name="total">    0.66    0.71</time>
   <energy>
    <i name="e_fr_energy">   -361.78924932 </i>
    <i name="e_wo_entrp">   -361.80349840 </i>
    <i name="e_0_energy">   -361.79399901 </i>
   </energy>
  </scstep>
  <scstep>
   <time name="diag">    0.07    0.07</time>
   <time name="diis">    0.41    0.45</time>
   <time name="orth">    0.01    0.01</time>
   <time name="total">    0.52    0.60</time>
   <energy>
    <i name="alphaZ">   1344.87242496 </i>
    <i name="ewald"> -16606.39918252 </i>
    <i name="hartreedc">  -5687.55228603 </i>
    <i name="XCdc">   -566.81774815 </i>
    <i name="pawpsdc">  31116.22582421 </i>
    <i name="pawaedc"> -29396.09849783 </i>
    <i name="eentropy">      0.01424973 </i>
    <i name="bandstr">  -2116.33874567 </i>
    <i name="atom">  21550.30470511 </i>
    <i name="e_fr_energy">   -361.78925620 </i>
    <i name="e_wo_entrp">   -361.80350593 </i>
    <i name="e_0_energy">   -361.79400611 </i>
   </energy>
  </scstep>
  <structure>
   <crystal>
    <varray name="basis" >
     <v>       6.93518887       0.01256585      -0.01571625 </v>
     <v>       0.01848736      10.30438809       0.00302804 </v>
     <v>      -0.02383919       0.00284728      10.34662231 </v>
    </varray>
    <i name="volume">    739.39307751 </i>
    <varray name="rec_basis" >
     <v>       0.14419340      -0.00025880       0.00033230 </v>
     <v>      -0.00017590       0.09704636      -0.00002711 </v>
     <v>       0.00021908      -0.00002879       0.09665041 </v>
    </varray>
   </crystal>
   <varray name="positions" >
    <v>       0.74910640       0.17380603       0.15758703 </v>
    <v>       0.25123498       0.16639835       0.15685747 </v>
    <v>       0.00756237       0.99671503       0.67095015 </v>
    <v>       0.00158977       0.34064970       0.32604997 </v>
    <v>       0.22529127       0.51205213       0.51732324 </v>
    <v>       0.01977280       0.66661872       0.31259249 </v>
    <v>       0.50066532       0.97304991       0.00421673 </v>
    <v>       0.50778251       0.00527480       0.34332692 </v>
    <v>       0.49698781       0.66567660       0.00339561 </v>
    <v>       0.48484859       0.66838908       0.31725218 </v>
    <v>       0.51555736       0.33494386       0.65699335 </v>
    <v>       0.74732081       0.82892037       0.81914202 </v>
    <v>       0.75987583       0.83719421       0.18171669 </v>
    <v>       0.01683181       0.66978584       0.68273845 </v>
    <v>       0.25296802       0.83289850       0.81953485 </v>
    <v>       0.50158292       0.35181167       0.99267279 </v>
    <v>       0.75707721       0.49728599       0.83805939 </v>
    <v>       0.99604998       0.34805228       0.99878581 </v>
    <v>       0.99530697       0.99582466       0.33523732 </v>
    <v>       0.26103772       0.48106537       0.14724721 </v>
    <v>       0.97759302       0.33284736       0.67555033 </v>
    <v>       0.23839555       0.48947940       0.83228076 </v>
    <v>       0.24322750       0.85947914       0.18346793 </v>
    <v>       0.24744131       0.83250503       0.49945595 </v>
    <v>       0.48933833       0.99655494       0.65713552 </v>
    <v>       0.74112236       0.48684582       0.15437260 </v>
    <v>       0.77848356       0.16207211       0.50344235 </v>
    <v>       0.73572537       0.16638422       0.84102529 </v>
    <v>       0.99855859       0.98386365       0.00023745 </v>
    <v>       0.22105450       0.16253792       0.50669442 </v>
    <v>       0.25704754       0.17371922       0.83716153 </v>
    <v>       0.00525154       0.66459570       0.00453741 </v>
    <v>       0.50252599       0.33596942       0.34155590 </v>
    <v>       0.77255647       0.51598633       0.50294016 </v>
    <v>       0.48765776       0.66289062       0.67670320 </v>
    <v>       0.75558112       0.82786701       0.50176051 </v>
   </varray>
  </structure>
  <varray name="forces" >
   <v>       0.00418533       0.01408832       0.05062222 </v>
   <v>       0.01064816       0.09735814       0.07297514 </v>
   <v>       0.13189896      -0.00127146       0.02382757 </v>
   <v>      -0.02816510       0.01245457       0.00017188 </v>
   <v>       0.00348221      -0.24333671      -0.23334952 </v>
   <v>      -0.06549962       0.01774036       0.03839631 </v>
   <v>      -0.05795812      -0.03387984       0.12867408 </v>
   <v>       0.04901473      -0.02090468      -0.00393104 </v>
   <v>       0.00028156       0.08387446      -0.04259469 </v>
   <v>       0.06238551       0.03427086      -0.00764574 </v>
   <v>       0.06467839       0.01480453       0.04101129 </v>
   <v>      -0.02352337       0.00317410      -0.05690344 </v>
   <v>       0.00234281      -0.00202413      -0.01605106 </v>
   <v>       0.05835689       0.16059194       0.10572104 </v>
   <v>       0.05606583      -0.02340826      -0.00503502 </v>
   <v>       0.06201668      -0.05553148      -0.03651060 </v>
   <v>       0.03862682       0.06219831      -0.01865833 </v>
   <v>      -0.06131637      -0.05941374      -0.05301386 </v>
   <v>      -0.10119870      -0.00028512       0.01863068 </v>
   <v>      -0.03239111      -0.06994254       0.12151293 </v>
   <v>      -0.06506652      -0.03246441       0.03118330 </v>
   <v>       0.00214893      -0.08421996       0.01301793 </v>
   <v>      -0.03235689      -0.09977226       0.15259300 </v>
   <v>       0.00111115      -0.02430889      -0.10885566 </v>
   <v>      -0.09257165       0.03465299      -0.08509183 </v>
   <v>       0.01760095      -0.03432394       0.00777910 </v>
   <v>      -0.05976638       0.04003732      -0.07054277 </v>
   <v>       0.02712172      -0.09636491      -0.02884195 </v>
   <v>       0.02885184      -0.00819045      -0.00193270 </v>
   <v>       0.03030165       0.14155399      -0.11366942 </v>
   <v>       0.03808004       0.06775909      -0.00290519 </v>
   <v>      -0.01993761       0.05965046      -0.03703428 </v>
   <v>       0.01793308       0.03029518      -0.01874744 </v>
   <v>      -0.00217968       0.02885799       0.00176500 </v>
   <v>      -0.05517912      -0.03845674       0.03400714 </v>
   <v>      -0.01002300       0.02473690       0.09942594 </v>
  </varray>
  <varray name="stress" >
   <v>       0.90125632       0.27589109       0.41195623 </v>
   <v>       0.27589109      -0.44041917       0.02896287 </v>
   <v>       0.41195624       0.02896287       0.28580453 </v>
  </varray>
  <energy>
   <i name="e_fr_energy">   -361.78925620 </i>
   <i name="e_wo_entrp">   -361.79400611 </i>
   <i name="e_0_energy">      0.01424973 </i>
  </energy>
  <time name="totalsc">   11.60   12.75</time>
 </calculation>
 <calculation>
  <scstep>
   <time name="dav">    0.88    0.90</time>
   <time name="total">    1.05    1.23</time>
   <energy>
    <i name="alphaZ">   1346.23795130 </i>
    <i name="ewald"> -16614.91493364 </i>
    <i name="hartreedc">  -5686.65052232 </i>
    <i name="XCdc">   -566.56948994 </i>
    <i name="pawpsdc">  31116.65377197 </i>
    <i name="pawaedc"> -29396.49569967 </i>
    <i name="eentropy">      0.01412885 </i>
    <i name="bandstr">  -2110.37055609 </i>
    <i name="atom">  21550.30470511 </i>
    <i name="e_fr_energy">   -361.79064442 </i>
    <i name="e_wo_entrp">   -361.80477327 </i>
    <i name="e_0_energy">   -361.79535404 </i>
   </energy>
  </scstep>
  <scstep>
   <time name="diag">    0.07    0.08</time>
   <time name="diis">    0.64    0.71</time>
   <time name="orth">    0.01    0.01</time>
   <time name="total">    0.79    0.94</time>
   <energy>
    <i name="e_fr_energy">   -361.79210609 </i>
    <i name="e_wo_entrp">   -361.80606268 </i>
    <i name="e_0_energy">   -361.79675829 </i>
   </energy>
  </scstep>
  <scstep>
   <time name="diag">    0.07    0.07</time>
   <time name="diis">    0.67    0.70</time>
   <time name="orth">    0.01    0.01</time>
   <time name="total">    0.82    0.91</time>
   <energy>
    <i name="e_fr_energy">   -361.79050855 </i>
    <i name="e_wo_entrp">   -361.80459479 </i>
    <i name="e_0_energy">   -361.79520396 </i>
   </energy>
  </scstep>
  <scstep>
   <time name="diag">    0.07    0.08</time>
   <time name="diis">    0.72    0.73</time>
   <time name="orth">    0.01    0.01</time>
   <time name="total">    0.93    1.00</time>
   <energy>
    <i name="e_fr_energy">   -361.79020874 </i>
    <i name="e_wo_entrp">   -361.80432707 </i>
    <i name="e_0_energy">   -361.79491485 </i>
   </energy>
  </scstep>
  <scstep>
   <time name="diag">    0.12    0.12</time>
   <time name="diis">    0.77    0.83</time>
   <time name="orth">    0.01    0.01</time>
   <time name="total">    0.97    1.09</time>
   <energy>
    <i name="e_fr_energy">   -361.79014926 </i>
    <i name="e_wo_entrp">   -361.80424213 </i>
    <i name="e_0_energy">   -361.79484688 </i>
   </energy>
  </scstep>
  <scstep>
   <time name="diag">    0.11    0.11</time>
   <time name="diis">    0.61    0.67</time>
   <time name="orth">    0.01    0.01</time>
   <time name="total">    0.79    0.91</time>
   <energy>
    <i name="e_fr_energy">   -361.79016180 </i>
    <i name="e_wo_entrp">   -361.80425578 </i>
    <i name="e_0_energy">   -361.79485979 </i>
   </energy>
  </scstep>
  <scstep>
   <time name="diag">    0.07    0.08</time>
   <time name="diis">    0.46    0.51</time>
   <time name="orth">    0.01    0.01</time>
   <time name="total">    0.58    0.67</time>
   <energy>
    <i name="alphaZ">   1346.23795130 </i>
    <i name="ewald"> -16614.91493364 </i>
    <i name="hartreedc">  -5683.02177383 </i>
    <i name="XCdc">   -566.71527865 </i>
    <i name="pawpsdc">  31165.13682087 </i>
[...]
       <r>    6.2746    1.0000 </r>
       <r>    6.3199    1.0000 </r>
       <r>    6.3562    1.0000 </r>
       <r>    6.4274    1.0000 </r>
       <r>    6.4494    1.0000 </r>
       <r>    6.4650    1.0000 </r>
       <r>    6.5039    1.0000 </r>
       <r>    6.5513    1.0000 </r>
       <r>    6.5741    1.0000 </r>
       <r>    6.6376    1.0003 </r>
       <r>    6.6699    1.0008 </r>
       <r>    6.6870    1.0013 </r>
       <r>    6.7599    1.0082 </r>
       <r>    6.7815    1.0126 </r>
       <r>    6.8072    1.0196 </r>
       <r>    6.8309    1.0268 </r>
       <r>    6.8693    1.0352 </r>
       <r>    6.9172    1.0182 </r>
       <r>    6.9557    0.9553 </r>
       <r>    6.9734    0.9057 </r>
       <r>    7.0144    0.7385 </r>
       <r>    7.0555    0.5182 </r>
       <r>    7.0815    0.3734 </r>
       <r>    7.1256    0.1611 </r>
       <r>    7.1889   -0.0053 </r>
       <r>    7.2236   -0.0326 </r>
       <r>    7.2661   -0.0324 </r>
       <r>    7.3091   -0.0199 </r>
       <r>    7.3389   -0.0120 </r>
       <r>    7.3879   -0.0041 </r>
       <r>    7.4036   -0.0027 </r>
       <r>    7.4493   -0.0007 </r>
       <r>    7.4776   -0.0003 </r>
       <r>    7.4993   -0.0001 </r>
       <r>    7.5348   -0.0000 </r>
       <r>    7.6093   -0.0000 </r>
       <r>    7.6200   -0.0000 </r>
       <r>    7.6605   -0.0000 </r>
       <r>    7.7128   -0.0000 </r>
       <r>    7.7812   -0.0000 </r>
       <r>    7.8263   -0.0000 </r>
       <r>    7.8910   -0.0000 </r>
       <r>    7.9092   -0.0000 </r>
       <r>    7.9437   -0.0000 </r>
       <r>    8.0157   -0.0000 </r>
       <r>    8.2467   -0.0000 </r>
       <r>    8.3481   -0.0000 </r>
       <r>    8.4565   -0.0000 </r>
       <r>    8.9387   -0.0000 </r>
      </set>
     </set>
    </set>
   </array>
  </eigenvalues>
  <separator name="orbital magnetization" >
   <v name="MAGDIPOLOUT">      0.00000000      0.00000000      0.00000000</v>
  </separator>
  <dos>
   <i name="efermi">      7.05875974 </i>
   <total>
    <array>
     <dimension dim="1">gridpoints</dimension>
     <dimension dim="2">spin</dimension>
     <field>energy</field>
     <field>total</field>
     <field>integrated</field>
     <set>
      <set comment="spin 1">
       <r>   -49.9963     0.0000     0.0000 </r>
       <r>   -49.7904     0.0000     0.0000 </r>
       <r>   -49.5845     0.0000     0.0000 </r>
       <r>   -49.3786     0.0000     0.0000 </r>
       <r>   -49.1727     0.0000     0.0000 </r>
       <r>   -48.9668     0.0000     0.0000 </r>
       <r>   -48.7609     0.0000     0.0000 </r>
       <r>   -48.5550    -0.0000    -0.0000 </r>
       <r>   -48.3491    -0.0000    -0.0000 </r>
       <r>   -48.1432    -0.0000    -0.0000 </r>
       <r>   -47.9373    -0.0000    -0.0000 </r>
       <r>   -47.7314    -0.0000    -0.0000 </r>
       <r>   -47.5255    -0.0359    -0.0074 </r>
       <r>   -47.3196    -0.5025    -0.1109 </r>
       <r>   -47.1137    14.5737     2.8899 </r>
       <r>   -46.9078    32.5059     9.5830 </r>
       <r>   -46.7019     2.2914    10.0548 </r>
       <r>   -46.4960    -0.2657    10.0001 </r>
       <r>   -46.2901    -0.0004    10.0000 </r>
       <r>   -46.0842    -0.0000    10.0000 </r>
       <r>   -45.8783    -0.0000    10.0000 </r>
       <r>   -45.6724     0.0000    10.0000 </r>
       <r>   -45.4665     0.0000    10.0000 </r>
       <r>   -45.2606     0.0000    10.0000 </r>
       <r>   -45.0547     0.0000    10.0000 </r>
       <r>   -44.8488     0.0000    10.0000 </r>
       <r>   -44.6429     0.0000    10.0000 </r>
       <r>   -44.4369     0.0000    10.0000 </r>
       <r>   -44.2310     0.0000    10.0000 </r>
       <r>   -44.0251     0.0000    10.0000 </r>
       <r>   -43.8192     0.0000    10.0000 </r>
       <r>   -43.6133     0.0000    10.0000 </r>
       <r>   -43.4074     0.0000    10.0000 </r>
       <r>   -43.2015     0.0000    10.0000 </r>
       <r>   -42.9956     0.0000    10.0000 </r>
       <r>   -42.7897     0.0000    10.0000 </r>
       <r>   -42.5838    -0.0000    10.0000 </r>
       <r>   -42.3779    -0.0000    10.0000 </r>
       <r>   -42.1720    -0.0000    10.0000 </r>
       <r>   -41.9661    -0.0000    10.0000 </r>
       <r>   -41.7602    -0.0001    10.0000 </r>
       <r>   -41.5543    -0.0827     9.9830 </r>
       <r>   -41.3484    -1.1481     9.7466 </r>
       <r>   -41.1425    34.8890    16.9303 </r>
       <r>   -40.9366    51.1547    27.4633 </r>
       <r>   -40.7307     2.9975    28.0805 </r>
       <r>   -40.5248    -0.3891    28.0004 </r>
       <r>   -40.3189    -0.0018    28.0000 </r>
       <r>   -40.1130    -0.0000    28.0000 </r>
       <r>   -39.9071    -0.0000    28.0000 </r>
       <r>   -39.7012     0.0000    28.0000 </r>
       <r>   -39.4953     0.0000    28.0000 </r>
       <r>   -39.2894     0.0000    28.0000 </r>
       <r>   -39.0835     0.0000    28.0000 </r>
       <r>   -38.8776     0.0000    28.0000 </r>
       <r>   -38.6717     0.0000    28.0000 </r>
       <r>   -38.4657     0.0000    28.0000 </r>
       <r>   -38.2598     0.0000    28.0000 </r>
       <r>   -38.0539     0.0000    28.0000 </r>
       <r>   -37.8480     0.0000    28.0000 </r>
       <r>   -37.6421     0.0000    28.0000 </r>
       <r>   -37.4362     0.0000    28.0000 </r>
       <r>   -37.2303     0.0000    28.0000 </r>
       <r>   -37.0244     0.0000    28.0000 </r>
       <r>   -36.8185     0.0000    28.0000 </r>
       <r>   -36.6126     0.0000    28.0000 </r>
       <r>   -36.4067     0.0000    28.0000 </r>
       <r>   -36.2008     0.0000    28.0000 </r>
       <r>   -35.9949     0.0000    28.0000 </r>
       <r>   -35.7890     0.0000    28.0000 </r>
       <r>   -35.5831     0.0000    28.0000 </r>
       <r>   -35.3772     0.0000    28.0000 </r>
       <r>   -35.1713     0.0000    28.0000 </r>
       <r>   -34.9654     0.0000    28.0000 </r>
       <r>   -34.7595     0.0000    28.0000 </r>
       <r>   -34.5536     0.0000    28.0000 </r>
       <r>   -34.3477     0.0000    28.0000 </r>
       <r>   -34.1418     0.0000    28.0000 </r>
       <r>   -33.9359     0.0000    28.0000 </r>
       <r>   -33.7300     0.0000    28.0000 </r>
       <r>   -33.5241     0.0000    28.0000 </r>
       <r>   -33.3182     0.0000    28.0000 </r>
       <r>   -33.1123     0.0000    28.0000 </r>
       <r>   -32.9064     0.0000    28.0000 </r>
       <r>   -32.7005     0.0000    28.0000 </r>
       <r>   -32.4945     0.0000    28.0000 </r>
       <r>   -32.2886     0.0000    28.0000 </r>
       <r>   -32.0827     0.0000    28.0000 </r>
       <r>   -31.8768     0.0000    28.0000 </r>
       <r>   -31.6709     0.0000    28.0000 </r>
       <r>   -31.4650     0.0000    28.0000 </r>
       <r>   -31.2591     0.0000    28.0000 </r>
       <r>   -31.0532     0.0000    28.0000 </r>
       <r>   -30.8473     0.0000    28.0000 </r>
       <r>   -30.6414     0.0000    28.0000 </r>
       <r>   -30.4355     0.0000    28.0000 </r>
       <r>   -30.2296     0.0000    28.0000 </r>
       <r>   -30.0237     0.0000    28.0000 </r>
       <r>   -29.8178     0.0000    28.0000 </r>
       <r>   -29.6119     0.0000    28.0000 </r>
       <r>   -29.4060     0.0000    28.0000 </r>
       <r>   -29.2001     0.0000    28.0000 </r>
       <r>   -28.9942     0.0000    28.0000 </r>
       <r>   -28.7883     0.0000    28.0000 </r>
       <r>   -28.5824     0.0000    28.0000 </r>
       <r>   -28.3765     0.0000    28.0000 </r>
       <r>   -28.1706     0.0000    28.0000 </r>
       <r>   -27.9647     0.0000    28.0000 </r>
       <r>   -27.7588     0.0000    28.0000 </r>
       <r>   -27.5529     0.0000    28.0000 </r>
       <r>   -27.3470     0.0000    28.0000 </r>
       <r>   -27.1411     0.0000    28.0000 </r>
       <r>   -26.9352     0.0000    28.0000 </r>
       <r>   -26.7292     0.0000    28.0000 </r>
       <r>   -26.5233     0.0000    28.0000 </r>
       <r>   -26.3174     0.0000    28.0000 </r>
       <r>   -26.1115     0.0000    28.0000 </r>
       <r>   -25.9056     0.0000    28.0000 </r>
       <r>   -25.6997     0.0000    28.0000 </r>
       <r>   -25.4938     0.0000    28.0000 </r>
       <r>   -25.2879     0.0000    28.0000 </r>
       <r>   -25.0820     0.0000    28.0000 </r>
       <r>   -24.8761    -0.0000    28.0000 </r>
       <r>   -24.6702    -0.0000    28.0000 </r>
       <r>   -24.4643    -0.0000    28.0000 </r>
       <r>   -24.2584    -0.0000    28.0000 </r>
       <r>   -24.0525    -0.0005    27.9999 </r>
       <r>   -23.8466    -0.1800    27.9628 </r>
       <r>   -23.6407     1.8719    28.3483 </r>
       <r>   -23.4348    14.3395    31.3008 </r>
       <r>   -23.2289    39.1634    39.3647 </r>
       <r>   -23.0230    72.4945    54.2916 </r>
       <r>   -22.8171    15.7349    57.5314 </r>
       <r>   -22.6112     2.5075    58.0477 </r>
       <r>   -22.4053    -0.2310    58.0002 </r>
       <r>   -22.1994    -0.0009    58.0000 </r>
       <r>   -21.9935    -0.0000    58.0000 </r>
       <r>   -21.7876    -0.0000    58.0000 </r>
       <r>   -21.5817     0.0000    58.0000 </r>
       <r>   -21.3758     0.0000    58.0000 </r>
       <r>   -21.1699     0.0000    58.0000 </r>
       <r>   -20.9640     0.0000    58.0000 </r>
       <r>   -20.7580    -0.0000    58.0000 </r>
       <r>   -20.5521    -0.0000    58.0000 </r>
       <r>   -20.3462    -0.0000    58.0000 </r>
       <r>   -20.1403    -0.0000    58.0000 </r>
       <r>   -19.9344    -0.0010    57.9998 </r>
       <r>   -19.7285    -0.4410    57.9090 </r>
       <r>   -19.5226     1.8504    58.2900 </r>
       <r>   -19.3167    75.6871    73.8742 </r>
       <r>   -19.1108   118.7982    98.3352 </r>
       <r>   -18.9049    61.3269   110.9626 </r>
       <r>   -18.6990     5.6282   112.1215 </r>
       <r>   -18.4931    -0.5853   112.0009 </r>
       <r>   -18.2872    -0.0046   112.0000 </r>
       <r>   -18.0813    -0.0000   112.0000 </r>
       <r>   -17.8754    -0.0000   112.0000 </r>
       <r>   -17.6695     0.0000   112.0000 </r>
       <r>   -17.4636     0.0000   112.0000 </r>
       <r>   -17.2577     0.0000   112.0000 </r>
       <r>   -17.0518     0.0000   112.0000 </r>
       <r>   -16.8459     0.0000   112.0000 </r>
       <r>   -16.6400     0.0000   112.0000 </r>
       <r>   -16.4341     0.0000   112.0000 </r>
       <r>   -16.2282     0.0000   112.0000 </r>
       <r>   -16.0223     0.0000   112.0000 </r>
       <r>   -15.8164     0.0000   112.0000 </r>
       <r>   -15.6105     0.0000   112.0000 </r>
       <r>   -15.4046     0.0000   112.0000 </r>
       <r>   -15.1987     0.0000   112.0000 </r>
       <r>   -14.9928     0.0000   112.0000 </r>
       <r>   -14.7868     0.0000   112.0000 </r>
       <r>   -14.5809     0.0000   112.0000 </r>
       <r>   -14.3750     0.0000   112.0000 </r>
       <r>   -14.1691     0.0000   112.0000 </r>
       <r>   -13.9632     0.0000   112.0000 </r>
       <r>   -13.7573     0.0000   112.0000 </r>
       <r>   -13.5514     0.0000   112.0000 </r>
       <r>   -13.3455     0.0000   112.0000 </r>
       <r>   -13.1396     0.0000   112.0000 </r>
       <r>   -12.9337     0.0000   112.0000 </r>
       <r>   -12.7278     0.0000   112.0000 </r>
       <r>   -12.5219     0.0000   112.0000 </r>
       <r>   -12.3160     0.0000   112.0000 </r>
       <r>   -12.1101     0.0000   112.0000 </r>
       <r>   -11.9042     0.0000   112.0000 </r>
       <r>   -11.6983     0.0000   112.0000 </r>
       <r>   -11.4924     0.0000   112.0000 </r>
       <r>   -11.2865     0.0000   112.0000 </r>
       <r>   -11.0806     0.0000   112.0000 </r>
       <r>   -10.8747     0.0000   112.0000 </r>
       <r>   -10.6688     0.0000   112.0000 </r>
       <r>   -10.4629     0.0000   112.0000 </r>
       <r>   -10.2570     0.0000   112.0000 </r>
       <r>   -10.0511     0.0000   112.0000 </r>
       <r>    -9.8452     0.0000   112.0000 </r>
       <r>    -9.6393     0.0000   112.0000 </r>
       <r>    -9.4334     0.0000   112.0000 </r>
       <r>    -9.2275     0.0000   112.0000 </r>
       <r>    -9.0216     0.0000   112.0000 </r>
       <r>    -8.8156     0.0000   112.0000 </r>
       <r>    -8.6097     0.0000   112.0000 </r>
       <r>    -8.4038     0.0000   112.0000 </r>
       <r>    -8.1979     0.0000   112.0000 </r>
       <r>    -7.9920     0.0000   112.0000 </r>
       <r>    -7.7861     0.0000   112.0000 </r>
       <r>    -7.5802     0.0000   112.0000 </r>
       <r>    -7.3743     0.0000   112.0000 </r>
       <r>    -7.1684     0.0000   112.0000 </r>
       <r>    -6.9625     0.0000   112.0000 </r>
       <r>    -6.7566     0.0000   112.0000 </r>
       <r>    -6.5507     0.0000   112.0000 </r>
       <r>    -6.3448     0.0000   112.0000 </r>
       <r>    -6.1389     0.0000   112.0000 </r>
       <r>    -5.9330     0.0000   112.0000 </r>
       <r>    -5.7271     0.0000   112.0000 </r>
       <r>    -5.5212     0.0000   112.0000 </r>
       <r>    -5.3153     0.0000   112.0000 </r>
       <r>    -5.1094     0.0000   112.0000 </r>
       <r>    -4.9035     0.0000   112.0000 </r>
       <r>    -4.6976     0.0000   112.0000 </r>
       <r>    -4.4917     0.0000   112.0000 </r>
       <r>    -4.2858     0.0000   112.0000 </r>
       <r>    -4.0799     0.0000   112.0000 </r>
       <r>    -3.8740     0.0000   112.0000 </r>
       <r>    -3.6681     0.0000   112.0000 </r>
       <r>    -3.4622     0.0000   112.0000 </r>
       <r>    -3.2563     0.0000   112.0000 </r>
       <r>    -3.0504     0.0000   112.0000 </r>
       <r>    -2.8444     0.0000   112.0000 </r>
       <r>    -2.6385     0.0000   112.0000 </r>
       <r>    -2.4326     0.0000   112.0000 </r>
       <r>    -2.2267     0.0000   112.0000 </r>
       <r>    -2.0208     0.0000   112.0000 </r>
       <r>    -1.8149     0.0000   112.0000 </r>
       <r>    -1.6090     0.0000   112.0000 </r>
       <r>    -1.4031     0.0000   112.0000 </r>
       <r>    -1.1972     0.0000   112.0000 </r>
       <r>    -0.9913    -0.0000   112.0000 </r>
       <r>    -0.7854    -0.0000   112.0000 </r>
       <r>    -0.5795    -0.0000   112.0000 </r>
       <r>    -0.3736    -0.0000   112.0000 </r>
       <r>    -0.1677    -0.0001   112.0000 </r>
       <r>     0.0382    -0.0120   111.9975 </r>
       <r>     0.2441     0.1550   112.0294 </r>
       <r>     0.4500     0.7449   112.1828 </r>
       <r>     0.6559     1.4685   112.4852 </r>
       <r>     0.8618     1.8304   112.8620 </r>
       <r>     1.0677     2.9965   113.4790 </r>
       <r>     1.2736     4.7649   114.4601 </r>
       <r>     1.4795     1.6856   114.8072 </r>
       <r>     1.6854     5.0306   115.8430 </r>
       <r>     1.8913     3.2390   116.5100 </r>
       <r>     2.0972     3.7436   117.2808 </r>
       <r>     2.3031     6.3467   118.5876 </r>
       <r>     2.5090     8.0613   120.2475 </r>
       <r>     2.7149     8.0606   121.9072 </r>
       <r>     2.9209     7.5812   123.4682 </r>
       <r>     3.1268     8.2811   125.1733 </r>
       <r>     3.3327    11.6262   127.5671 </r>
       <r>     3.5386    18.7758   131.4331 </r>
       <r>     3.7445    22.2185   136.0080 </r>
       <r>     3.9504    24.3110   141.0137 </r>
       <r>     4.1563    29.9439   147.1793 </r>
       <r>     4.3622    31.7660   153.7200 </r>
       <r>     4.5681    37.8259   161.5085 </r>
       <r>     4.7740    37.6411   169.2589 </r>
       <r>     4.9799    35.8544   176.6415 </r>
       <r>     5.1858    33.3309   183.5044 </r>
       <r>     5.3917    32.2477   190.1443 </r>
       <r>     5.5976    16.7317   193.5894 </r>
       <r>     5.8035    39.2051   201.6619 </r>
       <r>     6.0094    60.1110   214.0390 </r>
       <r>     6.2153    57.7033   225.9203 </r>
       <r>     6.4212    54.8750   237.2192 </r>
       <r>     6.6271    53.5114   248.2374 </r>
       <r>     6.8330    56.4071   259.8518 </r>
       <r>     7.0389    49.7550   270.0965 </r>
       <r>     7.2448    44.2664   279.2111 </r>
       <r>     7.4507    49.9594   289.4980 </r>
       <r>     7.6566    46.3515   299.0419 </r>
       <r>     7.8625    37.6582   306.7958 </r>
       <r>     8.0684    31.5029   313.2824 </r>
       <r>     8.2743    24.6335   318.3545 </r>
       <r>     8.4802    20.5832   322.5927 </r>
       <r>     8.6861    12.4280   325.1516 </r>
       <r>     8.8921    10.9405   327.4043 </r>
       <r>     9.0980     3.0727   328.0370 </r>
       <r>     9.3039    -0.1750   328.0010 </r>
       <r>     9.5098    -0.0047   328.0000 </r>
       <r>     9.7157    -0.0000   328.0000 </r>
       <r>     9.9216    -0.0000   328.0000 </r>
       <r>    10.1275     0.0000   328.0000 </r>
       <r>    10.3334     0.0000   328.0000 </r>
       <r>    10.5393     0.0000   328.0000 </r>
       <r>    10.7452     0.0000   328.0000 </r>
       <r>    10.9511     0.0000   328.0000 </r>
       <r>    11.1570     0.0000   328.0000 </r>
       <r>    11.3629     0.0000   328.0000 </r>
       <r>    11.5688     0.0000   328.0000 </r>
       <r>    11.7747     0.0000   328.0000 </r>
      </set>
     </set>
    </array>
   </total>
  </dos>
 </calculation>
 <structure name="finalpos" >
  <crystal>
   <varray name="basis" >
    <v>       6.95614815       0.00994397       0.00300141 </v>
    <v>       0.01479009      10.29377428      -0.01077332 </v>
    <v>       0.00398695      -0.01117280      10.34081062 </v>
   </varray>
   <i name="volume">    740.45145817 </i>
   <varray name="rec_basis" >
    <v>       0.14375804      -0.00020661      -0.00005565 </v>
    <v>      -0.00013892       0.09714641       0.00010502 </v>
    <v>      -0.00004187       0.00010127       0.09670434 </v>
   </varray>
  </crystal>
  <varray name="positions" >
   <v>       0.74809123       0.16828547       0.15437739 </v>
   <v>       0.24728165       0.17721437       0.16169177 </v>
   <v>       0.02565630       0.99915277       0.66639357 </v>
   <v>      -0.01946269       0.34056835       0.32708705 </v>
   <v>       0.22763095       0.50184521       0.51212087 </v>
   <v>      -0.00353410       0.66047488       0.31471930 </v>
   <v>       0.48011630       0.97461031       0.01596935 </v>
   <v>       0.51060991       0.00228509       0.33909660 </v>
   <v>       0.49674337       0.66517480       0.00262314 </v>
   <v>       0.50083312       0.66405051       0.31828346 </v>
   <v>       0.52124954       0.33646988       0.66091412 </v>
   <v>       0.74267104       0.83987270       0.82536353 </v>
   <v>       0.75977477       0.84584374       0.17049609 </v>
   <v>       0.02358530       0.67364933       0.68362277 </v>
   <v>       0.26478836       0.83203694       0.81709141 </v>
   <v>       0.50065662       0.35033823       0.99092534 </v>
   <v>       0.76220191       0.49969630       0.83647441 </v>
   <v>       0.99541448       0.34654663       0.99435812 </v>
   <v>       0.98324797       0.00000493       0.33633067 </v>
   <v>       0.25422621       0.47912709       0.15161954 </v>
   <v>       0.97895339       0.32998596       0.67603332 </v>
   <v>       0.23864035       0.48902849       0.83278993 </v>
   <v>       0.23585275       0.84211043       0.20302660 </v>
   <v>       0.24703995       0.82890084       0.49073968 </v>
   <v>       0.48313835       0.00036335       0.65038682 </v>
   <v>       0.74064626       0.48511651       0.14764605 </v>
   <v>       0.76969741       0.15796356       0.50551133 </v>
   <v>       0.74304728       0.15924934       0.83643358 </v>
   <v>       0.02167235       0.98241773       0.00157874 </v>
   <v>       0.22609901       0.17451598       0.49653653 </v>
   <v>       0.26149420       0.17493850       0.83933930 </v>
   <v>       0.00595501       0.66557524       0.00421874 </v>
   <v>       0.50781081       0.34060769       0.33846459 </v>
   <v>       0.77504116       0.52065541       0.51223997 </v>
   <v>       0.48711663       0.66082112       0.67693175 </v>
   <v>       0.75602381       0.83051333       0.50856555 </v>
  </varray>
 </structure>
</modeling>
