       N       E                     dE             d eps       ncg     rms          rms(c)
DAV:   1     0.246314402387E+04    0.24631E+04   -0.13096E+05  6160   0.108E+03
DAV:   2    -0.214999395556E+02   -0.24846E+04   -0.23973E+04  6404   0.421E+02
DAV:   3    -0.328076340693E+03   -0.30658E+03   -0.29152E+03  9584   0.102E+02
DAV:   4    -0.364026512303E+03   -0.35950E+02   -0.34427E+02  9664   0.326E+01
DAV:   5    -0.367654670088E+03   -0.36282E+01   -0.35749E+01  8968   0.994E+00    0.619E+01
RMM:   6    -0.357087458270E+03    0.10567E+02   -0.23215E+01  7679   0.103E+01    0.287E+01
RMM:   7    -0.357931678990E+03   -0.84422E+00   -0.21646E+01  8195   0.798E+00    0.102E+01
RMM:   8    -0.353462396519E+03    0.44693E+01   -0.43609E+00  8446   0.299E+00    0.424E+00
RMM:   9    -0.353447779711E+03    0.14617E-01   -0.16772E+00  8395   0.156E+00    0.314E+00
RMM:  10    -0.353360291072E+03    0.87489E-01   -0.39472E-01  8307   0.117E+00    0.148E+00
RMM:  11    -0.353334809941E+03    0.25481E-01   -0.15388E-01  8359   0.593E-01    0.715E-01
RMM:  12    -0.353329360108E+03    0.54498E-02   -0.45459E-02  8401   0.302E-01    0.417E-01
RMM:  13    -0.353327568948E+03    0.17912E-02   -0.14765E-02  8397   0.165E-01    0.255E-01
RMM:  14    -0.353327573966E+03   -0.50180E-05   -0.68293E-03  8559   0.969E-02    0.150E-01
RMM:  15    -0.353327601591E+03   -0.27625E-04   -0.29719E-03  8735   0.624E-02    0.715E-02
RMM:  16    -0.353327609062E+03   -0.74701E-05   -0.11964E-03  7933   0.373E-02    0.331E-02
RMM:  17    -0.353327628462E+03   -0.19400E-04   -0.51691E-04  6529   0.235E-02    0.167E-02
RMM:  18    -0.353327641465E+03   -0.13004E-04   -0.24010E-04  6094   0.176E-02    0.975E-03
RMM:  19    -0.353327646156E+03   -0.46910E-05   -0.99175E-05  5376   0.123E-02
   1 F= -.35332765E+03 E0= -.35333386E+03  d E =-.353328E+03
       N       E                     dE             d eps       ncg     rms          rms(c)
DAV:   1    -0.353328485690E+03   -0.84422E-03   -0.63615E-02  6452   0.729E-01    0.101E-01
RMM:   2    -0.353328705847E+03   -0.22016E-03   -0.35527E-03  7680   0.151E-01    0.439E-02
RMM:   3    -0.353328666432E+03    0.39415E-04   -0.33093E-04  7753   0.480E-02    0.351E-02
RMM:   4    -0.353328641916E+03    0.24516E-04   -0.98808E-05  6808   0.168E-02    0.200E-02
RMM:   5    -0.353328637588E+03    0.43274E-05   -0.32814E-05  4155   0.105E-02
   2 F= -.35332864E+03 E0= -.35333485E+03  d E =-.991432E-03
       N       E                     dE             d eps       ncg     rms          rms(c)
DAV:   1    -0.353329839662E+03   -0.11977E-02   -0.57191E-01  6176   0.218E+00    0.300E-01
RMM:   2    -0.353331552636E+03   -0.17130E-02   -0.29640E-02  7558   0.446E-01    0.129E-01
RMM:   3    -0.353331187368E+03    0.36527E-03   -0.27468E-03  8019   0.134E-01    0.105E-01
RMM:   4    -0.353330978245E+03    0.20912E-03   -0.83557E-04  8397   0.475E-02    0.611E-02
RMM:   5    -0.353330957401E+03    0.20844E-04   -0.33002E-04  8209   0.309E-02    0.408E-02
RMM:   6    -0.353330945313E+03    0.12089E-04   -0.14086E-04  7395   0.203E-02    0.244E-02
RMM:   7    -0.353330938880E+03    0.64322E-05   -0.52680E-05  4915   0.132E-02
   3 F= -.35333094E+03 E0= -.35333715E+03  d E =-.329272E-02
       N       E                     dE             d eps       ncg     rms          rms(c)
DAV:   1    -0.353328398974E+03    0.25463E-02   -0.22924E+00  6000   0.437E+00    0.598E-01
RMM:   2    -0.353335134958E+03   -0.67360E-02   -0.11754E-01  7497   0.891E-01    0.255E-01
RMM:   3    -0.353333678146E+03    0.14568E-02   -0.10839E-02  8005   0.270E-01    0.210E-01
RMM:   4    -0.353332841628E+03    0.83652E-03   -0.33006E-03  8448   0.944E-02    0.121E-01
RMM:   5    -0.353332763006E+03    0.78622E-04   -0.12746E-03  8597   0.607E-02    0.802E-02
RMM:   6    -0.353332736168E+03    0.26838E-04   -0.55609E-04  8696   0.397E-02    0.482E-02
RMM:   7    -0.353332724206E+03    0.11962E-04   -0.22976E-04  7238   0.231E-02    0.296E-02
RMM:   8    -0.353332721798E+03    0.24080E-05   -0.84016E-05  5521   0.160E-02
   4 F= -.35333272E+03 E0= -.35333890E+03  d E =-.507564E-02
       N       E                     dE             d eps       ncg     rms          rms(c)
DAV:   1    -0.353335241377E+03   -0.25172E-02   -0.19530E-01  6432   0.138E+00    0.411E-01
RMM:   2    -0.353334626633E+03    0.61474E-03   -0.16187E-02  7815   0.337E-01    0.148E-01
RMM:   3    -0.353334182730E+03    0.44390E-03   -0.29383E-03  8374   0.105E-01    0.118E-01
RMM:   4    -0.353333825410E+03    0.35732E-03   -0.88430E-04  8473   0.563E-02    0.657E-02
RMM:   5    -0.353333772052E+03    0.53357E-04   -0.28537E-04  8203   0.325E-02    0.471E-02
RMM:   6    -0.353333785307E+03   -0.13254E-04   -0.12438E-04  7222   0.179E-02    0.312E-02
RMM:   7    -0.353333788536E+03   -0.32294E-05   -0.44679E-05  4849   0.132E-02
   5 F= -.35333379E+03 E0= -.35333994E+03  d E =-.106674E-02
       N       E                     dE             d eps       ncg     rms          rms(c)
DAV:   1    -0.353341261342E+03   -0.74760E-02   -0.99515E-01  6160   0.311E+00    0.909E-01
RMM:   2    -0.353338267429E+03    0.29939E-02   -0.80935E-02  7451   0.759E-01    0.321E-01
RMM:   3    -0.353335906868E+03    0.23606E-02   -0.13437E-02  8335   0.236E-01    0.249E-01
RMM:   4    -0.353334224938E+03    0.16819E-02   -0.41060E-03  8505   0.122E-01    0.143E-01
RMM:   5    -0.353334000485E+03    0.22445E-03   -0.12533E-03  8320   0.701E-02    0.106E-01
RMM:   6    -0.353334066038E+03   -0.65553E-04   -0.58906E-04  8387   0.379E-02    0.725E-02
RMM:   7    -0.353334086900E+03   -0.20862E-04   -0.23730E-04  7208   0.286E-02    0.377E-02
RMM:   8    -0.353334119824E+03   -0.32924E-04   -0.15140E-04  6975   0.189E-02    0.251E-02
RMM:   9    -0.353334139180E+03   -0.19356E-04   -0.59614E-05  4705   0.151E-02    0.192E-02
RMM:  10    -0.353334159840E+03   -0.20660E-04   -0.35200E-05  4518   0.120E-02    0.108E-02
RMM:  11    -0.353334171737E+03   -0.11898E-04   -0.17259E-05  3911   0.118E-02    0.468E-03
RMM:  12    -0.353334175238E+03   -0.35007E-05   -0.14780E-05  3683   0.102E-02
   6 F= -.35333418E+03 E0= -.35334027E+03  d E =-.145344E-02
       N       E                     dE             d eps       ncg     rms          rms(c)
DAV:   1    -0.353335262940E+03   -0.10912E-02   -0.11812E-01  6352   0.107E+00    0.315E-01
RMM:   2    -0.353334947738E+03    0.31520E-03   -0.96827E-03  7597   0.262E-01    0.113E-01
RMM:   3    -0.353334667463E+03    0.28027E-03   -0.16840E-03  8341   0.819E-02    0.889E-02
RMM:   4    -0.353334451714E+03    0.21575E-03   -0.49581E-04  8373   0.429E-02    0.502E-02
RMM:   5    -0.353334412955E+03    0.38759E-04   -0.14969E-04  7201   0.249E-02    0.366E-02
RMM:   6    -0.353334406659E+03    0.62964E-05   -0.65911E-05  5458   0.139E-02
   7 F= -.35333441E+03 E0= -.35334053E+03  d E =-.168486E-02
       N       E                     dE             d eps       ncg     rms          rms(c)
DAV:   1    -0.353334448026E+03   -0.35070E-04   -0.73187E-03  6192   0.269E-01    0.715E-02
RMM:   2    -0.353334434127E+03    0.13899E-04   -0.58585E-04  7513   0.652E-02    0.270E-02
RMM:   3    -0.353334409946E+03    0.24181E-04   -0.87264E-05  6247   0.200E-02    0.214E-02
RMM:   4    -0.353334397433E+03    0.12513E-04   -0.23008E-05  3535   0.133E-02    0.156E-02
RMM:   5    -0.353334394545E+03    0.28888E-05   -0.95755E-06  3137   0.107E-02
   8 F= -.35333439E+03 E0= -.35334052E+03  d E =-.167275E-02
       N       E                     dE             d eps       ncg     rms          rms(c)
DAV:   1    -0.353334732844E+03   -0.33541E-03   -0.64736E-02  5816   0.690E-01    0.512E-02
RMM:   2    -0.353334889071E+03   -0.15623E-03   -0.19650E-03  7117   0.128E-01    0.274E-02
RMM:   3    -0.353334872327E+03    0.16744E-04   -0.19654E-04  7272   0.385E-02    0.210E-02
RMM:   4    -0.353334867451E+03    0.48756E-05   -0.47822E-05  4848   0.113E-02
   9 F= -.35333487E+03 E0= -.35334099E+03  d E =-.472907E-03
       N       E                     dE             d eps       ncg     rms          rms(c)
DAV:   1    -0.353334683228E+03    0.18910E-03   -0.58175E-01  5856   0.207E+00    0.158E-01
RMM:   2    -0.353336110756E+03   -0.14275E-02   -0.17916E-02  7569   0.382E-01    0.938E-02
RMM:   3    -0.353336013865E+03    0.96891E-04   -0.20780E-03  8164   0.111E-01    0.717E-02
RMM:   4    -0.353335975401E+03    0.38464E-04   -0.47130E-04  8952   0.316E-02    0.469E-02
RMM:   5    -0.353335972724E+03    0.26774E-05   -0.20155E-04  7887   0.231E-02    0.286E-02
RMM:   6    -0.353335962537E+03    0.10187E-04   -0.78191E-05  6836   0.161E-02    0.132E-02
RMM:   7    -0.353335959977E+03    0.25601E-05   -0.21287E-05  3827   0.107E-02
  10 F= -.35333596E+03 E0= -.35334209E+03  d E =-.156543E-02
       N       E                     dE             d eps       ncg     rms          rms(c)
DAV:   1    -0.353331535925E+03    0.44266E-02   -0.23295E+00  5712   0.414E+00    0.315E-01
RMM:   2    -0.353337256653E+03   -0.57207E-02   -0.71630E-02  7546   0.766E-01    0.184E-01
RMM:   3    -0.353336837218E+03    0.41944E-03   -0.80160E-03  8208   0.224E-01    0.139E-01
RMM:   4    -0.353336702427E+03    0.13479E-03   -0.18140E-03  9415   0.617E-02    0.917E-02
RMM:   5    -0.353336691668E+03    0.10759E-04   -0.74243E-04  8931   0.446E-02    0.571E-02
RMM:   6    -0.353336659703E+03    0.31965E-04   -0.30393E-04  8800   0.323E-02    0.258E-02
RMM:   7    -0.353336654075E+03    0.56285E-05   -0.99395E-05  5975   0.160E-02
  11 F= -.35333665E+03 E0= -.35334279E+03  d E =-.225953E-02
       N       E                     dE             d eps       ncg     rms          rms(c)
DAV:   1    -0.353336547616E+03    0.11209E-03   -0.69794E-02  6128   0.714E-01    0.566E-02
RMM:   2    -0.353336706402E+03   -0.15879E-03   -0.20507E-03  6856   0.131E-01    0.293E-02
RMM:   3    -0.353336685851E+03    0.20551E-04   -0.19467E-04  7409   0.401E-02    0.234E-02
RMM:   4    -0.353336678118E+03    0.77327E-05   -0.38735E-05  4673   0.110E-02
  12 F= -.35333668E+03 E0= -.35334281E+03  d E =-.228357E-02
       N       E                     dE             d eps       ncg     rms          rms(c)
DAV:   1    -0.353337192821E+03   -0.50697E-03   -0.19019E-01  6040   0.124E+00    0.230E-01
RMM:   2    -0.353337333309E+03   -0.14049E-03   -0.90747E-03  7369   0.254E-01    0.949E-02
RMM:   3    -0.353337126242E+03    0.20707E-03   -0.11746E-03  8216   0.831E-02    0.699E-02
RMM:   4    -0.353337015781E+03    0.11046E-03   -0.37004E-04  8368   0.346E-02    0.393E-02
RMM:   5    -0.353337001909E+03    0.13872E-04   -0.12397E-04  7138   0.210E-02    0.277E-02
RMM:   6    -0.353337008526E+03   -0.66168E-05   -0.43948E-05  4732   0.118E-02
  13 F= -.35333701E+03 E0= -.35334311E+03  d E =-.330407E-03
       N       E                     dE             d eps       ncg     rms          rms(c)
DAV:   1    -0.353337183019E+03   -0.18111E-03   -0.14931E-01  5920   0.110E+00    0.197E-01
RMM:   2    -0.353337310049E+03   -0.12703E-03   -0.70892E-03  7522   0.223E-01    0.811E-02
RMM:   3    -0.353337163276E+03    0.14677E-03   -0.92940E-04  8225   0.711E-02    0.602E-02
RMM:   4    -0.353337090862E+03    0.72414E-04   -0.29428E-04  8138   0.298E-02    0.360E-02
RMM:   5    -0.353337083694E+03    0.71679E-05   -0.10493E-04  6979   0.185E-02    0.263E-02
RMM:   6    -0.353337091964E+03   -0.82697E-05   -0.39298E-05  4506   0.111E-02
  14 F= -.35333709E+03 E0= -.35334317E+03  d E =-.413845E-03
       N       E                     dE             d eps       ncg     rms          rms(c)
DAV:   1    -0.353337485175E+03   -0.40148E-03   -0.10902E-01  6032   0.952E-01    0.184E-01
RMM:   2    -0.353337607928E+03   -0.12275E-03   -0.56244E-03  7681   0.201E-01    0.761E-02
RMM:   3    -0.353337512747E+03    0.95181E-04   -0.78413E-04  8183   0.652E-02    0.578E-02
RMM:   4    -0.353337439609E+03    0.73139E-04   -0.25342E-04  8170   0.272E-02    0.323E-02
RMM:   5    -0.353337424660E+03    0.14948E-04   -0.84756E-05  6800   0.168E-02    0.217E-02
RMM:   6    -0.353337420375E+03    0.42851E-05   -0.28514E-05  3909   0.993E-03
  15 F= -.35333742E+03 E0= -.35334349E+03  d E =-.328411E-03
       N       E                     dE             d eps       ncg     rms          rms(c)
DAV:   1    -0.353337495269E+03   -0.70609E-04   -0.15356E-02  6136   0.358E-01    0.638E-02
RMM:   2    -0.353337515884E+03   -0.20615E-04   -0.78034E-04  7822   0.741E-02    0.275E-02
RMM:   3    -0.353337497103E+03    0.18781E-04   -0.10068E-04  6760   0.232E-02    0.207E-02
RMM:   4    -0.353337487096E+03    0.10006E-04   -0.31439E-05  4475   0.127E-02    0.127E-02
RMM:   5    -0.353337484045E+03    0.30515E-05   -0.11000E-05  3289   0.918E-03
  16 F= -.35333748E+03 E0= -.35334354E+03  d E =-.392081E-03
       N       E                     dE             d eps       ncg     rms          rms(c)
DAV:   1    -0.353337586535E+03   -0.99439E-04   -0.61468E-02  5920   0.717E-01    0.130E-01
RMM:   2    -0.353337662265E+03   -0.75729E-04   -0.31082E-03  7580   0.148E-01    0.534E-02
RMM:   3    -0.353337596839E+03    0.65426E-04   -0.39256E-04  8044   0.471E-02    0.402E-02
RMM:   4    -0.353337559585E+03    0.37253E-04   -0.12845E-04  7072   0.195E-02    0.235E-02
RMM:   5    -0.353337551223E+03    0.83625E-05   -0.40997E-05  4842   0.124E-02
  17 F= -.35333755E+03 E0= -.35334359E+03  d E =-.459259E-03
       N       E                     dE             d eps       ncg     rms          rms(c)
DAV:   1    -0.353337552057E+03    0.75287E-05   -0.46825E-03  6096   0.198E-01    0.331E-02
RMM:   2    -0.353337559388E+03   -0.73308E-05   -0.24816E-04  7808   0.409E-02    0.163E-02
RMM:   3    -0.353337550532E+03    0.88560E-05   -0.26378E-05  4281   0.129E-02
  18 F= -.35333755E+03 E0= -.35334359E+03  d E =-.458568E-03
       N       E                     dE             d eps       ncg     rms          rms(c)
DAV:   1    -0.353337656287E+03   -0.96899E-04   -0.11703E-02  5808   0.302E-01    0.455E-02
RMM:   2    -0.353337652210E+03    0.40766E-05   -0.49010E-04  7965   0.590E-02    0.226E-02
RMM:   3    -0.353337644314E+03    0.78956E-05   -0.75460E-05  6275   0.173E-02
  19 F= -.35333764E+03 E0= -.35334367E+03  d E =-.937829E-04
       N       E                     dE             d eps       ncg     rms          rms(c)
DAV:   1    -0.353337930538E+03   -0.27833E-03   -0.10482E-01  5720   0.903E-01    0.140E-01
RMM:   2    -0.353337889670E+03    0.40868E-04   -0.43993E-03  8195   0.176E-01    0.701E-02
RMM:   3    -0.353337839652E+03    0.50018E-04   -0.71542E-04  8205   0.511E-02    0.509E-02
RMM:   4    -0.353337776004E+03    0.63648E-04   -0.26567E-04  8195   0.268E-02    0.248E-02
RMM:   5    -0.353337768579E+03    0.74253E-05   -0.96357E-05  6003   0.154E-02
  20 F= -.35333777E+03 E0= -.35334378E+03  d E =-.218047E-03
       N       E                     dE             d eps       ncg     rms          rms(c)
DAV:   1    -0.353337891622E+03   -0.11562E-03   -0.69453E-03  6656   0.256E-01    0.837E-02
RMM:   2    -0.353337856115E+03    0.35507E-04   -0.58498E-04  8218   0.598E-02    0.331E-02
RMM:   3    -0.353337838721E+03    0.17394E-04   -0.14771E-04  7185   0.198E-02    0.269E-02
RMM:   4    -0.353337821566E+03    0.17155E-04   -0.51769E-05  6357   0.152E-02    0.138E-02
RMM:   5    -0.353337818913E+03    0.26530E-05   -0.15097E-05  3376   0.986E-03
  21 F= -.35333782E+03 E0= -.35334383E+03  d E =-.503342E-04
       N       E                     dE             d eps       ncg     rms          rms(c)
DAV:   1    -0.353338375322E+03   -0.55376E-03   -0.59184E-02  5976   0.750E-01    0.220E-01
RMM:   2    -0.353338116185E+03    0.25914E-03   -0.42543E-03  8161   0.173E-01    0.832E-02
RMM:   3    -0.353337974565E+03    0.14162E-03   -0.83652E-04  8331   0.529E-02    0.669E-02
RMM:   4    -0.353337859755E+03    0.11481E-03   -0.27401E-04  8297   0.332E-02    0.371E-02
RMM:   5    -0.353337844083E+03    0.15672E-04   -0.92822E-05  7244   0.177E-02    0.270E-02
RMM:   6    -0.353337851484E+03   -0.74014E-05   -0.37696E-05  4341   0.108E-02
  22 F= -.35333785E+03 E0= -.35334385E+03  d E =-.829055E-04
       N       E                     dE             d eps       ncg     rms          rms(c)
DAV:   1    -0.353337868919E+03   -0.24836E-04   -0.63398E-04  7360   0.752E-02    0.287E-02
RMM:   2    -0.353337874301E+03   -0.53819E-05   -0.64953E-05  6912   0.182E-02
  23 F= -.35333787E+03 E0= -.35334388E+03  d E =-.105722E-03
       N       E                     dE             d eps       ncg     rms          rms(c)
DAV:   1    -0.353338001975E+03   -0.13306E-03   -0.12168E-02  6000   0.340E-01    0.108E-01
RMM:   2    -0.353337962240E+03    0.39735E-04   -0.95416E-04  8166   0.811E-02    0.441E-02
RMM:   3    -0.353337913785E+03    0.48455E-04   -0.20076E-04  7134   0.255E-02    0.343E-02
RMM:   4    -0.353337883355E+03    0.30430E-04   -0.64474E-05  6219   0.192E-02    0.186E-02
RMM:   5    -0.353337876569E+03    0.67861E-05   -0.15742E-05  3169   0.120E-02
  24 F= -.35333788E+03 E0= -.35334388E+03  d E =-.107990E-03
       N       E                     dE             d eps       ncg     rms          rms(c)
DAV:   1    -0.353337912196E+03   -0.28841E-04   -0.35169E-03  6304   0.180E-01    0.590E-02
RMM:   2    -0.353337893116E+03    0.19081E-04   -0.27012E-04  7938   0.433E-02    0.230E-02
RMM:   3    -0.353337882971E+03    0.10145E-04   -0.56112E-05  6168   0.143E-02    0.175E-02
RMM:   4    -0.353337873747E+03    0.92233E-05   -0.13544E-05  2954   0.104E-02
  25 F= -.35333787E+03 E0= -.35334387E+03  d E =-.105169E-03
       N       E                     dE             d eps       ncg     rms          rms(c)
DAV:   1    -0.353337884097E+03   -0.11258E-05   -0.11389E-03  5928   0.104E-01    0.304E-02
RMM:   2    -0.353337876304E+03    0.77930E-05   -0.90764E-05  7756   0.251E-02
  26 F= -.35333788E+03 E0= -.35334388E+03  d E =-.107725E-03
       N       E                     dE             d eps       ncg     rms          rms(c)
DAV:   1    -0.353337897756E+03   -0.13660E-04   -0.19834E-03  5808   0.121E-01    0.164E-02
RMM:   2    -0.353337908623E+03   -0.10867E-04   -0.96371E-05  6523   0.247E-02    0.150E-02
RMM:   3    -0.353337898484E+03    0.10140E-04   -0.84419E-06  3034   0.964E-03    0.725E-03
RMM:   4    -0.353337899220E+03   -0.73582E-06   -0.49255E-06  2976   0.718E-03
  27 F= -.35333790E+03 E0= -.35334390E+03  d E =-.229161E-04
       N       E                     dE             d eps       ncg     rms          rms(c)
DAV:   1    -0.353337935649E+03   -0.37165E-04   -0.17730E-02  5744   0.361E-01    0.349E-02
RMM:   2    -0.353337973131E+03   -0.37482E-04   -0.58765E-04  7363   0.684E-02    0.170E-02
RMM:   3    -0.353337971105E+03    0.20260E-05   -0.63870E-05  5232   0.199E-02
  28 F= -.35333797E+03 E0= -.35334397E+03  d E =-.948017E-04
