       N       E                     dE             d eps       ncg     rms          rms(c)
DAV:   1     0.195883575025E+04    0.19588E+04   -0.11465E+05  5624   0.107E+03
DAV:   2    -0.935391730456E+02   -0.20524E+04   -0.19855E+04  5812   0.402E+02
DAV:   3    -0.350722684910E+03   -0.25718E+03   -0.24426E+03  8688   0.964E+01
DAV:   4    -0.380674739862E+03   -0.29952E+02   -0.28393E+02  8400   0.304E+01
DAV:   5    -0.383613481790E+03   -0.29387E+01   -0.28725E+01  8176   0.978E+00    0.638E+01
RMM:   6    -0.373091254304E+03    0.10522E+02   -0.24587E+01  6994   0.105E+01    0.308E+01
RMM:   7    -0.375176226300E+03   -0.20850E+01   -0.30824E+01  7593   0.945E+00    0.118E+01
RMM:   8    -0.368781629082E+03    0.63946E+01   -0.69260E+00  7359   0.384E+00    0.435E+00
RMM:   9    -0.368616211481E+03    0.16542E+00   -0.29815E+00  7659   0.220E+00    0.308E+00
RMM:  10    -0.368552310808E+03    0.63901E-01   -0.59469E-01  7662   0.130E+00    0.157E+00
RMM:  11    -0.368516413574E+03    0.35897E-01   -0.17414E-01  7580   0.603E-01    0.886E-01
RMM:  12    -0.368507034991E+03    0.93786E-02   -0.63888E-02  7716   0.378E-01    0.452E-01
RMM:  13    -0.368506890272E+03    0.14472E-03   -0.20850E-02  7682   0.217E-01    0.294E-01
RMM:  14    -0.368506233743E+03    0.65653E-03   -0.84374E-03  7814   0.116E-01    0.166E-01
RMM:  15    -0.368506309061E+03   -0.75317E-04   -0.51029E-03  7724   0.878E-02    0.919E-02
RMM:  16    -0.368506333063E+03   -0.24002E-04   -0.19059E-03  7451   0.479E-02    0.557E-02
RMM:  17    -0.368506313517E+03    0.19546E-04   -0.72999E-04  6625   0.296E-02    0.271E-02
RMM:  18    -0.368506328779E+03   -0.15262E-04   -0.34021E-04  5980   0.192E-02    0.152E-02
RMM:  19    -0.368506337551E+03   -0.87723E-05   -0.15356E-04  4809   0.144E-02    0.823E-03
RMM:  20    -0.368506338442E+03   -0.89132E-06   -0.55624E-05  3748   0.105E-02
   1 F= -.36850634E+03 E0= -.36851220E+03  d E =-.368506E+03
       N       E                     dE             d eps       ncg     rms          rms(c)
DAV:   1    -0.368507108910E+03   -0.77136E-03   -0.46151E-02  5548   0.606E-01    0.629E-02
RMM:   2    -0.368507265567E+03   -0.15666E-03   -0.21852E-03  7221   0.127E-01    0.312E-02
RMM:   3    -0.368507253418E+03    0.12149E-04   -0.23187E-04  6701   0.366E-02    0.254E-02
RMM:   4    -0.368507243202E+03    0.10216E-04   -0.58186E-05  4765   0.141E-02    0.145E-02
RMM:   5    -0.368507240583E+03    0.26191E-05   -0.20185E-05  3196   0.104E-02
   2 F= -.36850724E+03 E0= -.36851311E+03  d E =-.902140E-03
       N       E                     dE             d eps       ncg     rms          rms(c)
DAV:   1    -0.368508298444E+03   -0.10552E-02   -0.41440E-01  5376   0.182E+00    0.189E-01
RMM:   2    -0.368509592075E+03   -0.12936E-02   -0.18504E-02  7273   0.376E-01    0.962E-02
RMM:   3    -0.368509489641E+03    0.10243E-03   -0.20023E-03  7584   0.101E-01    0.769E-02
RMM:   4    -0.368509402949E+03    0.86692E-04   -0.48658E-04  7552   0.373E-02    0.443E-02
RMM:   5    -0.368509393943E+03    0.90058E-05   -0.20804E-04  7179   0.260E-02    0.259E-02
RMM:   6    -0.368509386236E+03    0.77069E-05   -0.85563E-05  5763   0.160E-02
   3 F= -.36850939E+03 E0= -.36851527E+03  d E =-.304779E-02
       N       E                     dE             d eps       ncg     rms          rms(c)
DAV:   1    -0.368507032706E+03    0.23612E-02   -0.16588E+00  5168   0.364E+00    0.376E-01
RMM:   2    -0.368512106399E+03   -0.50737E-02   -0.73120E-02  7249   0.751E-01    0.192E-01
RMM:   3    -0.368511694585E+03    0.41181E-03   -0.78826E-03  7636   0.201E-01    0.154E-01
RMM:   4    -0.368511348706E+03    0.34588E-03   -0.19168E-03  7876   0.741E-02    0.890E-02
RMM:   5    -0.368511314932E+03    0.33774E-04   -0.81951E-04  7826   0.523E-02    0.516E-02
RMM:   6    -0.368511294300E+03    0.20632E-04   -0.34999E-04  7638   0.320E-02    0.278E-02
RMM:   7    -0.368511290227E+03    0.40735E-05   -0.12442E-04  5460   0.172E-02    0.198E-02
RMM:   8    -0.368511289959E+03    0.26734E-06   -0.56917E-05  4325   0.144E-02
   4 F= -.36851129E+03 E0= -.36851724E+03  d E =-.495152E-02
       N       E                     dE             d eps       ncg     rms          rms(c)
DAV:   1    -0.368514975594E+03   -0.36854E-02   -0.22096E-01  6400   0.156E+00    0.489E-01
RMM:   2    -0.368513774880E+03    0.12007E-02   -0.23521E-02  7543   0.419E-01    0.190E-01
RMM:   3    -0.368512767439E+03    0.10074E-02   -0.45475E-03  7841   0.120E-01    0.137E-01
RMM:   4    -0.368512269061E+03    0.49838E-03   -0.13366E-03  7767   0.765E-02    0.705E-02
RMM:   5    -0.368512205689E+03    0.63371E-04   -0.37691E-04  7507   0.400E-02    0.481E-02
RMM:   6    -0.368512218067E+03   -0.12377E-04   -0.17004E-04  6723   0.223E-02    0.325E-02
RMM:   7    -0.368512230561E+03   -0.12495E-04   -0.60615E-05  4841   0.155E-02    0.205E-02
RMM:   8    -0.368512240101E+03   -0.95401E-05   -0.37331E-05  3705   0.128E-02
   5 F= -.36851224E+03 E0= -.36851818E+03  d E =-.950142E-03
       N       E                     dE             d eps       ncg     rms          rms(c)
DAV:   1    -0.368513394191E+03   -0.11636E-02   -0.89650E-02  6360   0.997E-01    0.306E-01
RMM:   2    -0.368512895815E+03    0.49838E-03   -0.93245E-03  7432   0.267E-01    0.117E-01
RMM:   3    -0.368512495962E+03    0.39985E-03   -0.17146E-03  7782   0.750E-02    0.827E-02
RMM:   4    -0.368512316049E+03    0.17991E-03   -0.52028E-04  7586   0.478E-02    0.425E-02
RMM:   5    -0.368512301852E+03    0.14197E-04   -0.14419E-04  6414   0.255E-02    0.301E-02
RMM:   6    -0.368512313023E+03   -0.11171E-04   -0.60883E-05  4545   0.147E-02    0.245E-02
RMM:   7    -0.368512324548E+03   -0.11524E-04   -0.25266E-05  3386   0.132E-02    0.133E-02
RMM:   8    -0.368512333570E+03   -0.90224E-05   -0.22800E-05  3403   0.116E-02
   6 F= -.36851233E+03 E0= -.36851826E+03  d E =-.104361E-02
       N       E                     dE             d eps       ncg     rms          rms(c)
DAV:   1    -0.368512413098E+03   -0.88550E-04   -0.39288E-03  6408   0.208E-01    0.667E-02
RMM:   2    -0.368512403709E+03    0.93886E-05   -0.44131E-04  7389   0.556E-02    0.276E-02
RMM:   3    -0.368512385135E+03    0.18574E-04   -0.89752E-05  6101   0.172E-02    0.219E-02
RMM:   4    -0.368512373735E+03    0.11401E-04   -0.20486E-05  2782   0.136E-02    0.132E-02
RMM:   5    -0.368512371599E+03    0.21359E-05   -0.81396E-06  2685   0.109E-02
   7 F= -.36851237E+03 E0= -.36851830E+03  d E =-.108164E-02
       N       E                     dE             d eps       ncg     rms          rms(c)
DAV:   1    -0.368512648353E+03   -0.27462E-03   -0.10089E-01  5152   0.884E-01    0.713E-02
RMM:   2    -0.368512908760E+03   -0.26041E-03   -0.35680E-03  6705   0.180E-01    0.360E-02
RMM:   3    -0.368512901220E+03    0.75401E-05   -0.43627E-04  7081   0.500E-02    0.262E-02
RMM:   4    -0.368512898763E+03    0.24569E-05   -0.11168E-04  5889   0.166E-02    0.163E-02
RMM:   5    -0.368512897197E+03    0.15659E-05   -0.34352E-05  3709   0.103E-02
   8 F= -.36851290E+03 E0= -.36851887E+03  d E =-.525598E-03
       N       E                     dE             d eps       ncg     rms          rms(c)
DAV:   1    -0.368511386167E+03    0.15126E-02   -0.90657E-01  5072   0.265E+00    0.217E-01
RMM:   2    -0.368513771261E+03   -0.23851E-02   -0.32389E-02  6894   0.539E-01    0.112E-01
RMM:   3    -0.368513769132E+03    0.21287E-05   -0.43055E-03  7590   0.147E-01    0.842E-02
RMM:   4    -0.368513740851E+03    0.28281E-04   -0.98643E-04  8121   0.466E-02    0.550E-02
RMM:   5    -0.368513733541E+03    0.73103E-05   -0.39875E-04  7276   0.315E-02    0.327E-02
RMM:   6    -0.368513724696E+03    0.88455E-05   -0.14248E-04  6815   0.225E-02    0.133E-02
RMM:   7    -0.368513724714E+03   -0.18648E-07   -0.35454E-05  3941   0.115E-02
   9 F= -.36851372E+03 E0= -.36851981E+03  d E =-.135312E-02
       N       E                     dE             d eps       ncg     rms          rms(c)
DAV:   1    -0.368516209039E+03   -0.24843E-02   -0.10077E-01  6960   0.113E+00    0.410E-01
RMM:   2    -0.368515244164E+03    0.96487E-03   -0.15330E-02  7630   0.318E-01    0.167E-01
RMM:   3    -0.368514365466E+03    0.87870E-03   -0.31121E-03  7846   0.898E-02    0.114E-01
RMM:   4    -0.368514015988E+03    0.34948E-03   -0.90060E-04  7690   0.639E-02    0.590E-02
RMM:   5    -0.368513951103E+03    0.64885E-04   -0.26513E-04  7337   0.334E-02    0.395E-02
RMM:   6    -0.368513944545E+03    0.65579E-05   -0.10733E-04  6582   0.184E-02    0.279E-02
RMM:   7    -0.368513938184E+03    0.63608E-05   -0.42165E-05  3938   0.125E-02
  10 F= -.36851394E+03 E0= -.36852007E+03  d E =-.213470E-03
       N       E                     dE             d eps       ncg     rms          rms(c)
DAV:   1    -0.368513977345E+03   -0.32800E-04   -0.12775E-03  7408   0.123E-01    0.536E-02
RMM:   2    -0.368513964580E+03    0.12764E-04   -0.25613E-04  7218   0.366E-02    0.248E-02
RMM:   3    -0.368513949764E+03    0.14816E-04   -0.55775E-05  5002   0.122E-02    0.184E-02
RMM:   4    -0.368513941894E+03    0.78697E-05   -0.14122E-05  2781   0.105E-02
  11 F= -.36851394E+03 E0= -.36852007E+03  d E =-.217180E-03
       N       E                     dE             d eps       ncg     rms          rms(c)
DAV:   1    -0.368513978016E+03   -0.28252E-04   -0.14910E-03  6832   0.139E-01    0.513E-02
RMM:   2    -0.368513960653E+03    0.17363E-04   -0.26259E-04  7261   0.413E-02    0.222E-02
RMM:   3    -0.368513945171E+03    0.15482E-04   -0.46528E-05  5073   0.118E-02    0.158E-02
RMM:   4    -0.368513939080E+03    0.60906E-05   -0.93803E-06  2619   0.966E-03
  12 F= -.36851394E+03 E0= -.36852006E+03  d E =-.214366E-03
       N       E                     dE             d eps       ncg     rms          rms(c)
DAV:   1    -0.368514077347E+03   -0.13218E-03   -0.54967E-02  5104   0.670E-01    0.637E-02
RMM:   2    -0.368514222783E+03   -0.14544E-03   -0.21706E-03  6889   0.137E-01    0.366E-02
RMM:   3    -0.368514193326E+03    0.29457E-04   -0.25631E-04  6951   0.377E-02    0.248E-02
RMM:   4    -0.368514187279E+03    0.60474E-05   -0.65037E-05  5058   0.136E-02
  13 F= -.36851419E+03 E0= -.36852034E+03  d E =-.248198E-03
       N       E                     dE             d eps       ncg     rms          rms(c)
DAV:   1    -0.368514006028E+03    0.18730E-03   -0.15395E-01  5080   0.112E+00    0.107E-01
RMM:   2    -0.368514415380E+03   -0.40935E-03   -0.61418E-03  7107   0.230E-01    0.646E-02
RMM:   3    -0.368514354611E+03    0.60770E-04   -0.82303E-04  7465   0.617E-02    0.454E-02
RMM:   4    -0.368514336331E+03    0.18280E-04   -0.21666E-04  6786   0.227E-02    0.273E-02
RMM:   5    -0.368514334857E+03    0.14737E-05   -0.94749E-05  6107   0.150E-02
  14 F= -.36851433E+03 E0= -.36852051E+03  d E =-.395777E-03
       N       E                     dE             d eps       ncg     rms          rms(c)
DAV:   1    -0.368514649664E+03   -0.31333E-03   -0.18925E-02  6304   0.469E-01    0.149E-01
RMM:   2    -0.368514519860E+03    0.12980E-03   -0.20358E-03  7520   0.124E-01    0.593E-02
RMM:   3    -0.368514418661E+03    0.10120E-03   -0.40310E-04  7665   0.351E-02    0.425E-02
RMM:   4    -0.368514373895E+03    0.44766E-04   -0.12453E-04  6421   0.249E-02    0.211E-02
RMM:   5    -0.368514370028E+03    0.38665E-05   -0.29373E-05  3273   0.150E-02
  15 F= -.36851437E+03 E0= -.36852057E+03  d E =-.351708E-04
       N       E                     dE             d eps       ncg     rms          rms(c)
DAV:   1    -0.368514372993E+03    0.90173E-06   -0.94594E-05  5648   0.370E-02    0.103E-02
RMM:   2    -0.368514376442E+03   -0.34489E-05   -0.14466E-05  2704   0.109E-02
  16 F= -.36851438E+03 E0= -.36852057E+03  d E =-.415845E-04
       N       E                     dE             d eps       ncg     rms          rms(c)
DAV:   1    -0.368514422199E+03   -0.49206E-04   -0.51144E-03  5152   0.204E-01    0.313E-02
RMM:   2    -0.368514431738E+03   -0.95383E-05   -0.24545E-04  7525   0.435E-02    0.168E-02
RMM:   3    -0.368514431896E+03   -0.15807E-06   -0.37785E-05  3731   0.126E-02
  17 F= -.36851443E+03 E0= -.36852065E+03  d E =-.554537E-04
       N       E                     dE             d eps       ncg     rms          rms(c)
DAV:   1    -0.368514478272E+03   -0.46535E-04   -0.45624E-02  5096   0.612E-01    0.877E-02
RMM:   2    -0.368514521388E+03   -0.43115E-04   -0.21315E-03  7580   0.128E-01    0.437E-02
RMM:   3    -0.368514510522E+03    0.10866E-04   -0.34749E-04  7306   0.345E-02    0.307E-02
RMM:   4    -0.368514490285E+03    0.20237E-04   -0.11216E-04  6395   0.181E-02    0.150E-02
RMM:   5    -0.368514487522E+03    0.27627E-05   -0.36277E-05  3769   0.105E-02
  18 F= -.36851449E+03 E0= -.36852077E+03  d E =-.111080E-03
