<?xml version="1.0" encoding="ISO-8859-1"?>
<modeling>
 <generator>
  <i name="program" type="string">vasp </i>
  <i name="version" type="string">5.4.1  </i>
  <i name="subversion" type="string">05Feb16 (build Jan 29 2020 16:04:39) complex                          parallel </i>
  <i name="platform" type="string">IFC91_ompi </i>
  <i name="date" type="string">2020 06 15 </i>
  <i name="time" type="string">04:36:30 </i>
 </generator>
 <incar>
  <i type="string" name="SYSTEM"> automatically generated by mexm</i>
  <i type="int" name="ISTART">     0</i>
  <i type="string" name="PREC">accurate               ! avoid wrap aro</i>
  <i type="string" name="ALGO"> Fast                   ! blocked Davids</i>
  <i type="int" name="ISPIN">     1</i>
  <i type="int" name="ICHARG">     2</i>
  <i type="int" name="NELM">    70</i>
  <i type="int" name="IBRION">     2</i>
  <i name="EDIFF">      0.00001000</i>
  <i name="EDIFFG">     -0.01000000</i>
  <i type="int" name="NSW">   300</i>
  <i type="int" name="ISIF">     3</i>
  <i type="int" name="ISYM">     1</i>
  <i name="ENCUT">    300.00000000</i>
  <i name="POTIM">      0.15000000</i>
  <i type="string" name="LREAL"> Auto                  ! unpublished met</i>
  <i type="int" name="ISMEAR">     1</i>
  <i name="SIGMA">      0.15000000</i>
  <i type="logical" name="LWAVE"> F  </i>
  <i type="logical" name="LCHARG"> F  </i>
  <i type="logical" name="LVTOT"> F  </i>
  <v type="int" name="KPOINT_BSE">    -1     0     0     0</v>
  <i type="int" name="NELM">    70</i>
 </incar>
 <kpoints>
  <generation param="Gamma">
   <v type="int" name="divisions">       3        3        3 </v>
   <v name="usershift">      0.00000000       0.00000000       0.00000000 </v>
   <v name="genvec1">      0.33333333       0.00000000      -0.00000000 </v>
   <v name="genvec2">     -0.00000000       0.33333333      -0.00000000 </v>
   <v name="genvec3">      0.00000000       0.00000000       0.33333333 </v>
   <v name="shift">      0.00000000       0.00000000       0.00000000 </v>
  </generation>
  <varray name="kpointlist" >
   <v>       0.00000000       0.00000000       0.00000000 </v>
   <v>       0.33333333      -0.00000000       0.00000000 </v>
   <v>      -0.00000000       0.33333333       0.00000000 </v>
   <v>       0.33333333       0.33333333       0.00000000 </v>
   <v>      -0.33333333       0.33333333       0.00000000 </v>
   <v>      -0.00000000      -0.00000000       0.33333333 </v>
   <v>       0.33333333       0.00000000       0.33333333 </v>
   <v>      -0.33333333       0.00000000       0.33333333 </v>
   <v>       0.00000000       0.33333333       0.33333333 </v>
   <v>       0.33333333       0.33333333       0.33333333 </v>
   <v>      -0.33333333       0.33333333       0.33333333 </v>
   <v>       0.00000000      -0.33333333       0.33333333 </v>
   <v>       0.33333333      -0.33333333       0.33333333 </v>
   <v>      -0.33333333      -0.33333333       0.33333333 </v>
  </varray>
  <varray name="weights" >
   <v>       0.03703704 </v>
   <v>       0.07407407 </v>
   <v>       0.07407407 </v>
   <v>       0.07407407 </v>
   <v>       0.07407407 </v>
   <v>       0.07407407 </v>
   <v>       0.07407407 </v>
   <v>       0.07407407 </v>
   <v>       0.07407407 </v>
   <v>       0.07407407 </v>
   <v>       0.07407407 </v>
   <v>       0.07407407 </v>
   <v>       0.07407407 </v>
   <v>       0.07407407 </v>
  </varray>
 </kpoints>
 <parameters>
  <separator name="general" >
   <i type="string" name="SYSTEM">automatically generated by mexm</i>
   <i type="logical" name="LCOMPAT"> F  </i>
  </separator>
  <separator name="electronic" >
   <i type="string" name="PREC">accura</i>
   <i name="ENMAX">    300.00000000</i>
   <i name="ENAUG">    461.25700000</i>
   <i name="EDIFF">      0.00001000</i>
   <i type="int" name="IALGO">    68</i>
   <i type="int" name="IWAVPR">    11</i>
   <i type="int" name="NBANDS">   164</i>
   <i name="NELECT">    273.00000000</i>
   <i type="int" name="TURBO">     0</i>
   <i type="int" name="IRESTART">     0</i>
   <i type="int" name="NREBOOT">     0</i>
   <i type="int" name="NMIN">     0</i>
   <i name="EREF">      0.00000000</i>
   <separator name="electronic smearing" >
    <i type="int" name="ISMEAR">     1</i>
    <i name="SIGMA">      0.15000000</i>
    <i name="KSPACING">      0.50000000</i>
    <i type="logical" name="KGAMMA"> T  </i>
   </separator>
   <separator name="electronic projectors" >
    <i type="logical" name="LREAL"> T  </i>
    <v name="ROPT">     -0.00025000     -0.00025000     -0.00025000     -0.00025000</v>
    <i type="int" name="LMAXPAW">  -100</i>
    <i type="int" name="LMAXMIX">     2</i>
    <i type="logical" name="NLSPLINE"> F  </i>
   </separator>
   <separator name="electronic startup" >
    <i type="int" name="ISTART">     0</i>
    <i type="int" name="ICHARG">     2</i>
    <i type="int" name="INIWAV">     1</i>
   </separator>
   <separator name="electronic spin" >
    <i type="int" name="ISPIN">     1</i>
    <i type="logical" name="LNONCOLLINEAR"> F  </i>
    <v name="MAGMOM">      1.00000000      1.00000000      1.00000000      1.00000000      1.00000000      1.00000000      1.00000000      1.00000000      1.00000000      1.00000000      1.00000000      1.00000000      1.00000000      1.00000000      1.00000000      1.00000000      1.00000000      1.00000000      1.00000000      1.00000000
      1.00000000      1.00000000      1.00000000      1.00000000      1.00000000      1.00000000      1.00000000      1.00000000      1.00000000      1.00000000      1.00000000      1.00000000      1.00000000      1.00000000      1.00000000      1.00000000</v>
    <i name="NUPDOWN">     -1.00000000</i>
    <i type="logical" name="LSORBIT"> F  </i>
    <v name="SAXIS">      0.00000000      0.00000000      1.00000000</v>
    <i type="logical" name="LSPIRAL"> F  </i>
    <v name="QSPIRAL">      0.00000000      0.00000000      0.00000000</v>
    <i type="logical" name="LZEROZ"> F  </i>
   </separator>
   <separator name="electronic exchange-correlation" >
    <i type="logical" name="LASPH"> F  </i>
    <i type="logical" name="LMETAGGA"> F  </i>
   </separator>
   <separator name="electronic convergence" >
    <i type="int" name="NELM">    70</i>
    <i type="int" name="NELMDL">    -5</i>
    <i type="int" name="NELMIN">     2</i>
    <i name="ENINI">    300.00000000</i>
    <separator name="electronic convergence detail" >
     <i type="logical" name="LDIAG"> T  </i>
     <i type="logical" name="LSUBROT"> F  </i>
     <i name="WEIMIN">      0.00100000</i>
     <i name="EBREAK">      0.00000002</i>
     <i name="DEPER">      0.30000000</i>
     <i type="int" name="NRMM">     4</i>
     <i name="TIME">      0.40000000</i>
    </separator>
   </separator>
   <separator name="electronic mixer" >
    <i name="AMIX">      0.40000000</i>
    <i name="BMIX">      1.00000000</i>
    <i name="AMIN">      0.10000000</i>
    <i name="AMIX_MAG">      1.60000000</i>
    <i name="BMIX_MAG">      1.00000000</i>
    <separator name="electronic mixer details" >
     <i type="int" name="IMIX">     4</i>
     <i type="logical" name="MIXFIRST"> F  </i>
     <i type="int" name="MAXMIX">   -45</i>
     <i name="WC">    100.00000000</i>
     <i type="int" name="INIMIX">     1</i>
     <i type="int" name="MIXPRE">     1</i>
     <i type="int" name="MREMOVE">     5</i>
    </separator>
   </separator>
   <separator name="electronic dipolcorrection" >
    <i type="logical" name="LDIPOL"> F  </i>
    <i type="logical" name="LMONO"> F  </i>
    <i type="int" name="IDIPOL">     0</i>
    <i name="EPSILON">      1.00000000</i>
    <v name="DIPOL">   -100.00000000   -100.00000000   -100.00000000</v>
    <i name="EFIELD">      0.00000000</i>
   </separator>
  </separator>
  <separator name="grids" >
   <i type="int" name="NGX">    40</i>
   <i type="int" name="NGY">    60</i>
   <i type="int" name="NGZ">    60</i>
   <i type="int" name="NGXF">    80</i>
   <i type="int" name="NGYF">   120</i>
   <i type="int" name="NGZF">   120</i>
   <i type="logical" name="ADDGRID"> F  </i>
  </separator>
  <separator name="ionic" >
   <i type="int" name="NSW">   300</i>
   <i type="int" name="IBRION">     2</i>
   <i type="int" name="ISIF">     3</i>
   <i name="PSTRESS">      0.00000000</i>
   <i name="EDIFFG">     -0.01000000</i>
   <i type="int" name="NFREE">     1</i>
   <i name="POTIM">      0.15000000</i>
   <i name="SMASS">     -3.00000000</i>
   <i name="SCALEE">      1.00000000</i>
  </separator>
  <separator name="ionic md" >
   <i name="TEBEG">      0.00010000</i>
   <i name="TEEND">      0.00010000</i>
   <i type="int" name="NBLOCK">     1</i>
   <i type="int" name="KBLOCK">   300</i>
   <i type="int" name="NPACO">   256</i>
   <i name="APACO">     16.00000000</i>
  </separator>
  <separator name="symmetry" >
   <i type="int" name="ISYM">     1</i>
   <i name="SYMPREC">      0.00001000</i>
  </separator>
  <separator name="dos" >
   <i type="logical" name="LORBIT"> F  </i>
   <v name="RWIGS">     -1.00000000     -1.00000000     -1.00000000     -1.00000000</v>
   <i type="int" name="NEDOS">   301</i>
   <i name="EMIN">     10.00000000</i>
   <i name="EMAX">    -10.00000000</i>
   <i name="EFERMI">      0.00000000</i>
  </separator>
  <separator name="writing" >
   <i type="int" name="NWRITE">     2</i>
   <i type="logical" name="LWAVE"> F  </i>
   <i type="logical" name="LCHARG"> F  </i>
   <i type="logical" name="LPARD"> F  </i>
   <i type="logical" name="LVTOT"> F  </i>
   <i type="logical" name="LVHAR"> F  </i>
   <i type="logical" name="LELF"> F  </i>
   <i type="logical" name="LOPTICS"> F  </i>
   <v name="STM">      0.00000000      0.00000000      0.00000000      0.00000000      0.00000000      0.00000000      0.00000000</v>
  </separator>
  <separator name="performance" >
   <i type="int" name="NPAR">     4</i>
   <i type="int" name="NSIM">     4</i>
   <i type="int" name="NBLK">    -1</i>
   <i type="logical" name="LPLANE"> T  </i>
   <i type="logical" name="LSCALAPACK"> T  </i>
   <i type="logical" name="LSCAAWARE"> F  </i>
   <i type="logical" name="LSCALU"> F  </i>
   <i type="logical" name="LASYNC"> F  </i>
   <i type="logical" name="LORBITALREAL"> F  </i>
  </separator>
  <separator name="miscellaneous" >
   <i type="int" name="IDIOT">     3</i>
   <i type="logical" name="LMUSIC"> F  </i>
   <v name="POMASS">    178.49000000     91.22400000     92.91000000    180.94800000</v>
   <v name="DARWINR">      0.00000000      0.00000000      0.00000000      0.00000000</v>
   <v name="DARWINV">      1.00000000      1.00000000      1.00000000      1.00000000</v>
   <i type="logical" name="LCORR"> T  </i>
  </separator>
  <i type="logical" name="GGA_COMPAT"> T  </i>
  <i type="logical" name="LBERRY"> F  </i>
  <i type="int" name="ICORELEVEL">     0</i>
  <i type="logical" name="LDAU"> F  </i>
  <i type="int" name="I_CONSTRAINED_M">     0</i>
  <separator name="electronic exchange-correlation" >
   <i type="string" name="GGA">--</i>
   <i type="int" name="VOSKOWN">     0</i>
   <i type="logical" name="LHFCALC"> F  </i>
   <i type="string" name="PRECFOCK"></i>
   <i type="logical" name="LSYMGRAD"> F  </i>
   <i type="logical" name="LHFONE"> F  </i>
   <i type="logical" name="LRHFCALC"> F  </i>
   <i type="logical" name="LTHOMAS"> F  </i>
   <i type="logical" name="LMODELHF"> F  </i>
   <i name="ENCUT4O">     -1.00000000</i>
   <i type="int" name="EXXOEP">     0</i>
   <i type="int" name="FOURORBIT">     0</i>
   <i name="AEXX">      0.00000000</i>
   <i name="HFALPHA">      0.00000000</i>
   <i name="MCALPHA">      0.00000000</i>
   <i name="ALDAX">      1.00000000</i>
   <i name="AGGAX">      1.00000000</i>
   <i name="ALDAC">      1.00000000</i>
   <i name="AGGAC">      1.00000000</i>
   <i type="int" name="NKREDX">     1</i>
   <i type="int" name="NKREDY">     1</i>
   <i type="int" name="NKREDZ">     1</i>
   <i type="logical" name="SHIFTRED"> F  </i>
   <i type="logical" name="ODDONLY"> F  </i>
   <i type="logical" name="EVENONLY"> F  </i>
   <i type="int" name="LMAXFOCK">     0</i>
   <i type="int" name="NMAXFOCKAE">     0</i>
   <i type="logical" name="LFOCKAEDFT"> F  </i>
   <i name="HFSCREEN">      0.00000000</i>
   <i name="HFSCREENC">      0.00000000</i>
   <i type="int" name="NBANDSGWLOW">     0</i>
  </separator>
  <separator name="vdW DFT" >
   <i type="logical" name="LUSE_VDW"> F  </i>
   <i name="Zab_VDW">     -0.84910000</i>
   <i name="PARAM1">      0.12340000</i>
   <i name="PARAM2">      1.00000000</i>
   <i name="PARAM3">      0.00000000</i>
  </separator>
  <separator name="model GW" >
   <i type="int" name="MODEL_GW">     0</i>
   <i name="MODEL_EPS0">     12.07871046</i>
   <i name="MODEL_ALPHA">      1.00000000</i>
  </separator>
  <separator name="linear response parameters" >
   <i type="logical" name="LEPSILON"> F  </i>
   <i type="logical" name="LRPA"> F  </i>
   <i type="logical" name="LNABLA"> F  </i>
   <i type="logical" name="LVEL"> F  </i>
   <i type="int" name="KINTER">     0</i>
   <i name="CSHIFT">      0.10000000</i>
   <i name="OMEGAMAX">     -1.00000000</i>
   <i name="DEG_THRESHOLD">      0.00200000</i>
  </separator>
  <separator name="orbital magnetization" >
   <i type="logical" name="NUCIND"> F  </i>
   <v name="MAGPOS">      0.00000000      0.00000000      0.00000000</v>
   <i type="logical" name="LNICSALL"> T  </i>
   <i type="logical" name="ORBITALMAG"> F  </i>
   <i type="logical" name="LMAGBLOCH"> F  </i>
   <i type="logical" name="LCHIMAG"> F  </i>
   <i type="logical" name="LGAUGE"> T  </i>
   <i type="int" name="MAGATOM">     0</i>
   <v name="MAGDIPOL">      0.00000000      0.00000000      0.00000000</v>
   <v name="AVECCONST">      0.00000000      0.00000000      0.00000000</v>
  </separator>
  <separator name="response functions" >
   <i type="logical" name="LADDER"> F  </i>
   <i type="logical" name="LFXC"> F  </i>
   <i type="logical" name="LHARTREE"> T  </i>
   <i type="int" name="IBSE">     0</i>
   <v type="int" name="KPOINT">    -1     0     0     0</v>
   <i type="logical" name="LTCTE"> F  </i>
   <i type="logical" name="LTETE"> F  </i>
   <i type="logical" name="LTRIPLET"> F  </i>
   <i type="logical" name="LFXCEPS"> F  </i>
   <i type="logical" name="LFXHEG"> F  </i>
   <i type="int" name="NATURALO">     0</i>
   <i type="logical" name="L2ORDER"> F  </i>
   <i type="logical" name="LUSEW"> F  </i>
   <i name="ENCUTGW">     -2.00000000</i>
   <i name="ENCUTGWSOFT">     -2.00000000</i>
   <i name="ENCUTLF">     -1.00000000</i>
   <i type="int" name="LMAXMP2">    -1</i>
   <i name="SCISSOR">      0.00000000</i>
   <i type="int" name="NOMEGA">     0</i>
   <i type="int" name="NOMEGAR">     0</i>
   <i type="int" name="NBANDSGW">    -1</i>
   <i type="int" name="NBANDSO">    -1</i>
   <i type="int" name="NBANDSV">    -1</i>
   <i type="int" name="NELM">    70</i>
   <i type="int" name="NELMHF">     1</i>
   <i type="int" name="DIM">     3</i>
   <i type="int" name="ANTIRES">     0</i>
   <i name="OMEGAMAX">    -30.00000000</i>
   <i name="OMEGAMIN">    -30.00000000</i>
   <i name="OMEGATL">   -200.00000000</i>
   <i type="int" name="OMEGAGRID">     0</i>
   <i name="CSHIFT">     -0.10000000</i>
   <i type="logical" name="SELFENERGY"> F  </i>
   <i type="logical" name="LSPECTRAL"> F  </i>
   <i type="logical" name="LSPECTRALGW"> F  </i>
   <i type="logical" name="LSINGLES"> F  </i>
   <i type="logical" name="LFERMIGW"> F  </i>
   <i type="logical" name="ODDONLYGW"> F  </i>
   <i type="logical" name="EVENONLYGW"> F  </i>
   <i type="int" name="NKREDLFX">     1</i>
   <i type="int" name="NKREDLFY">     1</i>
   <i type="int" name="NKREDLFZ">     1</i>
   <i type="int" name="MAXMEM">  1800</i>
   <i type="int" name="TELESCOPE">     0</i>
   <i type="int" name="TAUPAR">     1</i>
   <i type="int" name="OMEGAPAR">    -1</i>
   <i name="LAMBDA">      1.00000000</i>
  </separator>
  <separator name="External order field" >
   <i name="OFIELD_KAPPA">      0.00000000</i>
   <v name="OFIELD_K">      0.00000000      0.00000000      0.00000000</v>
   <i name="OFIELD_Q6_NEAR">      0.00000000</i>
   <i name="OFIELD_Q6_FAR">      0.00000000</i>
   <i name="OFIELD_A">      0.00000000</i>
  </separator>
 </parameters>
 <atominfo>
  <atoms>      36 </atoms>
  <types>       4 </types>
  <array name="atoms" >
   <dimension dim="1">ion</dimension>
   <field type="string">element</field>
   <field type="int">atomtype</field>
   <set>
    <rc><c>Hf</c><c>   1</c></rc>
    <rc><c>Hf</c><c>   1</c></rc>
    <rc><c>Hf</c><c>   1</c></rc>
    <rc><c>Hf</c><c>   1</c></rc>
    <rc><c>Hf</c><c>   1</c></rc>
    <rc><c>Hf</c><c>   1</c></rc>
    <rc><c>Hf</c><c>   1</c></rc>
    <rc><c>Hf</c><c>   1</c></rc>
    <rc><c>Hf</c><c>   1</c></rc>
    <rc><c>Hf</c><c>   1</c></rc>
    <rc><c>Hf</c><c>   1</c></rc>
    <rc><c>Hf</c><c>   1</c></rc>
    <rc><c>Hf</c><c>   1</c></rc>
    <rc><c>Zr</c><c>   2</c></rc>
    <rc><c>Zr</c><c>   2</c></rc>
    <rc><c>Zr</c><c>   2</c></rc>
    <rc><c>Zr</c><c>   2</c></rc>
    <rc><c>Zr</c><c>   2</c></rc>
    <rc><c>Zr</c><c>   2</c></rc>
    <rc><c>Nb</c><c>   3</c></rc>
    <rc><c>Nb</c><c>   3</c></rc>
    <rc><c>Nb</c><c>   3</c></rc>
    <rc><c>Nb</c><c>   3</c></rc>
    <rc><c>Nb</c><c>   3</c></rc>
    <rc><c>Nb</c><c>   3</c></rc>
    <rc><c>Nb</c><c>   3</c></rc>
    <rc><c>Nb</c><c>   3</c></rc>
    <rc><c>Ta</c><c>   4</c></rc>
    <rc><c>Ta</c><c>   4</c></rc>
    <rc><c>Ta</c><c>   4</c></rc>
    <rc><c>Ta</c><c>   4</c></rc>
    <rc><c>Ta</c><c>   4</c></rc>
    <rc><c>Ta</c><c>   4</c></rc>
    <rc><c>Ta</c><c>   4</c></rc>
    <rc><c>Ta</c><c>   4</c></rc>
    <rc><c>Ta</c><c>   4</c></rc>
   </set>
  </array>
  <array name="atomtypes" >
   <dimension dim="1">type</dimension>
   <field type="int">atomspertype</field>
   <field type="string">element</field>
   <field>mass</field>
   <field>valence</field>
   <field type="string">pseudopotential</field>
   <set>
    <rc><c>  13</c><c>Hf</c><c>    178.49000000</c><c>      4.00000000</c><c>  PAW_PBE Hf 20Jan2003                  </c></rc>
    <rc><c>   6</c><c>Zr</c><c>     91.22400000</c><c>     12.00000000</c><c>  PAW_PBE Zr_sv 04Jan2005               </c></rc>
    <rc><c>   8</c><c>Nb</c><c>     92.91000000</c><c>     13.00000000</c><c>  PAW_PBE Nb_sv 25May2007               </c></rc>
    <rc><c>   9</c><c>Ta</c><c>    180.94800000</c><c>      5.00000000</c><c>  PAW_PBE Ta 17Jan2003                  </c></rc>
   </set>
  </array>
 </atominfo>
 <structure name="initialpos" >
  <crystal>
   <varray name="basis" >
    <v>       6.93127670       0.00871458       0.01024599 </v>
    <v>       0.01299455      10.24960028       0.00080811 </v>
    <v>       0.01558348       0.00049384      10.20124859 </v>
   </varray>
   <i name="volume">    724.72262758 </i>
   <varray name="rec_basis" >
    <v>       0.14427412      -0.00018289      -0.00022039 </v>
    <v>      -0.00012266       0.09756494      -0.00000454 </v>
    <v>      -0.00014490      -0.00000755       0.09802744 </v>
   </varray>
  </crystal>
  <varray name="positions" >
   <v>       0.72207300       0.84117300       0.51098600 </v>
   <v>       0.00687400       0.00280300       0.67401000 </v>
   <v>       0.75146300       0.48776200       0.82914500 </v>
   <v>       0.23864500       0.50288000       0.15289600 </v>
   <v>       0.02023100       0.68195400       0.34579400 </v>
   <v>       0.50831900       0.00287600       0.00316300 </v>
   <v>       0.74760100       0.17097300       0.50190000 </v>
   <v>       0.77120900       0.48728800       0.50224300 </v>
   <v>       0.48403300       0.66739200       0.33567000 </v>
   <v>       0.48028300       0.65679900       0.66783000 </v>
   <v>       0.47981600       0.33977000       0.33678100 </v>
   <v>       0.01068300       0.99829500       0.33011700 </v>
   <v>       0.75252800       0.18108100       0.18296100 </v>
   <v>       0.99221800       0.00295800       0.00009600 </v>
   <v>       0.99879300       0.31251400       0.99793500 </v>
   <v>       0.01406500       0.67264200       0.66496400 </v>
   <v>       0.49946100       0.00134500       0.31451400 </v>
   <v>       0.75610100       0.50009300       0.16677400 </v>
   <v>       0.50403100       0.67420400       0.99070400 </v>
   <v>       0.75073100       0.83103100       0.82653700 </v>
   <v>       0.25155400       0.17481600       0.16900600 </v>
   <v>       0.21855000       0.48554200       0.50288400 </v>
   <v>       0.99778500       0.67510400       0.98952200 </v>
   <v>       0.49374700       0.00714200       0.68163600 </v>
   <v>       0.73467800       0.18022400       0.81918500 </v>
   <v>       0.77102300       0.81642500       0.16152500 </v>
   <v>       0.26502500       0.16981100       0.82664500 </v>
   <v>       0.25488100       0.16312400       0.50602100 </v>
   <v>       0.01973800       0.32040600       0.33296300 </v>
   <v>       0.01647500       0.32298200       0.67238300 </v>
   <v>       0.24404100       0.49095300       0.84297700 </v>
   <v>       0.28224000       0.85638400       0.50987400 </v>
   <v>       0.25168400       0.83840000       0.84073400 </v>
   <v>       0.23483900       0.82209200       0.14650700 </v>
   <v>       0.47991500       0.33928500       0.66448200 </v>
   <v>       0.49465200       0.32148800       0.99863000 </v>
  </varray>
 </structure>
 <calculation>
  <scstep>
   <time name="dav">    1.02    1.03</time>
   <time name="total">    1.39    1.54</time>
   <energy>
    <i name="alphaZ">   1375.98102698 </i>
    <i name="ewald"> -16700.78778973 </i>
    <i name="hartreedc">  -6547.59166022 </i>
    <i name="XCdc">   -535.99717523 </i>
    <i name="pawpsdc">  19204.46736639 </i>
    <i name="pawaedc"> -17510.05867645 </i>
    <i name="eentropy">     -0.00475586 </i>
    <i name="bandstr">     -6.29006286 </i>
    <i name="atom">  22308.41681257 </i>
    <i name="e_fr_energy">   1588.13508560 </i>
    <i name="e_wo_entrp">   1588.13984146 </i>
    <i name="e_0_energy">   1588.13667088 </i>
   </energy>
  </scstep>
  <scstep>
   <time name="dav">    1.05    1.06</time>
   <time name="total">    1.05    1.13</time>
   <energy>
    <i name="e_fr_energy">   -126.39572599 </i>
    <i name="e_wo_entrp">   -126.40198434 </i>
    <i name="e_0_energy">   -126.39781211 </i>
   </energy>
  </scstep>
  <scstep>
   <time name="dav">    1.30    1.30</time>
   <time name="total">    1.30    1.34</time>
   <energy>
    <i name="e_fr_energy">   -351.05830164 </i>
    <i name="e_wo_entrp">   -351.05751002 </i>
    <i name="e_0_energy">   -351.05803776 </i>
   </energy>
  </scstep>
  <scstep>
   <time name="dav">    1.30    1.33</time>
   <time name="total">    1.30    1.35</time>
   <energy>
    <i name="e_fr_energy">   -377.38991420 </i>
    <i name="e_wo_entrp">   -377.40185903 </i>
    <i name="e_0_energy">   -377.39389581 </i>
   </energy>
  </scstep>
  <scstep>
   <time name="dav">    1.32    1.32</time>
   <time name="total">    1.35    1.37</time>
   <energy>
    <i name="e_fr_energy">   -380.12243483 </i>
    <i name="e_wo_entrp">   -380.13426655 </i>
    <i name="e_0_energy">   -380.12637874 </i>
   </energy>
  </scstep>
  <scstep>
   <time name="diag">    0.07    0.07</time>
   <time name="diis">    0.72    0.73</time>
   <time name="orth">    0.01    0.01</time>
   <time name="total">    0.87    0.89</time>
   <energy>
    <i name="e_fr_energy">   -370.09946699 </i>
    <i name="e_wo_entrp">   -370.11597960 </i>
    <i name="e_0_energy">   -370.10497119 </i>
   </energy>
  </scstep>
  <scstep>
   <time name="diag">    0.07    0.07</time>
   <time name="diis">    0.74    0.75</time>
   <time name="orth">    0.01    0.01</time>
   <time name="total">    0.89    0.91</time>
   <energy>
    <i name="e_fr_energy">   -372.00034034 </i>
    <i name="e_wo_entrp">   -372.00699578 </i>
    <i name="e_0_energy">   -372.00255882 </i>
   </energy>
  </scstep>
  <scstep>
   <time name="diag">    0.15    0.15</time>
   <time name="diis">    0.71    0.71</time>
   <time name="orth">    0.01    0.01</time>
   <time name="total">    0.95    0.96</time>
   <energy>
    <i name="e_fr_energy">   -365.73129255 </i>
    <i name="e_wo_entrp">   -365.75612450 </i>
    <i name="e_0_energy">   -365.73956987 </i>
   </energy>
  </scstep>
  <scstep>
   <time name="diag">    0.11    0.11</time>
   <time name="diis">    0.78    0.78</time>
   <time name="orth">    0.01    0.01</time>
   <time name="total">    0.96    0.99</time>
   <energy>
    <i name="e_fr_energy">   -365.48337747 </i>
    <i name="e_wo_entrp">   -365.50447253 </i>
    <i name="e_0_energy">   -365.49040916 </i>
   </energy>
  </scstep>
  <scstep>
   <time name="diag">    0.07    0.08</time>
   <time name="diis">    0.79    0.80</time>
   <time name="orth">    0.01    0.01</time>
   <time name="total">    0.96    0.98</time>
   <energy>
    <i name="e_fr_energy">   -365.44989630 </i>
    <i name="e_wo_entrp">   -365.47217188 </i>
    <i name="e_0_energy">   -365.45732150 </i>
   </energy>
  </scstep>
  <scstep>
   <time name="diag">    0.13    0.14</time>
   <time name="diis">    0.78    0.80</time>
   <time name="orth">    0.01    0.01</time>
   <time name="total">    1.06    1.11</time>
   <energy>
    <i name="e_fr_energy">   -365.41489586 </i>
    <i name="e_wo_entrp">   -365.43896826 </i>
    <i name="e_0_energy">   -365.42291999 </i>
   </energy>
  </scstep>
  <scstep>
   <time name="diag">    0.14    0.15</time>
   <time name="diis">    0.74    0.79</time>
   <time name="orth">    0.01    0.01</time>
   <time name="total">    0.99    1.06</time>
   <energy>
    <i name="e_fr_energy">   -365.40785672 </i>
    <i name="e_wo_entrp">   -365.43213515 </i>
    <i name="e_0_energy">   -365.41594953 </i>
   </energy>
  </scstep>
  <scstep>
   <time name="diag">    0.07    0.07</time>
   <time name="diis">    0.75    0.75</time>
   <time name="orth">    0.01    0.01</time>
   <time name="total">    0.89    0.91</time>
   <energy>
    <i name="e_fr_energy">   -365.40655515 </i>
    <i name="e_wo_entrp">   -365.43117503 </i>
    <i name="e_0_energy">   -365.41476178 </i>
   </energy>
  </scstep>
  <scstep>
   <time name="diag">    0.07    0.07</time>
   <time name="diis">    0.79    0.79</time>
   <time name="orth">    0.01    0.01</time>
   <time name="total">    0.97    0.99</time>
   <energy>
    <i name="e_fr_energy">   -365.40653238 </i>
    <i name="e_wo_entrp">   -365.43089079 </i>
    <i name="e_0_energy">   -365.41465185 </i>
   </energy>
  </scstep>
  <scstep>
   <time name="diag">    0.07    0.07</time>
   <time name="diis">    0.82    0.82</time>
   <time name="orth">    0.01    0.01</time>
   <time name="total">    1.03    1.06</time>
   <energy>
    <i name="e_fr_energy">   -365.40676923 </i>
    <i name="e_wo_entrp">   -365.43111414 </i>
    <i name="e_0_energy">   -365.41488420 </i>
   </energy>
  </scstep>
  <scstep>
   <time name="diag">    0.07    0.07</time>
   <time name="diis">    0.73    0.73</time>
   <time name="orth">    0.02    0.02</time>
   <time name="total">    0.89    0.91</time>
   <energy>
    <i name="e_fr_energy">   -365.40690449 </i>
    <i name="e_wo_entrp">   -365.43120344 </i>
    <i name="e_0_energy">   -365.41500414 </i>
   </energy>
  </scstep>
  <scstep>
   <time name="diag">    0.07    0.07</time>
   <time name="diis">    0.65    0.65</time>
   <time name="orth">    0.01    0.01</time>
   <time name="total">    0.80    0.82</time>
   <energy>
    <i name="e_fr_energy">   -365.40694050 </i>
    <i name="e_wo_entrp">   -365.43128709 </i>
    <i name="e_0_energy">   -365.41505603 </i>
   </energy>
  </scstep>
  <scstep>
   <time name="diag">    0.07    0.07</time>
   <time name="diis">    0.58    0.58</time>
   <time name="orth">    0.01    0.01</time>
   <time name="total">    0.73    0.75</time>
   <energy>
    <i name="e_fr_energy">   -365.40696709 </i>
    <i name="e_wo_entrp">   -365.43135237 </i>
    <i name="e_0_energy">   -365.41509551 </i>
   </energy>
  </scstep>
  <scstep>
   <time name="diag">    0.07    0.07</time>
   <time name="diis">    0.45    0.49</time>
   <time name="orth">    0.01    0.01</time>
   <time name="total">    0.63    0.69</time>
   <energy>
    <i name="e_fr_energy">   -365.40698453 </i>
    <i name="e_wo_entrp">   -365.43137762 </i>
    <i name="e_0_energy">   -365.41511556 </i>
   </energy>
  </scstep>
  <scstep>
   <time name="diag">    0.08    0.09</time>
   <time name="diis">    0.44    0.44</time>
   <time name="orth">    0.01    0.01</time>
   <time name="total">    0.60    0.63</time>
   <energy>
    <i name="e_fr_energy">   -365.40699067 </i>
    <i name="e_wo_entrp">   -365.43138130 </i>
    <i name="e_0_energy">   -365.41512088 </i>
   </energy>
  </scstep>
  <scstep>
   <time name="diag">    0.07    0.07</time>
   <time name="diis">    0.42    0.42</time>
   <time name="orth">    0.01    0.01</time>
   <time name="total">    0.54    0.56</time>
   <energy>
    <i name="alphaZ">   1375.98102698 </i>
    <i name="ewald"> -16700.78778973 </i>
    <i name="hartreedc">  -6356.36779056 </i>
    <i name="XCdc">   -532.03822375 </i>
    <i name="pawpsdc">  31267.95155468 </i>
    <i name="pawaedc"> -29558.83733023 </i>
    <i name="eentropy">      0.02439534 </i>
    <i name="bandstr">  -2169.74964875 </i>
    <i name="atom">  22308.41681257 </i>
    <i name="e_fr_energy">   -365.40699344 </i>
    <i name="e_wo_entrp">   -365.43138879 </i>
    <i name="e_0_energy">   -365.41512522 </i>
   </energy>
  </scstep>
  <structure>
   <crystal>
    <varray name="basis" >
     <v>       6.93127670       0.00871458       0.01024599 </v>
     <v>       0.01299455      10.24960028       0.00080811 </v>
     <v>       0.01558348       0.00049384      10.20124859 </v>
    </varray>
    <i name="volume">    724.72262758 </i>
    <varray name="rec_basis" >
     <v>       0.14427412      -0.00018289      -0.00022039 </v>
     <v>      -0.00012266       0.09756494      -0.00000454 </v>
     <v>      -0.00014490      -0.00000755       0.09802744 </v>
    </varray>
   </crystal>
   <varray name="positions" >
    <v>       0.72207300       0.84117300       0.51098600 </v>
    <v>       0.00687400       0.00280300       0.67401000 </v>
    <v>       0.75146300       0.48776200       0.82914500 </v>
    <v>       0.23864500       0.50288000       0.15289600 </v>
    <v>       0.02023100       0.68195400       0.34579400 </v>
    <v>       0.50831900       0.00287600       0.00316300 </v>
    <v>       0.74760100       0.17097300       0.50190000 </v>
    <v>       0.77120900       0.48728800       0.50224300 </v>
    <v>       0.48403300       0.66739200       0.33567000 </v>
    <v>       0.48028300       0.65679900       0.66783000 </v>
    <v>       0.47981600       0.33977000       0.33678100 </v>
    <v>       0.01068300       0.99829500       0.33011700 </v>
    <v>       0.75252800       0.18108100       0.18296100 </v>
    <v>       0.99221800       0.00295800       0.00009600 </v>
    <v>       0.99879300       0.31251400       0.99793500 </v>
    <v>       0.01406500       0.67264200       0.66496400 </v>
    <v>       0.49946100       0.00134500       0.31451400 </v>
    <v>       0.75610100       0.50009300       0.16677400 </v>
    <v>       0.50403100       0.67420400       0.99070400 </v>
    <v>       0.75073100       0.83103100       0.82653700 </v>
    <v>       0.25155400       0.17481600       0.16900600 </v>
    <v>       0.21855000       0.48554200       0.50288400 </v>
    <v>       0.99778500       0.67510400       0.98952200 </v>
    <v>       0.49374700       0.00714200       0.68163600 </v>
    <v>       0.73467800       0.18022400       0.81918500 </v>
    <v>       0.77102300       0.81642500       0.16152500 </v>
    <v>       0.26502500       0.16981100       0.82664500 </v>
    <v>       0.25488100       0.16312400       0.50602100 </v>
    <v>       0.01973800       0.32040600       0.33296300 </v>
    <v>       0.01647500       0.32298200       0.67238300 </v>
    <v>       0.24404100       0.49095300       0.84297700 </v>
    <v>       0.28224000       0.85638400       0.50987400 </v>
    <v>       0.25168400       0.83840000       0.84073400 </v>
    <v>       0.23483900       0.82209200       0.14650700 </v>
    <v>       0.47991500       0.33928500       0.66448200 </v>
    <v>       0.49465200       0.32148800       0.99863000 </v>
   </varray>
  </structure>
  <varray name="forces" >
   <v>       0.00703020       0.00224849      -0.04811832 </v>
   <v>       0.01559219       0.01351303      -0.01091848 </v>
   <v>       0.00205966      -0.02088281       0.00704158 </v>
   <v>       0.00248082       0.04279211       0.00524995 </v>
   <v>       0.01473597       0.00169595       0.01005936 </v>
   <v>      -0.17813368      -0.17719292      -0.21068426 </v>
   <v>       0.03771312       0.07255716      -0.03547305 </v>
   <v>      -0.07662658      -0.06966924      -0.06491675 </v>
   <v>      -0.01530186      -0.00609777       0.00532355 </v>
   <v>       0.01035784       0.00901670       0.00260296 </v>
   <v>      -0.40910112       0.26627345       0.27489613 </v>
   <v>       0.25750816      -0.24905958       0.21053102 </v>
   <v>      -0.10377595       0.20602772       0.09747135 </v>
   <v>       0.16200198      -0.20470799      -0.22387589 </v>
   <v>       0.33322988       0.14177232      -0.44120575 </v>
   <v>      -0.02306913       0.00499547       0.00119049 </v>
   <v>      -0.35943835      -0.44242010       0.16221589 </v>
   <v>      -0.04689093      -0.06590484       0.03310663 </v>
   <v>       0.00231620      -0.02060379       0.01832248 </v>
   <v>       0.01178445      -0.01597877       0.00200050 </v>
   <v>       0.00750286      -0.05953194      -0.07968109 </v>
   <v>       0.02721236      -0.02315846      -0.05117022 </v>
   <v>      -0.00557478       0.01373948       0.00785432 </v>
   <v>      -0.02336401      -0.01542770       0.01670318 </v>
   <v>      -0.00030563       0.02472174       0.09033461 </v>
   <v>       0.02639587       0.12790755      -0.00972718 </v>
   <v>       0.00013919       0.02102349      -0.02300568 </v>
   <v>       0.01503092       0.01705159       0.02187955 </v>
   <v>       0.58123070       0.25241271       0.49755364 </v>
   <v>       0.01147107      -0.00989552      -0.02095294 </v>
   <v>      -0.00145525      -0.00517083       0.04685118 </v>
   <v>       0.01280811       0.03095922      -0.03751553 </v>
   <v>      -0.00775798       0.02767768       0.01866653 </v>
   <v>      -0.01313108      -0.02190596       0.05842981 </v>
   <v>      -0.02531990      -0.00147788      -0.01783801 </v>
   <v>      -0.24935530       0.13270023      -0.31320157 </v>
  </varray>
  <varray name="stress" >
   <v>       8.72796706       0.62682191       0.01600043 </v>
   <v>       0.62682191       6.38786071       0.03450762 </v>
   <v>       0.01600047       0.03450766       7.98955268 </v>
  </varray>
  <energy>
   <i name="e_fr_energy">   -365.40699344 </i>
   <i name="e_wo_entrp">   -365.41512522 </i>
   <i name="e_0_energy">      0.02439534 </i>
  </energy>
  <time name="totalsc">   21.66   22.49</time>
 </calculation>
 <calculation>
  <scstep>
   <time name="dav">    0.95    0.95</time>
   <time name="total">    1.18    1.26</time>
   <energy>
    <i name="alphaZ">   1370.21581659 </i>
    <i name="ewald"> -16677.27843871 </i>
    <i name="hartreedc">  -6347.58712285 </i>
    <i name="XCdc">   -533.08960601 </i>
    <i name="pawpsdc">  31267.96099024 </i>
    <i name="pawaedc"> -29558.84683184 </i>
    <i name="eentropy">      0.02521213 </i>
    <i name="bandstr">  -2195.29754232 </i>
    <i name="atom">  22308.41681257 </i>
    <i name="e_fr_energy">   -365.48071020 </i>
    <i name="e_wo_entrp">   -365.50592233 </i>
    <i name="e_0_energy">   -365.48911425 </i>
   </energy>
  </scstep>
  <scstep>
   <time name="diag">    0.11    0.12</time>
   <time name="diis">    0.76    0.77</time>
   <time name="orth">    0.01    0.01</time>
   <time name="total">    1.14    1.16</time>
   <energy>
    <i name="e_fr_energy">   -365.46641054 </i>
    <i name="e_wo_entrp">   -365.49089441 </i>
    <i name="e_0_energy">   -365.47457183 </i>
   </energy>
  </scstep>
  <scstep>
   <time name="diag">    0.08    0.08</time>
   <time name="diis">    0.81    0.82</time>
   <time name="orth">    0.01    0.01</time>
   <time name="total">    0.98    1.00</time>
   <energy>
    <i name="e_fr_energy">   -365.45436471 </i>
    <i name="e_wo_entrp">   -365.47922065 </i>
    <i name="e_0_energy">   -365.46265003 </i>
   </energy>
  </scstep>
  <scstep>
   <time name="diag">    0.07    0.07</time>
   <time name="diis">    0.76    0.76</time>
   <time name="orth">    0.01    0.01</time>
   <time name="total">    0.91    0.93</time>
   <energy>
    <i name="e_fr_energy">   -365.44955221 </i>
    <i name="e_wo_entrp">   -365.47465953 </i>
    <i name="e_0_energy">   -365.45792132 </i>
   </energy>
  </scstep>
  <scstep>
   <time name="diag">    0.07    0.07</time>
   <time name="diis">    0.81    0.81</time>
   <time name="orth">    0.01    0.01</time>
   <time name="total">    0.95    0.97</time>
   <energy>
    <i name="e_fr_energy">   -365.44865912 </i>
    <i name="e_wo_entrp">   -365.47367425 </i>
    <i name="e_0_energy">   -365.45699750 </i>
   </energy>
  </scstep>
  <scstep>
   <time name="diag">    0.07    0.07</time>
   <time name="diis">    0.78    0.79</time>
   <time name="orth">    0.01    0.01</time>
   <time name="total">    0.93    0.95</time>
   <energy>
    <i name="e_fr_energy">   -365.44871958 </i>
    <i name="e_wo_entrp">   -365.47363065 </i>
    <i name="e_0_energy">   -365.45702327 </i>
   </energy>
  </scstep>
  <scstep>
   <time name="diag">    0.10    0.10</time>
   <time name="diis">    0.76    0.76</time>
   <time name="orth">    0.01    0.01</time>
   <time name="total">    0.96    0.98</time>
   <energy>
    <i name="e_fr_energy">   -365.44872619 </i>
    <i name="e_wo_entrp">   -365.47373147 </i>
    <i name="e_0_energy">   -365.45706128 </i>
   </energy>
  </scstep>
  <scstep>
   <time name="diag">    0.10    0.10</time>
   <time name="diis">    0.69    0.69</time>
   <time name="orth">    0.01    0.01</time>
   <time name="total">    0.89    0.91</time>
   <energy>
    <i name="e_fr_energy">   -365.44875417 </i>
    <i name="e_wo_entrp">   -365.47376616 </i>
    <i name="e_0_energy">   -365.45709150 </i>
   </energy>
  </scstep>
  <scstep>
   <time name="diag">    0.07    0.07</time>
   <time name="diis">    0.63    0.63</time>
   <time name="orth">    0.01    0.01</time>
   <time name="total">    0.78    0.80</time>
   <energy>
    <i name="e_fr_energy">   -365.44877091 </i>
    <i name="e_wo_entrp">   -365.47374916 </i>
    <i name="e_0_energy">   -365.45709699 </i>
   </energy>
  </scstep>
  <scstep>
   <time name="diag">    0.07    0.07</time>
   <time name="diis">    0.52    0.52</time>
   <time name="orth">    0.01    0.01</time>
   <time name="total">    0.66    0.69</time>
   <energy>
    <i name="e_fr_energy">   -365.44878081 </i>
    <i name="e_wo_entrp">   -365.47377488 </i>
    <i name="e_0_energy">   -365.45711217 </i>
   </energy>
  </scstep>
  <scstep>
   <time name="diag">    0.07    0.07</time>
   <time name="diis">    0.42    0.42</time>
   <time name="orth">    0.01    0.01</time>
   <time name="total">    0.53    0.55</time>
   <energy>
    <i name="alphaZ">   1370.21581659 </i>
    <i name="ewald"> -16677.27843871 </i>
    <i name="hartreedc">  -6362.65205499 </i>
    <i name="XCdc">   -532.47063012 </i>
    <i name="pawpsdc">  31090.31101993 </i>
    <i name="pawaedc"> -29381.38402950 </i>
    <i name="eentropy">      0.02498874 </i>
    <i name="bandstr">  -2180.63226183 </i>
    <i name="atom">  22308.41681257 </i>
    <i name="e_fr_energy">   -365.44877732 </i>
    <i name="e_wo_entrp">   -365.47376606 </i>
    <i name="e_0_energy">   -365.45710690 </i>
   </energy>
  </scstep>
  <structure>
   <crystal>
    <varray name="basis" >
     <v>       6.94227886       0.00951484       0.01028110 </v>
     <v>       0.01418350      10.26150797       0.00087364 </v>
     <v>       0.01563795       0.00056021      10.21606996 </v>
    </varray>
    <i name="volume">    727.77191250 </i>
    <varray name="rec_basis" >
     <v>       0.14404552      -0.00019908      -0.00022048 </v>
     <v>      -0.00013356       0.09745175      -0.00000514 </v>
     <v>      -0.00014495      -0.00000813       0.09788522 </v>
    </varray>
   </crystal>
   <varray name="positions" >
    <v>       0.72208783       0.84117617       0.51091772 </v>
    <v>       0.00690656       0.00282205       0.67399448 </v>
    <v>       0.75146733       0.48773251       0.82915499 </v>
    <v>       0.23865005       0.50294042       0.15290344 </v>
    <v>       0.02026173       0.68195637       0.34580824 </v>
    <v>       0.50794819       0.00262613       0.00286449 </v>
    <v>       0.74767967       0.17107539       0.50184959 </v>
    <v>       0.77104939       0.48718976       0.50215107 </v>
    <v>       0.48400105       0.66738342       0.33567759 </v>
    <v>       0.48030460       0.65681171       0.66783367 </v>
    <v>       0.47896019       0.34014670       0.33717183 </v>
    <v>       0.01122068       0.99794285       0.33041517 </v>
    <v>       0.75231045       0.18137210       0.18309948 </v>
    <v>       0.99255752       0.00266867      -0.00022194 </v>
    <v>       0.99948983       0.31271363       0.99730833 </v>
    <v>       0.01401681       0.67264909       0.66496574 </v>
    <v>       0.49871113       0.00072091       0.31474494 </v>
    <v>       0.75600316       0.50000002       0.16682107 </v>
    <v>       0.50403583       0.67417490       0.99072999 </v>
    <v>       0.75075564       0.83100842       0.82653982 </v>
    <v>       0.25157008       0.17473193       0.16889294 </v>
    <v>       0.21860705       0.48550925       0.50281135 </v>
    <v>       0.99777330       0.67512341       0.98953315 </v>
    <v>       0.49369820       0.00712026       0.68165975 </v>
    <v>       0.73467701       0.18025890       0.81931316 </v>
    <v>       0.77107781       0.81660556       0.16151113 </v>
    <v>       0.26502531       0.16984069       0.82661236 </v>
    <v>       0.25491227       0.16314805       0.50605201 </v>
    <v>       0.02094938       0.32076135       0.33366765 </v>
    <v>       0.01649905       0.32296801       0.67235325 </v>
    <v>       0.24403783       0.49094570       0.84304347 </v>
    <v>       0.28226678       0.85642770       0.50982075 </v>
    <v>       0.25166767       0.83843909       0.84076050 </v>
    <v>       0.23481145       0.82206109       0.14658993 </v>
    <v>       0.47986219       0.33928296       0.66445675 </v>
    <v>       0.49413198       0.32167584       0.99818616 </v>
   </varray>
  </structure>
  <varray name="forces" >
   <v>      -0.00134619      -0.00348052      -0.03169207 </v>
   <v>       0.01478802       0.01624755      -0.00795795 </v>
   <v>      -0.00213150      -0.02749361      -0.00697111 </v>
   <v>       0.00137368       0.04862646      -0.00224762 </v>
   <v>       0.01116732       0.00204182       0.00606904 </v>
   <v>      -0.15235835      -0.14755910      -0.17673828 </v>
   <v>       0.04030850       0.07737463      -0.03546717 </v>
   <v>      -0.06213276      -0.06420122      -0.05571424 </v>
   <v>      -0.01265696       0.00034900      -0.00115603 </v>
   <v>       0.00204939       0.01137188       0.00758098 </v>
   <v>      -0.38418324       0.23311895       0.25111314 </v>
   <v>       0.22985333      -0.21318246       0.17693245 </v>
   <v>      -0.08215488       0.19671460       0.08832731 </v>
   <v>       0.13271150      -0.16941469      -0.18792926 </v>
   <v>       0.30245431       0.10765203      -0.39092171 </v>
   <v>      -0.01805701       0.00462008       0.00077474 </v>
   <v>      -0.32488662      -0.38179412       0.11632001 </v>
   <v>      -0.04122697      -0.07012336       0.03880475 </v>
   <v>       0.00414387      -0.01270542       0.02018781 </v>
   <v>       0.01111197      -0.02062235      -0.00455769 </v>
   <v>       0.01274443      -0.04626989      -0.06523897 </v>
   <v>       0.01765825      -0.00591842      -0.02230530 </v>
   <v>      -0.00726648       0.02469755       0.01430203 </v>
   <v>      -0.02207345      -0.01160886       0.01300588 </v>
   <v>      -0.01091536       0.03508179       0.07334189 </v>
   <v>       0.03346889       0.11124916      -0.00862686 </v>
   <v>       0.01280365       0.01565857      -0.04292415 </v>
   <v>       0.01457949       0.01688808       0.04246378 </v>
   <v>       0.52890876       0.20205619       0.43707992 </v>
   <v>       0.01157957      -0.01492126      -0.02651973 </v>
   <v>       0.00255435      -0.00050421       0.03080609 </v>
   <v>       0.02230122       0.01885603      -0.01265082 </v>
   <v>      -0.00639345       0.01147486       0.01191459 </v>
   <v>      -0.02997481      -0.04154675       0.04632680 </v>
   <v>      -0.02377426      -0.00641746      -0.00881119 </v>
   <v>      -0.22502820       0.10368445      -0.28692105 </v>
  </varray>
  <varray name="stress" >
   <v>       2.93885531       0.40877080      -0.01569652 </v>
   <v>       0.40877078       0.90219198       0.01445303 </v>
   <v>      -0.01569654       0.01445294       2.22730914 </v>
  </varray>
  <energy>
   <i name="e_fr_energy">   -365.44877732 </i>
   <i name="e_wo_entrp">   -365.45710690 </i>
   <i name="e_0_energy">      0.02498874 </i>
  </energy>
  <time name="totalsc">   11.42   11.78</time>
 </calculation>
 <calculation>
  <scstep>
   <time name="dav">    0.89    0.92</time>
   <time name="total">    1.11    1.22</time>
   <energy>
    <i name="alphaZ">   1356.97665760 </i>
    <i name="ewald"> -16622.66067590 </i>
    <i name="hartreedc">  -6342.62686775 </i>
    <i name="XCdc">   -534.89929854 </i>
    <i name="pawpsdc">  31090.06903567 </i>
    <i name="pawaedc"> -29381.16917816 </i>
    <i name="eentropy">      0.02675594 </i>
    <i name="bandstr">  -2239.79302697 </i>
    <i name="atom">  22308.41681257 </i>
    <i name="e_fr_energy">   -365.65978553 </i>
    <i name="e_wo_entrp">   -365.68654147 </i>
    <i name="e_0_energy">   -365.66870417 </i>
   </energy>
  </scstep>
  <scstep>
   <time name="diag">    0.10    0.10</time>
   <time name="diis">    0.73    0.73</time>
   <time name="orth">    0.01    0.01</time>
   <time name="total">    0.91    0.93</time>
   <energy>
    <i name="e_fr_energy">   -365.58341370 </i>
    <i name="e_wo_entrp">   -365.60777910 </i>
    <i name="e_0_energy">   -365.59153550 </i>
   </energy>
  </scstep>
  <scstep>
   <time name="diag">    0.07    0.07</time>
   <time name="diis">    0.77    0.77</time>
   <time name="orth">    0.02    0.02</time>
   <time name="total">    0.95    0.96</time>
   <energy>
    <i name="e_fr_energy">   -365.51779295 </i>
    <i name="e_wo_entrp">   -365.54370845 </i>
    <i name="e_0_energy">   -365.52643145 </i>
   </energy>
  </scstep>
  <scstep>
   <time name="diag">    0.07    0.07</time>
   <time name="diis">    0.76    0.76</time>
   <time name="orth">    0.01    0.01</time>
   <time name="total">    0.90    0.93</time>
   <energy>
    <i name="e_fr_energy">   -365.49264389 </i>
    <i name="e_wo_entrp">   -365.51903198 </i>
    <i name="e_0_energy">   -365.50143992 </i>
   </energy>
  </scstep>
  <scstep>
   <time name="diag">    0.11    0.11</time>
   <time name="diis">    0.83    0.83</time>
   <time name="orth">    0.01    0.01</time>
   <time name="total">    1.02    1.03</time>
   <energy>
    <i name="e_fr_energy">   -365.48787059 </i>
    <i name="e_wo_entrp">   -365.51396315 </i>
    <i name="e_0_energy">   -365.49656811 </i>
   </energy>
  </scstep>
  <scstep>
   <time name="diag">    0.07    0.07</time>
   <time name="diis">    0.84    0.85</time>
   <time name="orth">    0.01    0.01</time>
   <time name="total">    0.99    1.01</time>
   <energy>
    <i name="e_fr_energy">   -365.48828039 </i>
    <i name="e_wo_entrp">   -365.51417570 </i>
    <i name="e_0_energy">   -365.49691216 </i>
   </energy>
  </scstep>
  <scstep>
   <time name="diag">    0.07    0.07</time>
   <time name="diis">    0.85    0.85</time>
   <time name="orth">    0.01    0.01</time>
   <time name="total">    1.00    1.02</time>
   <energy>
    <i name="e_fr_energy">   -365.48842823 </i>
    <i name="e_wo_entrp">   -365.51451918 </i>
    <i name="e_0_energy">   -365.49712522 </i>
   </energy>
  </scstep>
  <scstep>
   <time name="diag">    0.12    0.12</time>
   <time name="diis">    0.79    0.79</time>
   <time name="orth">    0.01    0.01</time>
   <time name="total">    1.06    1.08</time>
   <energy>
    <i name="e_fr_energy">   -365.48864008 </i>
    <i name="e_wo_entrp">   -365.51476229 </i>
    <i name="e_0_energy">   -365.49734749 </i>
   </energy>
  </scstep>
  <scstep>
   <time name="diag">    0.11    0.11</time>
   <time name="diis">    0.74    0.78</time>
   <time name="orth">    0.01    0.01</time>
   <time name="total">    0.94    1.01</time>
   <energy>
    <i name="e_fr_energy">   -365.48877221 </i>
    <i name="e_wo_entrp">   -365.51482016 </i>
    <i name="e_0_energy">   -365.49745486 </i>
   </energy>
  </scstep>
  <scstep>
   <time name="diag">    0.07    0.07</time>
   <time name="diis">    0.72    0.72</time>
   <time name="orth">    0.01    0.01</time>
   <time name="total">    0.87    0.89</time>
   <energy>
    <i name="e_fr_energy">   -365.48887862 </i>
    <i name="e_wo_entrp">   -365.51495587 </i>
    <i name="e_0_energy">   -365.49757104 </i>
   </energy>
  </scstep>
  <scstep>
   <time name="diag">    0.07    0.07</time>
   <time name="diis">    0.60    0.60</time>
   <time name="orth">    0.01    0.01</time>
   <time name="total">    0.74    0.76</time>
   <energy>
    <i name="e_fr_energy">   -365.48888756 </i>
    <i name="e_wo_entrp">   -365.51496054 </i>
    <i name="e_0_energy">   -365.49757855 </i>
   </energy>
  </scstep>
  <scstep>
   <time name="diag">    0.07    0.08</time>
   <time name="diis">    0.61    0.61</time>
   <time name="orth">    0.01    0.01</time>
   <time name="total">    0.75    0.77</time>
   <energy>
    <i name="alphaZ">   1356.97665760 </i>
    <i name="ewald"> -16622.66067590 </i>
    <i name="hartreedc">  -6377.26841319 </i>
    <i name="XCdc">   -533.47660325 </i>
    <i name="pawpsdc">  30689.87546984 </i>
    <i name="pawaedc"> -28981.62121178 </i>
    <i name="eentropy">      0.02607819 </i>
    <i name="bandstr">  -2205.75699984 </i>
    <i name="atom">  22308.41681257 </i>
    <i name="e_fr_energy">   -365.48888576 </i>
    <i name="e_wo_entrp">   -365.51496395 </i>
    <i name="e_0_energy">   -365.49757849 </i>
   </energy>
  </scstep>
  <structure>
   <crystal>
    <varray name="basis" >
     <v>       6.96778056       0.01136976       0.01036248 </v>
     <v>       0.01693934      10.28910861       0.00102553 </v>
     <v>       0.01576421       0.00071403      10.25042415 </v>
    </varray>
    <i name="volume">    734.87232060 </i>
    <varray name="rec_basis" >
     <v>       0.14351844      -0.00023626      -0.00022070 </v>
     <v>      -0.00015858       0.09719041      -0.00000653 </v>
     <v>      -0.00014507      -0.00000948       0.09755716 </v>
    </varray>
   </crystal>
   <varray name="positions" >
    <v>       0.72212214       0.84118349       0.51075968 </v>
    <v>       0.00698189       0.00286616       0.67395854 </v>
    <v>       0.75147737       0.48766423       0.82917811 </v>
    <v>       0.23866171       0.50308030       0.15292065 </v>
    <v>       0.02033285       0.68196184       0.34584120 </v>
    <v>       0.50709016       0.00204769       0.00217358 </v>
    <v>       0.74786168       0.17131243       0.50173290 </v>
    <v>       0.77068006       0.48696236       0.50193829 </v>
    <v>       0.48392711       0.66736355       0.33569514 </v>
    <v>       0.48035457       0.65684114       0.66784216 </v>
    <v>       0.47697953       0.34101897       0.33807642 </v>
    <v>       0.01246511       0.99712745       0.33110531 </v>
    <v>       0.75180689       0.18204608       0.18341999 </v>
    <v>       0.99334337       0.00199877      -0.00095781 </v>
    <v>       0.00110238       0.31317568       0.99585790 </v>
    <v>       0.01390530       0.67266553       0.66496976 </v>
    <v>       0.49697601      -0.00072384       0.31527948 </v>
    <v>       0.75577677       0.49978477       0.16693003 </v>
    <v>       0.50404703       0.67410753       0.99079015 </v>
    <v>       0.75081268       0.83095613       0.82654633 </v>
    <v>       0.25160732       0.17453729       0.16863128 </v>
    <v>       0.21873907       0.48543343       0.50264320 </v>
    <v>       0.99774621       0.67516835       0.98955897 </v>
    <v>       0.49358528       0.00706992       0.68171471 </v>
    <v>       0.73467470       0.18033971       0.81960978 </v>
    <v>       0.77120458       0.81702360       0.16147903 </v>
    <v>       0.26502601       0.16990942       0.82653681 </v>
    <v>       0.25498463       0.16320372       0.50612378 </v>
    <v>       0.02375263       0.32158383       0.33529856 </v>
    <v>       0.01655470       0.32293561       0.67228439 </v>
    <v>       0.24403048       0.49092879       0.84319733 </v>
    <v>       0.28232874       0.85652885       0.50969749 </v>
    <v>       0.25162986       0.83852961       0.84082182 </v>
    <v>       0.23474772       0.82198952       0.14678186 </v>
    <v>       0.47973998       0.33927824       0.66439830 </v>
    <v>       0.49292848       0.32211083       0.99715888 </v>
   </varray>
  </structure>
  <varray name="forces" >
   <v>      -0.01869099      -0.01414950       0.00357134 </v>
   <v>       0.01250988       0.02246121      -0.00213585 </v>
   <v>      -0.01182380      -0.04140957      -0.03639495 </v>
   <v>      -0.00132919       0.06182682      -0.01950113 </v>
   <v>       0.00155081       0.00401719      -0.00452072 </v>
   <v>      -0.09450971      -0.08220751      -0.10327206 </v>
   <v>       0.04614297       0.08884659      -0.03375801 </v>
   <v>      -0.02830828      -0.05186775      -0.03549600 </v>
   <v>      -0.00494012       0.01643487      -0.01490567 </v>
   <v>      -0.01523874       0.01678711       0.01893700 </v>
   <v>      -0.32197205       0.15616187       0.19782920 </v>
   <v>       0.16905465      -0.13637105       0.10359457 </v>
   <v>      -0.03753115       0.17213512       0.06748764 </v>
   <v>       0.06870350      -0.09296736      -0.11024715 </v>
   <v>       0.23523609       0.03204016      -0.28014719 </v>
   <v>      -0.00643070       0.00282729       0.00137096 </v>
   <v>      -0.24914599      -0.24415993       0.01437125 </v>
   <v>      -0.02911003      -0.07640008       0.04962615 </v>
   <v>       0.00846618       0.00527492       0.02441447 </v>
   <v>       0.01031421      -0.03169134      -0.01694710 </v>
   <v>       0.02481050      -0.01670890      -0.03264337 </v>
   <v>      -0.00308575       0.03605187       0.04831395 </v>
   <v>      -0.01181910       0.04999816       0.02994554 </v>
   <v>      -0.01843920      -0.00120388       0.00433248 </v>
   <v>      -0.03706120       0.05871185       0.03219985 </v>
   <v>       0.04950754       0.07053540      -0.00776567 </v>
   <v>       0.04228835       0.00358337      -0.08716151 </v>
   <v>       0.01352273       0.01567584       0.08923467 </v>
   <v>       0.40292976       0.08966922       0.30143408 </v>
   <v>       0.01182160      -0.02729621      -0.03973843 </v>
   <v>       0.01124887       0.01109185      -0.00572662 </v>
   <v>       0.04250288      -0.00916469       0.04516973 </v>
   <v>      -0.00307728      -0.02496942      -0.00341653 </v>
   <v>      -0.06744724      -0.08377377       0.01951129 </v>
   <v>      -0.02014024      -0.01817226       0.01186505 </v>
   <v>      -0.17050977       0.03838254      -0.22943126 </v>
  </varray>
  <varray name="stress" >
   <v>     -10.22876306      -0.05570962      -0.06263538 </v>
   <v>      -0.05570964     -11.52751062      -0.03727849 </v>
   <v>      -0.06263539      -0.03727844     -10.87640028 </v>
  </varray>
  <energy>
   <i name="e_fr_energy">   -365.48888576 </i>
   <i name="e_wo_entrp">   -365.49757849 </i>
   <i name="e_0_energy">      0.02607819 </i>
  </energy>
  <time name="totalsc">   12.87   13.34</time>
 </calculation>
 <calculation>
  <scstep>
   <time name="dav">    0.89    0.91</time>
   <time name="total">    1.08    1.19</time>
   <energy>
    <i name="alphaZ">   1359.54319257 </i>
    <i name="ewald"> -16632.25875096 </i>
    <i name="hartreedc">  -6381.92676628 </i>
    <i name="XCdc">   -532.99600626 </i>
    <i name="pawpsdc">  30689.53896860 </i>
    <i name="pawaedc"> -28981.32355166 </i>
    <i name="eentropy">      0.02499364 </i>
    <i name="bandstr">  -2194.54459145 </i>
    <i name="atom">  22308.41681257 </i>
    <i name="e_fr_energy">   -365.52569923 </i>
    <i name="e_wo_entrp">   -365.55069286 </i>
    <i name="e_0_energy">   -365.53403044 </i>
   </energy>
  </scstep>
  <scstep>
   <time name="diag">    0.07    0.07</time>
   <time name="diis">    0.77    0.77</time>
   <time name="orth">    0.01    0.01</time>
   <time name="total">    0.94    0.96</time>
   <energy>
    <i name="e_fr_energy">   -365.52883981 </i>
    <i name="e_wo_entrp">   -365.55515450 </i>
    <i name="e_0_energy">   -365.53761137 </i>
   </energy>
  </scstep>
  <scstep>
   <time name="diag">    0.07    0.07</time>
   <time name="diis">    0.74    0.74</time>
   <time name="orth">    0.01    0.01</time>
   <time name="total">    0.89    0.92</time>
   <energy>
    <i name="e_fr_energy">   -365.52338914 </i>
    <i name="e_wo_entrp">   -365.54888031 </i>
    <i name="e_0_energy">   -365.53188619 </i>
   </energy>
  </scstep>
  <scstep>
   <time name="diag">    0.07    0.07</time>
   <time name="diis">    0.75    0.76</time>
   <time name="orth">    0.01    0.01</time>
   <time name="total">    0.90    0.94</time>
   <energy>
    <i name="e_fr_energy">   -365.52246541 </i>
    <i name="e_wo_entrp">   -365.54799028 </i>
    <i name="e_0_energy">   -365.53097370 </i>
   </energy>
  </scstep>
  <scstep>
   <time name="diag">    0.07    0.07</time>
   <time name="diis">    0.75    0.76</time>
   <time name="orth">    0.01    0.01</time>
   <time name="total">    0.90    0.92</time>
   <energy>
    <i name="e_fr_energy">   -365.52228937 </i>
    <i name="e_wo_entrp">   -365.54787593 </i>
    <i name="e_0_energy">   -365.53081822 </i>
   </energy>
  </scstep>
  <scstep>
   <time name="diag">    0.07    0.07</time>
   <time name="diis">    0.77    0.77</time>
   <time name="orth">    0.01    0.01</time>
   <time name="total">    0.92    0.94</time>
   <energy>
    <i name="e_fr_energy">   -365.52231012 </i>
    <i name="e_wo_entrp">   -365.54792732 </i>
    <i name="e_0_energy">   -365.53084919 </i>
   </energy>
  </scstep>
  <scstep>
   <time name="diag">    0.11    0.11</time>
   <time name="diis">    0.66    0.66</time>
   <time name="orth">    0.01    0.01</time>
   <time name="total">    0.85    0.87</time>
   <energy>
    <i name="e_fr_energy">   -365.52233675 </i>
    <i name="e_wo_entrp">   -365.54790606 </i>
    <i name="e_0_energy">   -365.53085986 </i>
   </energy>
  </scstep>
  <scstep>
   <time name="diag">    0.07    0.07</time>
   <time name="diis">    0.58    0.58</time>
   <time name="orth">    0.01    0.01</time>
   <time name="total">    0.74    0.77</time>
   <energy>
    <i name="e_fr_energy">   -365.52235759 </i>
    <i name="e_wo_entrp">   -365.54792962 </i>
    <i name="e_0_energy">   -365.53088160 </i>
   </energy>
  </scstep>
  <scstep>
   <time name="diag">    0.07    0.07</time>
   <time name="diis">    0.56    0.56</time>
   <time name="orth">    0.01    0.01</time>
   <time name="total">    0.70    0.72</time>
   <energy>
    <i name="e_fr_energy">   -365.52237339 </i>
    <i name="e_wo_entrp">   -365.54796039 </i>
    <i name="e_0_energy">   -365.53090239 </i>
   </energy>
  </scstep>
  <scstep>
   <time name="diag">    0.07    0.07</time>
   <time name="diis">    0.39    0.39</time>
   <time name="orth">    0.01    0.01</time>
   <time name="total">    0.50    0.52</time>
   <energy>
    <i name="alphaZ">   1359.54319257 </i>
    <i name="ewald"> -16632.25875096 </i>
    <i name="hartreedc">  -6375.23243766 </i>
    <i name="XCdc">   -533.26582472 </i>
    <i name="pawpsdc">  30769.25333907 </i>
    <i name="pawaedc"> -29061.11012203 </i>
    <i name="eentropy">      0.02558006 </i>
    <i name="bandstr">  -2200.89416835 </i>
    <i name="atom">  22308.41681257 </i>
    <i name="e_fr_energy">   -365.52237945 </i>
    <i name="e_wo_entrp">   -365.54795951 </i>
    <i name="e_0_energy">   -365.53090614 </i>
   </energy>
  </scstep>
  <structure>
   <crystal>
    <varray name="basis" >
     <v>       6.96508695       0.01190273       0.01030378 </v>
     <v>       0.01773515      10.27972074       0.00101413 </v>
     <v>       0.01568084       0.00070399      10.24437965 </v>
    </varray>
    <i name="volume">    733.48503440 </i>
    <varray name="rec_basis" >
     <v>       0.14357397      -0.00024768      -0.00021975 </v>
     <v>      -0.00016623       0.09727919      -0.00000643 </v>
     <v>      -0.00014439      -0.00000938       0.09761472 </v>
    </varray>
   </crystal>
   <varray name="positions" >
    <v>       0.72210059       0.84116911       0.51071231 </v>
    <v>       0.00702840       0.00290725       0.67394422 </v>
    <v>       0.75146013       0.48759271       0.82914228 </v>
    <v>       0.23866305       0.50319953       0.15290302 </v>
    <v>       0.02035882       0.68196840       0.34584658 </v>
    <v>       0.50664451       0.00176103       0.00182473 </v>
    <v>       0.74800194       0.17149544       0.50165440 </v>
    <v>       0.77050997       0.48682642       0.50182646 </v>
    <v>       0.48389427       0.66737660       0.33568311 </v>
    <v>       0.48034405       0.65687074       0.66786755 </v>
    <v>       0.47576619       0.34149059       0.33860865 </v>
    <v>       0.01316865       0.99669825       0.33145419 </v>
    <v>       0.75157571       0.18247119       0.18360531 </v>
    <v>       0.99372139       0.00166899      -0.00132997 </v>
    <v>       0.00204273       0.31336438       0.99504917 </v>
    <v>       0.01385756       0.67267428       0.66497272 </v>
    <v>       0.49597265      -0.00148599       0.31547184 </v>
    <v>       0.75565182       0.49962364       0.16702490 </v>
    <v>       0.50406547       0.67409174       0.99083892 </v>
    <v>       0.75084956       0.83090134       0.82652823 </v>
    <v>       0.25166319       0.17445372       0.16850676 </v>
    <v>       0.21877658       0.48545147       0.50264586 </v>
    <v>       0.99771639       0.67524248       0.98960314 </v>
    <v>       0.49351602       0.00705207       0.68173788 </v>
    <v>       0.73460864       0.18043597       0.81974522 </v>
    <v>       0.77133264       0.81724405       0.16145917 </v>
    <v>       0.26510066       0.16993609       0.82640807 </v>
    <v>       0.25503171       0.16324052       0.50625365 </v>
    <v>       0.02537457       0.32195846       0.33619051 </v>
    <v>       0.01659382       0.32289255       0.67221447 </v>
    <v>       0.24404780       0.49093642       0.84324077 </v>
    <v>       0.28242346       0.85655097       0.50971099 </v>
    <v>       0.25161217       0.83852955       0.84083780 </v>
    <v>       0.23460873       0.82186670       0.14686801 </v>
    <v>       0.47966473       0.33925515       0.66439338 </v>
    <v>       0.49223644       0.32229915       0.99654970 </v>
   </varray>
  </structure>
  <varray name="forces" >
   <v>      -0.00520070      -0.02178448       0.00757058 </v>
   <v>      -0.00363816       0.02285302      -0.00442570 </v>
   <v>      -0.01502594      -0.02854090      -0.04148744 </v>
   <v>      -0.00130963       0.06819854      -0.02129800 </v>
   <v>      -0.01781415      -0.00683573      -0.00715266 </v>
   <v>      -0.05809021      -0.04709387      -0.06250644 </v>
   <v>       0.04395364       0.07625120      -0.03795699 </v>
   <v>      -0.02912212      -0.03030443      -0.03103872 </v>
   <v>       0.01177475       0.01219778      -0.02013924 </v>
   <v>      -0.00928474       0.01655229       0.01792455 </v>
   <v>      -0.25644436       0.12436736       0.16117169 </v>
   <v>       0.12649133      -0.09885928       0.07146769 </v>
   <v>      -0.02086480       0.14397669       0.05042634 </v>
   <v>       0.03033157      -0.04569243      -0.07173174 </v>
   <v>       0.19015795       0.00611112      -0.21654917 </v>
   <v>      -0.01422282      -0.00182999       0.00021976 </v>
   <v>      -0.19604610      -0.17257439      -0.03150551 </v>
   <v>      -0.02688102      -0.07414022       0.05403132 </v>
   <v>       0.02005610      -0.00393930       0.03149743 </v>
   <v>       0.00714230      -0.03201517      -0.01791055 </v>
   <v>       0.03221291      -0.02586509      -0.02531785 </v>
   <v>       0.00881541       0.08802555       0.08306995 </v>
   <v>      -0.02608560       0.03169785       0.03325436 </v>
   <v>       0.00380579       0.00103954      -0.00267746 </v>
   <v>      -0.03332637       0.04586448       0.02372012 </v>
   <v>       0.03565773       0.06583304       0.00151092 </v>
   <v>       0.03677203      -0.02061233      -0.08431272 </v>
   <v>       0.01857080       0.00184340       0.09345928 </v>
   <v>       0.30425184       0.05111341       0.22543684 </v>
   <v>      -0.00918421      -0.02242178      -0.04671438 </v>
   <v>       0.01269933       0.03452111      -0.02518607 </v>
   <v>       0.02719513      -0.04131103       0.06122802 </v>
   <v>       0.00145439      -0.04253913      -0.02439088 </v>
   <v>      -0.06242209      -0.08409165       0.02610275 </v>
   <v>       0.00284196      -0.01525090       0.01501757 </v>
   <v>      -0.12922194       0.02525570      -0.18480764 </v>
  </varray>
  <varray name="stress" >
   <v>      -7.63655931      -0.24601741      -0.04851892 </v>
   <v>      -0.24601743      -8.43057319      -0.01490650 </v>
   <v>      -0.04851887      -0.01490650      -8.08663926 </v>
  </varray>
  <energy>
   <i name="e_fr_energy">   -365.52237945 </i>
   <i name="e_wo_entrp">   -365.53090614 </i>
   <i name="e_0_energy">      0.02558006 </i>
  </energy>
  <time name="totalsc">    9.87   10.38</time>
 </calculation>
 <calculation>
  <scstep>
   <time name="dav">    0.85    0.86</time>
   <time name="total">    1.06    1.13</time>
   <energy>
    <i name="alphaZ">   1365.86419091 </i>
    <i name="ewald"> -16655.19565612 </i>
    <i name="hartreedc">  -6387.35206582 </i>
    <i name="XCdc">   -532.07623089 </i>
    <i name="pawpsdc">  30769.82193776 </i>
    <i name="pawaedc"> -29061.65136687 </i>
    <i name="eentropy">      0.02230407 </i>
    <i name="bandstr">  -2173.43312046 </i>
    <i name="atom">  22308.41681257 </i>
    <i name="e_fr_energy">   -365.58319485 </i>
    <i name="e_wo_entrp">   -365.60549892 </i>
    <i name="e_0_energy">   -365.59062954 </i>
   </energy>
  </scstep>
  <scstep>
   <time name="diag">    0.07    0.07</time>
   <time name="diis">    0.79    0.79</time>
   <time name="orth">    0.01    0.01</time>
   <time name="total">    0.94    0.96</time>
   <energy>
    <i name="e_fr_energy">   -365.60320473 </i>
    <i name="e_wo_entrp">   -365.62902847 </i>
    <i name="e_0_energy">   -365.61181264 </i>
   </energy>
  </scstep>
  <scstep>
   <time name="diag">    0.07    0.07</time>
   <time name="diis">    0.75    0.75</time>
   <time name="orth">    0.01    0.01</time>
   <time name="total">    0.89    0.91</time>
   <energy>
    <i name="e_fr_energy">   -365.56887093 </i>
    <i name="e_wo_entrp">   -365.59265324 </i>
    <i name="e_0_energy">   -365.57679837 </i>
   </energy>
  </scstep>
  <scstep>
   <time name="diag">    0.07    0.07</time>
   <time name="diis">    0.76    0.76</time>
   <time name="orth">    0.01    0.01</time>
   <time name="total">    0.91    0.93</time>
   <energy>
    <i name="e_fr_energy">   -365.56366306 </i>
    <i name="e_wo_entrp">   -365.58756456 </i>
    <i name="e_0_energy">   -365.57163023 </i>
   </energy>
  </scstep>
  <scstep>
   <time name="diag">    0.07    0.07</time>
   <time name="diis">    0.76    0.76</time>
   <time name="orth">    0.01    0.01</time>
   <time name="total">    0.91    0.93</time>
   <energy>
    <i name="e_fr_energy">   -365.56266192 </i>
    <i name="e_wo_entrp">   -365.58672104 </i>
    <i name="e_0_energy">   -365.57068163 </i>
   </energy>
  </scstep>
  <scstep>
   <time name="diag">    0.07    0.07</time>
   <time name="diis">    0.79    0.79</time>
   <time name="orth">    0.01    0.01</time>
   <time name="total">    0.93    0.95</time>
   <energy>
    <i name="e_fr_energy">   -365.56278181 </i>
    <i name="e_wo_entrp">   -365.58690630 </i>
    <i name="e_0_energy">   -365.57082331 </i>
   </energy>
  </scstep>
  <scstep>
   <time name="diag">    0.07    0.07</time>
   <time name="diis">    0.78    0.79</time>
   <time name="orth">    0.01    0.01</time>
   <time name="total">    0.93    0.95</time>
   <energy>
    <i name="e_fr_energy">   -365.56291744 </i>
    <i name="e_wo_entrp">   -365.58694388 </i>
    <i name="e_0_energy">   -365.57092626 </i>
   </energy>
  </scstep>
  <scstep>
   <time name="diag">    0.07    0.07</time>
   <time name="diis">    0.78    0.81</time>
   <time name="orth">    0.01    0.01</time>
   <time name="total">    0.93    0.97</time>
   <energy>
    <i name="e_fr_energy">   -365.56301926 </i>
    <i name="e_wo_entrp">   -365.58703844 </i>
    <i name="e_0_energy">   -365.57102565 </i>
   </energy>
  </scstep>
  <scstep>
   <time name="diag">    0.07    0.07</time>
   <time name="diis">    0.68    0.68</time>
   <time name="orth">    0.01    0.01</time>
   <time name="total">    0.82    0.84</time>
   <energy>
    <i name="e_fr_energy">   -365.56308736 </i>
    <i name="e_wo_entrp">   -365.58715028 </i>
    <i name="e_0_energy">   -365.57110833 </i>
   </energy>
  </scstep>
  <scstep>
   <time name="diag">    0.08    0.08</time>
   <time name="diis">    0.56    0.64</time>
   <time name="orth">    0.01    0.02</time>
   <time name="total">    0.72    0.85</time>
   <energy>
    <i name="e_fr_energy">   -365.56311543 </i>
    <i name="e_wo_entrp">   -365.58715434 </i>
    <i name="e_0_energy">   -365.57112840 </i>
   </energy>
  </scstep>
  <scstep>
   <time name="diag">    0.07    0.07</time>
   <time name="diis">    0.50    0.50</time>
   <time name="orth">    0.01    0.01</time>
   <time name="total">    0.61    0.63</time>
   <energy>
    <i name="alphaZ">   1365.86419091 </i>
    <i name="ewald"> -16655.19565612 </i>
    <i name="hartreedc">  -6371.35198213 </i>
    <i name="XCdc">   -532.72249602 </i>
    <i name="pawpsdc">  30980.06057476 </i>
    <i name="pawaedc"> -29271.64061388 </i>
    <i name="eentropy">      0.02404247 </i>
    <i name="bandstr">  -2189.01799767 </i>
    <i name="atom">  22308.41681257 </i>
    <i name="e_fr_energy">   -365.56312509 </i>
    <i name="e_wo_entrp">   -365.58716756 </i>
    <i name="e_0_energy">   -365.57113925 </i>
   </energy>
  </scstep>
  <structure>
   <crystal>
    <varray name="basis" >
     <v>       6.95848271       0.01320949       0.01015988 </v>
     <v>       0.01968633      10.25670345       0.00098620 </v>
     <v>       0.01547641       0.00067936      10.22955968 </v>
    </varray>
    <i name="volume">    730.09058442 </i>
    <varray name="rec_basis" >
     <v>       0.14371033      -0.00027581      -0.00021740 </v>
     <v>      -0.00018507       0.09749757      -0.00000619 </v>
     <v>      -0.00014271      -0.00000913       0.09775613 </v>
    </varray>
   </crystal>
   <varray name="positions" >
    <v>       0.72204772       0.84113382       0.51059610 </v>
    <v>       0.00714245       0.00300808       0.67390910 </v>
    <v>       0.75141787       0.48741721       0.82905439 </v>
    <v>       0.23866629       0.50349212       0.15285975 </v>
    <v>       0.02042250       0.68198449       0.34585978 </v>
    <v>       0.50555151       0.00105762       0.00096889 </v>
    <v>       0.74834589       0.17194456       0.50146181 </v>
    <v>       0.77009281       0.48649283       0.50155209 </v>
    <v>       0.48381373       0.66740861       0.33565359 </v>
    <v>       0.48031826       0.65694338       0.66792984 </v>
    <v>       0.47279002       0.34264812       0.33991432 </v>
    <v>       0.01489439       0.99564491       0.33231011 </v>
    <v>       0.75100855       0.18351447       0.18405994 </v>
    <v>       0.99464868       0.00085965      -0.00224298 </v>
    <v>       0.00434913       0.31382734       0.99306518 </v>
    <v>       0.01374045       0.67269577       0.66497998 </v>
    <v>       0.49351186      -0.00335624       0.31594373 </v>
    <v>       0.75534539       0.49922823       0.16725765 </v>
    <v>       0.50411071       0.67405299       0.99095857 </v>
    <v>       0.75094004       0.83076689       0.82648383 </v>
    <v>       0.25180024       0.17424863       0.16820129 </v>
    <v>       0.21886857       0.48549571       0.50265238 </v>
    <v>       0.99764322       0.67542442       0.98971150 </v>
    <v>       0.49334615       0.00700826       0.68179472 </v>
    <v>       0.73444661       0.18067223       0.82007747 </v>
    <v>       0.77164668       0.81778506       0.16141046 </v>
    <v>       0.26528375       0.17000152       0.82609225 </v>
    <v>       0.25514718       0.16333083       0.50657225 </v>
    <v>       0.02935272       0.32287761       0.33837873 </v>
    <v>       0.01668978       0.32278689       0.67204292 </v>
    <v>       0.24409029       0.49095514       0.84334735 </v>
    <v>       0.28265579       0.85660522       0.50974413 </v>
    <v>       0.25156879       0.83852943       0.84087700 </v>
    <v>       0.23426788       0.82156530       0.14707934 </v>
    <v>       0.47948015       0.33919850       0.66438131 </v>
    <v>       0.49053896       0.32276140       0.99505523 </v>
   </varray>
  </structure>
  <varray name="forces" >
   <v>       0.03017752      -0.03821416       0.01562904 </v>
   <v>      -0.04543981       0.02482872      -0.01002542 </v>
   <v>      -0.02233590       0.00456082      -0.05489952 </v>
   <v>      -0.00157377       0.08306736      -0.02587056 </v>
   <v>      -0.06889488      -0.03217988      -0.01575167 </v>
   <v>       0.03468033       0.03915802       0.03766399 </v>
   <v>       0.03732713       0.04359537      -0.04650146 </v>
   <v>      -0.02926245       0.02425625      -0.01967822 </v>
   <v>       0.05589857       0.00407061      -0.03407699 </v>
   <v>       0.00566959       0.01624121       0.01484197 </v>
   <v>      -0.07478639       0.04159290       0.06666392 </v>
   <v>       0.01681852      -0.00626453      -0.00622725 </v>
   <v>       0.01683818       0.06907369       0.00578592 </v>
   <v>      -0.06431096       0.06937942       0.02258030 </v>
   <v>       0.07341584      -0.05508617      -0.05697788 </v>
   <v>      -0.03267566      -0.01462068      -0.00162198 </v>
   <v>      -0.05969191       0.00832042      -0.14199031 </v>
   <v>      -0.02179954      -0.06592031       0.06445511 </v>
   <v>       0.04980846      -0.02462619       0.04983764 </v>
   <v>      -0.00100706      -0.03194936      -0.02014430 </v>
   <v>       0.04983647      -0.04842464      -0.00825229 </v>
   <v>       0.04240826       0.22811948       0.18471159 </v>
   <v>      -0.06148776      -0.01368242       0.04167287 </v>
   <v>       0.06125956       0.00806600      -0.02226403 </v>
   <v>      -0.02507053       0.01015025      -0.00122021 </v>
   <v>      -0.00085418       0.05206718       0.02613675 </v>
   <v>       0.02235608      -0.08183765      -0.07670482 </v>
   <v>       0.03514007      -0.03653869       0.10687461 </v>
   <v>       0.03471248      -0.04759769       0.02922393 </v>
   <v>      -0.06134443      -0.01043083      -0.06294296 </v>
   <v>       0.01609009       0.09646222      -0.07972840 </v>
   <v>      -0.01193658      -0.12463154       0.10635284 </v>
   <v>       0.01273062      -0.08834685      -0.07960346 </v>
   <v>      -0.05070343      -0.08392619       0.04032029 </v>
   <v>       0.06016625      -0.00918727       0.02311234 </v>
   <v>      -0.02215877      -0.00954487      -0.07138140 </v>
  </varray>
  <varray name="stress" >
   <v>      -0.69313642      -0.71018420       0.00861167 </v>
   <v>      -0.71018415      -0.20391098       0.05417526 </v>
   <v>       0.00861169       0.05417530      -0.65178442 </v>
  </varray>
  <energy>
   <i name="e_fr_energy">   -365.56312509 </i>
   <i name="e_wo_entrp">   -365.57113925 </i>
   <i name="e_0_energy">      0.02404247 </i>
  </energy>
  <time name="totalsc">   11.16   11.62</time>
 </calculation>
 <calculation>
  <scstep>
   <time name="dav">    0.90    0.91</time>
   <time name="total">    1.11    1.22</time>
   <energy>
    <i name="alphaZ">   1366.93146273 </i>
    <i name="ewald"> -16658.97052554 </i>
    <i name="hartreedc">  -6373.53292308 </i>
    <i name="XCdc">   -532.51888290 </i>
    <i name="pawpsdc">  30980.71560840 </i>
    <i name="pawaedc"> -29272.24376121 </i>
    <i name="eentropy">      0.02346824 </i>
    <i name="bandstr">  -2184.38573812 </i>
    <i name="atom">  22308.41681257 </i>
    <i name="e_fr_energy">   -365.56447890 </i>
    <i name="e_wo_entrp">   -365.58794714 </i>
    <i name="e_0_energy">   -365.57230164 </i>
   </energy>
  </scstep>
  <scstep>
   <time name="diag">    0.11    0.11</time>
   <time name="diis">    0.75    0.76</time>
   <time name="orth">    0.01    0.01</time>
   <time name="total">    1.00    1.02</time>
   <energy>
    <i name="e_fr_energy">   -365.56503575 </i>
    <i name="e_wo_entrp">   -365.58910911 </i>
    <i name="e_0_energy">   -365.57306020 </i>
   </energy>
  </scstep>
  <scstep>
   <time name="diag">    0.07    0.07</time>
   <time name="diis">    0.77    0.78</time>
   <time name="orth">    0.01    0.01</time>
   <time name="total">    0.92    0.95</time>
   <energy>
    <i name="e_fr_energy">   -365.56413225 </i>
    <i name="e_wo_entrp">   -365.58781781 </i>
    <i name="e_0_energy">   -365.57202743 </i>
   </energy>
  </scstep>
  <scstep>
   <time name="diag">    0.09    0.09</time>
   <time name="diis">    0.77    0.77</time>
   <time name="orth">    0.01    0.01</time>
   <time name="total">    0.96    1.00</time>
   <energy>
    <i name="e_fr_energy">   -365.56399204 </i>
    <i name="e_wo_entrp">   -365.58770390 </i>
    <i name="e_0_energy">   -365.57189599 </i>
   </energy>
  </scstep>
  <scstep>
   <time name="diag">    0.07    0.07</time>
   <time name="diis">    0.75    0.75</time>
   <time name="orth">    0.01    0.01</time>
   <time name="total">    0.90    0.92</time>
   <energy>
    <i name="e_fr_energy">   -365.56397402 </i>
    <i name="e_wo_entrp">   -365.58771024 </i>
    <i name="e_0_energy">   -365.57188609 </i>
   </energy>
  </scstep>
  <scstep>
   <time name="diag">    0.07    0.07</time>
   <time name="diis">    0.67    0.67</time>
   <time name="orth">    0.01    0.01</time>
   <time name="total">    0.84    0.86</time>
   <energy>
    <i name="e_fr_energy">   -365.56398389 </i>
    <i name="e_wo_entrp">   -365.58773030 </i>
    <i name="e_0_energy">   -365.57189936 </i>
   </energy>
  </scstep>
  <scstep>
   <time name="diag">    0.13    0.13</time>
   <time name="diis">    0.40    0.40</time>
   <time name="orth">    0.01    0.01</time>
   <time name="total">    0.60    0.62</time>
   <energy>
    <i name="alphaZ">   1366.93146273 </i>
    <i name="ewald"> -16658.97052554 </i>
    <i name="hartreedc">  -6370.78689121 </i>
    <i name="XCdc">   -532.63029978 </i>
    <i name="pawpsdc">  31018.06678131 </i>
[...]
       <r>    6.3345    1.0000 </r>
       <r>    6.3636    1.0000 </r>
       <r>    6.4023    1.0000 </r>
       <r>    6.4901    1.0000 </r>
       <r>    6.5076    1.0000 </r>
       <r>    6.5318    1.0000 </r>
       <r>    6.5722    1.0000 </r>
       <r>    6.6222    1.0000 </r>
       <r>    6.6428    1.0000 </r>
       <r>    6.7074    1.0000 </r>
       <r>    6.7268    1.0001 </r>
       <r>    6.7614    1.0003 </r>
       <r>    6.7977    1.0009 </r>
       <r>    6.8514    1.0040 </r>
       <r>    6.8778    1.0074 </r>
       <r>    6.9002    1.0117 </r>
       <r>    6.9539    1.0268 </r>
       <r>    6.9876    1.0348 </r>
       <r>    7.0221    1.0305 </r>
       <r>    7.0427    1.0156 </r>
       <r>    7.0858    0.9366 </r>
       <r>    7.1372    0.7389 </r>
       <r>    7.1480    0.6846 </r>
       <r>    7.1918    0.4428 </r>
       <r>    7.2659    0.0978 </r>
       <r>    7.3008    0.0114 </r>
       <r>    7.3349   -0.0273 </r>
       <r>    7.3668   -0.0354 </r>
       <r>    7.4215   -0.0231 </r>
       <r>    7.4404   -0.0175 </r>
       <r>    7.4875   -0.0070 </r>
       <r>    7.5057   -0.0046 </r>
       <r>    7.5406   -0.0018 </r>
       <r>    7.5728   -0.0007 </r>
       <r>    7.5995   -0.0003 </r>
       <r>    7.6586   -0.0000 </r>
       <r>    7.7051   -0.0000 </r>
       <r>    7.7504   -0.0000 </r>
       <r>    7.7956   -0.0000 </r>
       <r>    7.8387   -0.0000 </r>
       <r>    7.8957   -0.0000 </r>
       <r>    7.9408   -0.0000 </r>
       <r>    7.9818   -0.0000 </r>
       <r>    8.0115   -0.0000 </r>
       <r>    8.0506   -0.0000 </r>
       <r>    8.3561   -0.0000 </r>
       <r>    8.4771   -0.0000 </r>
       <r>    8.5294   -0.0000 </r>
       <r>    9.1110   -0.0000 </r>
      </set>
     </set>
    </set>
   </array>
  </eigenvalues>
  <separator name="orbital magnetization" >
   <v name="MAGDIPOLOUT">      0.00000000      0.00000000      0.00000000</v>
  </separator>
  <dos>
   <i name="efermi">      7.18159942 </i>
   <total>
    <array>
     <dimension dim="1">gridpoints</dimension>
     <dimension dim="2">spin</dimension>
     <field>energy</field>
     <field>total</field>
     <field>integrated</field>
     <set>
      <set comment="spin 1">
       <r>   -49.9043     0.0000     0.0000 </r>
       <r>   -49.6982     0.0000     0.0000 </r>
       <r>   -49.4921     0.0000     0.0000 </r>
       <r>   -49.2860     0.0000     0.0000 </r>
       <r>   -49.0799     0.0000     0.0000 </r>
       <r>   -48.8738     0.0000     0.0000 </r>
       <r>   -48.6677     0.0000     0.0000 </r>
       <r>   -48.4617    -0.0000    -0.0000 </r>
       <r>   -48.2556    -0.0000    -0.0000 </r>
       <r>   -48.0495    -0.0000    -0.0000 </r>
       <r>   -47.8434    -0.0000    -0.0000 </r>
       <r>   -47.6373    -0.0000    -0.0000 </r>
       <r>   -47.4312    -0.0530    -0.0109 </r>
       <r>   -47.2252    -0.7890    -0.1735 </r>
       <r>   -47.0191    22.1607     4.3935 </r>
       <r>   -46.8130    48.4669    14.3817 </r>
       <r>   -46.6069     8.5553    16.1449 </r>
       <r>   -46.4008    -0.6998    16.0007 </r>
       <r>   -46.1947    -0.0032    16.0000 </r>
       <r>   -45.9886    -0.0000    16.0000 </r>
       <r>   -45.7826    -0.0000    16.0000 </r>
       <r>   -45.5765     0.0000    16.0000 </r>
       <r>   -45.3704     0.0000    16.0000 </r>
       <r>   -45.1643     0.0000    16.0000 </r>
       <r>   -44.9582     0.0000    16.0000 </r>
       <r>   -44.7521     0.0000    16.0000 </r>
       <r>   -44.5460     0.0000    16.0000 </r>
       <r>   -44.3400     0.0000    16.0000 </r>
       <r>   -44.1339     0.0000    16.0000 </r>
       <r>   -43.9278     0.0000    16.0000 </r>
       <r>   -43.7217     0.0000    16.0000 </r>
       <r>   -43.5156     0.0000    16.0000 </r>
       <r>   -43.3095     0.0000    16.0000 </r>
       <r>   -43.1035     0.0000    16.0000 </r>
       <r>   -42.8974     0.0000    16.0000 </r>
       <r>   -42.6913     0.0000    16.0000 </r>
       <r>   -42.4852    -0.0000    16.0000 </r>
       <r>   -42.2791    -0.0000    16.0000 </r>
       <r>   -42.0730    -0.0000    16.0000 </r>
       <r>   -41.8669    -0.0000    16.0000 </r>
       <r>   -41.6609    -0.0001    16.0000 </r>
       <r>   -41.4548    -0.0854    15.9824 </r>
       <r>   -41.2487     0.7035    16.1273 </r>
       <r>   -41.0426     9.4000    18.0646 </r>
       <r>   -40.8365    33.3243    24.9322 </r>
       <r>   -40.6304    15.8572    28.2001 </r>
       <r>   -40.4244    -0.9568    28.0029 </r>
       <r>   -40.2183    -0.0142    28.0000 </r>
       <r>   -40.0122    -0.0000    28.0000 </r>
       <r>   -39.8061    -0.0000    28.0000 </r>
       <r>   -39.6000     0.0000    28.0000 </r>
       <r>   -39.3939     0.0000    28.0000 </r>
       <r>   -39.1878     0.0000    28.0000 </r>
       <r>   -38.9818     0.0000    28.0000 </r>
       <r>   -38.7757     0.0000    28.0000 </r>
       <r>   -38.5696     0.0000    28.0000 </r>
       <r>   -38.3635     0.0000    28.0000 </r>
       <r>   -38.1574     0.0000    28.0000 </r>
       <r>   -37.9513     0.0000    28.0000 </r>
       <r>   -37.7452     0.0000    28.0000 </r>
       <r>   -37.5392     0.0000    28.0000 </r>
       <r>   -37.3331     0.0000    28.0000 </r>
       <r>   -37.1270     0.0000    28.0000 </r>
       <r>   -36.9209     0.0000    28.0000 </r>
       <r>   -36.7148     0.0000    28.0000 </r>
       <r>   -36.5087     0.0000    28.0000 </r>
       <r>   -36.3027     0.0000    28.0000 </r>
       <r>   -36.0966     0.0000    28.0000 </r>
       <r>   -35.8905     0.0000    28.0000 </r>
       <r>   -35.6844     0.0000    28.0000 </r>
       <r>   -35.4783     0.0000    28.0000 </r>
       <r>   -35.2722     0.0000    28.0000 </r>
       <r>   -35.0661     0.0000    28.0000 </r>
       <r>   -34.8601     0.0000    28.0000 </r>
       <r>   -34.6540     0.0000    28.0000 </r>
       <r>   -34.4479     0.0000    28.0000 </r>
       <r>   -34.2418     0.0000    28.0000 </r>
       <r>   -34.0357     0.0000    28.0000 </r>
       <r>   -33.8296     0.0000    28.0000 </r>
       <r>   -33.6235     0.0000    28.0000 </r>
       <r>   -33.4175     0.0000    28.0000 </r>
       <r>   -33.2114     0.0000    28.0000 </r>
       <r>   -33.0053     0.0000    28.0000 </r>
       <r>   -32.7992     0.0000    28.0000 </r>
       <r>   -32.5931     0.0000    28.0000 </r>
       <r>   -32.3870     0.0000    28.0000 </r>
       <r>   -32.1810     0.0000    28.0000 </r>
       <r>   -31.9749     0.0000    28.0000 </r>
       <r>   -31.7688     0.0000    28.0000 </r>
       <r>   -31.5627     0.0000    28.0000 </r>
       <r>   -31.3566     0.0000    28.0000 </r>
       <r>   -31.1505     0.0000    28.0000 </r>
       <r>   -30.9444     0.0000    28.0000 </r>
       <r>   -30.7384     0.0000    28.0000 </r>
       <r>   -30.5323     0.0000    28.0000 </r>
       <r>   -30.3262     0.0000    28.0000 </r>
       <r>   -30.1201     0.0000    28.0000 </r>
       <r>   -29.9140     0.0000    28.0000 </r>
       <r>   -29.7079     0.0000    28.0000 </r>
       <r>   -29.5018     0.0000    28.0000 </r>
       <r>   -29.2958     0.0000    28.0000 </r>
       <r>   -29.0897     0.0000    28.0000 </r>
       <r>   -28.8836     0.0000    28.0000 </r>
       <r>   -28.6775     0.0000    28.0000 </r>
       <r>   -28.4714     0.0000    28.0000 </r>
       <r>   -28.2653     0.0000    28.0000 </r>
       <r>   -28.0593     0.0000    28.0000 </r>
       <r>   -27.8532     0.0000    28.0000 </r>
       <r>   -27.6471     0.0000    28.0000 </r>
       <r>   -27.4410     0.0000    28.0000 </r>
       <r>   -27.2349     0.0000    28.0000 </r>
       <r>   -27.0288     0.0000    28.0000 </r>
       <r>   -26.8227     0.0000    28.0000 </r>
       <r>   -26.6167     0.0000    28.0000 </r>
       <r>   -26.4106     0.0000    28.0000 </r>
       <r>   -26.2045     0.0000    28.0000 </r>
       <r>   -25.9984     0.0000    28.0000 </r>
       <r>   -25.7923     0.0000    28.0000 </r>
       <r>   -25.5862     0.0000    28.0000 </r>
       <r>   -25.3801     0.0000    28.0000 </r>
       <r>   -25.1741     0.0000    28.0000 </r>
       <r>   -24.9680     0.0000    28.0000 </r>
       <r>   -24.7619    -0.0000    28.0000 </r>
       <r>   -24.5558    -0.0000    28.0000 </r>
       <r>   -24.3497    -0.0000    28.0000 </r>
       <r>   -24.1436    -0.0000    28.0000 </r>
       <r>   -23.9376    -0.0012    27.9997 </r>
       <r>   -23.7315    -0.2932    27.9393 </r>
       <r>   -23.5254     2.8975    28.5364 </r>
       <r>   -23.3193    25.6876    33.8303 </r>
       <r>   -23.1132    71.7516    48.6172 </r>
       <r>   -22.9071    96.2036    68.4433 </r>
       <r>   -22.7010    30.9476    74.8211 </r>
       <r>   -22.4950     6.2207    76.1031 </r>
       <r>   -22.2889    -0.4961    76.0009 </r>
       <r>   -22.0828    -0.0043    76.0000 </r>
       <r>   -21.8767    -0.0000    76.0000 </r>
       <r>   -21.6706    -0.0000    76.0000 </r>
       <r>   -21.4645     0.0000    76.0000 </r>
       <r>   -21.2584     0.0000    76.0000 </r>
       <r>   -21.0524     0.0000    76.0000 </r>
       <r>   -20.8463     0.0000    76.0000 </r>
       <r>   -20.6402    -0.0000    76.0000 </r>
       <r>   -20.4341    -0.0000    76.0000 </r>
       <r>   -20.2280    -0.0000    76.0000 </r>
       <r>   -20.0219    -0.0000    76.0000 </r>
       <r>   -19.8159    -0.0004    75.9999 </r>
       <r>   -19.6098    -0.2114    75.9563 </r>
       <r>   -19.4037     1.5850    76.2830 </r>
       <r>   -19.1976    25.0211    81.4395 </r>
       <r>   -18.9915    72.4718    96.3748 </r>
       <r>   -18.7854    75.9400   112.0249 </r>
       <r>   -18.5793     0.2104   112.0683 </r>
       <r>   -18.3733    -0.3307   112.0001 </r>
       <r>   -18.1672    -0.0005   112.0000 </r>
       <r>   -17.9611    -0.0000   112.0000 </r>
       <r>   -17.7550    -0.0000   112.0000 </r>
       <r>   -17.5489     0.0000   112.0000 </r>
       <r>   -17.3428     0.0000   112.0000 </r>
       <r>   -17.1367     0.0000   112.0000 </r>
       <r>   -16.9307     0.0000   112.0000 </r>
       <r>   -16.7246     0.0000   112.0000 </r>
       <r>   -16.5185     0.0000   112.0000 </r>
       <r>   -16.3124     0.0000   112.0000 </r>
       <r>   -16.1063     0.0000   112.0000 </r>
       <r>   -15.9002     0.0000   112.0000 </r>
       <r>   -15.6942     0.0000   112.0000 </r>
       <r>   -15.4881     0.0000   112.0000 </r>
       <r>   -15.2820     0.0000   112.0000 </r>
       <r>   -15.0759     0.0000   112.0000 </r>
       <r>   -14.8698     0.0000   112.0000 </r>
       <r>   -14.6637     0.0000   112.0000 </r>
       <r>   -14.4576     0.0000   112.0000 </r>
       <r>   -14.2516     0.0000   112.0000 </r>
       <r>   -14.0455     0.0000   112.0000 </r>
       <r>   -13.8394     0.0000   112.0000 </r>
       <r>   -13.6333     0.0000   112.0000 </r>
       <r>   -13.4272     0.0000   112.0000 </r>
       <r>   -13.2211     0.0000   112.0000 </r>
       <r>   -13.0151     0.0000   112.0000 </r>
       <r>   -12.8090     0.0000   112.0000 </r>
       <r>   -12.6029     0.0000   112.0000 </r>
       <r>   -12.3968     0.0000   112.0000 </r>
       <r>   -12.1907     0.0000   112.0000 </r>
       <r>   -11.9846     0.0000   112.0000 </r>
       <r>   -11.7785     0.0000   112.0000 </r>
       <r>   -11.5725     0.0000   112.0000 </r>
       <r>   -11.3664     0.0000   112.0000 </r>
       <r>   -11.1603     0.0000   112.0000 </r>
       <r>   -10.9542     0.0000   112.0000 </r>
       <r>   -10.7481     0.0000   112.0000 </r>
       <r>   -10.5420     0.0000   112.0000 </r>
       <r>   -10.3359     0.0000   112.0000 </r>
       <r>   -10.1299     0.0000   112.0000 </r>
       <r>    -9.9238     0.0000   112.0000 </r>
       <r>    -9.7177     0.0000   112.0000 </r>
       <r>    -9.5116     0.0000   112.0000 </r>
       <r>    -9.3055     0.0000   112.0000 </r>
       <r>    -9.0994     0.0000   112.0000 </r>
       <r>    -8.8934     0.0000   112.0000 </r>
       <r>    -8.6873     0.0000   112.0000 </r>
       <r>    -8.4812     0.0000   112.0000 </r>
       <r>    -8.2751     0.0000   112.0000 </r>
       <r>    -8.0690     0.0000   112.0000 </r>
       <r>    -7.8629     0.0000   112.0000 </r>
       <r>    -7.6568     0.0000   112.0000 </r>
       <r>    -7.4508     0.0000   112.0000 </r>
       <r>    -7.2447     0.0000   112.0000 </r>
       <r>    -7.0386     0.0000   112.0000 </r>
       <r>    -6.8325     0.0000   112.0000 </r>
       <r>    -6.6264     0.0000   112.0000 </r>
       <r>    -6.4203     0.0000   112.0000 </r>
       <r>    -6.2142     0.0000   112.0000 </r>
       <r>    -6.0082     0.0000   112.0000 </r>
       <r>    -5.8021     0.0000   112.0000 </r>
       <r>    -5.5960     0.0000   112.0000 </r>
       <r>    -5.3899     0.0000   112.0000 </r>
       <r>    -5.1838     0.0000   112.0000 </r>
       <r>    -4.9777     0.0000   112.0000 </r>
       <r>    -4.7717     0.0000   112.0000 </r>
       <r>    -4.5656     0.0000   112.0000 </r>
       <r>    -4.3595     0.0000   112.0000 </r>
       <r>    -4.1534     0.0000   112.0000 </r>
       <r>    -3.9473     0.0000   112.0000 </r>
       <r>    -3.7412     0.0000   112.0000 </r>
       <r>    -3.5351     0.0000   112.0000 </r>
       <r>    -3.3291     0.0000   112.0000 </r>
       <r>    -3.1230     0.0000   112.0000 </r>
       <r>    -2.9169     0.0000   112.0000 </r>
       <r>    -2.7108     0.0000   112.0000 </r>
       <r>    -2.5047     0.0000   112.0000 </r>
       <r>    -2.2986     0.0000   112.0000 </r>
       <r>    -2.0925     0.0000   112.0000 </r>
       <r>    -1.8865     0.0000   112.0000 </r>
       <r>    -1.6804     0.0000   112.0000 </r>
       <r>    -1.4743     0.0000   112.0000 </r>
       <r>    -1.2682     0.0000   112.0000 </r>
       <r>    -1.0621    -0.0000   112.0000 </r>
       <r>    -0.8560    -0.0000   112.0000 </r>
       <r>    -0.6500    -0.0000   112.0000 </r>
       <r>    -0.4439    -0.0000   112.0000 </r>
       <r>    -0.2378    -0.0000   112.0000 </r>
       <r>    -0.0317    -0.0016   111.9997 </r>
       <r>     0.1744     0.0009   111.9999 </r>
       <r>     0.3805     0.3042   112.0625 </r>
       <r>     0.5866     1.2250   112.3150 </r>
       <r>     0.7926     1.7133   112.6681 </r>
       <r>     0.9987     2.0433   113.0892 </r>
       <r>     1.2048     3.4571   113.8016 </r>
       <r>     1.4109     3.4189   114.5062 </r>
       <r>     1.6170     2.4705   115.0153 </r>
       <r>     1.8231     4.4655   115.9356 </r>
       <r>     2.0292     3.9895   116.7578 </r>
       <r>     2.2352     3.5620   117.4918 </r>
       <r>     2.4413     7.4376   119.0246 </r>
       <r>     2.6474     8.5051   120.7774 </r>
       <r>     2.8535     7.2271   122.2668 </r>
       <r>     3.0596     8.3894   123.9957 </r>
       <r>     3.2657     7.9046   125.6248 </r>
       <r>     3.4717    16.6092   129.0477 </r>
       <r>     3.6778    19.8943   133.1476 </r>
       <r>     3.8839    21.4444   137.5669 </r>
       <r>     4.0900    25.5391   142.8302 </r>
       <r>     4.2961    32.7625   149.5820 </r>
       <r>     4.5022    33.4913   156.4841 </r>
       <r>     4.7083    38.0505   164.3257 </r>
       <r>     4.9143    36.5302   171.8540 </r>
       <r>     5.1204    34.0790   178.8772 </r>
       <r>     5.3265    33.9801   185.8800 </r>
       <r>     5.5326    27.7025   191.5890 </r>
       <r>     5.7387    16.8220   195.0558 </r>
       <r>     5.9448    52.6443   205.9050 </r>
       <r>     6.1509    61.4267   218.5641 </r>
       <r>     6.3569    56.8875   230.2878 </r>
       <r>     6.5630    51.7921   240.9613 </r>
       <r>     6.7691    55.4821   252.3954 </r>
       <r>     6.9752    54.5057   263.6282 </r>
       <r>     7.1813    45.4099   272.9865 </r>
       <r>     7.3874    47.3780   282.7504 </r>
       <r>     7.5934    52.9845   293.6697 </r>
       <r>     7.7995    42.9341   302.5178 </r>
       <r>     8.0056    32.9213   309.3023 </r>
       <r>     8.2117    28.5999   315.1964 </r>
       <r>     8.4178    21.4709   319.6212 </r>
       <r>     8.6239    16.7486   323.0728 </r>
       <r>     8.8300    11.1727   325.3753 </r>
       <r>     9.0360    10.8512   327.6116 </r>
       <r>     9.2421     2.0134   328.0265 </r>
       <r>     9.4482    -0.1254   328.0007 </r>
       <r>     9.6543    -0.0034   328.0000 </r>
       <r>     9.8604    -0.0000   328.0000 </r>
       <r>    10.0665    -0.0000   328.0000 </r>
       <r>    10.2726     0.0000   328.0000 </r>
       <r>    10.4786     0.0000   328.0000 </r>
       <r>    10.6847     0.0000   328.0000 </r>
       <r>    10.8908     0.0000   328.0000 </r>
       <r>    11.0969     0.0000   328.0000 </r>
       <r>    11.3030     0.0000   328.0000 </r>
       <r>    11.5091     0.0000   328.0000 </r>
       <r>    11.7151     0.0000   328.0000 </r>
       <r>    11.9212     0.0000   328.0000 </r>
      </set>
     </set>
    </array>
   </total>
  </dos>
 </calculation>
 <structure name="finalpos" >
  <crystal>
   <varray name="basis" >
    <v>       6.95987776       0.00723446       0.01702922 </v>
    <v>       0.01088580      10.25755362      -0.00257330 </v>
    <v>       0.02560129      -0.00289440      10.21968440 </v>
   </varray>
   <i name="volume">    729.59142249 </i>
   <varray name="rec_basis" >
    <v>       0.14368172      -0.00015257      -0.00035998 </v>
    <v>      -0.00010140       0.09748925       0.00002786 </v>
    <v>      -0.00023944       0.00002480       0.09785099 </v>
   </varray>
  </crystal>
  <varray name="positions" >
   <v>       0.72144642       0.84277183       0.49857491 </v>
   <v>       0.00337138       0.00047617       0.67199726 </v>
   <v>       0.75182094       0.48920585       0.83209863 </v>
   <v>       0.23648930       0.50459917       0.15046262 </v>
   <v>       0.01814377       0.67928357       0.34622504 </v>
   <v>       0.50461016       0.00113033      -0.00010090 </v>
   <v>       0.74973641       0.17221187       0.49985823 </v>
   <v>       0.76966502       0.48557059       0.50008438 </v>
   <v>       0.48238153       0.66603777       0.33463343 </v>
   <v>       0.48635015       0.65800875       0.66925982 </v>
   <v>       0.46902230       0.34443890       0.34241038 </v>
   <v>       0.02069185       0.99735671       0.33278104 </v>
   <v>       0.74897781       0.18331464       0.18176626 </v>
   <v>       0.99497103       0.00152107      -0.00344885 </v>
   <v>       0.00936258       0.31183558       0.98991067 </v>
   <v>       0.00759127       0.67292560       0.66604969 </v>
   <v>       0.48243758      -0.00206302       0.31350995 </v>
   <v>       0.75596409       0.49271013       0.16925204 </v>
   <v>       0.50792011       0.67653630       0.99692630 </v>
   <v>       0.75221885       0.82673160       0.83206437 </v>
   <v>       0.25693153       0.17605365       0.16595972 </v>
   <v>       0.22145466       0.49016299       0.50869036 </v>
   <v>       0.99165524       0.67617272       0.99195484 </v>
   <v>       0.49786760       0.00476478       0.68027281 </v>
   <v>       0.73575032       0.17929127       0.81949684 </v>
   <v>       0.77079635       0.83080818       0.16923146 </v>
   <v>       0.26655195       0.16653424       0.82158619 </v>
   <v>       0.25697829       0.16361123       0.50973016 </v>
   <v>       0.03298039       0.32417658       0.34063308 </v>
   <v>       0.01570491       0.32389380       0.67102883 </v>
   <v>       0.24609340       0.49369350       0.84108312 </v>
   <v>       0.28288986       0.85103747       0.51377315 </v>
   <v>       0.25155589       0.83530346       0.83659665 </v>
   <v>       0.22766040       0.81858787       0.14831246 </v>
   <v>       0.48203947       0.33908577       0.66547378 </v>
   <v>       0.48990221       0.32223008       0.99185528 </v>
  </varray>
 </structure>
</modeling>
