 vasp.5.4.1 05Feb16 (build Jan 29 2020 16:04:39) complex                        
  
 executed on           IFC91_ompi date 2020.06.15  05:57:27
 running on  160 total cores
 distrk:  each k-point on   20 cores,    8 groups
 distr:  one band on NCORES_PER_BAND=   5 cores,    4 groups


--------------------------------------------------------------------------------------------------------


 INCAR:
 POTCAR:    PAW_PBE Nb_sv 25May2007               
 POTCAR:    PAW_PBE Zr_sv 04Jan2005               
 POTCAR:    PAW_PBE Ta 17Jan2003                  
 POTCAR:    PAW_PBE Hf 20Jan2003                  

 ----------------------------------------------------------------------------- 
|                                                                             |
|           W    W    AA    RRRRR   N    N  II  N    N   GGGG   !!!           |
|           W    W   A  A   R    R  NN   N  II  NN   N  G    G  !!!           |
|           W    W  A    A  R    R  N N  N  II  N N  N  G       !!!           |
|           W WW W  AAAAAA  RRRRR   N  N N  II  N  N N  G  GGG   !            |
|           WW  WW  A    A  R   R   N   NN  II  N   NN  G    G                |
|           W    W  A    A  R    R  N    N  II  N    N   GGGG   !!!           |
|                                                                             |
|      For optimal performance we recommend to set                            |
|        NCORE= 4 - approx SQRT( number of cores)                             |
|      NCORE specifies how many cores store one orbital (NPAR=cpu/NCORE).     |
|      This setting can  greatly improve the performance of VASP for DFT.     |
|      The default, NPAR=number of cores might be grossly inefficient         |
|      on modern multi-core architectures or massively parallel machines.     |
|      Do your own testing !!!!                                               |
|      Unfortunately you need to use the default for GW and RPA calculations. |
|      (for HF NCORE is supported but not extensively tested yet)             |
|                                                                             |
 ----------------------------------------------------------------------------- 


 ----------------------------------------------------------------------------- 
|                                                                             |
|           W    W    AA    RRRRR   N    N  II  N    N   GGGG   !!!           |
|           W    W   A  A   R    R  NN   N  II  NN   N  G    G  !!!           |
|           W    W  A    A  R    R  N N  N  II  N N  N  G       !!!           |
|           W WW W  AAAAAA  RRRRR   N  N N  II  N  N N  G  GGG   !            |
|           WW  WW  A    A  R   R   N   NN  II  N   NN  G    G                |
|           W    W  A    A  R    R  N    N  II  N    N   GGGG   !!!           |
|                                                                             |
|      You have enabled k-point parallelism (KPAR>1).                         |
|      This developmental code was originally  written by Paul Kent at ORNL,  |
|      and carefully double checked in Vienna.                                |
|      GW as well as linear response parallelism added by Martijn Marsman     |
|      and Georg Kresse.                                                      |
|      Carefully verify results versus KPAR=1.                                |
|      Report problems to Paul Kent and Vienna.                               |
|                                                                             |
 ----------------------------------------------------------------------------- 

 POTCAR:    PAW_PBE Nb_sv 25May2007               
   VRHFIN =Nb: 4p5s4d                                                           
   LEXCH  = PE                                                                  
   EATOM  =  1555.1913 eV,  114.3033 Ry                                         
                                                                                
   TITEL  = PAW_PBE Nb_sv 25May2007                                             
   LULTRA =        F    use ultrasoft PP ?                                      
   IUNSCR =        1    unscreen: 0-lin 1-nonlin 2-no                           
   RPACOR =    1.800    partial core radius                                     
   POMASS =   92.910; ZVAL   =   13.000    mass and valenz                      
   RCORE  =    2.400    outmost cutoff radius                                   
   RWIGS  =    2.400; RWIGS  =    1.270    wigner-seitz radius (au A)           
   ENMAX  =  293.235; ENMIN  =  219.927 eV                                      
   ICORE  =        3    local potential                                         
   LCOR   =        T    correct aug charges                                     
   LPAW   =        T    paw PP                                                  
   EAUG   =  455.659                                                            
   DEXC   =    0.000                                                            
   RMAX   =    2.456    core radius for proj-oper                               
   RAUG   =    1.300    factor for augmentation sphere                          
   RDEP   =    2.451    radius for radial grids                                 
   RDEPT  =    1.956    core radius for aug-charge                              
                                                                                
   Atomic configuration                                                         
   11 entries                                                                   
     n  l   j            E        occ.                                          
     1  0  0.50    -18805.2457   2.0000                                         
     2  0  0.50     -2630.2869   2.0000                                         
     2  1  1.50     -2348.4046   6.0000                                         
     3  0  0.50      -438.8757   2.0000                                         
     3  1  1.50      -346.7588   6.0000                                         
     3  2  2.50      -196.2560  10.0000                                         
     4  0  0.50       -58.3859   2.0000                                         
     5  0  0.50        -3.9816   1.0000                                         
     4  1  1.50       -34.5141   6.0000                                         
     4  2  2.50        -3.0408   4.0000                                         
     4  3  2.50        -1.3606   0.0000                                         
   Description                                                                  
     l       E           TYP  RCUT    TYP  RCUT                                 
     0    -58.3859094     23  2.200                                             
     0     -3.9816262     23  2.200                                             
     1    -34.5140738     23  2.200                                             
     1     13.6058260     23  2.200                                             
     2     -3.0408010     23  2.200                                             
     2     -0.1283038     23  2.200                                             
     3     -1.3605826     23  2.400                                             
  local pseudopotential read in
  partial core-charges read in
  partial kinetic energy density read in
  atomic valenz-charges read in
  non local Contribution for L=           0  read in
    real space projection operators read in
  non local Contribution for L=           0  read in
    real space projection operators read in
  non local Contribution for L=           1  read in
    real space projection operators read in
  non local Contribution for L=           1  read in
    real space projection operators read in
  non local Contribution for L=           2  read in
    real space projection operators read in
  non local Contribution for L=           2  read in
    real space projection operators read in
    PAW grid and wavefunctions read in
 
   number of l-projection  operators is LMAX  =           6
   number of lm-projection operators is LMMAX =          18
 
 POTCAR:    PAW_PBE Zr_sv 04Jan2005               
   VRHFIN =Zr: 4s4p5s4d                                                         
   LEXCH  = PE                                                                  
   EATOM  =  1284.2219 eV,   94.3876 Ry                                         
                                                                                
   TITEL  = PAW_PBE Zr_sv 04Jan2005                                             
   LULTRA =        F    use ultrasoft PP ?                                      
   IUNSCR =        1    unscreen: 0-lin 1-nonlin 2-no                           
   RPACOR =    2.200    partial core radius                                     
   POMASS =   91.224; ZVAL   =   12.000    mass and valenz                      
   RCORE  =    2.500    outmost cutoff radius                                   
   RWIGS  =    3.070; RWIGS  =    1.625    wigner-seitz radius (au A)           
   ENMAX  =  229.898; ENMIN  =  172.424 eV                                      
   ICORE  =        3    local potential                                         
   LCOR   =        T    correct aug charges                                     
   LPAW   =        T    paw PP                                                  
   EAUG   =  461.257                                                            
   DEXC   =    0.000                                                            
   RMAX   =    2.561    core radius for proj-oper                               
   RAUG   =    1.300    factor for augmentation sphere                          
   RDEP   =    2.597    radius for radial grids                                 
   RDEPT  =    2.007    core radius for aug-charge                              
                                                                                
   Atomic configuration                                                         
   11 entries                                                                   
     n  l   j            E        occ.                                          
     1  0  0.50    -17820.0161   2.0000                                         
     2  0  0.50     -2467.0882   2.0000                                         
     2  1  1.50     -2199.6095   6.0000                                         
     3  0  0.50      -402.4863   2.0000                                         
     3  1  1.50      -315.3675   6.0000                                         
     3  2  2.50      -172.4472  10.0000                                         
     4  0  0.50       -52.4146   2.0000                                         
     5  0  0.50        -3.8421   1.0000                                         
     4  1  1.50       -30.5054   6.0000                                         
     4  2  2.50        -2.3341   3.0000                                         
     4  3  2.50        -1.3606   0.0000                                         
   Description                                                                  
     l       E           TYP  RCUT    TYP  RCUT                                 
     0    -52.4145962     23  2.200                                             
     0     -3.8421270     23  2.500                                             
     1    -30.5053914     23  2.200                                             
     1     20.4087390     23  2.200                                             
     2     -2.3340816     23  2.500                                             
     2     -0.6120942     23  2.500                                             
     3     -4.0817478     23  2.500                                             
  local pseudopotential read in
  partial core-charges read in
  partial kinetic energy density read in
  atomic valenz-charges read in
  non local Contribution for L=           0  read in
    real space projection operators read in
  non local Contribution for L=           0  read in
    real space projection operators read in
  non local Contribution for L=           1  read in
    real space projection operators read in
  non local Contribution for L=           1  read in
    real space projection operators read in
  non local Contribution for L=           2  read in
    real space projection operators read in
  non local Contribution for L=           2  read in
    real space projection operators read in
    PAW grid and wavefunctions read in
 
   number of l-projection  operators is LMAX  =           6
   number of lm-projection operators is LMMAX =          18
 
 POTCAR:    PAW_PBE Ta 17Jan2003                  
   VRHFIN =Ta:  6s5d                                                            
   LEXCH  = PE                                                                  
   EATOM  =   130.6506 eV,    9.6025 Ry                                         
                                                                                
   TITEL  = PAW_PBE Ta 17Jan2003                                                
   LULTRA =        F    use ultrasoft PP ?                                      
   IUNSCR =        1    unscreen: 0-lin 1-nonlin 2-no                           
   RPACOR =    2.330    partial core radius                                     
   POMASS =  180.948; ZVAL   =    5.000    mass and valenz                      
   RCORE  =    2.900    outmost cutoff radius                                   
   RWIGS  =    2.840; RWIGS  =    1.503    wigner-seitz radius (au A)           
   ENMAX  =  223.667; ENMIN  =  167.750 eV                                      
   RCLOC  =    2.205    cutoff for local pot                                    
   LCOR   =        T    correct aug charges                                     
   LPAW   =        T    paw PP                                                  
   EAUG   =  332.075                                                            
   DEXC   =    0.000                                                            
   RMAX   =    2.970    core radius for proj-oper                               
   RAUG   =    1.300    factor for augmentation sphere                          
   RDEP   =    3.060    radius for radial grids                                 
   RDEPT  =    2.354    core radius for aug-charge                              
                                                                                
   Atomic configuration                                                         
   16 entries                                                                   
     n  l   j            E        occ.                                          
     1  0  0.50    -67341.2807   2.0000                                         
     2  0  0.50    -11566.9376   2.0000                                         
     2  1  1.50    -10134.1182   6.0000                                         
     3  0  0.50     -2648.5620   2.0000                                         
     3  1  1.50     -2222.6012   6.0000                                         
     3  2  2.50     -1726.3120  10.0000                                         
     4  0  0.50      -538.6961   2.0000                                         
     4  1  1.50      -399.0129   6.0000                                         
     4  2  2.50      -220.3959  10.0000                                         
     4  3  3.50       -23.0374  14.0000                                         
     5  0  0.50       -71.2901   2.0000                                         
     5  1  1.50       -37.8225   6.0000                                         
     5  2  2.50        -2.6455   4.0000                                         
     6  0  0.50        -4.9623   1.0000                                         
     6  1  1.50        -1.3606   0.0000                                         
     5  3  2.50        -1.3606   0.0000                                         
   Description                                                                  
     l       E           TYP  RCUT    TYP  RCUT                                 
     2     -2.6455043     23  2.500                                             
     2     -0.6258895     23  2.500                                             
     0     -4.9622780     23  2.500                                             
     0      4.7531321     23  2.500                                             
     1     -1.3605826     23  2.900                                             
     1     27.2116520     23  2.900                                             
  local pseudopotential read in
  partial core-charges read in
  partial kinetic energy density read in
  atomic valenz-charges read in
  non local Contribution for L=           2  read in
    real space projection operators read in
  non local Contribution for L=           2  read in
    real space projection operators read in
  non local Contribution for L=           0  read in
    real space projection operators read in
  non local Contribution for L=           0  read in
    real space projection operators read in
  non local Contribution for L=           1  read in
    real space projection operators read in
  non local Contribution for L=           1  read in
    real space projection operators read in
    PAW grid and wavefunctions read in
 
   number of l-projection  operators is LMAX  =           6
   number of lm-projection operators is LMMAX =          18
 
 POTCAR:    PAW_PBE Hf 20Jan2003                  
   VRHFIN =Hf: 6s5d                                                             
   LEXCH  = PE                                                                  
   EATOM  =    75.9011 eV,    5.5786 Ry                                         
                                                                                
   TITEL  = PAW_PBE Hf 20Jan2003                                                
   LULTRA =        F    use ultrasoft PP ?                                      
   IUNSCR =        1    unscreen: 0-lin 1-nonlin 2-no                           
   RPACOR =    2.500    partial core radius                                     
   POMASS =  178.490; ZVAL   =    4.000    mass and valenz                      
   RCORE  =    3.000    outmost cutoff radius                                   
   RWIGS  =    3.050; RWIGS  =    1.614    wigner-seitz radius (au A)           
   ENMAX  =  220.334; ENMIN  =  165.250 eV                                      
   RCLOC  =    2.212    cutoff for local pot                                    
   LCOR   =        T    correct aug charges                                     
   LPAW   =        T    paw PP                                                  
   EAUG   =  335.116                                                            
   DEXC   =    0.000                                                            
   RMAX   =    3.077    core radius for proj-oper                               
   RAUG   =    1.300    factor for augmentation sphere                          
   RDEP   =    3.047    radius for radial grids                                 
   RDEPT  =    2.344    core radius for aug-charge                              
                                                                                
   Atomic configuration                                                         
   16 entries                                                                   
     n  l   j            E        occ.                                          
     1  0  0.50    -65259.4397   2.0000                                         
     2  0  0.50    -11157.9882   2.0000                                         
     2  1  1.50     -9795.2113   6.0000                                         
     3  0  0.50     -2541.4058   2.0000                                         
     3  1  1.50     -2134.4770   6.0000                                         
     3  2  2.50     -1653.5418  10.0000                                         
     4  0  0.50      -510.9575   2.0000                                         
     4  1  1.50      -377.5023   6.0000                                         
     4  2  2.50      -205.2085  10.0000                                         
     4  3  3.50       -15.4905  14.0000                                         
     5  0  0.50       -65.6020   2.0000                                         
     5  1  1.50       -34.2798   6.0000                                         
     5  2  2.50        -1.9877   3.0000                                         
     6  0  0.50        -4.7357   1.0000                                         
     6  1  1.50        -1.3606   0.0000                                         
     5  3  2.50        -1.3606   0.0000                                         
   Description                                                                  
     l       E           TYP  RCUT    TYP  RCUT                                 
     2     -1.9876627     23  2.500                                             
     2      0.0744703     23  2.500                                             
     0     -4.7356889     23  2.600                                             
     0      3.2364747     23  2.600                                             
     1     -1.3605826     23  3.000                                             
     1     27.2116520     23  3.000                                             
  local pseudopotential read in
  partial core-charges read in
  partial kinetic energy density read in
  atomic valenz-charges read in
  non local Contribution for L=           2  read in
    real space projection operators read in
  non local Contribution for L=           2  read in
    real space projection operators read in
  non local Contribution for L=           0  read in
    real space projection operators read in
  non local Contribution for L=           0  read in
    real space projection operators read in
  non local Contribution for L=           1  read in
    real space projection operators read in
  non local Contribution for L=           1  read in
    real space projection operators read in
    PAW grid and wavefunctions read in
 
   number of l-projection  operators is LMAX  =           6
   number of lm-projection operators is LMMAX =          18
 
 Optimization of the real space projectors (new method)

 maximal supplied QI-value         = 15.68
 optimisation between [QCUT,QGAM] = [  8.78, 17.72] = [ 21.60, 87.97] Ry 
 Optimized for a Real-space Cutoff    1.96 Angstroem

   l    n(q)    QCUT    max X(q) W(low)/X(q) W(high)/X(q)  e(spline) 
   0     10     8.783    10.201    0.29E-04    0.25E-05    0.69E-07
   0     10     8.783     8.174    0.45E-04    0.57E-05    0.14E-06
   1     10     8.783     3.488    0.76E-05    0.24E-04    0.95E-07
   1     10     8.783     4.917    0.78E-04    0.14E-03    0.46E-06
   2      9     8.783   153.744    0.22E-03    0.34E-04    0.15E-05
   2      9     8.783   126.342    0.22E-03    0.35E-04    0.15E-05
 Optimization of the real space projectors (new method)

 maximal supplied QI-value         = 15.12
 optimisation between [QCUT,QGAM] = [  8.77, 17.69] = [ 21.53, 87.61] Ry 
 Optimized for a Real-space Cutoff    1.74 Angstroem

   l    n(q)    QCUT    max X(q) W(low)/X(q) W(high)/X(q)  e(spline) 
   0      9     8.768    12.107    0.28E-04    0.53E-06    0.29E-07
   0      9     8.768     9.948    0.36E-04    0.50E-05    0.64E-07
   1      9     8.768     3.563    0.14E-04    0.16E-04    0.88E-07
   1      9     8.768     4.524    0.21E-03    0.33E-03    0.19E-06
   2      8     8.768    87.261    0.19E-03    0.25E-03    0.24E-06
   2      8     8.768    70.950    0.19E-03    0.24E-03    0.24E-06
 Optimization of the real space projectors (new method)

 maximal supplied QI-value         = 12.85
 optimisation between [QCUT,QGAM] = [  8.87, 17.73] = [ 22.01, 88.06] Ry 
 Optimized for a Real-space Cutoff    1.90 Angstroem

   l    n(q)    QCUT    max X(q) W(low)/X(q) W(high)/X(q)  e(spline) 
   2      9     8.867    62.315    0.23E-03    0.62E-04    0.11E-05
   2      9     8.867    52.185    0.23E-03    0.62E-04    0.11E-05
   0     10     8.867   103.837    0.15E-04    0.23E-04    0.98E-07
   0     10     8.867    59.728    0.12E-04    0.21E-04    0.89E-07
   1     10     8.867    13.958    0.50E-04    0.22E-04    0.14E-06
   1     10     8.867     8.441    0.36E-04    0.19E-04    0.98E-07
 Optimization of the real space projectors (new method)

 maximal supplied QI-value         = 12.47
 optimisation between [QCUT,QGAM] = [  8.86, 17.71] = [ 21.96, 87.83] Ry 
 Optimized for a Real-space Cutoff    1.90 Angstroem

   l    n(q)    QCUT    max X(q) W(low)/X(q) W(high)/X(q)  e(spline) 
   2      9     8.855    48.111    0.22E-03    0.80E-04    0.10E-05
   2      9     8.855    40.545    0.21E-03    0.76E-04    0.95E-06
   0     10     8.855   121.658    0.27E-04    0.12E-04    0.11E-06
   0     10     8.855    71.177    0.22E-04    0.11E-04    0.99E-07
   1     10     8.855    14.183    0.65E-04    0.10E-03    0.98E-07
   1     10     8.855     8.257    0.43E-04    0.73E-04    0.72E-07
  PAW_PBE Nb_sv 25May2007               :
 energy of atom  1       EATOM=-1555.1913
 kinetic energy error for atom=    0.0655 (will be added to EATOM!!)
  PAW_PBE Zr_sv 04Jan2005               :
 energy of atom  2       EATOM=-1284.2219
 kinetic energy error for atom=    0.0483 (will be added to EATOM!!)
  PAW_PBE Ta 17Jan2003                  :
 energy of atom  3       EATOM= -130.6506
 kinetic energy error for atom=    0.0121 (will be added to EATOM!!)
  PAW_PBE Hf 20Jan2003                  :
 energy of atom  4       EATOM=  -75.9011
 kinetic energy error for atom=    0.0071 (will be added to EATOM!!)
 
 
 POSCAR: generated by pypospack                  
  positions in direct lattice
  No initial velocities read in
 exchange correlation table for  LEXCH =        8
   RHO(1)=    0.500       N(1)  =     2000
   RHO(2)=  100.500       N(2)  =     4000
 


--------------------------------------------------------------------------------------------------------


 ion  position               nearest neighbor table
   1  0.006  0.994  0.332-   9 2.78   3 2.90   4 2.90  33 2.90  31 2.97  13 2.99  11 2.99  16 3.13
                            12 3.30  27 3.32
   2  0.491  0.990  0.346-   9 2.75   3 2.90  33 2.92   4 2.96  31 2.96  11 2.98  13 3.05  16 3.06
                            32 3.23  25 3.28
   3  0.744  0.830  0.187-  27 2.74  25 2.78  23 2.86   1 2.90   2 2.90  30 2.98  15 3.02  12 3.04
                            33 3.24  31 3.40
   4  0.235  0.169  0.490-  24 2.78   1 2.90  32 2.93   8 2.95   5 2.95   2 2.96  19 2.96   7 2.98
                            11 3.22  13 3.30  34 3.35
   5  0.505  0.339  0.349-  34 2.81  26 2.83  16 2.86  22 2.86   4 2.95  13 2.97  28 3.00  11 3.02
                            19 3.18
   6  0.266  0.499  0.848-  10 2.66  35 2.93  29 2.94  19 2.99   8 3.01  18 3.05  23 3.05  30 3.10
                            28 3.30  17 3.31  36 3.34
   7  0.985  0.338  0.323-  26 2.81  34 2.83  22 2.83  16 2.87   4 2.98  13 2.99  11 3.00  28 3.03
                            29 3.28
   8  0.018  0.339  0.669-  21 2.83  14 2.92   4 2.95  34 2.97  17 2.99   6 3.01  26 3.02  13 3.07
                            35 3.21  19 3.23  29 3.43
   9  0.242  0.834  0.484-   2 2.75   1 2.78  24 2.88  25 2.94  27 2.95  32 2.96  18 2.98  35 3.05
                            31 3.23  33 3.34
  10  0.481  0.335  0.989-   6 2.66  21 2.89  17 2.91  28 2.96  11 2.99  16 3.03  22 3.08  14 3.12
                            29 3.33  19 3.38  15 3.47
  11  0.261  0.168  0.176-   2 2.98   1 2.99  10 2.99   7 3.00   5 3.02  29 3.04  12 3.07  15 3.12
                             4 3.22  16 3.24  28 3.44  31 3.50  21 3.51  16 3.74
  12  0.984  0.005  0.011-  14 3.00   3 3.04  16 3.05  21 3.05  11 3.07  20 3.07  31 3.09  36 3.09
                            15 3.25   1 3.30  29 3.41  30 3.52  24 3.61  15 3.74
  13  0.762  0.164  0.502-   5 2.97   1 2.99   7 2.99  24 3.02   2 3.05  19 3.07   8 3.07  32 3.10
                            14 3.27   4 3.30  33 3.33  16 3.33  26 3.43
  14  0.764  0.171  0.820-   8 2.92  12 3.00  19 3.04  29 3.04  24 3.05  15 3.06  10 3.12  32 3.15
                            13 3.27  17 3.28  21 3.29  20 3.41  16 3.67  21 3.70
  15  0.518  0.997  0.996-  36 2.96  16 3.00   3 3.02  20 3.03  14 3.06  31 3.09  11 3.12  21 3.13
                            12 3.25  23 3.37  32 3.45  10 3.47  12 3.74
  16  0.725  0.178  0.178-   5 2.86   7 2.87  15 3.00  10 3.03  12 3.05   2 3.06  29 3.11   1 3.13
                            11 3.24  22 3.27  13 3.33  14 3.67  11 3.74
  17  0.738  0.491  0.829-  10 2.91  23 2.98   8 2.99  19 2.99  30 3.01  29 3.01  18 3.06  35 3.08
                            14 3.28   6 3.31  26 3.49  20 3.55  22 3.56
  18  0.488  0.663  0.651-   9 2.98   6 3.05  33 3.05  26 3.06  17 3.06  34 3.07  36 3.11  20 3.12
                            25 3.21  35 3.24  19 3.39  32 3.49  23 3.71  35 3.75
  19  0.481  0.332  0.659-   4 2.96  21 2.97  17 2.99   6 2.99  14 3.04  34 3.07  13 3.07  26 3.15
                             5 3.18   8 3.23  32 3.37  10 3.38  18 3.39
  20  0.765  0.838  0.813-  35 3.02  24 3.02  15 3.03  30 3.04  12 3.07  32 3.08  18 3.12  23 3.14
                            33 3.17  14 3.41  36 3.42  17 3.55  36 3.61
  21  0.235  0.171  0.833-  24 2.80   8 2.83  10 2.89  29 2.93  32 2.95  19 2.97  12 3.05  15 3.13
                            14 3.29  11 3.51  36 3.55  14 3.70
  22  0.730  0.497  0.176-  23 2.78   7 2.83  25 2.86   5 2.86  30 2.94  27 2.95  29 3.07  10 3.08
                            26 3.21  28 3.26  16 3.27  17 3.56  28 3.73
  23  0.532  0.668  0.012-  22 2.78   3 2.86  17 2.98  31 2.98  28 2.99  36 3.01   6 3.05  30 3.07
                            20 3.14  25 3.35  15 3.37  18 3.71
  24  0.043  0.005  0.661-   4 2.78  21 2.80   9 2.88  32 2.97  13 3.02  20 3.02  36 3.04  14 3.05
                            33 3.05  35 3.61  12 3.61
  25  0.514  0.670  0.339-   3 2.78  22 2.86  26 2.90   9 2.94  31 2.96  33 2.99  28 2.99  34 3.00
                            18 3.21   2 3.28  27 3.29  23 3.35
  26  0.765  0.499  0.489-   7 2.81   5 2.83  27 2.86  25 2.90   8 3.02  35 3.03  18 3.06  19 3.15
                            22 3.21  34 3.26  13 3.43  33 3.48  17 3.49  34 3.73
  27  0.985  0.670  0.326-   3 2.74  26 2.86  34 2.89  33 2.94  22 2.95   9 2.95  31 2.97  28 3.03
                            30 3.26  25 3.29   1 3.32  35 3.51
  28  0.263  0.505  0.170-  10 2.96  25 2.99  23 2.99   5 3.00  29 3.03  27 3.03   7 3.03  30 3.07
                            34 3.12  22 3.26  31 3.29   6 3.30  11 3.44  22 3.73
  29  0.004  0.338  0.004-  21 2.93   6 2.94  17 3.01  28 3.03  11 3.04  14 3.04  22 3.07  16 3.11
                             7 3.28  30 3.31  10 3.33  12 3.41   8 3.43
  30  0.971  0.661  0.008-  22 2.94   3 2.98  17 3.01  20 3.04  36 3.05  28 3.07  23 3.07  31 3.10
                             6 3.10  27 3.26  29 3.31  35 3.51  12 3.52
  31  0.257  0.827  0.169-  25 2.96   2 2.96  27 2.97   1 2.97  23 2.98  12 3.09  15 3.09  30 3.10
                             9 3.23  36 3.26  28 3.29   3 3.40  11 3.50
  32  0.468  0.003  0.661-   4 2.93  21 2.95   9 2.96  24 2.97  36 3.06  20 3.08  13 3.10  33 3.12
                            14 3.15   2 3.23  19 3.37  15 3.45  18 3.49
  33  0.765  0.839  0.503-   1 2.90   2 2.92  27 2.94  25 2.99  18 3.05  24 3.05  35 3.12  32 3.12
                            20 3.17   3 3.24  13 3.33   9 3.34  26 3.48
  34  0.231  0.496  0.474-   5 2.81   7 2.83  27 2.89  35 2.93   8 2.97  25 3.00  19 3.07  18 3.07
                            28 3.12  26 3.26   4 3.35  26 3.73
  35  0.026  0.653  0.668-  34 2.93   6 2.93  20 3.02  36 3.03  26 3.03   9 3.05  17 3.08  33 3.12
                             8 3.21  18 3.24  30 3.51  27 3.51  24 3.61  18 3.75
  36  0.252  0.825  0.851-  15 2.96  23 3.01  35 3.03  24 3.04  30 3.05  32 3.06  12 3.09  18 3.11
                            31 3.26   6 3.34  20 3.42  21 3.55  20 3.61
 
  LATTYP: Found a triclinic cell.
 ALAT       =    10.2314981709
 B/A-ratio  =     1.4121724023
 C/A-ratio  =     1.5744054668
 COS(alpha) =     0.0015047756
 COS(beta)  =     0.6399088973
 COS(gamma) =     0.7053696488
  
  Lattice vectors:
  
 A1 = (  -0.0268570610, -10.2314428280,  -0.0202774801)
 A2 = (  -0.0403354747, -10.2118387697,  10.2215410327)
 A3 = (  -6.9929721163, -10.2693689490, -10.2529524208)


Analysis of symmetry for initial positions (statically):
=====================================================================
 Subroutine PRICEL returns:
 Original cell was already a primitive cell.
 

 Routine SETGRP: Setting up the symmetry group for a 
 triclinic supercell.


 Subroutine GETGRP returns: Found  1 space group operations
 (whereof  1 operations were pure point group operations)
 out of a pool of  2 trial point group operations.


The static configuration has the point symmetry C_1 .


Analysis of symmetry for dynamics (positions and initial velocities):
=====================================================================
 Subroutine PRICEL returns:
 Original cell was already a primitive cell.
 

 Routine SETGRP: Setting up the symmetry group for a 
 triclinic supercell.


 Subroutine GETGRP returns: Found  1 space group operations
 (whereof  1 operations were pure point group operations)
 out of a pool of  2 trial point group operations.


The dynamic configuration has the point symmetry C_1 .


 Subroutine INISYM returns: Found  1 space group operations
 (whereof  1 operations are pure point group operations),
 and found     1 'primitive' translations

 
 
 KPOINTS: k-points                                

Automatic generation of k-mesh.
Space group operators:
 irot       det(A)        alpha          n_x          n_y          n_z        tau_x        tau_y        tau_z
    1     1.000000     0.000001     1.000000     0.000000     0.000000     0.000000     0.000000     0.000000
 
 Subroutine IBZKPT returns following result:
 ===========================================
 
 Found     14 irreducible k-points:
 
 Following reciprocal coordinates:
            Coordinates               Weight
  0.000000  0.000000  0.000000      1.000000
  0.333333  0.000000  0.000000      2.000000
  0.000000  0.333333 -0.000000      2.000000
  0.333333  0.333333 -0.000000      2.000000
 -0.333333  0.333333 -0.000000      2.000000
  0.000000  0.000000  0.333333      2.000000
  0.333333  0.000000  0.333333      2.000000
 -0.333333 -0.000000  0.333333      2.000000
 -0.000000  0.333333  0.333333      2.000000
  0.333333  0.333333  0.333333      2.000000
 -0.333333  0.333333  0.333333      2.000000
 -0.000000 -0.333333  0.333333      2.000000
  0.333333 -0.333333  0.333333      2.000000
 -0.333333 -0.333333  0.333333      2.000000
 
 Following cartesian coordinates:
            Coordinates               Weight
  0.000000  0.000000  0.000000      1.000000
  0.238235 -0.000626  0.000315      2.000000
 -0.000427  0.162517 -0.000312      2.000000
  0.237808  0.161891  0.000003      2.000000
 -0.238662  0.163143 -0.000626      2.000000
  0.000214 -0.000322  0.162352      2.000000
  0.238449 -0.000948  0.162667      2.000000
 -0.238022  0.000304  0.162037      2.000000
 -0.000213  0.162195  0.162040      2.000000
  0.238022  0.161569  0.162355      2.000000
 -0.238449  0.162821  0.161726      2.000000
  0.000641 -0.162840  0.162664      2.000000
  0.238876 -0.163466  0.162978      2.000000
 -0.237595 -0.162214  0.162349      2.000000
 


--------------------------------------------------------------------------------------------------------




 Dimension of arrays:
   k-points           NKPTS =     14   k-points in BZ     NKDIM =     14   number of bands    NBANDS=    192
   number of dos      NEDOS =    301   number of ions     NIONS =     36
   non local maximal  LDIM  =      6   non local SUM 2l+1 LMDIM =     18
   total plane-waves  NPLWV = 144000
   max r-space proj   IRMAX =   6265   max aug-charges    IRDMAX=  13601
   dimension x,y,z NGX =    40 NGY =   60 NGZ =   60
   dimension x,y,z NGXF=    80 NGYF=  120 NGZF=  120
   support grid    NGXF=    80 NGYF=  120 NGZF=  120
   ions per type =              10  10   7   9
 NGX,Y,Z   is equivalent  to a cutoff of   9.53,  9.75,  9.74 a.u.
 NGXF,Y,Z  is equivalent  to a cutoff of  19.06, 19.50, 19.48 a.u.


 I would recommend the setting:
   dimension x,y,z NGX =    39 NGY =   58 NGZ =   58
 SYSTEM =  automatically generated by mexm         
 POSCAR =  generated by pypospack                  

 Startparameter for this run:
   NWRITE =      2    write-flag & timer
   PREC   = accura    normal or accurate (medium, high low for compatibility)
   ISTART =      0    job   : 0-new  1-cont  2-samecut
   ICHARG =      2    charge: 1-file 2-atom 10-const
   ISPIN  =      1    spin polarized calculation?
   LNONCOLLINEAR =      F non collinear calculations
   LSORBIT =      F    spin-orbit coupling
   INIWAV =      1    electr: 0-lowe 1-rand  2-diag
   LASPH  =      F    aspherical Exc in radial PAW
   METAGGA=      F    non-selfconsistent MetaGGA calc.

 Electronic Relaxation 1
   ENCUT  =  300.0 eV  22.05 Ry    4.70 a.u.   9.86 14.45 14.46*2*pi/ulx,y,z
   ENINI  =  300.0     initial cutoff
   ENAUG  =  461.3 eV  augmentation charge cutoff
   NELM   =     70;   NELMIN=  2; NELMDL= -5     # of ELM steps 
   EDIFF  = 0.1E-04   stopping-criterion for ELM
   LREAL  =      T    real-space projection
   NLSPLINE    = F    spline interpolate recip. space projectors
   LCOMPAT=      F    compatible to vasp.4.4
   GGA_COMPAT  = T    GGA compatible to vasp.4.4-vasp.4.6
   LMAXPAW     = -100 max onsite density
   LMAXMIX     =    2 max onsite mixed and CHGCAR
   VOSKOWN=      0    Vosko Wilk Nusair interpolation
   ROPT   =   -0.00025  -0.00025  -0.00025  -0.00025
 Ionic relaxation
   EDIFFG = -.1E-01   stopping-criterion for IOM
   NSW    =    300    number of steps for IOM
   NBLOCK =      1;   KBLOCK =    300    inner block; outer block 
   IBRION =      2    ionic relax: 0-MD 1-quasi-New 2-CG
   NFREE  =      1    steps in history (QN), initial steepest desc. (CG)
   ISIF   =      3    stress and relaxation
   IWAVPR =     11    prediction:  0-non 1-charg 2-wave 3-comb
   ISYM   =      1    0-nonsym 1-usesym 2-fastsym
   LCORR  =      T    Harris-Foulkes like correction to forces

   POTIM  = 0.1500    time-step for ionic-motion
   TEIN   =    0.0    initial temperature
   TEBEG  =    0.0;   TEEND  =   0.0 temperature during run
   SMASS  =  -3.00    Nose mass-parameter (am)
   estimated Nose-frequenzy (Omega)   =  0.10E-29 period in steps =****** mass=  -0.111E-26a.u.
   SCALEE = 1.0000    scale energy and forces
   NPACO  =    256;   APACO  = 16.0  distance and # of slots for P.C.
   PSTRESS=    0.0 pullay stress

  Mass of Ions in am
   POMASS =  92.91 91.22180.95178.49
  Ionic Valenz
   ZVAL   =  13.00 12.00  5.00  4.00
  Atomic Wigner-Seitz radii
   RWIGS  =  -1.00 -1.00 -1.00 -1.00
  virtual crystal weights 
   VCA    =   1.00  1.00  1.00  1.00
   NELECT =     321.0000    total number of electrons
   NUPDOWN=      -1.0000    fix difference up-down

 DOS related values:
   EMIN   =  10.00;   EMAX   =-10.00  energy-range for DOS
   EFERMI =   0.00
   ISMEAR =     1;   SIGMA  =   0.15  broadening in eV -4-tet -1-fermi 0-gaus

 Electronic relaxation 2 (details)
   IALGO  =     68    algorithm
   LDIAG  =      T    sub-space diagonalisation (order eigenvalues)
   LSUBROT=      F    optimize rotation matrix (better conditioning)
   TURBO    =      0    0=normal 1=particle mesh
   IRESTART =      0    0=no restart 2=restart with 2 vectors
   NREBOOT  =      0    no. of reboots
   NMIN     =      0    reboot dimension
   EREF     =   0.00    reference energy to select bands
   IMIX   =      4    mixing-type and parameters
     AMIX     =   0.40;   BMIX     =  1.00
     AMIX_MAG =   1.60;   BMIX_MAG =  1.00
     AMIN     =   0.10
     WC   =   100.;   INIMIX=   1;  MIXPRE=   1;  MAXMIX= -45

 Intra band minimization:
   WEIMIN = 0.0010     energy-eigenvalue tresh-hold
   EBREAK =  0.13E-07  absolut break condition
   DEPER  =   0.30     relativ break condition  

   TIME   =   0.40     timestep for ELM

  volume/ion in A,a.u.               =      20.32       137.10
  Fermi-wavevector in a.u.,A,eV,Ry     =   1.244124  2.351053 21.059698  1.547844
  Thomas-Fermi vector in A             =   2.378404
 
 Write flags
   LWAVE  =      F    write WAVECAR
   LCHARG =      F    write CHGCAR
   LVTOT  =      F    write LOCPOT, total local potential
   LVHAR  =      F    write LOCPOT, Hartree potential only
   LELF   =      F    write electronic localiz. function (ELF)
   LORBIT =      0    0 simple, 1 ext, 2 COOP (PROOUT)


 Dipole corrections
   LMONO  =      F    monopole corrections only (constant potential shift)
   LDIPOL =      F    correct potential (dipole corrections)
   IDIPOL =      0    1-x, 2-y, 3-z, 4-all directions 
   EPSILON=  1.0000000 bulk dielectric constant

 Exchange correlation treatment:
   GGA     =    --    GGA type
   LEXCH   =     8    internal setting for exchange type
   VOSKOWN=      0    Vosko Wilk Nusair interpolation
   LHFCALC =     F    Hartree Fock is set to
   LHFONE  =     F    Hartree Fock one center treatment
   AEXX    =    0.0000 exact exchange contribution

 Linear response parameters
   LEPSILON=     F    determine dielectric tensor
   LRPA    =     F    only Hartree local field effects (RPA)
   LNABLA  =     F    use nabla operator in PAW spheres
   LVEL    =     F    velocity operator in full k-point grid
   LINTERFAST=   F  fast interpolation
   KINTER  =     0    interpolate to denser k-point grid
   CSHIFT  =0.1000    complex shift for real part using Kramers Kronig
   OMEGAMAX=  -1.0    maximum frequency
   DEG_THRESHOLD= 0.2000000E-02 threshold for treating states as degnerate
   RTIME   =    0.100 relaxation time in fs

 Orbital magnetization related:
   ORBITALMAG=     F  switch on orbital magnetization
   LCHIMAG   =     F  perturbation theory with respect to B field
   DQ        =  0.001000  dq finite difference perturbation B field



--------------------------------------------------------------------------------------------------------


 conjugate gradient relaxation of ions
 charge density and potential will be updated during run
 non-spin polarized calculation
 RMM-DIIS sequential band-by-band and
  variant of blocked Davidson during initial phase
 perform sub-space diagonalisation
    before iterative eigenvector-optimisation
 modified Broyden-mixing scheme, WC =      100.0
 initial mixing is a Kerker type mixing with AMIX =  0.4000 and BMIX =      1.0000
 Hartree-type preconditioning will be used
 using additional bands           31
 real space projection scheme for non local part
 use partial core corrections
 calculate Harris-corrections to forces 
   (improved forces if not selfconsistent)
 use gradient corrections 
 use of overlap-Matrix (Vanderbilt PP)
 Methfessel and Paxton  Order N= 1 SIGMA  =   0.15


--------------------------------------------------------------------------------------------------------


  energy-cutoff  :      300.00
  volume of cell :      731.37
      direct lattice vectors                 reciprocal lattice vectors
     6.979593469  0.018322063 -0.009143572     0.143276057 -0.000376468  0.000189274
     0.026857061 10.231442828  0.020277480    -0.000256819  0.097738971 -0.000187422
    -0.013478414  0.019604058 10.241818513     0.000128421 -0.000193847  0.097639450

  length of vectors
     6.979623507 10.231498171 10.241846144     0.143276676  0.097739488  0.097639727


 
 k-points in units of 2pi/SCALE and weight: k-points                                
   0.00000000  0.00000000  0.00000000       0.037
   0.23823513 -0.00062598  0.00031472       0.074
  -0.00042703  0.16251743 -0.00031164       0.074
   0.23780810  0.16189145  0.00000308       0.074
  -0.23866216  0.16314341 -0.00062636       0.074
   0.00021353 -0.00032232  0.16235195       0.074
   0.23844866 -0.00094830  0.16266667       0.074
  -0.23802159  0.00030366  0.16203723       0.074
  -0.00021350  0.16219511  0.16204031       0.074
   0.23802163  0.16156913  0.16235503       0.074
  -0.23844863  0.16282109  0.16172559       0.074
   0.00064057 -0.16283975  0.16266359       0.074
   0.23887569 -0.16346573  0.16297831       0.074
  -0.23759456 -0.16221377  0.16234887       0.074
 
 k-points in reciprocal lattice and weights: k-points                                
   0.00000000  0.00000000  0.00000000       0.037
   0.33333333  0.00000000  0.00000000       0.074
   0.00000000  0.33333333 -0.00000000       0.074
   0.33333333  0.33333333 -0.00000000       0.074
  -0.33333333  0.33333333 -0.00000000       0.074
   0.00000000  0.00000000  0.33333333       0.074
   0.33333333  0.00000000  0.33333333       0.074
  -0.33333333 -0.00000000  0.33333333       0.074
  -0.00000000  0.33333333  0.33333333       0.074
   0.33333333  0.33333333  0.33333333       0.074
  -0.33333333  0.33333333  0.33333333       0.074
  -0.00000000 -0.33333333  0.33333333       0.074
   0.33333333 -0.33333333  0.33333333       0.074
  -0.33333333 -0.33333333  0.33333333       0.074
 
 position of ions in fractional coordinates (direct lattice) 
   0.00559600  0.99394600  0.33244300
   0.49135000  0.98973500  0.34628200
   0.74359500  0.83033400  0.18684400
   0.23456300  0.16946700  0.49007000
   0.50500600  0.33928500  0.34902200
   0.26554800  0.49931900  0.84793700
   0.98501600  0.33807400  0.32347900
   0.01827000  0.33929200  0.66916800
   0.24214200  0.83431800  0.48423800
   0.48070500  0.33547500  0.98900000
   0.26091500  0.16826000  0.17588700
   0.98393000  0.00505100  0.01116600
   0.76165000  0.16365800  0.50164500
   0.76441800  0.17115900  0.82033500
   0.51849000  0.99714300  0.99591300
   0.72492100  0.17771600  0.17776500
   0.73823800  0.49144100  0.82908300
   0.48826500  0.66264200  0.65140100
   0.48123700  0.33171700  0.65942900
   0.76512500  0.83752500  0.81296800
   0.23525400  0.17135900  0.83335900
   0.72984100  0.49684300  0.17644700
   0.53152100  0.66787900  0.01220100
   0.04290300  0.00493200  0.66124200
   0.51395500  0.66953500  0.33901300
   0.76538500  0.49850900  0.48854100
   0.98477700  0.66953400  0.32618800
   0.26336400  0.50483300  0.17037600
   0.00386400  0.33773600  0.00376300
   0.97126400  0.66075200  0.00795500
   0.25747900  0.82658500  0.16914900
   0.46794200  0.00289900  0.66114700
   0.76457100  0.83866000  0.50310600
   0.23149500  0.49635900  0.47437300
   0.02555500  0.65270600  0.66778500
   0.25185300  0.82532400  0.85127500
 
 position of ions in cartesian coordinates  (Angst):
   0.06127147 10.17612144  3.42492442
   3.45133729 10.14220815  3.56213404
   5.20977278  8.51280194  1.92366030
   1.63510040  1.74779696  5.02049962
   3.52914451  3.48747008  3.57688227
   1.85539848  5.13024219  8.69211374
   6.87973093  3.48337383  3.31086193
   0.12761024  3.48489985  6.86021014
   1.70593329  8.55020649  4.97418154
   3.35080520  3.46058920 10.13156574
   1.82322892  1.72977117  1.80242893
   6.86741656  0.06992554  0.10546593
   5.31364136  1.69824675  5.13411142
   5.32886689  1.78129113  8.39820335
   3.63220642 10.23123534 10.21543890
   5.06203082  1.83505806  1.81761213
   5.15462506  5.05792993  8.49453267
   3.41690797  6.80149986  6.68050304
   3.35885951  3.41568826  6.75607830
   5.35179739  8.59904529  8.33625763
   1.63534712  1.77389737  8.53643530
   5.10495899  5.10025202  1.81053952
   3.72757332  6.84334355  0.13364333
   0.29066546  0.06421057  6.77202828
   3.60060935  6.86637182  3.48098672
   5.34887988  5.12406715  5.00665841
   6.88692834  6.87473660  3.34533038
   1.84943559  5.17333541  1.75278872
   0.03598903  3.45567114  0.04535307
   6.79666651  6.77839782  0.08599123
   1.81701853  8.46519072  1.74680014
   3.25721157  0.05119578  6.76712771
   5.35213763  8.60457328  5.16273535
   1.62267794  5.09200983  4.86639039
   0.18689259  6.69168364  6.85233434
   1.76852349  8.46555823  8.73303671
 


--------------------------------------------------------------------------------------------------------


 k-point  1 :   0.0000 0.0000 0.0000  plane waves:    8667
 k-point  2 :   0.3333 0.0000 0.0000  plane waves:    8639
 k-point  3 :   0.0000 0.3333-0.0000  plane waves:    8634
 k-point  4 :   0.3333 0.3333-0.0000  plane waves:    8633
 k-point  5 :  -0.3333 0.3333-0.0000  plane waves:    8629
 k-point  6 :   0.0000 0.0000 0.3333  plane waves:    8631
 k-point  7 :   0.3333 0.0000 0.3333  plane waves:    8626
 k-point  8 :  -0.3333-0.0000 0.3333  plane waves:    8629
 k-point  9 :  -0.0000 0.3333 0.3333  plane waves:    8620
 k-point 10 :   0.3333 0.3333 0.3333  plane waves:    8649
 k-point 11 :  -0.3333 0.3333 0.3333  plane waves:    8644
 k-point 12 :  -0.0000-0.3333 0.3333  plane waves:    8631
 k-point 13 :   0.3333-0.3333 0.3333  plane waves:    8641
 k-point 14 :  -0.3333-0.3333 0.3333  plane waves:    8637

 maximum and minimum number of plane-waves per node :      1748     1706

 maximum number of plane-waves:      8667
 maximum index in each direction: 
   IXMAX=   10   IYMAX=   14   IZMAX=   14
   IXMIN=  -10   IYMIN=  -14   IZMIN=  -14

 WARNING: aliasing errors must be expected set NGX to  42 to avoid them
 NGY is ok and might be reduce to  58
 NGZ is ok and might be reduce to  58
 aliasing errors are usually negligible using standard VASP settings
 and one can safely disregard these warnings

 real space projection operators:
  total allocation   :      26855.58 KBytes
  max/ min on nodes  :       5421.23       5320.41


 parallel 3D FFT for wavefunctions:
    minimum data exchange during FFTs selected (reduces bandwidth)
 parallel 3D FFT for charge:
    minimum data exchange during FFTs selected (reduces bandwidth)


 total amount of memory used by VASP on root node    69008. kBytes
========================================================================

   base      :      30000. kBytes
   nonlr-proj:      10368. kBytes
   fftplans  :       2814. kBytes
   grid      :       5360. kBytes
   one-center:        124. kBytes
   wavefun   :      20342. kBytes
 
     INWAV:  cpu time    0.0000: real time    0.0000
 Broyden mixing: mesh for mixing (old mesh)
   NGX = 19   NGY = 29   NGZ = 29
  (NGX  = 80   NGY  =120   NGZ  =120)
  gives a total of  15979 points

 initial charge density was supplied:
 charge density of overlapping atoms calculated
 number of electron     321.0000000 magnetization 
 keeping initial charge density in first step


--------------------------------------------------------------------------------------------------------


 Maximum index for non-local projection operator         1220
 Maximum index for augmentation-charges          676 (set IRDMAX)


--------------------------------------------------------------------------------------------------------


 First call to EWALD:  gamma=   0.197
 Maximum number of real-space cells 3x 2x 2
 Maximum number of reciprocal cells 2x 3x 3

 FEWALD executed in parallel
    FEWALD:  cpu time    0.0323: real time    0.0324


----------------------------------------- Iteration    1(   1)  ---------------------------------------


    POTLOK:  cpu time    0.0469: real time    0.0471
    SETDIJ:  cpu time    0.0059: real time    0.0060
     EDDAV:  cpu time    1.1405: real time    1.1691
       DOS:  cpu time    0.0023: real time    0.0023
    --------------------------------------------
      LOOP:  cpu time    1.2011: real time    1.5930

 eigenvalue-minimisations  :  5800
 total energy-change (2. order) : 0.2248992E+04  (-0.1234260E+05)
 number of electron     321.0000000 magnetization 
 augmentation part      321.0000000 magnetization 

 Free energy of the ion-electron system (eV)
  ---------------------------------------------------
  alpha Z        PSCENC =      1655.97343475
  Ewald energy   TEWEN  =    -22319.53605448
  -Hartree energ DENC   =     -8342.29516400
  -exchange      EXHF   =         0.00000000
  -V(xc)+E(xc)   XCENC  =       123.25864769
  PAW double counting   =     24815.49741299   -23389.33410035
  entropy T*S    EENTRO =         0.00892855
  eigenvalues    EBANDS =      -285.09077699
  atomic energy  EATOM  =     29990.50946633
  Solvation  Ediel_sol  =         0.00000000
  ---------------------------------------------------
  free energy    TOTEN  =      2248.99179448 eV

  energy without entropy =     2248.98286593  energy(sigma->0) =     2248.98881830


--------------------------------------------------------------------------------------------------------




----------------------------------------- Iteration    1(   2)  ---------------------------------------


     EDDAV:  cpu time    1.1223: real time    1.2236
       DOS:  cpu time    0.0009: real time    0.0010
    --------------------------------------------
      LOOP:  cpu time    1.1238: real time    1.4132

 eigenvalue-minimisations  :  6072
 total energy-change (2. order) :-0.2295051E+04  (-0.2221071E+04)
 number of electron     321.0000000 magnetization 
 augmentation part      321.0000000 magnetization 

 Free energy of the ion-electron system (eV)
  ---------------------------------------------------
  alpha Z        PSCENC =      1655.97343475
  Ewald energy   TEWEN  =    -22319.53605448
  -Hartree energ DENC   =     -8342.29516400
  -exchange      EXHF   =         0.00000000
  -V(xc)+E(xc)   XCENC  =       123.25864769
  PAW double counting   =     24815.49741299   -23389.33410035
  entropy T*S    EENTRO =        -0.00477715
  eigenvalues    EBANDS =     -2580.12774266
  atomic energy  EATOM  =     29990.50946633
  Solvation  Ediel_sol  =         0.00000000
  ---------------------------------------------------
  free energy    TOTEN  =       -46.05887688 eV

  energy without entropy =      -46.05409974  energy(sigma->0) =      -46.05728450


--------------------------------------------------------------------------------------------------------




----------------------------------------- Iteration    1(   3)  ---------------------------------------


     EDDAV:  cpu time    1.5490: real time    1.5590
       DOS:  cpu time    0.0010: real time    0.0010
    --------------------------------------------
      LOOP:  cpu time    1.5504: real time    1.5947

 eigenvalue-minimisations  :  9032
 total energy-change (2. order) :-0.2864770E+03  (-0.2721054E+03)
 number of electron     321.0000000 magnetization 
 augmentation part      321.0000000 magnetization 

 Free energy of the ion-electron system (eV)
  ---------------------------------------------------
  alpha Z        PSCENC =      1655.97343475
  Ewald energy   TEWEN  =    -22319.53605448
  -Hartree energ DENC   =     -8342.29516400
  -exchange      EXHF   =         0.00000000
  -V(xc)+E(xc)   XCENC  =       123.25864769
  PAW double counting   =     24815.49741299   -23389.33410035
  entropy T*S    EENTRO =        -0.00267085
  eigenvalues    EBANDS =     -2866.60680580
  atomic energy  EATOM  =     29990.50946633
  Solvation  Ediel_sol  =         0.00000000
  ---------------------------------------------------
  free energy    TOTEN  =      -332.53583373 eV

  energy without entropy =     -332.53316287  energy(sigma->0) =     -332.53494344


--------------------------------------------------------------------------------------------------------




----------------------------------------- Iteration    1(   4)  ---------------------------------------


     EDDAV:  cpu time    1.6022: real time    1.6177
       DOS:  cpu time    0.0159: real time    0.0160
    --------------------------------------------
      LOOP:  cpu time    1.6185: real time    1.6705

 eigenvalue-minimisations  :  9024
 total energy-change (2. order) :-0.3475283E+02  (-0.3316205E+02)
 number of electron     321.0000000 magnetization 
 augmentation part      321.0000000 magnetization 

 Free energy of the ion-electron system (eV)
  ---------------------------------------------------
  alpha Z        PSCENC =      1655.97343475
  Ewald energy   TEWEN  =    -22319.53605448
  -Hartree energ DENC   =     -8342.29516400
  -exchange      EXHF   =         0.00000000
  -V(xc)+E(xc)   XCENC  =       123.25864769
  PAW double counting   =     24815.49741299   -23389.33410035
  entropy T*S    EENTRO =        -0.00101446
  eigenvalues    EBANDS =     -2901.36128813
  atomic energy  EATOM  =     29990.50946633
  Solvation  Ediel_sol  =         0.00000000
  ---------------------------------------------------
  free energy    TOTEN  =      -367.28865966 eV

  energy without entropy =     -367.28764520  energy(sigma->0) =     -367.28832151


--------------------------------------------------------------------------------------------------------




----------------------------------------- Iteration    1(   5)  ---------------------------------------


     EDDAV:  cpu time    1.4536: real time    1.4638
       DOS:  cpu time    0.0008: real time    0.0008
    CHARGE:  cpu time    0.0335: real time    0.0337
    MIXING:  cpu time    0.0014: real time    0.0014
    --------------------------------------------
      LOOP:  cpu time    1.4897: real time    1.5368

 eigenvalue-minimisations  :  8664
 total energy-change (2. order) :-0.3539419E+01  (-0.3462743E+01)
 number of electron     320.9999987 magnetization 
 augmentation part       18.0429937 magnetization 

 Broyden mixing:
  rms(total) = 0.62584E+01    rms(broyden)= 0.62579E+01
  rms(prec ) = 0.65272E+01
  weight for this iteration     100.00

 Free energy of the ion-electron system (eV)
  ---------------------------------------------------
  alpha Z        PSCENC =      1655.97343475
  Ewald energy   TEWEN  =    -22319.53605448
  -Hartree energ DENC   =     -8342.29516400
  -exchange      EXHF   =         0.00000000
  -V(xc)+E(xc)   XCENC  =       123.25864769
  PAW double counting   =     24815.49741299   -23389.33410035
  entropy T*S    EENTRO =        -0.00118524
  eigenvalues    EBANDS =     -2904.90053586
  atomic energy  EATOM  =     29990.50946633
  Solvation  Ediel_sol  =         0.00000000
  ---------------------------------------------------
  free energy    TOTEN  =      -370.82807818 eV

  energy without entropy =     -370.82689294  energy(sigma->0) =     -370.82768310


--------------------------------------------------------------------------------------------------------




----------------------------------------- Iteration    1(   6)  ---------------------------------------


    POTLOK:  cpu time    0.0299: real time    0.0300
    SETDIJ:  cpu time    0.0035: real time    0.0035
    EDDIAG:  cpu time    0.0840: real time    0.0844
  RMM-DIIS:  cpu time    0.6990: real time    0.8453
    ORTHCH:  cpu time    0.0143: real time    0.0144
       DOS:  cpu time    0.0160: real time    0.0161
    CHARGE:  cpu time    0.0321: real time    0.0322
    MIXING:  cpu time    0.0017: real time    0.0109
    --------------------------------------------
      LOOP:  cpu time    0.8812: real time    1.0770

 eigenvalue-minimisations  :  7379
 total energy-change (2. order) : 0.1033716E+02  (-0.2310364E+01)
 number of electron     320.9999986 magnetization 
 augmentation part       18.7937704 magnetization 

 Broyden mixing:
  rms(total) = 0.29291E+01    rms(broyden)= 0.29290E+01
  rms(prec ) = 0.31995E+01
  weight for this iteration     100.00

 eigenvalues of (default mixing * dielectric matrix)
  average eigenvalue GAMMA=   1.7970
  1.7970

 Free energy of the ion-electron system (eV)
  ---------------------------------------------------
  alpha Z        PSCENC =      1655.97343475
  Ewald energy   TEWEN  =    -22319.53605448
  -Hartree energ DENC   =     -8132.26905374
  -exchange      EXHF   =         0.00000000
  -V(xc)+E(xc)   XCENC  =       116.77597771
  PAW double counting   =     30445.53428237   -29026.92368175
  entropy T*S    EENTRO =         0.01186037
  eigenvalues    EBANDS =     -3090.56715451
  atomic energy  EATOM  =     29990.50946633
  Solvation  Ediel_sol  =         0.00000000
  ---------------------------------------------------
  free energy    TOTEN  =      -360.49092293 eV

  energy without entropy =     -360.50278331  energy(sigma->0) =     -360.49487639


--------------------------------------------------------------------------------------------------------




----------------------------------------- Iteration    1(   7)  ---------------------------------------


    POTLOK:  cpu time    0.0286: real time    0.0287
    SETDIJ:  cpu time    0.0035: real time    0.0035
    EDDIAG:  cpu time    0.0863: real time    0.0885
  RMM-DIIS:  cpu time    0.8265: real time    0.8302
    ORTHCH:  cpu time    0.0139: real time    0.0140
       DOS:  cpu time    0.0011: real time    0.0012
    CHARGE:  cpu time    0.0312: real time    0.0313
    MIXING:  cpu time    0.0014: real time    0.0014
    --------------------------------------------
      LOOP:  cpu time    0.9931: real time    1.0394

 eigenvalue-minimisations  :  7844
 total energy-change (2. order) :-0.1071473E+01  (-0.2367741E+01)
 number of electron     320.9999986 magnetization 
 augmentation part       19.1979536 magnetization 

 Broyden mixing:
  rms(total) = 0.10615E+01    rms(broyden)= 0.10612E+01
  rms(prec ) = 0.29520E+01
  weight for this iteration     100.00

 eigenvalues of (default mixing * dielectric matrix)
  average eigenvalue GAMMA=   1.1647
  1.7955  0.5338

 Free energy of the ion-electron system (eV)
  ---------------------------------------------------
  alpha Z        PSCENC =      1655.97343475
  Ewald energy   TEWEN  =    -22319.53605448
  -Hartree energ DENC   =     -8066.46255512
  -exchange      EXHF   =         0.00000000
  -V(xc)+E(xc)   XCENC  =       116.38814237
  PAW double counting   =     35752.62565794   -34323.87303406
  entropy T*S    EENTRO =         0.00256461
  eigenvalues    EBANDS =     -3167.19001846
  atomic energy  EATOM  =     29990.50946633
  Solvation  Ediel_sol  =         0.00000000
  ---------------------------------------------------
  free energy    TOTEN  =      -361.56239613 eV

  energy without entropy =     -361.56496074  energy(sigma->0) =     -361.56325100


--------------------------------------------------------------------------------------------------------




----------------------------------------- Iteration    1(   8)  ---------------------------------------


    POTLOK:  cpu time    0.0284: real time    0.0285
    SETDIJ:  cpu time    0.0035: real time    0.0035
    EDDIAG:  cpu time    0.0845: real time    0.0867
  RMM-DIIS:  cpu time    0.8136: real time    0.8167
    ORTHCH:  cpu time    0.0157: real time    0.0158
       DOS:  cpu time    0.0009: real time    0.0010
    CHARGE:  cpu time    0.0328: real time    0.0328
    MIXING:  cpu time    0.0016: real time    0.0016
    --------------------------------------------
      LOOP:  cpu time    0.9816: real time    1.0254

 eigenvalue-minimisations  :  7980
 total energy-change (2. order) : 0.4948227E+01  (-0.5057140E+00)
 number of electron     320.9999986 magnetization 
 augmentation part       18.9579522 magnetization 

 Broyden mixing:
  rms(total) = 0.41673E+00    rms(broyden)= 0.41632E+00
  rms(prec ) = 0.63046E+00
  weight for this iteration     100.00

 eigenvalues of (default mixing * dielectric matrix)
  average eigenvalue GAMMA=   1.2164
  1.7856  1.4539  0.4098

 Free energy of the ion-electron system (eV)
  ---------------------------------------------------
  alpha Z        PSCENC =      1655.97343475
  Ewald energy   TEWEN  =    -22319.53605448
  -Hartree energ DENC   =     -8038.33031998
  -exchange      EXHF   =         0.00000000
  -V(xc)+E(xc)   XCENC  =       116.08272655
  PAW double counting   =     36569.21589404   -35137.98914214
  entropy T*S    EENTRO =         0.01350953
  eigenvalues    EBANDS =     -3192.55368422
  atomic energy  EATOM  =     29990.50946633
  Solvation  Ediel_sol  =         0.00000000
  ---------------------------------------------------
  free energy    TOTEN  =      -356.61416962 eV

  energy without entropy =     -356.62767914  energy(sigma->0) =     -356.61867279


--------------------------------------------------------------------------------------------------------




----------------------------------------- Iteration    1(   9)  ---------------------------------------


    POTLOK:  cpu time    0.0313: real time    0.0336
    SETDIJ:  cpu time    0.0035: real time    0.0035
    EDDIAG:  cpu time    0.1039: real time    0.1045
  RMM-DIIS:  cpu time    0.8824: real time    0.8885
    ORTHCH:  cpu time    0.0143: real time    0.0144
       DOS:  cpu time    0.0184: real time    0.0184
    CHARGE:  cpu time    0.0680: real time    0.0682
    MIXING:  cpu time    0.0014: real time    0.0014
    --------------------------------------------
      LOOP:  cpu time    1.1239: real time    1.1772

 eigenvalue-minimisations  :  8025
 total energy-change (2. order) : 0.4794561E-01  (-0.1876376E+00)
 number of electron     320.9999986 magnetization 
 augmentation part       18.7959172 magnetization 

 Broyden mixing:
  rms(total) = 0.31568E+00    rms(broyden)= 0.31560E+00
  rms(prec ) = 0.49522E+00
  weight for this iteration     100.00

 eigenvalues of (default mixing * dielectric matrix)
  average eigenvalue GAMMA=   1.1568
  1.8921  1.8921  0.4214  0.4214

 Free energy of the ion-electron system (eV)
  ---------------------------------------------------
  alpha Z        PSCENC =      1655.97343475
  Ewald energy   TEWEN  =    -22319.53605448
  -Hartree energ DENC   =     -8033.12204383
  -exchange      EXHF   =         0.00000000
  -V(xc)+E(xc)   XCENC  =       116.45867889
  PAW double counting   =     36756.97226364   -35320.52442285
  entropy T*S    EENTRO =         0.01558600
  eigenvalues    EBANDS =     -3203.31313246
  atomic energy  EATOM  =     29990.50946633
  Solvation  Ediel_sol  =         0.00000000
  ---------------------------------------------------
  free energy    TOTEN  =      -356.56622401 eV

  energy without entropy =     -356.58181001  energy(sigma->0) =     -356.57141934


--------------------------------------------------------------------------------------------------------




----------------------------------------- Iteration    1(  10)  ---------------------------------------


    POTLOK:  cpu time    0.0329: real time    0.1134
    SETDIJ:  cpu time    0.0037: real time    0.0101
    EDDIAG:  cpu time    0.0870: real time    0.1035
  RMM-DIIS:  cpu time    0.7608: real time    0.8413
    ORTHCH:  cpu time    0.0144: real time    0.0144
       DOS:  cpu time    0.0009: real time    0.0009
    CHARGE:  cpu time    0.0313: real time    0.0314
    MIXING:  cpu time    0.0015: real time    0.0015
    --------------------------------------------
      LOOP:  cpu time    0.9337: real time    1.1957

 eigenvalue-minimisations  :  7940
 total energy-change (2. order) : 0.7631142E-01  (-0.4561268E-01)
 number of electron     320.9999986 magnetization 
 augmentation part       18.6707312 magnetization 

 Broyden mixing:
  rms(total) = 0.13903E+00    rms(broyden)= 0.13893E+00
  rms(prec ) = 0.26194E+00
  weight for this iteration     100.00

 eigenvalues of (default mixing * dielectric matrix)
  average eigenvalue GAMMA=   1.1128
  2.0862  1.8349  0.8217  0.4406  0.3807

 Free energy of the ion-electron system (eV)
  ---------------------------------------------------
  alpha Z        PSCENC =      1655.97343475
  Ewald energy   TEWEN  =    -22319.53605448
  -Hartree energ DENC   =     -8056.59784616
  -exchange      EXHF   =         0.00000000
  -V(xc)+E(xc)   XCENC  =       117.78209960
  PAW double counting   =     36995.36568563   -35549.55519252
  entropy T*S    EENTRO =         0.01565899
  eigenvalues    EBANDS =     -3190.44716472
  atomic energy  EATOM  =     29990.50946633
  Solvation  Ediel_sol  =         0.00000000
  ---------------------------------------------------
  free energy    TOTEN  =      -356.48991259 eV

  energy without entropy =     -356.50557158  energy(sigma->0) =     -356.49513225


--------------------------------------------------------------------------------------------------------




----------------------------------------- Iteration    1(  11)  ---------------------------------------


    POTLOK:  cpu time    0.0287: real time    0.0289
    SETDIJ:  cpu time    0.0035: real time    0.0035
    EDDIAG:  cpu time    0.0821: real time    0.0826
  RMM-DIIS:  cpu time    0.8954: real time    0.9022
    ORTHCH:  cpu time    0.0139: real time    0.0139
       DOS:  cpu time    0.0010: real time    0.0010
    CHARGE:  cpu time    0.0312: real time    0.0313
    MIXING:  cpu time    0.0014: real time    0.0014
    --------------------------------------------
      LOOP:  cpu time    1.0578: real time    1.1092

 eigenvalue-minimisations  :  8064
 total energy-change (2. order) : 0.2780131E-01  (-0.1639367E-01)
 number of electron     320.9999986 magnetization 
 augmentation part       18.6370083 magnetization 

 Broyden mixing:
  rms(total) = 0.71008E-01    rms(broyden)= 0.70954E-01
  rms(prec ) = 0.14625E+00
  weight for this iteration     100.00

 eigenvalues of (default mixing * dielectric matrix)
  average eigenvalue GAMMA=   1.0708
  2.2151  1.7789  1.1660  0.4877  0.4121  0.3651

 Free energy of the ion-electron system (eV)
  ---------------------------------------------------
  alpha Z        PSCENC =      1655.97343475
  Ewald energy   TEWEN  =    -22319.53605448
  -Hartree energ DENC   =     -8060.92960475
  -exchange      EXHF   =         0.00000000
  -V(xc)+E(xc)   XCENC  =       118.21748475
  PAW double counting   =     37159.78165831   -35709.66451305
  entropy T*S    EENTRO =         0.01398361
  eigenvalues    EBANDS =     -3190.82796675
  atomic energy  EATOM  =     29990.50946633
  Solvation  Ediel_sol  =         0.00000000
  ---------------------------------------------------
  free energy    TOTEN  =      -356.46211128 eV

  energy without entropy =     -356.47609489  energy(sigma->0) =     -356.46677248


--------------------------------------------------------------------------------------------------------




----------------------------------------- Iteration    1(  12)  ---------------------------------------


    POTLOK:  cpu time    0.0285: real time    0.0286
    SETDIJ:  cpu time    0.0035: real time    0.0035
    EDDIAG:  cpu time    0.0826: real time    0.0833
  RMM-DIIS:  cpu time    0.8019: real time    0.8201
    ORTHCH:  cpu time    0.0142: real time    0.0143
       DOS:  cpu time    0.0009: real time    0.0009
    CHARGE:  cpu time    0.0321: real time    0.0322
    MIXING:  cpu time    0.0014: real time    0.0015
    --------------------------------------------
      LOOP:  cpu time    0.9657: real time    1.0298

 eigenvalue-minimisations  :  8014
 total energy-change (2. order) : 0.5253431E-02  (-0.5185403E-02)
 number of electron     320.9999986 magnetization 
 augmentation part       18.6281025 magnetization 

 Broyden mixing:
  rms(total) = 0.40932E-01    rms(broyden)= 0.40908E-01
  rms(prec ) = 0.66409E-01
  weight for this iteration     100.00

 eigenvalues of (default mixing * dielectric matrix)
  average eigenvalue GAMMA=   1.0506
  2.2935  1.7401  1.4462  0.6447  0.4744  0.3927  0.3625

 Free energy of the ion-electron system (eV)
  ---------------------------------------------------
  alpha Z        PSCENC =      1655.97343475
  Ewald energy   TEWEN  =    -22319.53605448
  -Hartree energ DENC   =     -8062.50639309
  -exchange      EXHF   =         0.00000000
  -V(xc)+E(xc)   XCENC  =       118.31516827
  PAW double counting   =     37267.33308444   -35815.34212773
  entropy T*S    EENTRO =         0.01465193
  eigenvalues    EBANDS =     -3191.21808827
  atomic energy  EATOM  =     29990.50946633
  Solvation  Ediel_sol  =         0.00000000
  ---------------------------------------------------
  free energy    TOTEN  =      -356.45685785 eV

  energy without entropy =     -356.47150978  energy(sigma->0) =     -356.46174182


--------------------------------------------------------------------------------------------------------




----------------------------------------- Iteration    1(  13)  ---------------------------------------


    POTLOK:  cpu time    0.0298: real time    0.0308
    SETDIJ:  cpu time    0.0036: real time    0.0036
    EDDIAG:  cpu time    0.1373: real time    0.1435
  RMM-DIIS:  cpu time    0.8530: real time    0.8657
    ORTHCH:  cpu time    0.0141: real time    0.0143
       DOS:  cpu time    0.0020: real time    0.0020
    CHARGE:  cpu time    0.0318: real time    0.0319
    MIXING:  cpu time    0.0015: real time    0.0016
    --------------------------------------------
      LOOP:  cpu time    1.0737: real time    1.1403

 eigenvalue-minimisations  :  8168
 total energy-change (2. order) : 0.8658692E-03  (-0.1728064E-02)
 number of electron     320.9999986 magnetization 
 augmentation part       18.6263264 magnetization 

 Broyden mixing:
  rms(total) = 0.25830E-01    rms(broyden)= 0.25821E-01
  rms(prec ) = 0.43769E-01
  weight for this iteration     100.00

 eigenvalues of (default mixing * dielectric matrix)
  average eigenvalue GAMMA=   1.0604
  2.3697  1.8820  1.5899  0.9123  0.5350  0.4683  0.3845  0.3413

 Free energy of the ion-electron system (eV)
  ---------------------------------------------------
  alpha Z        PSCENC =      1655.97343475
  Ewald energy   TEWEN  =    -22319.53605448
  -Hartree energ DENC   =     -8062.88895030
  -exchange      EXHF   =         0.00000000
  -V(xc)+E(xc)   XCENC  =       118.33817454
  PAW double counting   =     37325.96964673   -35873.03805729
  entropy T*S    EENTRO =         0.01432825
  eigenvalues    EBANDS =     -3191.79798050
  atomic energy  EATOM  =     29990.50946633
  Solvation  Ediel_sol  =         0.00000000
  ---------------------------------------------------
  free energy    TOTEN  =      -356.45599198 eV

  energy without entropy =     -356.47032022  energy(sigma->0) =     -356.46076806


--------------------------------------------------------------------------------------------------------




----------------------------------------- Iteration    1(  14)  ---------------------------------------


    POTLOK:  cpu time    0.0411: real time    0.0659
    SETDIJ:  cpu time    0.0034: real time    0.0034
    EDDIAG:  cpu time    0.0898: real time    0.1097
  RMM-DIIS:  cpu time    0.8735: real time    0.8930
    ORTHCH:  cpu time    0.0178: real time    0.0186
       DOS:  cpu time    0.0020: real time    0.0021
    CHARGE:  cpu time    0.0548: real time    0.0550
    MIXING:  cpu time    0.0015: real time    0.0015
    --------------------------------------------
      LOOP:  cpu time    1.0848: real time    1.1881

 eigenvalue-minimisations  :  8181
 total energy-change (2. order) :-0.1002651E-03  (-0.8370075E-03)
 number of electron     320.9999986 magnetization 
 augmentation part       18.6241593 magnetization 

 Broyden mixing:
  rms(total) = 0.15310E-01    rms(broyden)= 0.15303E-01
  rms(prec ) = 0.24710E-01
  weight for this iteration     100.00

 eigenvalues of (default mixing * dielectric matrix)
  average eigenvalue GAMMA=   1.0579
  2.5278  2.0739  1.5993  1.1047  0.5530  0.5530  0.3851  0.3851  0.3393

 Free energy of the ion-electron system (eV)
  ---------------------------------------------------
  alpha Z        PSCENC =      1655.97343475
  Ewald energy   TEWEN  =    -22319.53605448
  -Hartree energ DENC   =     -8063.51828447
  -exchange      EXHF   =         0.00000000
  -V(xc)+E(xc)   XCENC  =       118.35675610
  PAW double counting   =     37355.97266941   -35902.42572700
  entropy T*S    EENTRO =         0.01449106
  eigenvalues    EBANDS =     -3191.80284395
  atomic energy  EATOM  =     29990.50946633
  Solvation  Ediel_sol  =         0.00000000
  ---------------------------------------------------
  free energy    TOTEN  =      -356.45609224 eV

  energy without entropy =     -356.47058330  energy(sigma->0) =     -356.46092260


--------------------------------------------------------------------------------------------------------




----------------------------------------- Iteration    1(  15)  ---------------------------------------


    POTLOK:  cpu time    0.0286: real time    0.0606
    SETDIJ:  cpu time    0.0036: real time    0.0037
    EDDIAG:  cpu time    0.0881: real time    0.1446
  RMM-DIIS:  cpu time    0.7897: real time    0.9130
    ORTHCH:  cpu time    0.0140: real time    0.0141
       DOS:  cpu time    0.0023: real time    0.0023
    CHARGE:  cpu time    0.0311: real time    0.0312
    MIXING:  cpu time    0.0016: real time    0.0016
    --------------------------------------------
      LOOP:  cpu time    0.9597: real time    1.2109

 eigenvalue-minimisations  :  8216
 total energy-change (2. order) :-0.1382727E-03  (-0.3896563E-03)
 number of electron     320.9999986 magnetization 
 augmentation part       18.6228458 magnetization 

 Broyden mixing:
  rms(total) = 0.69442E-02    rms(broyden)= 0.69404E-02
  rms(prec ) = 0.12142E-01
  weight for this iteration     100.00

 eigenvalues of (default mixing * dielectric matrix)
  average eigenvalue GAMMA=   1.0404
  2.5954  2.1024  1.4838  1.3162  0.7744  0.5949  0.4234  0.4234  0.3585  0.3320

 Free energy of the ion-electron system (eV)
  ---------------------------------------------------
  alpha Z        PSCENC =      1655.97343475
  Ewald energy   TEWEN  =    -22319.53605448
  -Hartree energ DENC   =     -8063.73340351
  -exchange      EXHF   =         0.00000000
  -V(xc)+E(xc)   XCENC  =       118.36390878
  PAW double counting   =     37379.93516140   -35925.82732458
  entropy T*S    EENTRO =         0.01458335
  eigenvalues    EBANDS =     -3192.15600256
  atomic energy  EATOM  =     29990.50946633
  Solvation  Ediel_sol  =         0.00000000
  ---------------------------------------------------
  free energy    TOTEN  =      -356.45623052 eV

  energy without entropy =     -356.47081386  energy(sigma->0) =     -356.46109163


--------------------------------------------------------------------------------------------------------




----------------------------------------- Iteration    1(  16)  ---------------------------------------


    POTLOK:  cpu time    0.0284: real time    0.0285
    SETDIJ:  cpu time    0.0035: real time    0.0035
    EDDIAG:  cpu time    0.0918: real time    0.0996
  RMM-DIIS:  cpu time    0.7412: real time    0.7589
    ORTHCH:  cpu time    0.0142: real time    0.0143
       DOS:  cpu time    0.0017: real time    0.0017
    CHARGE:  cpu time    0.0313: real time    0.0314
    MIXING:  cpu time    0.0017: real time    0.0017
    --------------------------------------------
      LOOP:  cpu time    0.9143: real time    0.9854

 eigenvalue-minimisations  :  7338
 total energy-change (2. order) :-0.5513706E-04  (-0.1619697E-03)
 number of electron     320.9999986 magnetization 
 augmentation part       18.6218459 magnetization 

 Broyden mixing:
  rms(total) = 0.33476E-02    rms(broyden)= 0.33455E-02
  rms(prec ) = 0.62143E-02
  weight for this iteration     100.00

 eigenvalues of (default mixing * dielectric matrix)
  average eigenvalue GAMMA=   1.0271
  2.6551  2.1009  1.5066  1.4173  0.9378  0.6085  0.5466  0.4426  0.3900  0.3634
  0.3289

 Free energy of the ion-electron system (eV)
  ---------------------------------------------------
  alpha Z        PSCENC =      1655.97343475
  Ewald energy   TEWEN  =    -22319.53605448
  -Hartree energ DENC   =     -8063.96484008
  -exchange      EXHF   =         0.00000000
  -V(xc)+E(xc)   XCENC  =       118.36949330
[...]
    114       5.9133      2.00000
    115       5.9517      2.00000
    116       6.0510      2.00000
    117       6.1105      2.00000
    118       6.1493      2.00000
    119       6.1680      2.00000
    120       6.2402      2.00000
    121       6.3059      2.00000
    122       6.4371      2.00000
    123       6.4861      2.00000
    124       6.5320      2.00000
    125       6.5698      2.00000
    126       6.5983      2.00000
    127       6.6202      2.00000
    128       6.7033      2.00000
    129       6.7223      2.00000
    130       6.7679      2.00000
    131       6.7903      2.00000
    132       6.8325      2.00000
    133       6.8605      2.00000
    134       6.8800      2.00000
    135       6.9282      2.00000
    136       6.9664      2.00000
    137       6.9904      2.00000
    138       6.9999      2.00000
    139       7.0575      2.00000
    140       7.0914      2.00000
    141       7.1331      2.00000
    142       7.1756      2.00000
    143       7.2251      2.00000
    144       7.2780      2.00000
    145       7.3247      2.00000
    146       7.3471      2.00000
    147       7.3940      2.00000
    148       7.4306      2.00001
    149       7.4988      2.00020
    150       7.5263      2.00054
    151       7.5555      2.00141
    152       7.5778      2.00278
    153       7.6203      2.00872
    154       7.6632      2.02250
    155       7.6814      2.03141
    156       7.7204      2.05459
    157       7.7548      2.07009
    158       7.7782      2.06722
    159       7.8195      2.00251
    160       7.8503      1.87575
    161       7.8950      1.54622
    162       7.9293      1.19390
    163       7.9439      1.03026
    164       7.9874      0.55805
    165       8.0327      0.18425
    166       8.0833     -0.02670
    167       8.1024     -0.05738
    168       8.1222     -0.06995
    169       8.1590     -0.06237
    170       8.2029     -0.03632
    171       8.2351     -0.02030
    172       8.2971     -0.00465
    173       8.3251     -0.00208
    174       8.3710     -0.00047
    175       8.4164     -0.00009
    176       8.4403     -0.00003
    177       8.4806     -0.00001
    178       8.5589     -0.00000
    179       8.6195     -0.00000
    180       8.6679     -0.00000
    181       8.7205     -0.00000
    182       8.7798     -0.00000
    183       8.8394     -0.00000
    184       8.9207     -0.00000
    185       9.0506     -0.00000
    186       9.1756     -0.00000
    187       9.2668     -0.00000
    188       9.7005     -0.00000
    189       9.8096     -0.00000
    190       9.8486     -0.00000
    191       9.9017     -0.00000
    192       9.9603     -0.00000


--------------------------------------------------------------------------------------------------------


 soft charge-density along one line, spin component           1
         0         1         2         3         4         5         6         7         8         9
 total charge-density along one line
 
 pseudopotential strength for first ion, spin component:           1
  5.800 -20.834   0.001  -0.001  -0.000  -0.002   0.002   0.000
-20.834   9.701   0.002  -0.002  -0.001  -0.000   0.000  -0.000
  0.001   0.002 -10.153   0.000  -0.001   6.472  -0.000   0.002
 -0.001  -0.002   0.000 -10.156   0.000  -0.000   6.476  -0.000
 -0.000  -0.001  -0.001   0.000 -10.152   0.002  -0.000   6.470
 -0.002  -0.000   6.472  -0.000   0.002   7.645   0.000  -0.001
  0.002   0.000  -0.000   6.476  -0.000   0.000   7.643  -0.000
  0.000  -0.000   0.002  -0.000   6.470  -0.001  -0.000   7.646
 -0.001  -0.001  -0.001   0.001   0.002   0.000  -0.000  -0.001
  0.000   0.000  -0.002   0.001   0.001   0.001  -0.001  -0.000
 -0.002  -0.001  -0.001   0.000   0.000  -0.000  -0.000   0.000
  0.000   0.000   0.001  -0.000  -0.001  -0.000  -0.000   0.001
  0.000   0.000  -0.000   0.000   0.000  -0.000  -0.000  -0.000
 -0.001  -0.001  -0.001   0.001   0.002   0.000  -0.000  -0.002
  0.000   0.000  -0.002   0.001   0.001   0.001  -0.001  -0.000
 -0.002  -0.001  -0.001   0.000   0.000   0.000  -0.000   0.000
  0.000   0.000   0.001  -0.000  -0.001  -0.000  -0.000   0.001
  0.000   0.000  -0.001   0.000   0.000  -0.000  -0.000  -0.001
 total augmentation occupancy for first ion, spin component:           1
  1.998  -0.031   0.001  -0.000  -0.000   0.000  -0.000  -0.001  -0.003  -0.004  -0.002  -0.004   0.002   0.002   0.003   0.002
 -0.031   1.381   0.005  -0.002  -0.005  -0.014   0.007   0.010   0.010  -0.016   0.031  -0.008  -0.005  -0.009   0.002  -0.009
  0.001   0.005   1.997   0.000  -0.000  -0.024  -0.001  -0.000  -0.008  -0.003  -0.011  -0.002  -0.018   0.004  -0.001   0.006
 -0.000  -0.002   0.000   1.997   0.000  -0.001  -0.023  -0.001  -0.001  -0.004  -0.008  -0.007   0.002   0.002   0.003   0.006
 -0.000  -0.005  -0.000   0.000   1.997  -0.000  -0.001  -0.023   0.001  -0.001   0.006   0.002  -0.010   0.002   0.002  -0.003
  0.000  -0.014  -0.024  -0.001  -0.000   0.056   0.001   0.001   0.017   0.026   0.015  -0.005   0.025  -0.005  -0.009  -0.007
 -0.000   0.007  -0.001  -0.023  -0.001   0.001   0.054   0.002  -0.007  -0.010   0.007   0.009  -0.004   0.001   0.005  -0.007
 -0.001   0.010  -0.000  -0.001  -0.023   0.001   0.002   0.054  -0.024  -0.007  -0.008   0.011   0.008   0.010   0.001   0.002
 -0.003   0.010  -0.008  -0.001   0.001   0.017  -0.007  -0.024   2.496   0.113   0.001   0.005  -0.017  -0.879  -0.046   0.003
 -0.004  -0.016  -0.003  -0.004  -0.001   0.026  -0.010  -0.007   0.113   2.298  -0.039   0.003   0.003  -0.046  -0.814   0.011
 -0.002   0.031  -0.011  -0.008   0.006   0.015   0.007  -0.008   0.001  -0.039   2.135  -0.056   0.022   0.003   0.011  -0.828
 -0.004  -0.008  -0.002  -0.007   0.002  -0.005   0.009   0.011   0.005   0.003  -0.056   2.371  -0.062  -0.006  -0.006   0.015
  0.002  -0.005  -0.018   0.002  -0.010   0.025  -0.004   0.008  -0.017   0.003   0.022  -0.062   2.047   0.006  -0.004  -0.009
  0.002  -0.009   0.004   0.002   0.002  -0.005   0.001   0.010  -0.879  -0.046   0.003  -0.006   0.006   0.323   0.017  -0.002
  0.003   0.002  -0.001   0.003   0.002  -0.009   0.005   0.001  -0.046  -0.814   0.011  -0.006  -0.004   0.017   0.301  -0.003
  0.002  -0.009   0.006   0.006  -0.003  -0.007  -0.007   0.002   0.003   0.011  -0.828   0.015  -0.009  -0.002  -0.003   0.330
  0.003  -0.002   0.002   0.004  -0.003   0.000  -0.004  -0.005  -0.005  -0.006   0.014  -0.834   0.017   0.003   0.004  -0.003
 -0.002   0.004   0.011  -0.001   0.007  -0.011   0.001  -0.004   0.006  -0.004  -0.009   0.017  -0.802  -0.003   0.002   0.004


------------------------ aborting loop because EDIFF is reached ----------------------------------------


    CHARGE:  cpu time    0.0305: real time    0.0306
    FORLOC:  cpu time    0.0133: real time    0.0134
    FORNL :  cpu time    0.3189: real time    0.3227
    STRESS:  cpu time    1.5092: real time    1.5192
    FORCOR:  cpu time    0.0425: real time    0.0426
    FORHAR:  cpu time    0.0181: real time    0.0181
    MIXING:  cpu time    0.0013: real time    0.0013
    OFIELD:  cpu time    0.0000: real time    0.0000

  FORCE on cell =-STRESS in cart. coord.  units (eV):
  Direction    XX          YY          ZZ          XY          YZ          ZX
  --------------------------------------------------------------------------------------
  Alpha Z  1656.15246  1656.15246  1656.15246
  Ewald   -6172.08986 -9262.84548 -6904.52761   -49.31595   118.20372    61.65198
  Hartree  3883.77470   948.13636  3212.85598   -31.51990   135.13594    40.90008
  E(xc)   -1402.97049 -1402.73306 -1403.15700     0.31032    -0.35718     0.02941
  Local   -3484.36996  2533.28986 -2082.01214    81.26217  -250.96367  -101.46131
  n-local  -315.67942  -316.04251  -316.92081     1.23072     2.27262    -1.05786
  augment   240.50698   241.15663   240.48925    -0.15744    -0.34748     0.27063
  Kinetic  5594.78331  5602.99119  5597.24534    -1.92114    -3.98318    -0.33825
  Fock        0.00000     0.00000     0.00000     0.00000     0.00000     0.00000
  -------------------------------------------------------------------------------------
  Total       0.10771     0.10544     0.12547    -0.11122    -0.03924    -0.00533
  in kB       0.23598     0.23101     0.27490    -0.24367    -0.08596    -0.01167
  external pressure =        0.25 kB  Pullay stress =        0.00 kB


 VOLUME and BASIS-vectors are now :
 -----------------------------------------------------------------------------
  energy-cutoff  :      300.00
  volume of cell :      731.29
      direct lattice vectors                 reciprocal lattice vectors
     6.982787774  0.018941986 -0.007357604     0.143210496 -0.000389662  0.000152357
     0.027792420 10.221317614  0.017695657    -0.000265567  0.097835748 -0.000162617
    -0.010854265  0.017001090 10.246155794     0.000103296 -0.000169247  0.097597969

  length of vectors
     6.982817341 10.221370717 10.246175647     0.143211107  0.097836244  0.097598171


 FORCES acting on ions
    electron-ion (+dipol)            ewald-force                    non-local-force                 convergence-correction
 -----------------------------------------------------------------------------------------------
   0.352E+02 0.341E+03 0.308E+01   -.346E+02 -.341E+03 -.278E+01   -.604E+00 0.722E+00 -.317E+00   0.454E-03 0.237E-01 0.199E-01
   -.503E+02 0.336E+03 -.530E+02   0.498E+02 -.337E+03 0.535E+02   0.405E+00 0.718E+00 -.516E+00   0.184E-02 0.244E-01 0.235E-01
   -.218E+02 0.470E+03 0.907E+02   0.214E+02 -.470E+03 -.896E+02   0.428E+00 0.675E+00 -.115E+01   0.104E-02 -.109E-01 -.125E-01
   -.176E+02 0.453E+02 -.228E+03   0.170E+02 -.453E+02 0.228E+03   0.621E+00 -.466E-02 0.304E+00   0.897E-04 0.186E-01 0.449E-01
   0.410E+02 -.490E+03 0.552E+02   -.404E+02 0.490E+03 -.548E+02   -.668E+00 -.642E+00 -.436E+00   -.125E-02 0.482E-02 0.230E-01
   0.195E+03 -.391E+03 -.149E+03   -.195E+03 0.391E+03 0.149E+03   -.344E+00 0.206E+00 -.387E+00   -.862E-02 -.148E-01 -.164E-01
   -.498E+02 -.500E+03 0.129E+03   0.492E+02 0.501E+03 -.129E+03   0.525E+00 -.852E+00 0.472E-01   0.717E-03 0.157E-02 0.808E-02
   -.718E+01 -.233E+03 -.557E+02   0.807E+01 0.233E+03 0.561E+02   -.883E+00 -.207E+00 -.489E+00   -.208E-02 0.814E-02 0.403E-01
   0.608E+02 0.394E+03 -.190E+03   -.612E+02 -.394E+03 0.189E+03   0.437E+00 -.258E+00 0.105E+01   -.601E-02 -.383E-02 0.380E-01
   0.301E+02 -.188E+03 -.956E+02   -.308E+02 0.188E+03 0.950E+02   0.705E+00 -.180E+00 0.632E+00   -.629E-02 0.150E-01 -.459E-01
   0.788E+02 -.591E+02 0.240E+03   -.785E+02 0.592E+02 -.239E+03   -.318E+00 -.157E+00 -.634E+00   -.363E-02 0.220E-01 -.238E-01
   -.189E+03 0.235E+03 0.196E+03   0.189E+03 -.236E+03 -.196E+03   0.203E+00 0.931E-02 -.314E-02   0.160E-01 0.241E-01 -.398E-01
   0.219E+02 0.128E+03 -.205E+03   -.213E+02 -.128E+03 0.204E+03   -.630E+00 0.601E-01 0.407E+00   -.217E-02 0.157E-01 0.399E-01
   -.377E+02 0.133E+03 -.101E+01   0.384E+02 -.133E+03 0.688E+00   -.796E+00 -.339E+00 0.340E+00   0.543E-02 0.357E-01 -.188E-01
   0.190E+03 0.270E+03 0.207E+03   -.190E+03 -.271E+03 -.207E+03   -.285E+00 0.413E+00 0.278E+00   -.164E-01 0.169E-01 -.393E-01
   -.784E+02 -.970E+02 0.177E+03   0.781E+02 0.976E+02 -.177E+03   0.272E+00 -.574E+00 -.562E+00   0.264E-02 0.245E-01 -.164E-01
   -.157E+03 -.316E+03 -.114E+03   0.156E+03 0.316E+03 0.114E+03   0.426E+00 0.357E+00 -.267E+00   0.829E-02 -.157E-01 -.109E-01
   -.874E+01 -.136E+03 0.400E+02   0.811E+01 0.136E+03 -.406E+02   0.620E+00 0.621E-01 0.529E+00   0.354E-02 -.277E-01 0.339E-01
   0.729E+01 -.115E+03 -.807E+01   -.815E+01 0.115E+03 0.795E+01   0.860E+00 0.146E+00 0.876E-01   0.228E-04 0.503E-02 0.301E-01
   -.689E+02 0.176E+03 0.851E+02   0.692E+02 -.176E+03 -.855E+02   -.265E+00 -.366E-01 0.419E+00   0.460E-02 -.173E-01 -.185E-01
   0.102E+02 0.940E+02 -.138E+02   -.108E+02 -.939E+02 0.138E+02   0.560E+00 -.180E+00 -.171E-01   -.186E-02 0.118E-01 -.686E-02
   -.308E+02 -.147E+03 0.378E+02   0.303E+02 0.147E+03 -.373E+02   0.538E+00 -.738E-01 -.440E+00   0.912E-03 -.575E-02 -.128E-01
   0.494E+02 -.135E+02 -.316E+02   -.488E+02 0.136E+02 0.321E+02   -.669E+00 -.708E-01 -.429E+00   -.308E-02 -.124E-01 -.181E-01
   -.467E+01 0.135E+03 -.998E+02   0.571E+01 -.135E+03 0.997E+02   -.104E+01 -.719E-01 0.440E-01   0.309E-03 0.790E-02 0.101E-01
   0.190E+02 0.611E+02 0.215E+02   -.181E+02 -.611E+02 -.215E+02   -.881E+00 -.105E-01 -.805E-01   0.121E-03 -.935E-02 0.606E-02
   -.234E+02 -.177E+03 0.813E+01   0.237E+02 0.177E+03 -.908E+01   -.376E+00 0.270E-01 0.940E+00   0.682E-03 -.519E-02 0.189E-01
   -.279E+02 0.654E+02 0.113E+02   0.272E+02 -.655E+02 -.115E+02   0.668E+00 0.572E-01 0.186E+00   0.474E-03 -.953E-02 0.587E-02
   0.325E+02 -.130E+03 0.113E+02   -.320E+02 0.130E+03 -.107E+02   -.538E+00 -.660E-01 -.560E+00   -.107E-02 -.425E-02 -.105E-01
   -.448E+01 -.855E+02 -.170E+02   0.505E+01 0.857E+02 0.169E+02   -.570E+00 -.197E+00 0.197E+00   0.134E-02 0.390E-02 -.139E-01
   -.491E+02 0.799E+01 -.174E+02   0.484E+02 -.819E+01 0.178E+02   0.745E+00 0.210E+00 -.410E+00   0.235E-02 -.110E-01 -.143E-01
   0.130E+02 0.147E+03 0.695E+02   -.128E+02 -.147E+03 -.690E+02   -.279E+00 0.283E+00 -.516E+00   -.997E-04 -.339E-02 -.814E-02
   0.687E+00 0.864E+02 -.724E+02   -.191E+01 -.862E+02 0.722E+02   0.122E+01 -.148E+00 0.178E+00   -.438E-03 0.670E-02 0.719E-02
   -.125E+02 0.101E+03 -.639E+02   0.127E+02 -.101E+03 0.632E+02   -.221E+00 -.171E+00 0.725E+00   0.618E-03 -.847E-03 0.122E-01
   0.184E+02 -.138E+03 0.255E+02   -.189E+02 0.138E+03 -.265E+02   0.476E+00 0.247E+00 0.915E+00   -.475E-03 -.471E-02 0.131E-01
   0.148E+02 -.512E+02 0.917E+01   -.146E+02 0.509E+02 -.925E+01   -.188E+00 0.266E+00 0.613E-01   -.106E-02 -.864E-02 0.977E-02
   0.198E+02 0.399E+02 -.294E+01   -.200E+02 -.400E+02 0.310E+01   0.185E+00 0.457E-01 -.152E+00   -.106E-02 -.465E-02 -.549E-02
 -----------------------------------------------------------------------------------------------
   -.333E+00 -.365E+00 -.224E-01   -.462E-13 0.384E-12 0.622E-12   0.339E+00 0.264E+00 -.263E-01   -.416E-02 0.101E+00 0.521E-01
 
 
 POSITION                                       TOTAL-FORCE (eV/Angst)
 -----------------------------------------------------------------------------------
      0.06101     10.12915      3.42197        -0.003177     -0.003758      0.001202
      3.44989     10.13525      3.56169        -0.000216      0.000979     -0.002102
      5.19302      8.51663      1.91341        -0.004536      0.005920     -0.006077
      1.63375      1.74295      5.02475         0.003620      0.003348     -0.000702
      3.53441      3.47594      3.57341         0.002471     -0.003857     -0.001174
      1.85523      5.12300      8.69138        -0.000769      0.001081     -0.000203
      6.88360      3.50677      3.31446         0.003739      0.002478      0.000472
      0.12757      3.47904      6.86236         0.000904     -0.001045     -0.003512
      1.71194      8.53804      4.97381         0.001649      0.002005      0.002529
      3.35107      3.45556     10.13295         0.001668     -0.004239      0.000195
      1.81302      1.72475      1.81224        -0.004957     -0.003991      0.004277
      6.87015      0.07727      0.09879        -0.002837     -0.001977      0.002617
      5.32630      1.69343      5.13223         0.000874     -0.002212     -0.000382
      5.33662      1.78125      8.40407         0.002136      0.003294      0.001982
      3.63311     10.22497     10.21786        -0.008084      0.005484      0.000946
      5.06888      1.83429      1.81887        -0.001084      0.000086     -0.003757
      5.17290      5.05531      8.49937         0.006373      0.000410     -0.004656
      3.41588      6.79544      6.70062         0.000158      0.000193      0.006731
      3.37055      3.40919      6.76408         0.004308      0.003446      0.000324
      5.35801      8.58307      8.34187         0.000402     -0.000339      0.000577
      1.63622      1.77129      8.53714        -0.000426     -0.001140     -0.001596
      5.10394      5.09599      1.80829        -0.001192      0.001146     -0.001537
      3.72728      6.83543      0.11645        -0.002653     -0.002478     -0.005831
      0.29331      0.06192      6.77860        -0.004390     -0.002271     -0.001049
      3.62341      6.85871      3.48067        -0.002049     -0.001333      0.004053
      5.34646      5.11602      5.01558        -0.003175     -0.001101      0.001642
      6.87098      6.85971      3.34526         0.006662     -0.002870      0.004233
      1.85761      5.17262      1.75583         0.000695     -0.000127     -0.003752
      0.04140      3.44707      0.04566         0.000761      0.001345      0.005340
      6.79648      6.78216      0.11574        -0.001270      0.000977      0.005970
      1.82542      8.45266      1.74380        -0.004353      0.001472     -0.003102
      3.26115      0.05248      6.77109         0.004296     -0.001527      0.003770
      5.35180      8.59718      5.17033        -0.000962     -0.000180      0.002471
      1.64919      5.08042      4.86974         0.006357      0.000719     -0.003266
      0.19852      6.68452      6.82444         0.004774     -0.001929     -0.006930
      1.76444      8.45475      8.73554        -0.005719      0.001991      0.000296
 -----------------------------------------------------------------------------------
    total drift:                                0.001839      0.000022      0.003450


--------------------------------------------------------------------------------------------------------



  FREE ENERGIE OF THE ION-ELECTRON SYSTEM (eV)
  ---------------------------------------------------
  free  energy   TOTEN  =      -356.46900571 eV

  energy  without entropy=     -356.48450209  energy(sigma->0) =     -356.47417117
 
 d Force = 0.7599282E-04[ 0.707E-04, 0.813E-04]  d Energy = 0.7095095E-04 0.504E-05
 d Force = 0.2299208E-01[ 0.227E-01, 0.233E-01]  d Ewald  = 0.3504268E+01-0.348E+01


--------------------------------------------------------------------------------------------------------


    POTLOK:  cpu time    0.6446: real time    0.6489


--------------------------------------------------------------------------------------------------------


 Conjugate gradient step on ions:
 trial-energy change:   -0.000071  1 .order   -0.000093   -0.000156   -0.000030
  (g-gl).g = 0.331E-04      g.g   = 0.539E-04  gl.gl    = 0.604E-04
 g(Force)  = 0.191E-04   g(Stress)= 0.348E-04 ortho     =-0.169E-05
 gamma     =   0.54860
 trial     =   2.93666
 opt step  =   3.62735  (harmonic =   3.62735) maximal distance =0.00086470
 next E    =  -356.469031   (d E  =  -0.00010)


--------------------------------------------------------------------------------------------------------


  
 reached required accuracy - stopping structural energy minimisation
     LOOP+:  cpu time    8.3365: real time    9.1016
    4ORBIT:  cpu time    0.0000: real time    0.0000

 total amount of memory used by VASP on root node    69008. kBytes
========================================================================

   base      :      30000. kBytes
   nonlr-proj:      10368. kBytes
   fftplans  :       2814. kBytes
   grid      :       5360. kBytes
   one-center:        124. kBytes
   wavefun   :      20342. kBytes
 
  
  
 General timing and accounting informations for this job:
 ========================================================
  
                  Total CPU time used (sec):      154.296
                            User time (sec):      153.418
                          System time (sec):        0.877
                         Elapsed time (sec):      177.045
  
                   Maximum memory used (kb):      269336.
                   Average memory used (kb):           0.
  
                          Minor page faults:       126700
                          Major page faults:           32
                 Voluntary context switches:         6688
