       N       E                     dE             d eps       ncg     rms          rms(c)
DAV:   1     0.224067961018E+04    0.22407E+04   -0.12321E+05  5856   0.108E+03
DAV:   2    -0.447493380728E+02   -0.22854E+04   -0.22080E+04  6064   0.409E+02
DAV:   3    -0.332812433040E+03   -0.28806E+03   -0.27438E+03  9072   0.102E+02
DAV:   4    -0.367290620911E+03   -0.34478E+02   -0.32846E+02  8984   0.320E+01
DAV:   5    -0.370922065724E+03   -0.36314E+01   -0.35568E+01  8760   0.107E+01    0.639E+01
RMM:   6    -0.360531576883E+03    0.10390E+02   -0.23393E+01  7320   0.995E+00    0.300E+01
RMM:   7    -0.362107545831E+03   -0.15760E+01   -0.24414E+01  7875   0.829E+00    0.112E+01
RMM:   8    -0.356592255472E+03    0.55153E+01   -0.56265E+00  7923   0.336E+00    0.417E+00
RMM:   9    -0.356513093665E+03    0.79162E-01   -0.20149E+00  8006   0.178E+00    0.304E+00
RMM:  10    -0.356455122494E+03    0.57971E-01   -0.46263E-01  7943   0.119E+00    0.152E+00
RMM:  11    -0.356422739005E+03    0.32383E-01   -0.15639E-01  8035   0.619E-01    0.722E-01
RMM:  12    -0.356416321704E+03    0.64173E-02   -0.53926E-02  8096   0.328E-01    0.429E-01
RMM:  13    -0.356414562063E+03    0.17596E-02   -0.18364E-02  8113   0.196E-01    0.256E-01
RMM:  14    -0.356414368480E+03    0.19358E-03   -0.70000E-03  8152   0.103E-01    0.145E-01
RMM:  15    -0.356414553698E+03   -0.18522E-03   -0.31608E-03  8356   0.656E-02    0.679E-02
RMM:  16    -0.356414595588E+03   -0.41891E-04   -0.13249E-03  7281   0.386E-02    0.326E-02
RMM:  17    -0.356414623537E+03   -0.27948E-04   -0.55619E-04  6171   0.242E-02    0.175E-02
RMM:  18    -0.356414637045E+03   -0.13508E-04   -0.26777E-04  5907   0.181E-02    0.996E-03
RMM:  19    -0.356414641275E+03   -0.42302E-05   -0.10096E-04  5120   0.133E-02    0.526E-03
RMM:  20    -0.356414642561E+03   -0.12860E-05   -0.44430E-05  4409   0.105E-02
   1 F= -.35641464E+03 E0= -.35641926E+03  d E =-.356415E+03
       N       E                     dE             d eps       ncg     rms          rms(c)
DAV:   1    -0.356418936254E+03   -0.42950E-02   -0.14160E-01  7104   0.124E+00    0.474E-01
RMM:   2    -0.356417392258E+03    0.15440E-02   -0.16686E-02  7914   0.324E-01    0.169E-01
RMM:   3    -0.356416730208E+03    0.66205E-03   -0.36818E-03  8176   0.103E-01    0.110E-01
RMM:   4    -0.356416411240E+03    0.31897E-03   -0.94070E-04  8058   0.635E-02    0.635E-02
RMM:   5    -0.356416333773E+03    0.77467E-04   -0.30297E-04  7573   0.337E-02    0.488E-02
RMM:   6    -0.356416326461E+03    0.73123E-05   -0.11193E-04  6974   0.173E-02    0.318E-02
RMM:   7    -0.356416319540E+03    0.69207E-05   -0.48671E-05  4451   0.139E-02
   2 F= -.35641632E+03 E0= -.35642102E+03  d E =-.167698E-02
       N       E                     dE             d eps       ncg     rms          rms(c)
DAV:   1    -0.356429466297E+03   -0.13140E-01   -0.64872E-01  6728   0.266E+00    0.101E+00
RMM:   2    -0.356422102308E+03    0.73640E-02   -0.74991E-02  7863   0.692E-01    0.359E-01
RMM:   3    -0.356419030762E+03    0.30715E-02   -0.16369E-02  8150   0.217E-01    0.233E-01
RMM:   4    -0.356417625360E+03    0.14054E-02   -0.42954E-03  8143   0.136E-01    0.136E-01
RMM:   5    -0.356417303450E+03    0.32191E-03   -0.13778E-03  8059   0.714E-02    0.106E-01
RMM:   6    -0.356417312274E+03   -0.88243E-05   -0.52612E-04  7987   0.352E-02    0.695E-02
RMM:   7    -0.356417320233E+03   -0.79590E-05   -0.23241E-04  6918   0.275E-02    0.392E-02
RMM:   8    -0.356417320553E+03   -0.31912E-06   -0.14790E-04  6612   0.194E-02    0.244E-02
RMM:   9    -0.356417324898E+03   -0.43449E-05   -0.65562E-05  4483   0.149E-02
   3 F= -.35641732E+03 E0= -.35642220E+03  d E =-.268234E-02
       N       E                     dE             d eps       ncg     rms          rms(c)
DAV:   1    -0.356418488171E+03   -0.11676E-02   -0.12951E-01  5600   0.980E-01    0.112E-01
RMM:   2    -0.356418781378E+03   -0.29321E-03   -0.43790E-03  7849   0.189E-01    0.700E-02
RMM:   3    -0.356418686786E+03    0.94592E-04   -0.62751E-04  7832   0.521E-02    0.505E-02
RMM:   4    -0.356418663854E+03    0.22932E-04   -0.15661E-04  7072   0.193E-02    0.331E-02
RMM:   5    -0.356418656710E+03    0.71438E-05   -0.70856E-05  6291   0.133E-02
   4 F= -.35641866E+03 E0= -.35642355E+03  d E =-.133181E-02
       N       E                     dE             d eps       ncg     rms          rms(c)
DAV:   1    -0.356419597176E+03   -0.93332E-03   -0.11639E+00  5536   0.294E+00    0.329E-01
RMM:   2    -0.356422241705E+03   -0.26445E-02   -0.38092E-02  7802   0.560E-01    0.200E-01
RMM:   3    -0.356421347360E+03    0.89434E-03   -0.52646E-03  7963   0.151E-01    0.140E-01
RMM:   4    -0.356421165590E+03    0.18177E-03   -0.12626E-03  8823   0.545E-02    0.882E-02
RMM:   5    -0.356421131052E+03    0.34538E-04   -0.60769E-04  8448   0.406E-02    0.517E-02
RMM:   6    -0.356421124560E+03    0.64924E-05   -0.22794E-04  7674   0.260E-02    0.264E-02
RMM:   7    -0.356421131354E+03   -0.67941E-05   -0.99465E-05  5572   0.163E-02
   5 F= -.35642113E+03 E0= -.35642606E+03  d E =-.380646E-02
       N       E                     dE             d eps       ncg     rms          rms(c)
DAV:   1    -0.356413075337E+03    0.80492E-02   -0.46575E+00  5376   0.588E+00    0.661E-01
RMM:   2    -0.356423697927E+03   -0.10623E-01   -0.15282E-01  7800   0.112E+00    0.399E-01
RMM:   3    -0.356420015170E+03    0.36828E-02   -0.20621E-02  7937   0.299E-01    0.276E-01
RMM:   4    -0.356419295703E+03    0.71947E-03   -0.50340E-03  8860   0.109E-01    0.173E-01
RMM:   5    -0.356419149142E+03    0.14656E-03   -0.23206E-03  8718   0.808E-02    0.999E-02
RMM:   6    -0.356419126607E+03    0.22536E-04   -0.92004E-04  8868   0.512E-02    0.521E-02
RMM:   7    -0.356419147462E+03   -0.20855E-04   -0.39824E-04  8139   0.305E-02    0.359E-02
RMM:   8    -0.356419159676E+03   -0.12213E-04   -0.12900E-04  6540   0.187E-02    0.218E-02
RMM:   9    -0.356419171759E+03   -0.12083E-04   -0.87669E-05  5659   0.162E-02    0.129E-02
RMM:  10    -0.356419177022E+03   -0.52632E-05   -0.36555E-05  4588   0.136E-02
   6 F= -.35641918E+03 E0= -.35642415E+03  d E =-.185212E-02
       N       E                     dE             d eps       ncg     rms          rms(c)
DAV:   1    -0.356418469702E+03    0.70206E-03   -0.23731E+00  5376   0.419E+00    0.468E-01
RMM:   2    -0.356423853254E+03   -0.53836E-02   -0.76934E-02  7790   0.800E-01    0.282E-01
RMM:   3    -0.356422101835E+03    0.17514E-02   -0.10300E-02  7985   0.215E-01    0.199E-01
RMM:   4    -0.356421680926E+03    0.42091E-03   -0.23193E-03  8782   0.763E-02    0.126E-01
RMM:   5    -0.356421580507E+03    0.10042E-03   -0.10976E-03  8478   0.562E-02    0.734E-02
RMM:   6    -0.356421536753E+03    0.43754E-04   -0.42276E-04  8615   0.363E-02    0.374E-02
RMM:   7    -0.356421536954E+03   -0.20156E-06   -0.17911E-04  6858   0.206E-02    0.258E-02
RMM:   8    -0.356421533172E+03    0.37817E-05   -0.60123E-05  5414   0.152E-02
   7 F= -.35642153E+03 E0= -.35642648E+03  d E =-.420827E-02
       N       E                     dE             d eps       ncg     rms          rms(c)
DAV:   1    -0.356423480750E+03   -0.19438E-02   -0.87813E-02  6776   0.982E-01    0.363E-01
RMM:   2    -0.356422603213E+03    0.87754E-03   -0.10489E-02  7933   0.265E-01    0.130E-01
RMM:   3    -0.356422244575E+03    0.35864E-03   -0.21733E-03  8176   0.806E-02    0.901E-02
RMM:   4    -0.356422043152E+03    0.20142E-03   -0.60013E-04  8140   0.475E-02    0.513E-02
RMM:   5    -0.356421998188E+03    0.44964E-04   -0.19725E-04  7374   0.268E-02    0.387E-02
RMM:   6    -0.356422007759E+03   -0.95703E-05   -0.71521E-05  5744   0.145E-02
   8 F= -.35642201E+03 E0= -.35642693E+03  d E =-.474586E-03
       N       E                     dE             d eps       ncg     rms          rms(c)
DAV:   1    -0.356423532249E+03   -0.15341E-02   -0.91384E-02  6752   0.101E+00    0.361E-01
RMM:   2    -0.356422626830E+03    0.90542E-03   -0.10543E-02  7861   0.271E-01    0.127E-01
RMM:   3    -0.356422258928E+03    0.36790E-03   -0.20821E-03  8142   0.805E-02    0.879E-02
RMM:   4    -0.356422074400E+03    0.18453E-03   -0.59450E-04  8089   0.478E-02    0.513E-02
RMM:   5    -0.356422038396E+03    0.36004E-04   -0.19711E-04  7322   0.270E-02    0.404E-02
RMM:   6    -0.356422056075E+03   -0.17679E-04   -0.72339E-05  5448   0.150E-02    0.271E-02
RMM:   7    -0.356422072773E+03   -0.16698E-04   -0.36173E-05  4052   0.127E-02    0.147E-02
RMM:   8    -0.356422082084E+03   -0.93114E-05   -0.25747E-05  3915   0.123E-02
   9 F= -.35642208E+03 E0= -.35642696E+03  d E =-.548912E-03
       N       E                     dE             d eps       ncg     rms          rms(c)
DAV:   1    -0.356422281274E+03   -0.20850E-03   -0.53037E-02  5584   0.669E-01    0.654E-02
RMM:   2    -0.356422446601E+03   -0.16533E-03   -0.22461E-03  7840   0.133E-01    0.375E-02
RMM:   3    -0.356422432499E+03    0.14103E-04   -0.25262E-04  7214   0.356E-02    0.282E-02
RMM:   4    -0.356422425328E+03    0.71702E-05   -0.63992E-05  5170   0.135E-02
  10 F= -.35642243E+03 E0= -.35642733E+03  d E =-.343244E-03
       N       E                     dE             d eps       ncg     rms          rms(c)
DAV:   1    -0.356421634614E+03    0.79788E-03   -0.47588E-01  5392   0.200E+00    0.192E-01
RMM:   2    -0.356423050002E+03   -0.14154E-02   -0.19723E-02  7550   0.395E-01    0.105E-01
RMM:   3    -0.356422926501E+03    0.12350E-03   -0.21712E-03  7916   0.103E-01    0.803E-02
RMM:   4    -0.356422848534E+03    0.77967E-04   -0.50520E-04  8605   0.346E-02    0.486E-02
RMM:   5    -0.356422841189E+03    0.73447E-05   -0.24756E-04  7381   0.262E-02    0.275E-02
RMM:   6    -0.356422833220E+03    0.79685E-05   -0.90674E-05  6457   0.170E-02
  11 F= -.35642283E+03 E0= -.35642780E+03  d E =-.751136E-03
       N       E                     dE             d eps       ncg     rms          rms(c)
DAV:   1    -0.356424170314E+03   -0.13291E-02   -0.56150E-02  6632   0.785E-01    0.294E-01
RMM:   2    -0.356423558721E+03    0.61159E-03   -0.64022E-03  7918   0.206E-01    0.103E-01
RMM:   3    -0.356423312774E+03    0.24595E-03   -0.13816E-03  8174   0.641E-02    0.693E-02
RMM:   4    -0.356423184960E+03    0.12781E-03   -0.35318E-04  7848   0.390E-02    0.402E-02
RMM:   5    -0.356423153498E+03    0.31463E-04   -0.12295E-04  6772   0.213E-02    0.306E-02
RMM:   6    -0.356423147348E+03    0.61503E-05   -0.36468E-05  3959   0.126E-02
  12 F= -.35642315E+03 E0= -.35642818E+03  d E =-.314127E-03
       N       E                     dE             d eps       ncg     rms          rms(c)
DAV:   1    -0.356423918429E+03   -0.76493E-03   -0.41131E-02  6536   0.675E-01    0.249E-01
RMM:   2    -0.356423465945E+03    0.45248E-03   -0.45436E-03  7879   0.176E-01    0.864E-02
RMM:   3    -0.356423291381E+03    0.17456E-03   -0.96936E-04  8166   0.537E-02    0.593E-02
RMM:   4    -0.356423195973E+03    0.95408E-04   -0.26615E-04  7626   0.332E-02    0.347E-02
RMM:   5    -0.356423173531E+03    0.22442E-04   -0.94688E-05  6553   0.194E-02    0.273E-02
RMM:   6    -0.356423169208E+03    0.43228E-05   -0.27749E-05  3675   0.111E-02
  13 F= -.35642317E+03 E0= -.35642826E+03  d E =-.335988E-03
       N       E                     dE             d eps       ncg     rms          rms(c)
DAV:   1    -0.356423343247E+03   -0.16972E-03   -0.26628E-02  5504   0.457E-01    0.497E-02
RMM:   2    -0.356423390457E+03   -0.47210E-04   -0.98213E-04  7889   0.903E-02    0.288E-02
RMM:   3    -0.356423385536E+03    0.49210E-05   -0.13055E-04  5520   0.253E-02    0.214E-02
RMM:   4    -0.356423381571E+03    0.39645E-05   -0.66632E-05  5288   0.145E-02
  14 F= -.35642338E+03 E0= -.35642850E+03  d E =-.212364E-03
       N       E                     dE             d eps       ncg     rms          rms(c)
DAV:   1    -0.356423412228E+03   -0.26692E-04   -0.23891E-01  5392   0.137E+00    0.143E-01
RMM:   2    -0.356423864044E+03   -0.45182E-03   -0.84815E-03  7814   0.266E-01    0.813E-02
RMM:   3    -0.356423837359E+03    0.26685E-04   -0.12744E-03  7894   0.711E-02    0.620E-02
RMM:   4    -0.356423778791E+03    0.58568E-04   -0.35865E-04  8101   0.296E-02    0.339E-02
RMM:   5    -0.356423776547E+03    0.22445E-05   -0.16102E-04  6735   0.204E-02    0.185E-02
RMM:   6    -0.356423775175E+03    0.13713E-05   -0.52803E-05  4561   0.127E-02
  15 F= -.35642378E+03 E0= -.35642897E+03  d E =-.605967E-03
       N       E                     dE             d eps       ncg     rms          rms(c)
DAV:   1    -0.356423750977E+03    0.25570E-04   -0.41504E-02  5504   0.571E-01    0.589E-02
RMM:   2    -0.356423835598E+03   -0.84621E-04   -0.15330E-03  7766   0.111E-01    0.336E-02
RMM:   3    -0.356423830102E+03    0.54959E-05   -0.21439E-04  6418   0.305E-02    0.253E-02
RMM:   4    -0.356423827414E+03    0.26880E-05   -0.10628E-04  5407   0.151E-02    0.144E-02
RMM:   5    -0.356423827952E+03   -0.53780E-06   -0.35933E-05  4204   0.107E-02
  16 F= -.35642383E+03 E0= -.35642905E+03  d E =-.658744E-03
       N       E                     dE             d eps       ncg     rms          rms(c)
DAV:   1    -0.356424897034E+03   -0.10696E-02   -0.57707E-02  6456   0.791E-01    0.282E-01
RMM:   2    -0.356424366320E+03    0.53071E-03   -0.60914E-03  7840   0.205E-01    0.971E-02
RMM:   3    -0.356424179305E+03    0.18701E-03   -0.13109E-03  8179   0.629E-02    0.702E-02
RMM:   4    -0.356424050247E+03    0.12906E-03   -0.34749E-04  7857   0.373E-02    0.386E-02
RMM:   5    -0.356424029771E+03    0.20476E-04   -0.11987E-04  6810   0.211E-02    0.299E-02
RMM:   6    -0.356424038537E+03   -0.87663E-05   -0.36974E-05  4006   0.124E-02
  17 F= -.35642404E+03 E0= -.35642925E+03  d E =-.210585E-03
       N       E                     dE             d eps       ncg     rms          rms(c)
DAV:   1    -0.356424478414E+03   -0.44864E-03   -0.30598E-02  6312   0.579E-01    0.200E-01
RMM:   2    -0.356424200197E+03    0.27822E-03   -0.31551E-03  7709   0.151E-01    0.687E-02
RMM:   3    -0.356424103047E+03    0.97150E-04   -0.63916E-04  8039   0.455E-02    0.507E-02
RMM:   4    -0.356424042363E+03    0.60684E-04   -0.19137E-04  7464   0.272E-02    0.290E-02
RMM:   5    -0.356424034374E+03    0.79892E-05   -0.62738E-05  5677   0.173E-02
  18 F= -.35642403E+03 E0= -.35642924E+03  d E =-.206422E-03
       N       E                     dE             d eps       ncg     rms          rms(c)
DAV:   1    -0.356424191766E+03   -0.14940E-03   -0.32496E-02  5440   0.522E-01    0.606E-02
RMM:   2    -0.356424266053E+03   -0.74287E-04   -0.14266E-03  7878   0.104E-01    0.352E-02
RMM:   3    -0.356424261437E+03    0.46161E-05   -0.20377E-04  7258   0.300E-02    0.246E-02
RMM:   4    -0.356424258558E+03    0.28792E-05   -0.70277E-05  5649   0.146E-02
  19 F= -.35642426E+03 E0= -.35642948E+03  d E =-.224184E-03
       N       E                     dE             d eps       ncg     rms          rms(c)
DAV:   1    -0.356424084537E+03    0.17690E-03   -0.29202E-01  5392   0.157E+00    0.165E-01
RMM:   2    -0.356424706553E+03   -0.62202E-03   -0.12286E-02  7721   0.311E-01    0.910E-02
RMM:   3    -0.356424656701E+03    0.49852E-04   -0.16122E-03  7919   0.844E-02    0.681E-02
RMM:   4    -0.356424577211E+03    0.79490E-04   -0.46955E-04  8367   0.343E-02    0.375E-02
RMM:   5    -0.356424569843E+03    0.73680E-05   -0.21037E-04  6699   0.232E-02    0.214E-02
RMM:   6    -0.356424565425E+03    0.44176E-05   -0.78185E-05  5186   0.149E-02
  20 F= -.35642457E+03 E0= -.35642987E+03  d E =-.531052E-03
       N       E                     dE             d eps       ncg     rms          rms(c)
DAV:   1    -0.356425619058E+03   -0.10492E-02   -0.46647E-02  6696   0.719E-01    0.276E-01
RMM:   2    -0.356425089759E+03    0.52930E-03   -0.56895E-03  7909   0.194E-01    0.958E-02
RMM:   3    -0.356424878036E+03    0.21172E-03   -0.12102E-03  8169   0.600E-02    0.656E-02
RMM:   4    -0.356424765280E+03    0.11276E-03   -0.30814E-04  7728   0.358E-02    0.378E-02
RMM:   5    -0.356424736876E+03    0.28404E-04   -0.10711E-04  6543   0.204E-02    0.287E-02
RMM:   6    -0.356424730282E+03    0.65945E-05   -0.31150E-05  3703   0.123E-02
  21 F= -.35642473E+03 E0= -.35643010E+03  d E =-.164856E-03
       N       E                     dE             d eps       ncg     rms          rms(c)
DAV:   1    -0.356424830657E+03   -0.93781E-04   -0.57798E-03  6480   0.257E-01    0.923E-02
RMM:   2    -0.356424770517E+03    0.60140E-04   -0.66002E-04  7633   0.698E-02    0.314E-02
RMM:   3    -0.356424741888E+03    0.28629E-04   -0.11812E-04  6574   0.204E-02    0.232E-02
RMM:   4    -0.356424726452E+03    0.15436E-04   -0.30757E-05  3588   0.145E-02    0.163E-02
RMM:   5    -0.356424722792E+03    0.36601E-05   -0.12340E-05  3036   0.116E-02
  22 F= -.35642472E+03 E0= -.35643011E+03  d E =-.157366E-03
       N       E                     dE             d eps       ncg     rms          rms(c)
DAV:   1    -0.356424846144E+03   -0.11969E-03   -0.32101E-02  5424   0.499E-01    0.599E-02
RMM:   2    -0.356424891785E+03   -0.45642E-04   -0.13067E-03  7785   0.989E-02    0.334E-02
RMM:   3    -0.356424885295E+03    0.64904E-05   -0.19564E-04  6828   0.276E-02    0.250E-02
RMM:   4    -0.356424874572E+03    0.10723E-04   -0.70643E-05  5407   0.140E-02    0.131E-02
RMM:   5    -0.356424872235E+03    0.23377E-05   -0.26606E-05  3698   0.100E-02
  23 F= -.35642487E+03 E0= -.35643030E+03  d E =-.149443E-03
       N       E                     dE             d eps       ncg     rms          rms(c)
DAV:   1    -0.356424812172E+03    0.62400E-04   -0.23516E-01  5376   0.135E+00    0.157E-01
RMM:   2    -0.356425161450E+03   -0.34928E-03   -0.93970E-03  7681   0.267E-01    0.842E-02
RMM:   3    -0.356425126625E+03    0.34824E-04   -0.14313E-03  7869   0.732E-02    0.625E-02
RMM:   4    -0.356425058537E+03    0.68089E-04   -0.45337E-04  7961   0.322E-02    0.323E-02
RMM:   5    -0.356425054419E+03    0.41179E-05   -0.18459E-04  6394   0.209E-02    0.185E-02
RMM:   6    -0.356425054501E+03   -0.81847E-07   -0.75451E-05  5014   0.134E-02
  24 F= -.35642505E+03 E0= -.35643057E+03  d E =-.331709E-03
       N       E                     dE             d eps       ncg     rms          rms(c)
DAV:   1    -0.356425694972E+03   -0.64055E-03   -0.78911E-02  5784   0.870E-01    0.255E-01
RMM:   2    -0.356425438658E+03    0.25631E-03   -0.64629E-03  7009   0.210E-01    0.886E-02
RMM:   3    -0.356425287869E+03    0.15079E-03   -0.11701E-03  7947   0.689E-02    0.644E-02
RMM:   4    -0.356425185385E+03    0.10248E-03   -0.32362E-04  7948   0.329E-02    0.364E-02
RMM:   5    -0.356425171781E+03    0.13604E-04   -0.10553E-04  6589   0.202E-02    0.284E-02
RMM:   6    -0.356425179290E+03   -0.75092E-05   -0.38554E-05  4108   0.121E-02
  25 F= -.35642518E+03 E0= -.35643071E+03  d E =-.124790E-03
       N       E                     dE             d eps       ncg     rms          rms(c)
DAV:   1    -0.356425272728E+03   -0.10095E-03   -0.15814E-02  5760   0.392E-01    0.109E-01
RMM:   2    -0.356425225114E+03    0.47614E-04   -0.12717E-03  6944   0.949E-02    0.375E-02
RMM:   3    -0.356425197798E+03    0.27316E-04   -0.20917E-04  6866   0.305E-02    0.283E-02
RMM:   4    -0.356425182247E+03    0.15551E-04   -0.57173E-05  4659   0.161E-02    0.178E-02
RMM:   5    -0.356425181503E+03    0.74334E-06   -0.17352E-05  3175   0.126E-02
  26 F= -.35642518E+03 E0= -.35643071E+03  d E =-.127003E-03
       N       E                     dE             d eps       ncg     rms          rms(c)
DAV:   1    -0.356425253906E+03   -0.71659E-04   -0.29136E-02  5408   0.482E-01    0.450E-02
RMM:   2    -0.356425336521E+03   -0.82616E-04   -0.11890E-03  7693   0.953E-02    0.273E-02
RMM:   3    -0.356425331579E+03    0.49421E-05   -0.15778E-04  6716   0.267E-02    0.200E-02
RMM:   4    -0.356425329369E+03    0.22106E-05   -0.39638E-05  4212   0.116E-02
  27 F= -.35642533E+03 E0= -.35643088E+03  d E =-.147866E-03
       N       E                     dE             d eps       ncg     rms          rms(c)
DAV:   1    -0.356425017332E+03    0.31425E-03   -0.26176E-01  5376   0.145E+00    0.128E-01
RMM:   2    -0.356425716288E+03   -0.69896E-03   -0.10360E-02  7546   0.284E-01    0.762E-02
RMM:   3    -0.356425664482E+03    0.51805E-04   -0.12781E-03  7902   0.762E-02    0.569E-02
RMM:   4    -0.356425624646E+03    0.39836E-04   -0.32992E-04  7745   0.275E-02    0.336E-02
RMM:   5    -0.356425620023E+03    0.46231E-05   -0.15110E-04  6619   0.192E-02    0.196E-02
RMM:   6    -0.356425615845E+03    0.41776E-05   -0.55650E-05  4790   0.133E-02
  28 F= -.35642562E+03 E0= -.35643125E+03  d E =-.434342E-03
