       N       E                     dE             d eps       ncg     rms          rms(c)
DAV:   1     0.246607187888E+04    0.24661E+04   -0.13106E+05  6184   0.108E+03
DAV:   2    -0.232180244996E+02   -0.24893E+04   -0.24051E+04  6436   0.420E+02
DAV:   3    -0.327570255110E+03   -0.30435E+03   -0.28914E+03  9496   0.101E+02
DAV:   4    -0.364065390665E+03   -0.36495E+02   -0.34893E+02  9696   0.328E+01
DAV:   5    -0.367748345958E+03   -0.36830E+01   -0.36273E+01  8912   0.995E+00    0.622E+01
RMM:   6    -0.357271220279E+03    0.10477E+02   -0.22936E+01  7648   0.102E+01    0.288E+01
RMM:   7    -0.358015038842E+03   -0.74382E+00   -0.22389E+01  8127   0.799E+00    0.102E+01
RMM:   8    -0.353600419365E+03    0.44146E+01   -0.44144E+00  8469   0.298E+00    0.435E+00
RMM:   9    -0.353581088994E+03    0.19330E-01   -0.17055E+00  8354   0.159E+00    0.325E+00
RMM:  10    -0.353481795775E+03    0.99293E-01   -0.40608E-01  8266   0.127E+00    0.124E+00
RMM:  11    -0.353463742627E+03    0.18053E-01   -0.13308E-01  8381   0.549E-01    0.669E-01
RMM:  12    -0.353458009726E+03    0.57329E-02   -0.39493E-02  8400   0.280E-01    0.402E-01
RMM:  13    -0.353457046887E+03    0.96284E-03   -0.13741E-02  8393   0.160E-01    0.243E-01
RMM:  14    -0.353457298606E+03   -0.25172E-03   -0.62379E-03  8745   0.921E-02    0.137E-01
RMM:  15    -0.353457301803E+03   -0.31964E-05   -0.26598E-03  8748   0.588E-02    0.641E-02
RMM:  16    -0.353457312134E+03   -0.10331E-04   -0.11223E-03  7447   0.347E-02    0.316E-02
RMM:  17    -0.353457328362E+03   -0.16228E-04   -0.47639E-04  6559   0.243E-02    0.150E-02
RMM:  18    -0.353457339405E+03   -0.11042E-04   -0.21462E-04  6164   0.170E-02    0.819E-03
RMM:  19    -0.353457345941E+03   -0.65367E-05   -0.10300E-04  5404   0.122E-02    0.496E-03
RMM:  20    -0.353457346837E+03   -0.89558E-06   -0.40193E-05  4925   0.104E-02
   1 F= -.35345735E+03 E0= -.35346115E+03  d E =-.353457E+03
       N       E                     dE             d eps       ncg     rms          rms(c)
DAV:   1    -0.353459908529E+03   -0.25626E-02   -0.11339E-01  6852   0.102E+00    0.326E-01
RMM:   2    -0.353459729421E+03    0.17911E-03   -0.97577E-03  8168   0.254E-01    0.125E-01
RMM:   3    -0.353459222952E+03    0.50647E-03   -0.18381E-03  8426   0.786E-02    0.910E-02
RMM:   4    -0.353459008122E+03    0.21483E-03   -0.54311E-04  8406   0.471E-02    0.492E-02
RMM:   5    -0.353458968846E+03    0.39276E-04   -0.15092E-04  7539   0.237E-02    0.361E-02
RMM:   6    -0.353458964727E+03    0.41189E-05   -0.73922E-05  6302   0.142E-02
   2 F= -.35345896E+03 E0= -.35346279E+03  d E =-.161789E-02
       N       E                     dE             d eps       ncg     rms          rms(c)
DAV:   1    -0.353469827400E+03   -0.10859E-01   -0.10184E+00  6400   0.307E+00    0.966E-01
RMM:   2    -0.353467796180E+03    0.20312E-02   -0.84566E-02  8148   0.756E-01    0.374E-01
RMM:   3    -0.353463138880E+03    0.46573E-02   -0.15829E-02  8463   0.229E-01    0.269E-01
RMM:   4    -0.353461303988E+03    0.18349E-02   -0.47514E-03  8496   0.140E-01    0.149E-01
RMM:   5    -0.353460990433E+03    0.31356E-03   -0.13628E-03  8495   0.686E-02    0.110E-01
RMM:   6    -0.353461013699E+03   -0.23266E-04   -0.66522E-04  8577   0.406E-02    0.775E-02
RMM:   7    -0.353460983300E+03    0.30399E-04   -0.28996E-04  7454   0.294E-02    0.377E-02
RMM:   8    -0.353460985638E+03   -0.23382E-05   -0.16226E-04  7000   0.201E-02    0.266E-02
RMM:   9    -0.353460989348E+03   -0.37104E-05   -0.68193E-05  4944   0.155E-02
   3 F= -.35346099E+03 E0= -.35346488E+03  d E =-.364251E-02
       N       E                     dE             d eps       ncg     rms          rms(c)
DAV:   1    -0.353463205102E+03   -0.22195E-02   -0.18981E-01  6384   0.128E+00    0.329E-01
RMM:   2    -0.353463015963E+03    0.18914E-03   -0.12843E-02  7671   0.295E-01    0.127E-01
RMM:   3    -0.353462744292E+03    0.27167E-03   -0.20825E-03  8348   0.951E-02    0.989E-02
RMM:   4    -0.353462500928E+03    0.24336E-03   -0.62231E-04  8497   0.471E-02    0.550E-02
RMM:   5    -0.353462472517E+03    0.28412E-04   -0.21347E-04  7839   0.262E-02    0.390E-02
RMM:   6    -0.353462481653E+03   -0.91367E-05   -0.86903E-05  6764   0.156E-02
   4 F= -.35346248E+03 E0= -.35346634E+03  d E =-.149231E-02
       N       E                     dE             d eps       ncg     rms          rms(c)
DAV:   1    -0.353469556358E+03   -0.70838E-02   -0.16988E+00  5960   0.382E+00    0.959E-01
RMM:   2    -0.353468291370E+03    0.12650E-02   -0.11314E-01  7456   0.885E-01    0.365E-01
RMM:   3    -0.353465595681E+03    0.26957E-02   -0.16700E-02  8310   0.281E-01    0.280E-01
RMM:   4    -0.353463606601E+03    0.19891E-02   -0.50004E-03  8449   0.133E-01    0.161E-01
RMM:   5    -0.353463375597E+03    0.23100E-03   -0.16789E-03  8525   0.744E-02    0.118E-01
RMM:   6    -0.353463441045E+03   -0.65448E-04   -0.75812E-04  8747   0.437E-02    0.745E-02
RMM:   7    -0.353463456813E+03   -0.15768E-04   -0.34774E-04  7622   0.317E-02    0.379E-02
RMM:   8    -0.353463487231E+03   -0.30418E-04   -0.17358E-04  6760   0.205E-02    0.261E-02
RMM:   9    -0.353463504978E+03   -0.17747E-04   -0.78418E-05  5250   0.166E-02    0.210E-02
RMM:  10    -0.353463522634E+03   -0.17657E-04   -0.34732E-05  4639   0.121E-02    0.128E-02
RMM:  11    -0.353463537977E+03   -0.15342E-04   -0.22893E-05  4192   0.122E-02    0.556E-03
RMM:  12    -0.353463541282E+03   -0.33051E-05   -0.16662E-05  3877   0.108E-02
   5 F= -.35346354E+03 E0= -.35346731E+03  d E =-.255193E-02
       N       E                     dE             d eps       ncg     rms          rms(c)
DAV:   1    -0.353464337182E+03   -0.79921E-03   -0.14224E-01  6336   0.111E+00    0.281E-01
RMM:   2    -0.353464246462E+03    0.90720E-04   -0.95449E-03  7465   0.255E-01    0.108E-01
RMM:   3    -0.353464019256E+03    0.22721E-03   -0.14661E-03  8294   0.826E-02    0.829E-02
RMM:   4    -0.353463838401E+03    0.18086E-03   -0.42673E-04  8404   0.399E-02    0.470E-02
RMM:   5    -0.353463810766E+03    0.27635E-04   -0.13790E-04  7405   0.220E-02    0.339E-02
RMM:   6    -0.353463803871E+03    0.68949E-05   -0.54283E-05  5266   0.131E-02
   6 F= -.35346380E+03 E0= -.35346760E+03  d E =-.281452E-02
       N       E                     dE             d eps       ncg     rms          rms(c)
DAV:   1    -0.353463807655E+03    0.31109E-05   -0.30801E-03  6012   0.163E-01    0.378E-02
RMM:   2    -0.353463807821E+03   -0.16561E-06   -0.21955E-04  7575   0.378E-02    0.166E-02
RMM:   3    -0.353463797870E+03    0.99510E-05   -0.26555E-05  4286   0.121E-02
   7 F= -.35346380E+03 E0= -.35346760E+03  d E =-.280852E-02
       N       E                     dE             d eps       ncg     rms          rms(c)
DAV:   1    -0.353464003117E+03   -0.19530E-03   -0.88607E-02  5824   0.861E-01    0.114E-01
RMM:   2    -0.353464274034E+03   -0.27092E-03   -0.44505E-03  7361   0.176E-01    0.507E-02
RMM:   3    -0.353464170754E+03    0.10328E-03   -0.38566E-04  7558   0.518E-02    0.383E-02
RMM:   4    -0.353464144979E+03    0.25775E-04   -0.10571E-04  6587   0.185E-02    0.236E-02
RMM:   5    -0.353464138152E+03    0.68272E-05   -0.33770E-05  4323   0.119E-02
   8 F= -.35346414E+03 E0= -.35346793E+03  d E =-.340282E-03
       N       E                     dE             d eps       ncg     rms          rms(c)
DAV:   1    -0.353463981604E+03    0.16338E-03   -0.26518E-01  5816   0.149E+00    0.199E-01
RMM:   2    -0.353464805390E+03   -0.82379E-03   -0.13224E-02  7718   0.303E-01    0.943E-02
RMM:   3    -0.353464525340E+03    0.28005E-03   -0.13087E-03  8052   0.862E-02    0.698E-02
RMM:   4    -0.353464454275E+03    0.71066E-04   -0.37763E-04  8102   0.326E-02    0.422E-02
RMM:   5    -0.353464441065E+03    0.13209E-04   -0.14664E-04  7322   0.207E-02    0.286E-02
RMM:   6    -0.353464435758E+03    0.53075E-05   -0.67283E-05  5702   0.137E-02
   9 F= -.35346444E+03 E0= -.35346821E+03  d E =-.637888E-03
       N       E                     dE             d eps       ncg     rms          rms(c)
DAV:   1    -0.353464407550E+03    0.33515E-04   -0.22958E-02  5952   0.437E-01    0.565E-02
RMM:   2    -0.353464482094E+03   -0.74544E-04   -0.11566E-03  7772   0.893E-02    0.291E-02
RMM:   3    -0.353464456619E+03    0.25475E-04   -0.12603E-04  7027   0.256E-02    0.211E-02
RMM:   4    -0.353464450241E+03    0.63785E-05   -0.35706E-05  4487   0.116E-02
  10 F= -.35346445E+03 E0= -.35346823E+03  d E =-.652371E-03
       N       E                     dE             d eps       ncg     rms          rms(c)
DAV:   1    -0.353464911508E+03   -0.45489E-03   -0.13802E-01  5928   0.109E+00    0.213E-01
RMM:   2    -0.353465177408E+03   -0.26590E-03   -0.81754E-03  7313   0.235E-01    0.870E-02
RMM:   3    -0.353464975607E+03    0.20180E-03   -0.10551E-03  8220   0.729E-02    0.649E-02
RMM:   4    -0.353464889826E+03    0.85781E-04   -0.29702E-04  8065   0.308E-02    0.361E-02
RMM:   5    -0.353464876341E+03    0.13485E-04   -0.10413E-04  6885   0.188E-02    0.253E-02
RMM:   6    -0.353464879084E+03   -0.27429E-05   -0.38947E-05  4474   0.115E-02
  11 F= -.35346488E+03 E0= -.35346861E+03  d E =-.428843E-03
       N       E                     dE             d eps       ncg     rms          rms(c)
DAV:   1    -0.353465226295E+03   -0.34995E-03   -0.74459E-01  5848   0.254E+00    0.481E-01
RMM:   2    -0.353466689307E+03   -0.14630E-02   -0.43655E-02  7143   0.543E-01    0.194E-01
RMM:   3    -0.353465558700E+03    0.11306E-02   -0.52573E-03  8222   0.166E-01    0.145E-01
RMM:   4    -0.353465127727E+03    0.43097E-03   -0.15018E-03  8380   0.697E-02    0.819E-02
RMM:   5    -0.353465067394E+03    0.60334E-04   -0.54201E-04  8503   0.419E-02    0.594E-02
RMM:   6    -0.353465084938E+03   -0.17545E-04   -0.24023E-04  7716   0.251E-02    0.390E-02
RMM:   7    -0.353465094299E+03   -0.93606E-05   -0.97767E-05  6308   0.175E-02
  12 F= -.35346509E+03 E0= -.35346872E+03  d E =-.644058E-03
       N       E                     dE             d eps       ncg     rms          rms(c)
DAV:   1    -0.353465173593E+03   -0.88654E-04   -0.18206E-01  5912   0.124E+00    0.196E-01
RMM:   2    -0.353465652069E+03   -0.47848E-03   -0.95212E-03  7347   0.256E-01    0.837E-02
RMM:   3    -0.353465498769E+03    0.15330E-03   -0.10529E-03  8178   0.782E-02    0.674E-02
RMM:   4    -0.353465419753E+03    0.79016E-04   -0.30623E-04  8161   0.298E-02    0.391E-02
RMM:   5    -0.353465405360E+03    0.14393E-04   -0.10731E-04  7000   0.188E-02    0.250E-02
RMM:   6    -0.353465399181E+03    0.61793E-05   -0.39662E-05  4509   0.115E-02
  13 F= -.35346540E+03 E0= -.35346901E+03  d E =-.304882E-03
       N       E                     dE             d eps       ncg     rms          rms(c)
DAV:   1    -0.353465406730E+03   -0.13697E-05   -0.47326E-03  6304   0.200E-01    0.284E-02
RMM:   2    -0.353465420741E+03   -0.14011E-04   -0.25831E-04  7175   0.414E-02    0.135E-02
RMM:   3    -0.353465413949E+03    0.67919E-05   -0.22540E-05  3894   0.134E-02
  14 F= -.35346541E+03 E0= -.35346902E+03  d E =-.319650E-03
       N       E                     dE             d eps       ncg     rms          rms(c)
DAV:   1    -0.353465410856E+03    0.98850E-05   -0.18926E-02  5936   0.397E-01    0.597E-02
RMM:   2    -0.353465458854E+03   -0.47998E-04   -0.99353E-04  7466   0.814E-02    0.262E-02
RMM:   3    -0.353465439185E+03    0.19670E-04   -0.10813E-04  6901   0.243E-02    0.211E-02
RMM:   4    -0.353465431375E+03    0.78096E-05   -0.29871E-05  4159   0.120E-02
  15 F= -.35346543E+03 E0= -.35346904E+03  d E =-.337076E-03
       N       E                     dE             d eps       ncg     rms          rms(c)
DAV:   1    -0.353465894094E+03   -0.45491E-03   -0.33456E-02  6308   0.578E-01    0.185E-01
RMM:   2    -0.353465803733E+03    0.90361E-04   -0.31151E-03  7842   0.148E-01    0.680E-02
RMM:   3    -0.353465659199E+03    0.14453E-03   -0.54648E-04  8329   0.442E-02    0.508E-02
RMM:   4    -0.353465586310E+03    0.72889E-04   -0.17247E-04  7851   0.262E-02    0.279E-02
RMM:   5    -0.353465572409E+03    0.13901E-04   -0.42673E-05  4534   0.154E-02    0.223E-02
RMM:   6    -0.353465568779E+03    0.36301E-05   -0.20829E-05  3567   0.106E-02
  16 F= -.35346557E+03 E0= -.35346919E+03  d E =-.137404E-03
       N       E                     dE             d eps       ncg     rms          rms(c)
DAV:   1    -0.353465719259E+03   -0.14685E-03   -0.15089E-02  6240   0.390E-01    0.121E-01
RMM:   2    -0.353465685263E+03    0.33996E-04   -0.13669E-03  7903   0.100E-01    0.436E-02
RMM:   3    -0.353465621066E+03    0.64197E-04   -0.22360E-04  7511   0.290E-02    0.328E-02
RMM:   4    -0.353465589941E+03    0.31124E-04   -0.69895E-05  5738   0.183E-02    0.189E-02
RMM:   5    -0.353465582728E+03    0.72130E-05   -0.17220E-05  3313   0.123E-02
  17 F= -.35346558E+03 E0= -.35346922E+03  d E =-.151353E-03
       N       E                     dE             d eps       ncg     rms          rms(c)
DAV:   1    -0.353465707758E+03   -0.11782E-03   -0.20340E-02  5944   0.422E-01    0.840E-02
RMM:   2    -0.353465741312E+03   -0.33554E-04   -0.12490E-03  7847   0.938E-02    0.386E-02
RMM:   3    -0.353465710474E+03    0.30838E-04   -0.18180E-04  7266   0.300E-02    0.285E-02
RMM:   4    -0.353465695561E+03    0.14914E-04   -0.56903E-05  6228   0.150E-02    0.153E-02
RMM:   5    -0.353465692330E+03    0.32307E-05   -0.15314E-05  3383   0.900E-03
  18 F= -.35346569E+03 E0= -.35346933E+03  d E =-.109602E-03
       N       E                     dE             d eps       ncg     rms          rms(c)
DAV:   1    -0.353465802542E+03   -0.10698E-03   -0.14034E-01  5744   0.111E+00    0.202E-01
RMM:   2    -0.353466090755E+03   -0.28821E-03   -0.83863E-03  7680   0.241E-01    0.919E-02
RMM:   3    -0.353465843942E+03    0.24681E-03   -0.10507E-03  8231   0.742E-02    0.672E-02
RMM:   4    -0.353465765770E+03    0.78172E-04   -0.30089E-04  8099   0.311E-02    0.393E-02
RMM:   5    -0.353465757875E+03    0.78949E-05   -0.11287E-04  7031   0.182E-02    0.275E-02
RMM:   6    -0.353465763379E+03   -0.55037E-05   -0.49918E-05  4945   0.120E-02
  19 F= -.35346576E+03 E0= -.35346940E+03  d E =-.180650E-03
       N       E                     dE             d eps       ncg     rms          rms(c)
DAV:   1    -0.353465787469E+03   -0.29595E-04   -0.80186E-03  6048   0.266E-01    0.532E-02
RMM:   2    -0.353465815359E+03   -0.27889E-04   -0.51628E-04  7376   0.598E-02    0.242E-02
RMM:   3    -0.353465799637E+03    0.15722E-04   -0.60180E-05  5369   0.191E-02    0.172E-02
RMM:   4    -0.353465793890E+03    0.57476E-05   -0.14568E-05  3166   0.109E-02
  20 F= -.35346579E+03 E0= -.35346944E+03  d E =-.211161E-03
       N       E                     dE             d eps       ncg     rms          rms(c)
DAV:   1    -0.353465793790E+03    0.58471E-05   -0.17039E-03  5992   0.122E-01    0.229E-02
RMM:   2    -0.353465798633E+03   -0.48430E-05   -0.10844E-04  7346   0.273E-02    0.121E-02
RMM:   3    -0.353465793858E+03    0.47753E-05   -0.10829E-05  3031   0.915E-03
  21 F= -.35346579E+03 E0= -.35346943E+03  d E =-.211129E-03
       N       E                     dE             d eps       ncg     rms          rms(c)
DAV:   1    -0.353465793663E+03    0.49703E-05   -0.26361E-04  5880   0.498E-02    0.106E-02
RMM:   2    -0.353465793249E+03    0.41335E-06   -0.13438E-05  3064   0.107E-02
  22 F= -.35346579E+03 E0= -.35346943E+03  d E =-.210521E-03
       N       E                     dE             d eps       ncg     rms          rms(c)
DAV:   1    -0.353465791045E+03    0.26177E-05   -0.58322E-05  5760   0.246E-02    0.273E-03
RMM:   2    -0.353465791334E+03   -0.28918E-06   -0.35991E-06  2964   0.530E-03
  23 F= -.35346579E+03 E0= -.35346943E+03  d E =-.208606E-03
       N       E                     dE             d eps       ncg     rms          rms(c)
DAV:   1    -0.353465792438E+03   -0.13925E-05   -0.26197E-05  3992   0.169E-02    0.569E-03
RMM:   2    -0.353465792128E+03    0.30906E-06   -0.36069E-06  2934   0.743E-03
  24 F= -.35346579E+03 E0= -.35346943E+03  d E =-.209400E-03
       N       E                     dE             d eps       ncg     rms          rms(c)
DAV:   1    -0.353465790445E+03    0.19927E-05   -0.50566E-06  3208   0.768E-03    0.181E-03
RMM:   2    -0.353465790497E+03   -0.52278E-07   -0.93291E-07  2837   0.305E-03
  25 F= -.35346579E+03 E0= -.35346943E+03  d E =-.207769E-03
       N       E                     dE             d eps       ncg     rms          rms(c)
DAV:   1    -0.353465790423E+03    0.22257E-07   -0.17136E-06  3096   0.500E-03    0.127E-03
RMM:   2    -0.353465790252E+03    0.17104E-06   -0.41058E-07  2385   0.247E-03
  26 F= -.35346579E+03 E0= -.35346943E+03  d E =-.207523E-03
       N       E                     dE             d eps       ncg     rms          rms(c)
DAV:   1    -0.353465808988E+03   -0.18566E-04   -0.31283E-03  5800   0.161E-01    0.211E-02
RMM:   2    -0.353465816272E+03   -0.72835E-05   -0.14234E-04  6775   0.320E-02    0.878E-03
RMM:   3    -0.353465813630E+03    0.26415E-05   -0.91624E-06  2950   0.112E-02
  27 F= -.35346581E+03 E0= -.35346945E+03  d E =-.233787E-04
