<?xml version="1.0" encoding="ISO-8859-1"?>
<modeling>
 <generator>
  <i name="program" type="string">vasp </i>
  <i name="version" type="string">5.4.1  </i>
  <i name="subversion" type="string">05Feb16 (build Jan 29 2020 16:04:39) complex                          parallel </i>
  <i name="platform" type="string">IFC91_ompi </i>
  <i name="date" type="string">2020 06 15 </i>
  <i name="time" type="string">03:51:40 </i>
 </generator>
 <incar>
  <i type="string" name="SYSTEM"> automatically generated by mexm</i>
  <i type="int" name="ISTART">     0</i>
  <i type="string" name="PREC">accurate               ! avoid wrap aro</i>
  <i type="string" name="ALGO"> Fast                   ! blocked Davids</i>
  <i type="int" name="ISPIN">     1</i>
  <i type="int" name="ICHARG">     2</i>
  <i type="int" name="NELM">    70</i>
  <i type="int" name="IBRION">     2</i>
  <i name="EDIFF">      0.00001000</i>
  <i name="EDIFFG">     -0.01000000</i>
  <i type="int" name="NSW">   300</i>
  <i type="int" name="ISIF">     3</i>
  <i type="int" name="ISYM">     1</i>
  <i name="ENCUT">    300.00000000</i>
  <i name="POTIM">      0.15000000</i>
  <i type="string" name="LREAL"> Auto                  ! unpublished met</i>
  <i type="int" name="ISMEAR">     1</i>
  <i name="SIGMA">      0.15000000</i>
  <i type="logical" name="LWAVE"> F  </i>
  <i type="logical" name="LCHARG"> F  </i>
  <i type="logical" name="LVTOT"> F  </i>
  <v type="int" name="KPOINT_BSE">    -1     0     0     0</v>
  <i type="int" name="NELM">    70</i>
 </incar>
 <kpoints>
  <generation param="Gamma">
   <v type="int" name="divisions">       3        3        3 </v>
   <v name="usershift">      0.00000000       0.00000000       0.00000000 </v>
   <v name="genvec1">      0.33333333      -0.00000000       0.00000000 </v>
   <v name="genvec2">      0.00000000       0.33333333       0.00000000 </v>
   <v name="genvec3">      0.00000000       0.00000000       0.33333333 </v>
   <v name="shift">      0.00000000       0.00000000       0.00000000 </v>
  </generation>
  <varray name="kpointlist" >
   <v>       0.00000000       0.00000000       0.00000000 </v>
   <v>       0.33333333       0.00000000      -0.00000000 </v>
   <v>      -0.00000000       0.33333333      -0.00000000 </v>
   <v>       0.33333333       0.33333333       0.00000000 </v>
   <v>      -0.33333333       0.33333333       0.00000000 </v>
   <v>      -0.00000000       0.00000000       0.33333333 </v>
   <v>       0.33333333       0.00000000       0.33333333 </v>
   <v>      -0.33333333      -0.00000000       0.33333333 </v>
   <v>       0.00000000       0.33333333       0.33333333 </v>
   <v>       0.33333333       0.33333333       0.33333333 </v>
   <v>      -0.33333333       0.33333333       0.33333333 </v>
   <v>      -0.00000000      -0.33333333       0.33333333 </v>
   <v>       0.33333333      -0.33333333       0.33333333 </v>
   <v>      -0.33333333      -0.33333333       0.33333333 </v>
  </varray>
  <varray name="weights" >
   <v>       0.03703704 </v>
   <v>       0.07407407 </v>
   <v>       0.07407407 </v>
   <v>       0.07407407 </v>
   <v>       0.07407407 </v>
   <v>       0.07407407 </v>
   <v>       0.07407407 </v>
   <v>       0.07407407 </v>
   <v>       0.07407407 </v>
   <v>       0.07407407 </v>
   <v>       0.07407407 </v>
   <v>       0.07407407 </v>
   <v>       0.07407407 </v>
   <v>       0.07407407 </v>
  </varray>
 </kpoints>
 <parameters>
  <separator name="general" >
   <i type="string" name="SYSTEM">automatically generated by mexm</i>
   <i type="logical" name="LCOMPAT"> F  </i>
  </separator>
  <separator name="electronic" >
   <i type="string" name="PREC">accura</i>
   <i name="ENMAX">    300.00000000</i>
   <i name="ENAUG">    461.25700000</i>
   <i name="EDIFF">      0.00001000</i>
   <i type="int" name="IALGO">    68</i>
   <i type="int" name="IWAVPR">    11</i>
   <i type="int" name="NBANDS">   176</i>
   <i name="NELECT">    290.00000000</i>
   <i type="int" name="TURBO">     0</i>
   <i type="int" name="IRESTART">     0</i>
   <i type="int" name="NREBOOT">     0</i>
   <i type="int" name="NMIN">     0</i>
   <i name="EREF">      0.00000000</i>
   <separator name="electronic smearing" >
    <i type="int" name="ISMEAR">     1</i>
    <i name="SIGMA">      0.15000000</i>
    <i name="KSPACING">      0.50000000</i>
    <i type="logical" name="KGAMMA"> T  </i>
   </separator>
   <separator name="electronic projectors" >
    <i type="logical" name="LREAL"> T  </i>
    <v name="ROPT">     -0.00025000     -0.00025000     -0.00025000     -0.00025000</v>
    <i type="int" name="LMAXPAW">  -100</i>
    <i type="int" name="LMAXMIX">     2</i>
    <i type="logical" name="NLSPLINE"> F  </i>
   </separator>
   <separator name="electronic startup" >
    <i type="int" name="ISTART">     0</i>
    <i type="int" name="ICHARG">     2</i>
    <i type="int" name="INIWAV">     1</i>
   </separator>
   <separator name="electronic spin" >
    <i type="int" name="ISPIN">     1</i>
    <i type="logical" name="LNONCOLLINEAR"> F  </i>
    <v name="MAGMOM">      1.00000000      1.00000000      1.00000000      1.00000000      1.00000000      1.00000000      1.00000000      1.00000000      1.00000000      1.00000000      1.00000000      1.00000000      1.00000000      1.00000000      1.00000000      1.00000000      1.00000000      1.00000000      1.00000000      1.00000000
      1.00000000      1.00000000      1.00000000      1.00000000      1.00000000      1.00000000      1.00000000      1.00000000      1.00000000      1.00000000      1.00000000      1.00000000      1.00000000      1.00000000      1.00000000      1.00000000</v>
    <i name="NUPDOWN">     -1.00000000</i>
    <i type="logical" name="LSORBIT"> F  </i>
    <v name="SAXIS">      0.00000000      0.00000000      1.00000000</v>
    <i type="logical" name="LSPIRAL"> F  </i>
    <v name="QSPIRAL">      0.00000000      0.00000000      0.00000000</v>
    <i type="logical" name="LZEROZ"> F  </i>
   </separator>
   <separator name="electronic exchange-correlation" >
    <i type="logical" name="LASPH"> F  </i>
    <i type="logical" name="LMETAGGA"> F  </i>
   </separator>
   <separator name="electronic convergence" >
    <i type="int" name="NELM">    70</i>
    <i type="int" name="NELMDL">    -5</i>
    <i type="int" name="NELMIN">     2</i>
    <i name="ENINI">    300.00000000</i>
    <separator name="electronic convergence detail" >
     <i type="logical" name="LDIAG"> T  </i>
     <i type="logical" name="LSUBROT"> F  </i>
     <i name="WEIMIN">      0.00100000</i>
     <i name="EBREAK">      0.00000001</i>
     <i name="DEPER">      0.30000000</i>
     <i type="int" name="NRMM">     4</i>
     <i name="TIME">      0.40000000</i>
    </separator>
   </separator>
   <separator name="electronic mixer" >
    <i name="AMIX">      0.40000000</i>
    <i name="BMIX">      1.00000000</i>
    <i name="AMIN">      0.10000000</i>
    <i name="AMIX_MAG">      1.60000000</i>
    <i name="BMIX_MAG">      1.00000000</i>
    <separator name="electronic mixer details" >
     <i type="int" name="IMIX">     4</i>
     <i type="logical" name="MIXFIRST"> F  </i>
     <i type="int" name="MAXMIX">   -45</i>
     <i name="WC">    100.00000000</i>
     <i type="int" name="INIMIX">     1</i>
     <i type="int" name="MIXPRE">     1</i>
     <i type="int" name="MREMOVE">     5</i>
    </separator>
   </separator>
   <separator name="electronic dipolcorrection" >
    <i type="logical" name="LDIPOL"> F  </i>
    <i type="logical" name="LMONO"> F  </i>
    <i type="int" name="IDIPOL">     0</i>
    <i name="EPSILON">      1.00000000</i>
    <v name="DIPOL">   -100.00000000   -100.00000000   -100.00000000</v>
    <i name="EFIELD">      0.00000000</i>
   </separator>
  </separator>
  <separator name="grids" >
   <i type="int" name="NGX">    40</i>
   <i type="int" name="NGY">    60</i>
   <i type="int" name="NGZ">    60</i>
   <i type="int" name="NGXF">    80</i>
   <i type="int" name="NGYF">   120</i>
   <i type="int" name="NGZF">   120</i>
   <i type="logical" name="ADDGRID"> F  </i>
  </separator>
  <separator name="ionic" >
   <i type="int" name="NSW">   300</i>
   <i type="int" name="IBRION">     2</i>
   <i type="int" name="ISIF">     3</i>
   <i name="PSTRESS">      0.00000000</i>
   <i name="EDIFFG">     -0.01000000</i>
   <i type="int" name="NFREE">     1</i>
   <i name="POTIM">      0.15000000</i>
   <i name="SMASS">     -3.00000000</i>
   <i name="SCALEE">      1.00000000</i>
  </separator>
  <separator name="ionic md" >
   <i name="TEBEG">      0.00010000</i>
   <i name="TEEND">      0.00010000</i>
   <i type="int" name="NBLOCK">     1</i>
   <i type="int" name="KBLOCK">   300</i>
   <i type="int" name="NPACO">   256</i>
   <i name="APACO">     16.00000000</i>
  </separator>
  <separator name="symmetry" >
   <i type="int" name="ISYM">     1</i>
   <i name="SYMPREC">      0.00001000</i>
  </separator>
  <separator name="dos" >
   <i type="logical" name="LORBIT"> F  </i>
   <v name="RWIGS">     -1.00000000     -1.00000000     -1.00000000     -1.00000000</v>
   <i type="int" name="NEDOS">   301</i>
   <i name="EMIN">     10.00000000</i>
   <i name="EMAX">    -10.00000000</i>
   <i name="EFERMI">      0.00000000</i>
  </separator>
  <separator name="writing" >
   <i type="int" name="NWRITE">     2</i>
   <i type="logical" name="LWAVE"> F  </i>
   <i type="logical" name="LCHARG"> F  </i>
   <i type="logical" name="LPARD"> F  </i>
   <i type="logical" name="LVTOT"> F  </i>
   <i type="logical" name="LVHAR"> F  </i>
   <i type="logical" name="LELF"> F  </i>
   <i type="logical" name="LOPTICS"> F  </i>
   <v name="STM">      0.00000000      0.00000000      0.00000000      0.00000000      0.00000000      0.00000000      0.00000000</v>
  </separator>
  <separator name="performance" >
   <i type="int" name="NPAR">     4</i>
   <i type="int" name="NSIM">     4</i>
   <i type="int" name="NBLK">    -1</i>
   <i type="logical" name="LPLANE"> T  </i>
   <i type="logical" name="LSCALAPACK"> T  </i>
   <i type="logical" name="LSCAAWARE"> F  </i>
   <i type="logical" name="LSCALU"> F  </i>
   <i type="logical" name="LASYNC"> F  </i>
   <i type="logical" name="LORBITALREAL"> F  </i>
  </separator>
  <separator name="miscellaneous" >
   <i type="int" name="IDIOT">     3</i>
   <i type="logical" name="LMUSIC"> F  </i>
   <v name="POMASS">     91.22400000    178.49000000     92.91000000    180.94800000</v>
   <v name="DARWINR">      0.00000000      0.00000000      0.00000000      0.00000000</v>
   <v name="DARWINV">      1.00000000      1.00000000      1.00000000      1.00000000</v>
   <i type="logical" name="LCORR"> T  </i>
  </separator>
  <i type="logical" name="GGA_COMPAT"> T  </i>
  <i type="logical" name="LBERRY"> F  </i>
  <i type="int" name="ICORELEVEL">     0</i>
  <i type="logical" name="LDAU"> F  </i>
  <i type="int" name="I_CONSTRAINED_M">     0</i>
  <separator name="electronic exchange-correlation" >
   <i type="string" name="GGA">--</i>
   <i type="int" name="VOSKOWN">     0</i>
   <i type="logical" name="LHFCALC"> F  </i>
   <i type="string" name="PRECFOCK"></i>
   <i type="logical" name="LSYMGRAD"> F  </i>
   <i type="logical" name="LHFONE"> F  </i>
   <i type="logical" name="LRHFCALC"> F  </i>
   <i type="logical" name="LTHOMAS"> F  </i>
   <i type="logical" name="LMODELHF"> F  </i>
   <i name="ENCUT4O">     -1.00000000</i>
   <i type="int" name="EXXOEP">     0</i>
   <i type="int" name="FOURORBIT">     0</i>
   <i name="AEXX">      0.00000000</i>
   <i name="HFALPHA">      0.00000000</i>
   <i name="MCALPHA">      0.00000000</i>
   <i name="ALDAX">      1.00000000</i>
   <i name="AGGAX">      1.00000000</i>
   <i name="ALDAC">      1.00000000</i>
   <i name="AGGAC">      1.00000000</i>
   <i type="int" name="NKREDX">     1</i>
   <i type="int" name="NKREDY">     1</i>
   <i type="int" name="NKREDZ">     1</i>
   <i type="logical" name="SHIFTRED"> F  </i>
   <i type="logical" name="ODDONLY"> F  </i>
   <i type="logical" name="EVENONLY"> F  </i>
   <i type="int" name="LMAXFOCK">     0</i>
   <i type="int" name="NMAXFOCKAE">     0</i>
   <i type="logical" name="LFOCKAEDFT"> F  </i>
   <i name="HFSCREEN">      0.00000000</i>
   <i name="HFSCREENC">      0.00000000</i>
   <i type="int" name="NBANDSGWLOW">     0</i>
  </separator>
  <separator name="vdW DFT" >
   <i type="logical" name="LUSE_VDW"> F  </i>
   <i name="Zab_VDW">     -0.84910000</i>
   <i name="PARAM1">      0.12340000</i>
   <i name="PARAM2">      1.00000000</i>
   <i name="PARAM3">      0.00000000</i>
  </separator>
  <separator name="model GW" >
   <i type="int" name="MODEL_GW">     0</i>
   <i name="MODEL_EPS0">     12.02530552</i>
   <i name="MODEL_ALPHA">      1.00000000</i>
  </separator>
  <separator name="linear response parameters" >
   <i type="logical" name="LEPSILON"> F  </i>
   <i type="logical" name="LRPA"> F  </i>
   <i type="logical" name="LNABLA"> F  </i>
   <i type="logical" name="LVEL"> F  </i>
   <i type="int" name="KINTER">     0</i>
   <i name="CSHIFT">      0.10000000</i>
   <i name="OMEGAMAX">     -1.00000000</i>
   <i name="DEG_THRESHOLD">      0.00200000</i>
  </separator>
  <separator name="orbital magnetization" >
   <i type="logical" name="NUCIND"> F  </i>
   <v name="MAGPOS">      0.00000000      0.00000000      0.00000000</v>
   <i type="logical" name="LNICSALL"> T  </i>
   <i type="logical" name="ORBITALMAG"> F  </i>
   <i type="logical" name="LMAGBLOCH"> F  </i>
   <i type="logical" name="LCHIMAG"> F  </i>
   <i type="logical" name="LGAUGE"> T  </i>
   <i type="int" name="MAGATOM">     0</i>
   <v name="MAGDIPOL">      0.00000000      0.00000000      0.00000000</v>
   <v name="AVECCONST">      0.00000000      0.00000000      0.00000000</v>
  </separator>
  <separator name="response functions" >
   <i type="logical" name="LADDER"> F  </i>
   <i type="logical" name="LFXC"> F  </i>
   <i type="logical" name="LHARTREE"> T  </i>
   <i type="int" name="IBSE">     0</i>
   <v type="int" name="KPOINT">    -1     0     0     0</v>
   <i type="logical" name="LTCTE"> F  </i>
   <i type="logical" name="LTETE"> F  </i>
   <i type="logical" name="LTRIPLET"> F  </i>
   <i type="logical" name="LFXCEPS"> F  </i>
   <i type="logical" name="LFXHEG"> F  </i>
   <i type="int" name="NATURALO">     0</i>
   <i type="logical" name="L2ORDER"> F  </i>
   <i type="logical" name="LUSEW"> F  </i>
   <i name="ENCUTGW">     -2.00000000</i>
   <i name="ENCUTGWSOFT">     -2.00000000</i>
   <i name="ENCUTLF">     -1.00000000</i>
   <i type="int" name="LMAXMP2">    -1</i>
   <i name="SCISSOR">      0.00000000</i>
   <i type="int" name="NOMEGA">     0</i>
   <i type="int" name="NOMEGAR">     0</i>
   <i type="int" name="NBANDSGW">    -1</i>
   <i type="int" name="NBANDSO">    -1</i>
   <i type="int" name="NBANDSV">    -1</i>
   <i type="int" name="NELM">    70</i>
   <i type="int" name="NELMHF">     1</i>
   <i type="int" name="DIM">     3</i>
   <i type="int" name="ANTIRES">     0</i>
   <i name="OMEGAMAX">    -30.00000000</i>
   <i name="OMEGAMIN">    -30.00000000</i>
   <i name="OMEGATL">   -200.00000000</i>
   <i type="int" name="OMEGAGRID">     0</i>
   <i name="CSHIFT">     -0.10000000</i>
   <i type="logical" name="SELFENERGY"> F  </i>
   <i type="logical" name="LSPECTRAL"> F  </i>
   <i type="logical" name="LSPECTRALGW"> F  </i>
   <i type="logical" name="LSINGLES"> F  </i>
   <i type="logical" name="LFERMIGW"> F  </i>
   <i type="logical" name="ODDONLYGW"> F  </i>
   <i type="logical" name="EVENONLYGW"> F  </i>
   <i type="int" name="NKREDLFX">     1</i>
   <i type="int" name="NKREDLFY">     1</i>
   <i type="int" name="NKREDLFZ">     1</i>
   <i type="int" name="MAXMEM">  1800</i>
   <i type="int" name="TELESCOPE">     0</i>
   <i type="int" name="TAUPAR">     1</i>
   <i type="int" name="OMEGAPAR">    -1</i>
   <i name="LAMBDA">      1.00000000</i>
  </separator>
  <separator name="External order field" >
   <i name="OFIELD_KAPPA">      0.00000000</i>
   <v name="OFIELD_K">      0.00000000      0.00000000      0.00000000</v>
   <i name="OFIELD_Q6_NEAR">      0.00000000</i>
   <i name="OFIELD_Q6_FAR">      0.00000000</i>
   <i name="OFIELD_A">      0.00000000</i>
  </separator>
 </parameters>
 <atominfo>
  <atoms>      36 </atoms>
  <types>       4 </types>
  <array name="atoms" >
   <dimension dim="1">ion</dimension>
   <field type="string">element</field>
   <field type="int">atomtype</field>
   <set>
    <rc><c>Zr</c><c>   1</c></rc>
    <rc><c>Zr</c><c>   1</c></rc>
    <rc><c>Zr</c><c>   1</c></rc>
    <rc><c>Zr</c><c>   1</c></rc>
    <rc><c>Zr</c><c>   1</c></rc>
    <rc><c>Zr</c><c>   1</c></rc>
    <rc><c>Zr</c><c>   1</c></rc>
    <rc><c>Zr</c><c>   1</c></rc>
    <rc><c>Hf</c><c>   2</c></rc>
    <rc><c>Hf</c><c>   2</c></rc>
    <rc><c>Hf</c><c>   2</c></rc>
    <rc><c>Hf</c><c>   2</c></rc>
    <rc><c>Hf</c><c>   2</c></rc>
    <rc><c>Hf</c><c>   2</c></rc>
    <rc><c>Hf</c><c>   2</c></rc>
    <rc><c>Hf</c><c>   2</c></rc>
    <rc><c>Hf</c><c>   2</c></rc>
    <rc><c>Hf</c><c>   2</c></rc>
    <rc><c>Nb</c><c>   3</c></rc>
    <rc><c>Nb</c><c>   3</c></rc>
    <rc><c>Nb</c><c>   3</c></rc>
    <rc><c>Nb</c><c>   3</c></rc>
    <rc><c>Nb</c><c>   3</c></rc>
    <rc><c>Nb</c><c>   3</c></rc>
    <rc><c>Nb</c><c>   3</c></rc>
    <rc><c>Nb</c><c>   3</c></rc>
    <rc><c>Ta</c><c>   4</c></rc>
    <rc><c>Ta</c><c>   4</c></rc>
    <rc><c>Ta</c><c>   4</c></rc>
    <rc><c>Ta</c><c>   4</c></rc>
    <rc><c>Ta</c><c>   4</c></rc>
    <rc><c>Ta</c><c>   4</c></rc>
    <rc><c>Ta</c><c>   4</c></rc>
    <rc><c>Ta</c><c>   4</c></rc>
    <rc><c>Ta</c><c>   4</c></rc>
    <rc><c>Ta</c><c>   4</c></rc>
   </set>
  </array>
  <array name="atomtypes" >
   <dimension dim="1">type</dimension>
   <field type="int">atomspertype</field>
   <field type="string">element</field>
   <field>mass</field>
   <field>valence</field>
   <field type="string">pseudopotential</field>
   <set>
    <rc><c>   8</c><c>Zr</c><c>     91.22400000</c><c>     12.00000000</c><c>  PAW_PBE Zr_sv 04Jan2005               </c></rc>
    <rc><c>  10</c><c>Hf</c><c>    178.49000000</c><c>      4.00000000</c><c>  PAW_PBE Hf 20Jan2003                  </c></rc>
    <rc><c>   8</c><c>Nb</c><c>     92.91000000</c><c>     13.00000000</c><c>  PAW_PBE Nb_sv 25May2007               </c></rc>
    <rc><c>  10</c><c>Ta</c><c>    180.94800000</c><c>      5.00000000</c><c>  PAW_PBE Ta 17Jan2003                  </c></rc>
   </set>
  </array>
 </atominfo>
 <structure name="initialpos" >
  <crystal>
   <varray name="basis" >
    <v>       6.89828900      -0.00869961       0.00382105 </v>
    <v>      -0.01278504      10.24291594       0.00978706 </v>
    <v>       0.00601091       0.00938800      10.21135989 </v>
   </varray>
   <i name="volume">    721.51833114 </i>
   <varray name="rec_basis" >
    <v>       0.14496376       0.00018102      -0.00008550 </v>
    <v>       0.00012317       0.09762869      -0.00008983 </v>
    <v>      -0.00005436      -0.00009364       0.09793027 </v>
   </varray>
  </crystal>
  <varray name="positions" >
   <v>       0.99948200       0.00541000       0.00502400 </v>
   <v>       0.99919000       0.99508100       0.32636200 </v>
   <v>       0.00079600       0.31757200       0.99923500 </v>
   <v>       0.01057700       0.66571300       0.66105900 </v>
   <v>       0.50175700       0.99376000       0.32457500 </v>
   <v>       0.75221600       0.50140800       0.16522800 </v>
   <v>       0.49495200       0.67888500       0.98749300 </v>
   <v>       0.75754400       0.83939400       0.82095900 </v>
   <v>       0.00908600       0.00691800       0.67095800 </v>
   <v>       0.74406600       0.48689400       0.82920300 </v>
   <v>       0.24777500       0.50585400       0.15728900 </v>
   <v>       0.00277900       0.68046200       0.34476200 </v>
   <v>       0.50075000       0.00457700       0.00680700 </v>
   <v>       0.75328200       0.16704200       0.50434200 </v>
   <v>       0.76827600       0.48070300       0.50296200 </v>
   <v>       0.49611300       0.67520700       0.34313900 </v>
   <v>       0.48628700       0.66201600       0.65849400 </v>
   <v>       0.47776900       0.33450800       0.33846800 </v>
   <v>       0.25191600       0.17317800       0.17140200 </v>
   <v>       0.22424600       0.48692400       0.50129500 </v>
   <v>       0.01168100       0.67181500       0.99110400 </v>
   <v>       0.74928500       0.18218500       0.18052300 </v>
   <v>       0.49294800       0.00664800       0.67077800 </v>
   <v>       0.74070700       0.17519200       0.82249300 </v>
   <v>       0.76401700       0.81202300       0.15410700 </v>
   <v>       0.25924300       0.16724600       0.82692700 </v>
   <v>       0.24521900       0.15963100       0.50703800 </v>
   <v>       0.02183400       0.32337700       0.33280500 </v>
   <v>       0.02036000       0.32911000       0.67457300 </v>
   <v>       0.25602000       0.49078300       0.84047000 </v>
   <v>       0.25323800       0.85765700       0.51536900 </v>
   <v>       0.74580500       0.85180300       0.51853400 </v>
   <v>       0.24597300       0.84331100       0.82691200 </v>
   <v>       0.23985200       0.81550300       0.15399600 </v>
   <v>       0.47905700       0.33477200       0.66594100 </v>
   <v>       0.49588500       0.31744400       0.99937500 </v>
  </varray>
 </structure>
 <calculation>
  <scstep>
   <time name="dav">    0.97    0.98</time>
   <time name="total">    1.06    1.34</time>
   <energy>
    <i name="alphaZ">   1502.21965224 </i>
    <i name="ewald"> -18804.14614322 </i>
    <i name="hartreedc">  -6897.87467753 </i>
    <i name="XCdc">   -342.87766180 </i>
    <i name="pawpsdc">  21031.16906910 </i>
    <i name="pawaedc"> -19399.79777262 </i>
    <i name="eentropy">     -0.00257957 </i>
    <i name="bandstr">    -79.62613369 </i>
    <i name="atom">  24779.72038929 </i>
    <i name="e_fr_energy">   1788.78414221 </i>
    <i name="e_wo_entrp">   1788.78672178 </i>
    <i name="e_0_energy">   1788.78500206 </i>
   </energy>
  </scstep>
  <scstep>
   <time name="dav">    1.08    1.09</time>
   <time name="total">    1.09    1.23</time>
   <energy>
    <i name="e_fr_energy">   -102.90303239 </i>
    <i name="e_wo_entrp">   -102.89675253 </i>
    <i name="e_0_energy">   -102.90093911 </i>
   </energy>
  </scstep>
  <scstep>
   <time name="dav">    1.52    1.53</time>
   <time name="total">    1.52    1.56</time>
   <energy>
    <i name="e_fr_energy">   -347.41011633 </i>
    <i name="e_wo_entrp">   -347.40862711 </i>
    <i name="e_0_energy">   -347.40961992 </i>
   </energy>
  </scstep>
  <scstep>
   <time name="dav">    1.47    1.58</time>
   <time name="total">    1.48    1.62</time>
   <energy>
    <i name="e_fr_energy">   -376.35452542 </i>
    <i name="e_wo_entrp">   -376.37951192 </i>
    <i name="e_0_energy">   -376.36285425 </i>
   </energy>
  </scstep>
  <scstep>
   <time name="dav">    1.33    1.37</time>
   <time name="total">    1.37    1.44</time>
   <energy>
    <i name="e_fr_energy">   -379.18735553 </i>
    <i name="e_wo_entrp">   -379.21426316 </i>
    <i name="e_0_energy">   -379.19632474 </i>
   </energy>
  </scstep>
  <scstep>
   <time name="diag">    0.12    0.12</time>
   <time name="diis">    0.72    0.73</time>
   <time name="orth">    0.01    0.01</time>
   <time name="total">    0.92    1.00</time>
   <energy>
    <i name="e_fr_energy">   -368.98031070 </i>
    <i name="e_wo_entrp">   -368.99828426 </i>
    <i name="e_0_energy">   -368.98630189 </i>
   </energy>
  </scstep>
  <scstep>
   <time name="diag">    0.07    0.08</time>
   <time name="diis">    0.77    0.77</time>
   <time name="orth">    0.02    0.02</time>
   <time name="total">    0.95    0.99</time>
   <energy>
    <i name="e_fr_energy">   -371.53013160 </i>
    <i name="e_wo_entrp">   -371.53735230 </i>
    <i name="e_0_energy">   -371.53253850 </i>
   </energy>
  </scstep>
  <scstep>
   <time name="diag">    0.08    0.10</time>
   <time name="diis">    0.75    0.76</time>
   <time name="orth">    0.01    0.01</time>
   <time name="total">    0.91    0.99</time>
   <energy>
    <i name="e_fr_energy">   -364.69854856 </i>
    <i name="e_wo_entrp">   -364.72129667 </i>
    <i name="e_0_energy">   -364.70613126 </i>
   </energy>
  </scstep>
  <scstep>
   <time name="diag">    0.08    0.08</time>
   <time name="diis">    0.78    0.78</time>
   <time name="orth">    0.01    0.01</time>
   <time name="total">    0.94    0.98</time>
   <energy>
    <i name="e_fr_energy">   -364.24420012 </i>
    <i name="e_wo_entrp">   -364.25771815 </i>
    <i name="e_0_energy">   -364.24870613 </i>
   </energy>
  </scstep>
  <scstep>
   <time name="diag">    0.09    0.10</time>
   <time name="diis">    0.86    0.87</time>
   <time name="orth">    0.01    0.01</time>
   <time name="total">    1.06    1.12</time>
   <energy>
    <i name="e_fr_energy">   -364.22831618 </i>
    <i name="e_wo_entrp">   -364.24631933 </i>
    <i name="e_0_energy">   -364.23431723 </i>
   </energy>
  </scstep>
  <scstep>
   <time name="diag">    0.09    0.09</time>
   <time name="diis">    0.78    0.79</time>
   <time name="orth">    0.01    0.01</time>
   <time name="total">    0.95    0.99</time>
   <energy>
    <i name="e_fr_energy">   -364.19523710 </i>
    <i name="e_wo_entrp">   -364.21183669 </i>
    <i name="e_0_energy">   -364.20077030 </i>
   </energy>
  </scstep>
  <scstep>
   <time name="diag">    0.07    0.08</time>
   <time name="diis">    0.86    0.87</time>
   <time name="orth">    0.01    0.01</time>
   <time name="total">    1.02    1.07</time>
   <energy>
    <i name="e_fr_energy">   -364.18594244 </i>
    <i name="e_wo_entrp">   -364.20323731 </i>
    <i name="e_0_energy">   -364.19170740 </i>
   </energy>
  </scstep>
  <scstep>
   <time name="diag">    0.08    0.09</time>
   <time name="diis">    0.78    0.79</time>
   <time name="orth">    0.01    0.01</time>
   <time name="total">    0.94    1.06</time>
   <energy>
    <i name="e_fr_energy">   -364.18423843 </i>
    <i name="e_wo_entrp">   -364.20158691 </i>
    <i name="e_0_energy">   -364.19002125 </i>
   </energy>
  </scstep>
  <scstep>
   <time name="diag">    0.08    0.08</time>
   <time name="diis">    0.79    0.79</time>
   <time name="orth">    0.01    0.01</time>
   <time name="total">    0.94    0.98</time>
   <energy>
    <i name="e_fr_energy">   -364.18394414 </i>
    <i name="e_wo_entrp">   -364.20120088 </i>
    <i name="e_0_energy">   -364.18969639 </i>
   </energy>
  </scstep>
  <scstep>
   <time name="diag">    0.08    0.08</time>
   <time name="diis">    0.82    0.82</time>
   <time name="orth">    0.01    0.01</time>
   <time name="total">    1.00    1.04</time>
   <energy>
    <i name="e_fr_energy">   -364.18415570 </i>
    <i name="e_wo_entrp">   -364.20135857 </i>
    <i name="e_0_energy">   -364.18988999 </i>
   </energy>
  </scstep>
  <scstep>
   <time name="diag">    0.09    0.09</time>
   <time name="diis">    0.73    0.73</time>
   <time name="orth">    0.01    0.01</time>
   <time name="total">    0.90    0.94</time>
   <energy>
    <i name="e_fr_energy">   -364.18414451 </i>
    <i name="e_wo_entrp">   -364.20132176 </i>
    <i name="e_0_energy">   -364.18987026 </i>
   </energy>
  </scstep>
  <scstep>
   <time name="diag">    0.08    0.08</time>
   <time name="diis">    0.62    0.69</time>
   <time name="orth">    0.01    0.02</time>
   <time name="total">    0.78    0.91</time>
   <energy>
    <i name="e_fr_energy">   -364.18413811 </i>
    <i name="e_wo_entrp">   -364.20138352 </i>
    <i name="e_0_energy">   -364.18988658 </i>
   </energy>
  </scstep>
  <scstep>
   <time name="diag">    0.08    0.08</time>
   <time name="diis">    0.60    0.60</time>
   <time name="orth">    0.01    0.01</time>
   <time name="total">    0.75    0.81</time>
   <energy>
    <i name="e_fr_energy">   -364.18415156 </i>
    <i name="e_wo_entrp">   -364.20138400 </i>
    <i name="e_0_energy">   -364.18989571 </i>
   </energy>
  </scstep>
  <scstep>
   <time name="diag">    0.08    0.08</time>
   <time name="diis">    0.57    0.57</time>
   <time name="orth">    0.01    0.01</time>
   <time name="total">    0.72    0.75</time>
   <energy>
    <i name="e_fr_energy">   -364.18415998 </i>
    <i name="e_wo_entrp">   -364.20140996 </i>
    <i name="e_0_energy">   -364.18990998 </i>
   </energy>
  </scstep>
  <scstep>
   <time name="diag">    0.07    0.08</time>
   <time name="diis">    0.43    0.43</time>
   <time name="orth">    0.01    0.01</time>
   <time name="total">    0.55    0.59</time>
   <energy>
    <i name="alphaZ">   1502.21965224 </i>
    <i name="ewald"> -18804.14614322 </i>
    <i name="hartreedc">  -6676.79099836 </i>
    <i name="XCdc">   -341.76277016 </i>
    <i name="pawpsdc">  33866.75664126 </i>
    <i name="pawaedc"> -32217.58372584 </i>
    <i name="eentropy">      0.01724173 </i>
    <i name="bandstr">  -2472.61444721 </i>
    <i name="atom">  24779.72038929 </i>
    <i name="e_fr_energy">   -364.18416026 </i>
    <i name="e_wo_entrp">   -364.20140199 </i>
    <i name="e_0_energy">   -364.18990750 </i>
   </energy>
  </scstep>
  <structure>
   <crystal>
    <varray name="basis" >
     <v>       6.89828900      -0.00869961       0.00382105 </v>
     <v>      -0.01278504      10.24291594       0.00978706 </v>
     <v>       0.00601091       0.00938800      10.21135989 </v>
    </varray>
    <i name="volume">    721.51833114 </i>
    <varray name="rec_basis" >
     <v>       0.14496376       0.00018102      -0.00008550 </v>
     <v>       0.00012317       0.09762869      -0.00008983 </v>
     <v>      -0.00005436      -0.00009364       0.09793027 </v>
    </varray>
   </crystal>
   <varray name="positions" >
    <v>       0.99948200       0.00541000       0.00502400 </v>
    <v>       0.99919000       0.99508100       0.32636200 </v>
    <v>       0.00079600       0.31757200       0.99923500 </v>
    <v>       0.01057700       0.66571300       0.66105900 </v>
    <v>       0.50175700       0.99376000       0.32457500 </v>
    <v>       0.75221600       0.50140800       0.16522800 </v>
    <v>       0.49495200       0.67888500       0.98749300 </v>
    <v>       0.75754400       0.83939400       0.82095900 </v>
    <v>       0.00908600       0.00691800       0.67095800 </v>
    <v>       0.74406600       0.48689400       0.82920300 </v>
    <v>       0.24777500       0.50585400       0.15728900 </v>
    <v>       0.00277900       0.68046200       0.34476200 </v>
    <v>       0.50075000       0.00457700       0.00680700 </v>
    <v>       0.75328200       0.16704200       0.50434200 </v>
    <v>       0.76827600       0.48070300       0.50296200 </v>
    <v>       0.49611300       0.67520700       0.34313900 </v>
    <v>       0.48628700       0.66201600       0.65849400 </v>
    <v>       0.47776900       0.33450800       0.33846800 </v>
    <v>       0.25191600       0.17317800       0.17140200 </v>
    <v>       0.22424600       0.48692400       0.50129500 </v>
    <v>       0.01168100       0.67181500       0.99110400 </v>
    <v>       0.74928500       0.18218500       0.18052300 </v>
    <v>       0.49294800       0.00664800       0.67077800 </v>
    <v>       0.74070700       0.17519200       0.82249300 </v>
    <v>       0.76401700       0.81202300       0.15410700 </v>
    <v>       0.25924300       0.16724600       0.82692700 </v>
    <v>       0.24521900       0.15963100       0.50703800 </v>
    <v>       0.02183400       0.32337700       0.33280500 </v>
    <v>       0.02036000       0.32911000       0.67457300 </v>
    <v>       0.25602000       0.49078300       0.84047000 </v>
    <v>       0.25323800       0.85765700       0.51536900 </v>
    <v>       0.74580500       0.85180300       0.51853400 </v>
    <v>       0.24597300       0.84331100       0.82691200 </v>
    <v>       0.23985200       0.81550300       0.15399600 </v>
    <v>       0.47905700       0.33477200       0.66594100 </v>
    <v>       0.49588500       0.31744400       0.99937500 </v>
   </varray>
  </structure>
  <varray name="forces" >
   <v>       0.01707430      -0.05290959      -0.09781437 </v>
   <v>      -0.00656302       0.01333856       0.09512014 </v>
   <v>       0.00710574       0.00302331      -0.03303173 </v>
   <v>      -0.01640881       0.07204351      -0.01878820 </v>
   <v>       0.01047583      -0.00007154       0.01733857 </v>
   <v>       0.01343797       0.00950383       0.00929010 </v>
   <v>      -0.00875436       0.01315166      -0.02838728 </v>
   <v>      -0.28851567      -0.32834523       0.17818362 </v>
   <v>      -0.04883933       0.24858933       0.21773676 </v>
   <v>      -0.02682974       0.00525471       0.01374006 </v>
   <v>      -0.00360976       0.01063644       0.00934310 </v>
   <v>      -0.00781906      -0.00995855       0.01155503 </v>
   <v>      -0.00517666      -0.01931064      -0.00201503 </v>
   <v>      -0.22696722       0.22202386      -0.19408669 </v>
   <v>      -0.00881711       0.01367621      -0.00692453 </v>
   <v>       0.02694929       0.01565185       0.00263096 </v>
   <v>       0.00827430       0.00747435      -0.00071558 </v>
   <v>       0.00327307      -0.02984694       0.02268100 </v>
   <v>       0.01546029       0.02213050       0.03254869 </v>
   <v>       0.01690049       0.02411005      -0.01903057 </v>
   <v>      -0.02583268       0.02404105       0.00326968 </v>
   <v>      -0.03340902       0.00908728       0.04781963 </v>
   <v>      -0.18365543      -0.01595868       0.01643514 </v>
   <v>      -0.32264642       0.35548023       0.14886970 </v>
   <v>      -0.01725263      -0.02201548      -0.03036881 </v>
   <v>       0.36069075       0.29568484       0.20403664 </v>
   <v>       0.36491843       0.24745750      -0.38046258 </v>
   <v>      -0.01982879      -0.01388932      -0.01247475 </v>
   <v>      -0.03486341      -0.22708999      -0.00363165 </v>
   <v>       0.02660452       0.01671577       0.05033154 </v>
   <v>       0.53452688      -0.18635931      -0.31168138 </v>
   <v>      -0.49395337      -0.28408042      -0.21505498 </v>
   <v>       0.36311895      -0.36652279       0.33022787 </v>
   <v>       0.01310635      -0.03004020       0.00769136 </v>
   <v>       0.00022947      -0.00178408       0.00647170 </v>
   <v>      -0.00240411      -0.04089210      -0.07085319 </v>
  </varray>
  <varray name="stress" >
   <v>      10.29946414       0.28962096      -0.28314452 </v>
   <v>       0.28962095       6.84990141      -0.51448010 </v>
   <v>      -0.28314451      -0.51448006       6.54987142 </v>
  </varray>
  <energy>
   <i name="e_fr_energy">   -364.18416026 </i>
   <i name="e_wo_entrp">   -364.18990750 </i>
   <i name="e_0_energy">      0.01724173 </i>
  </energy>
  <time name="totalsc">   21.49   23.15</time>
 </calculation>
 <calculation>
  <scstep>
   <time name="dav">    1.02    1.16</time>
   <time name="total">    1.12    1.40</time>
   <energy>
    <i name="alphaZ">   1495.79280913 </i>
    <i name="ewald"> -18780.25499166 </i>
    <i name="hartreedc">  -6664.40758042 </i>
    <i name="XCdc">   -342.96947030 </i>
    <i name="pawpsdc">  33866.90616304 </i>
    <i name="pawaedc"> -32217.73344870 </i>
    <i name="eentropy">      0.01886254 </i>
    <i name="bandstr">  -2501.33715359 </i>
    <i name="atom">  24779.72038929 </i>
    <i name="e_fr_energy">   -364.26442067 </i>
    <i name="e_wo_entrp">   -364.28328322 </i>
    <i name="e_0_energy">   -364.27070819 </i>
   </energy>
  </scstep>
  <scstep>
   <time name="diag">    0.08    0.08</time>
   <time name="diis">    0.77    0.77</time>
   <time name="orth">    0.01    0.01</time>
   <time name="total">    1.05    1.08</time>
   <energy>
    <i name="e_fr_energy">   -364.25046443 </i>
    <i name="e_wo_entrp">   -364.26762747 </i>
    <i name="e_0_energy">   -364.25618545 </i>
   </energy>
  </scstep>
  <scstep>
   <time name="diag">    0.08    0.08</time>
   <time name="diis">    0.80    0.80</time>
   <time name="orth">    0.01    0.01</time>
   <time name="total">    0.96    0.99</time>
   <energy>
    <i name="e_fr_energy">   -364.23876464 </i>
    <i name="e_wo_entrp">   -364.25736197 </i>
    <i name="e_0_energy">   -364.24496375 </i>
   </energy>
  </scstep>
  <scstep>
   <time name="diag">    0.07    0.07</time>
   <time name="diis">    0.85    0.85</time>
   <time name="orth">    0.01    0.01</time>
   <time name="total">    1.00    1.04</time>
   <energy>
    <i name="e_fr_energy">   -364.23069098 </i>
    <i name="e_wo_entrp">   -364.24905466 </i>
    <i name="e_0_energy">   -364.23681221 </i>
   </energy>
  </scstep>
  <scstep>
   <time name="diag">    0.09    0.09</time>
   <time name="diis">    0.81    0.82</time>
   <time name="orth">    0.01    0.01</time>
   <time name="total">    0.98    1.01</time>
   <energy>
    <i name="e_fr_energy">   -364.22974170 </i>
    <i name="e_wo_entrp">   -364.24805774 </i>
    <i name="e_0_energy">   -364.23584705 </i>
   </energy>
  </scstep>
  <scstep>
   <time name="diag">    0.08    0.08</time>
   <time name="diis">    0.72    0.86</time>
   <time name="orth">    0.01    0.01</time>
   <time name="total">    0.87    1.06</time>
   <energy>
    <i name="e_fr_energy">   -364.22982274 </i>
    <i name="e_wo_entrp">   -364.24801592 </i>
    <i name="e_0_energy">   -364.23588713 </i>
   </energy>
  </scstep>
  <scstep>
   <time name="diag">    0.08    0.08</time>
   <time name="diis">    0.78    0.79</time>
   <time name="orth">    0.01    0.01</time>
   <time name="total">    0.94    0.98</time>
   <energy>
    <i name="e_fr_energy">   -364.22983165 </i>
    <i name="e_wo_entrp">   -364.24819873 </i>
    <i name="e_0_energy">   -364.23595401 </i>
   </energy>
  </scstep>
  <scstep>
   <time name="diag">    0.08    0.08</time>
   <time name="diis">    0.74    0.75</time>
   <time name="orth">    0.01    0.01</time>
   <time name="total">    0.92    0.96</time>
   <energy>
    <i name="e_fr_energy">   -364.22985209 </i>
    <i name="e_wo_entrp">   -364.24817024 </i>
    <i name="e_0_energy">   -364.23595814 </i>
   </energy>
  </scstep>
  <scstep>
   <time name="diag">    0.08    0.08</time>
   <time name="diis">    0.66    0.66</time>
   <time name="orth">    0.01    0.01</time>
   <time name="total">    0.81    0.85</time>
   <energy>
    <i name="e_fr_energy">   -364.22987666 </i>
    <i name="e_wo_entrp">   -364.24819360 </i>
    <i name="e_0_energy">   -364.23598231 </i>
   </energy>
  </scstep>
  <scstep>
   <time name="diag">    0.08    0.08</time>
   <time name="diis">    0.56    0.56</time>
   <time name="orth">    0.01    0.01</time>
   <time name="total">    0.71    0.75</time>
   <energy>
    <i name="e_fr_energy">   -364.22988597 </i>
    <i name="e_wo_entrp">   -364.24820179 </i>
    <i name="e_0_energy">   -364.23599125 </i>
   </energy>
  </scstep>
  <scstep>
   <time name="diag">    0.12    0.12</time>
   <time name="diis">    0.47    0.48</time>
   <time name="orth">    0.01    0.01</time>
   <time name="total">    0.64    0.68</time>
   <energy>
    <i name="alphaZ">   1495.79280913 </i>
    <i name="ewald"> -18780.25499166 </i>
    <i name="hartreedc">  -6681.29991424 </i>
    <i name="XCdc">   -342.24332506 </i>
    <i name="pawpsdc">  33668.29130580 </i>
    <i name="pawaedc"> -32019.31758195 </i>
    <i name="eentropy">      0.01832640 </i>
    <i name="bandstr">  -2484.93690204 </i>
    <i name="atom">  24779.72038929 </i>
    <i name="e_fr_energy">   -364.22988432 </i>
    <i name="e_wo_entrp">   -364.24821072 </i>
    <i name="e_0_energy">   -364.23599312 </i>
   </energy>
  </scstep>
  <structure>
   <crystal>
    <varray name="basis" >
     <v>       6.91115137      -0.00834905       0.00347277 </v>
     <v>      -0.01227230      10.25561702       0.00884526 </v>
     <v>       0.00549916       0.00844883      10.22346756 </v>
    </varray>
    <i name="volume">    724.61841632 </i>
    <varray name="rec_basis" >
     <v>       0.14469394       0.00017321      -0.00007797 </v>
     <v>       0.00011784       0.09750775      -0.00008065 </v>
     <v>      -0.00004925      -0.00008442       0.09781427 </v>
    </varray>
   </crystal>
   <varray name="positions" >
    <v>       0.99951780       0.00533540       0.00488542 </v>
    <v>       0.99917615       0.99509971       0.32649680 </v>
    <v>       0.00081096       0.31757633       0.99918817 </v>
    <v>       0.01054279       0.66581479       0.66103229 </v>
    <v>       0.50177896       0.99375990       0.32459957 </v>
    <v>       0.75224421       0.50142144       0.16524114 </v>
    <v>       0.49493370       0.67890360       0.98745276 </v>
    <v>       0.75693760       0.83892932       0.82121222 </v>
    <v>       0.00898392       0.00726888       0.67126631 </v>
    <v>       0.74400971       0.48690136       0.82922249 </v>
    <v>       0.24776744       0.50586901       0.15730223 </v>
    <v>       0.00276255       0.68044790       0.34477840 </v>
    <v>       0.50073909       0.00454971       0.00680417 </v>
    <v>       0.75280664       0.16735556       0.50406679 </v>
    <v>       0.76825755       0.48072232       0.50295217 </v>
    <v>       0.49616958       0.67522916       0.34314269 </v>
    <v>       0.48630438       0.66202658       0.65849297 </v>
    <v>       0.47777576       0.33446580       0.33850018 </v>
    <v>       0.25194845       0.17320925       0.17144809 </v>
    <v>       0.22428154       0.48695812       0.50126798 </v>
    <v>       0.01162686       0.67184892       0.99110862 </v>
    <v>       0.74921487       0.18219772       0.18059079 </v>
    <v>       0.49256262       0.00662510       0.67080146 </v>
    <v>       0.74003082       0.17569351       0.82270377 </v>
    <v>       0.76398078       0.81199190       0.15406400 </v>
    <v>       0.26000026       0.16766417       0.82721550 </v>
    <v>       0.24598573       0.15998179       0.50649814 </v>
    <v>       0.02179238       0.32335736       0.33278735 </v>
    <v>       0.02028627       0.32878907       0.67456819 </v>
    <v>       0.25607580       0.49080660       0.84054129 </v>
    <v>       0.25435935       0.85739504       0.51492708 </v>
    <v>       0.74476819       0.85140100       0.51822997 </v>
    <v>       0.24673347       0.84279334       0.82738025 </v>
    <v>       0.23987941       0.81546057       0.15400693 </v>
    <v>       0.47905747       0.33476947       0.66595017 </v>
    <v>       0.49587994       0.31738631       0.99927464 </v>
   </varray>
  </structure>
  <varray name="forces" >
   <v>       0.02487089      -0.05248220      -0.09211455 </v>
   <v>       0.00009407       0.00637067       0.09594671 </v>
   <v>       0.01159960       0.00094838      -0.02755881 </v>
   <v>       0.00161789       0.07829212      -0.02946536 </v>
   <v>       0.01425736       0.00781596      -0.00308032 </v>
   <v>       0.01884322       0.00767533       0.00570205 </v>
   <v>      -0.01649601       0.00338880      -0.00725726 </v>
   <v>      -0.25683794      -0.28795105       0.13757238 </v>
   <v>      -0.01224023       0.21147239       0.18246348 </v>
   <v>      -0.02002140      -0.00641451       0.00428966 </v>
   <v>      -0.00941447       0.00919567       0.00329107 </v>
   <v>      -0.00380384      -0.00282360       0.01219495 </v>
   <v>      -0.00839406      -0.01903564       0.01157300 </v>
   <v>      -0.20609594       0.19418902      -0.16517137 </v>
   <v>       0.00927343       0.00655593      -0.00164403 </v>
   <v>       0.02435437       0.00836389      -0.00644663 </v>
   <v>      -0.00856744      -0.01119448       0.00379426 </v>
   <v>      -0.00878701      -0.01563321       0.01252012 </v>
   <v>       0.00490616       0.02298914       0.03171854 </v>
   <v>      -0.00632676       0.00161114      -0.00817187 </v>
   <v>      -0.00831193       0.01850400       0.01169132 </v>
   <v>      -0.01954566       0.01036705       0.04478282 </v>
   <v>      -0.17261063      -0.02255088       0.00907359 </v>
   <v>      -0.29481709       0.33115075       0.11858765 </v>
   <v>      -0.00056125      -0.02140248      -0.02980378 </v>
   <v>       0.32339840       0.27264825       0.16495308 </v>
   <v>       0.31239716       0.19587446      -0.30790740 </v>
   <v>      -0.00380758      -0.01198983      -0.01507776 </v>
   <v>      -0.01028678      -0.21159603      -0.00606601 </v>
   <v>       0.01722815       0.00958336       0.03586422 </v>
   <v>       0.48581843      -0.13371365      -0.25537652 </v>
   <v>      -0.45966002      -0.23388635      -0.15722746 </v>
   <v>       0.30536302      -0.31571930       0.28149280 </v>
   <v>      -0.00432150      -0.02961874      -0.00092889 </v>
   <v>      -0.01640587       0.01431124       0.00726897 </v>
   <v>      -0.00670877      -0.03529561      -0.06148263 </v>
  </varray>
  <varray name="stress" >
   <v>       4.04382349       0.25171512      -0.19691583 </v>
   <v>       0.25171513       0.90882704      -0.40615905 </v>
   <v>      -0.19691585      -0.40615903       0.61357566 </v>
  </varray>
  <energy>
   <i name="e_fr_energy">   -364.22988432 </i>
   <i name="e_wo_entrp">   -364.23599312 </i>
   <i name="e_0_energy">      0.01832640 </i>
  </energy>
  <time name="totalsc">   11.75   12.67</time>
 </calculation>
 <calculation>
  <scstep>
   <time name="dav">    0.98    0.98</time>
   <time name="total">    1.06    1.20</time>
   <energy>
    <i name="alphaZ">   1481.51749535 </i>
    <i name="ewald"> -18726.48508947 </i>
    <i name="hartreedc">  -6653.95655598 </i>
    <i name="XCdc">   -344.94008844 </i>
    <i name="pawpsdc">  33667.93092119 </i>
    <i name="pawaedc"> -32019.01344400 </i>
    <i name="eentropy">      0.02150127 </i>
    <i name="bandstr">  -2549.24175201 </i>
    <i name="atom">  24779.72038929 </i>
    <i name="e_fr_energy">   -364.44662279 </i>
    <i name="e_wo_entrp">   -364.46812406 </i>
    <i name="e_0_energy">   -364.45378988 </i>
   </energy>
  </scstep>
  <scstep>
   <time name="diag">    0.08    0.08</time>
   <time name="diis">    0.82    0.82</time>
   <time name="orth">    0.01    0.01</time>
   <time name="total">    0.97    1.00</time>
   <energy>
    <i name="e_fr_energy">   -364.37680763 </i>
    <i name="e_wo_entrp">   -364.39429320 </i>
    <i name="e_0_energy">   -364.38263615 </i>
   </energy>
  </scstep>
  <scstep>
   <time name="diag">    0.08    0.08</time>
   <time name="diis">    0.78    0.83</time>
   <time name="orth">    0.01    0.01</time>
   <time name="total">    0.99    1.08</time>
   <energy>
    <i name="e_fr_energy">   -364.31547423 </i>
    <i name="e_wo_entrp">   -364.33685905 </i>
    <i name="e_0_energy">   -364.32260250 </i>
   </energy>
  </scstep>
  <scstep>
   <time name="diag">    0.08    0.08</time>
   <time name="diis">    0.80    0.82</time>
   <time name="orth">    0.01    0.01</time>
   <time name="total">    0.96    1.02</time>
   <energy>
    <i name="e_fr_energy">   -364.27605870 </i>
    <i name="e_wo_entrp">   -364.29685538 </i>
    <i name="e_0_energy">   -364.28299093 </i>
   </energy>
  </scstep>
  <scstep>
   <time name="diag">    0.08    0.08</time>
   <time name="diis">    0.72    0.80</time>
   <time name="orth">    0.01    0.01</time>
   <time name="total">    0.87    1.03</time>
   <energy>
    <i name="e_fr_energy">   -364.27106827 </i>
    <i name="e_wo_entrp">   -364.29166167 </i>
    <i name="e_0_energy">   -364.27793274 </i>
   </energy>
  </scstep>
  <scstep>
   <time name="diag">    0.07    0.07</time>
   <time name="diis">    0.88    0.88</time>
   <time name="orth">    0.01    0.01</time>
   <time name="total">    1.03    1.07</time>
   <energy>
    <i name="e_fr_energy">   -364.27155918 </i>
    <i name="e_wo_entrp">   -364.29196078 </i>
    <i name="e_0_energy">   -364.27835971 </i>
   </energy>
  </scstep>
  <scstep>
   <time name="diag">    0.07    0.07</time>
   <time name="diis">    0.85    0.85</time>
   <time name="orth">    0.01    0.01</time>
   <time name="total">    1.00    1.04</time>
   <energy>
    <i name="e_fr_energy">   -364.27172944 </i>
    <i name="e_wo_entrp">   -364.29244682 </i>
    <i name="e_0_energy">   -364.27863523 </i>
   </energy>
  </scstep>
  <scstep>
   <time name="diag">    0.09    0.09</time>
   <time name="diis">    0.84    0.84</time>
   <time name="orth">    0.01    0.01</time>
   <time name="total">    1.00    1.04</time>
   <energy>
    <i name="e_fr_energy">   -364.27191042 </i>
    <i name="e_wo_entrp">   -364.29255096 </i>
    <i name="e_0_energy">   -364.27879060 </i>
   </energy>
  </scstep>
  <scstep>
   <time name="diag">    0.08    0.08</time>
   <time name="diis">    0.80    0.80</time>
   <time name="orth">    0.01    0.01</time>
   <time name="total">    0.96    1.02</time>
   <energy>
    <i name="e_fr_energy">   -364.27207471 </i>
    <i name="e_wo_entrp">   -364.29270326 </i>
    <i name="e_0_energy">   -364.27895089 </i>
   </energy>
  </scstep>
  <scstep>
   <time name="diag">    0.10    0.11</time>
   <time name="diis">    0.74    0.74</time>
   <time name="orth">    0.01    0.01</time>
   <time name="total">    0.92    0.96</time>
   <energy>
    <i name="e_fr_energy">   -364.27217716 </i>
    <i name="e_wo_entrp">   -364.29281766 </i>
    <i name="e_0_energy">   -364.27905733 </i>
   </energy>
  </scstep>
  <scstep>
   <time name="diag">    0.07    0.08</time>
   <time name="diis">    0.61    0.61</time>
   <time name="orth">    0.01    0.01</time>
   <time name="total">    0.76    0.80</time>
   <energy>
    <i name="e_fr_energy">   -364.27219713 </i>
    <i name="e_wo_entrp">   -364.29285846 </i>
    <i name="e_0_energy">   -364.27908424 </i>
   </energy>
  </scstep>
  <scstep>
   <time name="diag">    0.12    0.12</time>
   <time name="diis">    0.58    0.59</time>
   <time name="orth">    0.01    0.01</time>
   <time name="total">    0.75    0.79</time>
   <energy>
    <i name="alphaZ">   1481.51749535 </i>
    <i name="ewald"> -18726.48508947 </i>
    <i name="hartreedc">  -6691.50247017 </i>
    <i name="XCdc">   -343.32633865 </i>
    <i name="pawpsdc">  33234.20138686 </i>
    <i name="pawaedc"> -31585.99526295 </i>
    <i name="eentropy">      0.02065567 </i>
    <i name="bandstr">  -2512.42295975 </i>
    <i name="atom">  24779.72038929 </i>
    <i name="e_fr_energy">   -364.27219383 </i>
    <i name="e_wo_entrp">   -364.29284950 </i>
    <i name="e_0_energy">   -364.27907905 </i>
   </energy>
  </scstep>
  <structure>
   <crystal>
    <varray name="basis" >
     <v>       6.93999011      -0.00756305       0.00269189 </v>
     <v>      -0.01112268      10.28409414       0.00673363 </v>
     <v>       0.00435176       0.00634311      10.25061421 </v>
    </varray>
    <i name="volume">    731.60055139 </i>
    <varray name="rec_basis" >
     <v>       0.14409262       0.00015588      -0.00006127 </v>
     <v>       0.00010599       0.09723769      -0.00006022 </v>
     <v>      -0.00003791      -0.00006392       0.09755519 </v>
    </varray>
   </crystal>
   <varray name="positions" >
    <v>       0.99959792       0.00516831       0.00457508 </v>
    <v>       0.99914517       0.99514164       0.32679869 </v>
    <v>       0.00084442       0.31758601       0.99908331 </v>
    <v>       0.01046619       0.66604273       0.66097248 </v>
    <v>       0.50182810       0.99375966       0.32465458 </v>
    <v>       0.75230733       0.50145154       0.16527058 </v>
    <v>       0.49489274       0.67894526       0.98736263 </v>
    <v>       0.75558066       0.83788884       0.82177914 </v>
    <v>       0.00875545       0.00805468       0.67195680 </v>
    <v>       0.74388373       0.48691785       0.82926613 </v>
    <v>       0.24775053       0.50590263       0.15733186 </v>
    <v>       0.00272576       0.68041633       0.34481511 </v>
    <v>       0.50071468       0.00448859       0.00679784 </v>
    <v>       0.75174271       0.16805770       0.50345051 </v>
    <v>       0.76821624       0.48076557       0.50293017 </v>
    <v>       0.49629619       0.67527878       0.34315095 </v>
    <v>       0.48634327       0.66205026       0.65849066 </v>
    <v>       0.47779090       0.33437132       0.33857225 </v>
    <v>       0.25202109       0.17327925       0.17155131 </v>
    <v>       0.22436108       0.48703452       0.50120748 </v>
    <v>       0.01150570       0.67192488       0.99111898 </v>
    <v>       0.74905794       0.18222622       0.18074260 </v>
    <v>       0.49170018       0.00657386       0.67085396 </v>
    <v>       0.73851754       0.17681665       0.82317583 </v>
    <v>       0.76389973       0.81192226       0.15396770 </v>
    <v>       0.26169494       0.16860058       0.82786173 </v>
    <v>       0.24770146       0.16076716       0.50528928 </v>
    <v>       0.02169923       0.32331337       0.33274783 </v>
    <v>       0.02012131       0.32807042       0.67455734 </v>
    <v>       0.25620068       0.49085946       0.84070096 </v>
    <v>       0.25686883       0.85680824       0.51393745 </v>
    <v>       0.74244791       0.85050083       0.51754895 </v>
    <v>       0.24843550       0.84163415       0.82842883 </v>
    <v>       0.23994076       0.81536555       0.15403141 </v>
    <v>       0.47905852       0.33476381       0.66597072 </v>
    <v>       0.49586860       0.31725710       0.99904986 </v>
   </varray>
  </structure>
  <varray name="forces" >
   <v>       0.04263850      -0.05319697      -0.07856925 </v>
   <v>       0.01524281      -0.00621602       0.09608254 </v>
   <v>       0.02216011      -0.00537197      -0.01488160 </v>
   <v>       0.04105122       0.09104287      -0.05123645 </v>
   <v>       0.02130743       0.02779228      -0.04750308 </v>
   <v>       0.03032630       0.00436129      -0.00289667 </v>
   <v>      -0.03350374      -0.01888154       0.04205227 </v>
   <v>      -0.18979093      -0.19830757       0.05207842 </v>
   <v>       0.06352113       0.13484826       0.11046717 </v>
   <v>      -0.00551673      -0.03177492      -0.01711300 </v>
   <v>      -0.02122402       0.00614596      -0.01011871 </v>
   <v>       0.00453912       0.01455192       0.01530701 </v>
   <v>      -0.01616945      -0.01795574       0.03889612 </v>
   <v>      -0.16126249       0.13575796      -0.10278925 </v>
   <v>       0.04836138      -0.00768676       0.01180202 </v>
   <v>       0.01796783      -0.00732782      -0.02702802 </v>
   <v>      -0.04611922      -0.04898191       0.01439499 </v>
   <v>      -0.03260245       0.01380532      -0.01178181 </v>
   <v>      -0.01955943       0.02387572       0.02993427 </v>
   <v>      -0.05681249      -0.04685350       0.01498709 </v>
   <v>       0.03085983       0.00832577       0.03072715 </v>
   <v>       0.01226900       0.01363634       0.03772061 </v>
   <v>      -0.14683558      -0.03846837      -0.00654328 </v>
   <v>      -0.23509652       0.27757069       0.04902533 </v>
   <v>       0.03711559      -0.02177136      -0.02886250 </v>
   <v>       0.24644664       0.22315996       0.07971448 </v>
   <v>       0.19779945       0.08638222      -0.15098477 </v>
   <v>       0.02901858      -0.01047211      -0.02080262 </v>
   <v>       0.03896123      -0.17953149      -0.01106654 </v>
   <v>      -0.00330241      -0.00526196       0.00341687 </v>
   <v>       0.38542997      -0.02545136      -0.13898643 </v>
   <v>      -0.38868436      -0.12827369      -0.03612654 </v>
   <v>       0.18172391      -0.20532715       0.17962773 </v>
   <v>      -0.04259735      -0.02731427      -0.01950803 </v>
   <v>      -0.05089634       0.04631081       0.01045293 </v>
   <v>      -0.01676653      -0.02314087      -0.03988849 </v>
  </varray>
  <varray name="stress" >
   <v>      -9.81699143       0.16607288      -0.00794226 </v>
   <v>       0.16607285     -12.08898114      -0.19191226 </v>
   <v>      -0.00794225      -0.19191232     -12.47179574 </v>
  </varray>
  <energy>
   <i name="e_fr_energy">   -364.27219383 </i>
   <i name="e_wo_entrp">   -364.27907905 </i>
   <i name="e_0_energy">      0.02065567 </i>
  </energy>
  <time name="totalsc">   12.99   13.88</time>
 </calculation>
 <calculation>
  <scstep>
   <time name="dav">    0.93    0.93</time>
   <time name="total">    1.01    1.16</time>
   <energy>
    <i name="alphaZ">   1484.62908071 </i>
    <i name="ewald"> -18743.12144176 </i>
    <i name="hartreedc">  -6692.60642261 </i>
    <i name="XCdc">   -342.73248482 </i>
    <i name="pawpsdc">  33233.86660281 </i>
    <i name="pawaedc"> -31585.71623331 </i>
    <i name="eentropy">      0.02063711 </i>
    <i name="bandstr">  -2498.37254932 </i>
    <i name="atom">  24779.72038929 </i>
    <i name="e_fr_energy">   -364.31242189 </i>
    <i name="e_wo_entrp">   -364.33305900 </i>
    <i name="e_0_energy">   -364.31930092 </i>
   </energy>
  </scstep>
  <scstep>
   <time name="diag">    0.08    0.08</time>
   <time name="diis">    0.79    0.79</time>
   <time name="orth">    0.01    0.01</time>
   <time name="total">    0.94    0.98</time>
   <energy>
    <i name="e_fr_energy">   -364.31750440 </i>
    <i name="e_wo_entrp">   -364.33817266 </i>
    <i name="e_0_energy">   -364.32439382 </i>
   </energy>
  </scstep>
  <scstep>
   <time name="diag">    0.07    0.07</time>
   <time name="diis">    0.77    0.77</time>
   <time name="orth">    0.01    0.01</time>
   <time name="total">    0.92    0.95</time>
   <energy>
    <i name="e_fr_energy">   -364.31135077 </i>
    <i name="e_wo_entrp">   -364.33212703 </i>
    <i name="e_0_energy">   -364.31827619 </i>
   </energy>
  </scstep>
  <scstep>
   <time name="diag">    0.07    0.07</time>
   <time name="diis">    0.78    0.79</time>
   <time name="orth">    0.01    0.01</time>
   <time name="total">    0.93    0.97</time>
   <energy>
    <i name="e_fr_energy">   -364.30952979 </i>
    <i name="e_wo_entrp">   -364.33002573 </i>
    <i name="e_0_energy">   -364.31636177 </i>
   </energy>
  </scstep>
  <scstep>
   <time name="diag">    0.08    0.08</time>
   <time name="diis">    0.80    0.83</time>
   <time name="orth">    0.01    0.01</time>
   <time name="total">    0.95    1.02</time>
   <energy>
    <i name="e_fr_energy">   -364.30920258 </i>
    <i name="e_wo_entrp">   -364.32981339 </i>
    <i name="e_0_energy">   -364.31607285 </i>
   </energy>
  </scstep>
  <scstep>
   <time name="diag">    0.08    0.08</time>
   <time name="diis">    0.79    0.79</time>
   <time name="orth">    0.01    0.01</time>
   <time name="total">    0.94    0.98</time>
   <energy>
    <i name="e_fr_energy">   -364.30923904 </i>
    <i name="e_wo_entrp">   -364.32986337 </i>
    <i name="e_0_energy">   -364.31611382 </i>
   </energy>
  </scstep>
  <scstep>
   <time name="diag">    0.08    0.08</time>
   <time name="diis">    0.73    0.74</time>
   <time name="orth">    0.01    0.01</time>
   <time name="total">    0.89    0.92</time>
   <energy>
    <i name="e_fr_energy">   -364.30924811 </i>
    <i name="e_wo_entrp">   -364.32983138 </i>
    <i name="e_0_energy">   -364.31610920 </i>
   </energy>
  </scstep>
  <scstep>
   <time name="diag">    0.07    0.08</time>
   <time name="diis">    0.73    0.74</time>
   <time name="orth">    0.01    0.01</time>
   <time name="total">    0.89    0.92</time>
   <energy>
    <i name="e_fr_energy">   -364.30926912 </i>
    <i name="e_wo_entrp">   -364.32986436 </i>
    <i name="e_0_energy">   -364.31613420 </i>
   </energy>
  </scstep>
  <scstep>
   <time name="diag">    0.07    0.07</time>
   <time name="diis">    0.51    0.52</time>
   <time name="orth">    0.01    0.01</time>
   <time name="total">    0.67    0.71</time>
   <energy>
    <i name="e_fr_energy">   -364.30928627 </i>
    <i name="e_wo_entrp">   -364.32987946 </i>
    <i name="e_0_energy">   -364.31615066 </i>
   </energy>
  </scstep>
  <scstep>
   <time name="diag">    0.07    0.07</time>
   <time name="diis">    0.45    0.45</time>
   <time name="orth">    0.01    0.01</time>
   <time name="total">    0.57    0.60</time>
   <energy>
    <i name="alphaZ">   1484.62908071 </i>
    <i name="ewald"> -18743.12144176 </i>
    <i name="hartreedc">  -6684.15547872 </i>
    <i name="XCdc">   -343.08274217 </i>
    <i name="pawpsdc">  33322.52829424 </i>
    <i name="pawaedc"> -31674.43090249 </i>
    <i name="eentropy">      0.02060627 </i>
    <i name="bandstr">  -2506.41710109 </i>
    <i name="atom">  24779.72038929 </i>
    <i name="e_fr_energy">   -364.30929572 </i>
    <i name="e_wo_entrp">   -364.32990199 </i>
    <i name="e_0_energy">   -364.31616447 </i>
   </energy>
  </scstep>
  <structure>
   <crystal>
    <varray name="basis" >
     <v>       6.93916574      -0.00710465       0.00241418 </v>
     <v>      -0.01045247      10.27443420       0.00570243 </v>
     <v>       0.00394449       0.00531613      10.23996107 </v>
    </varray>
    <i name="volume">    730.06721381 </i>
    <varray name="rec_basis" >
     <v>       0.14410971       0.00014664      -0.00005559 </v>
     <v>       0.00009967       0.09732909      -0.00005057 </v>
     <v>      -0.00003403      -0.00005424       0.09765666 </v>
    </varray>
   </crystal>
   <varray name="positions" >
    <v>       0.99969954       0.00504950       0.00437793 </v>
    <v>       0.99916156       0.99514824       0.32701386 </v>
    <v>       0.00089452       0.31758290       0.99903057 </v>
    <v>       0.01051300       0.66622693       0.66089146 </v>
    <v>       0.50188203       0.99379262       0.32461640 </v>
    <v>       0.75238170       0.50146681       0.16527696 </v>
    <v>       0.49482012       0.67893669       0.98738260 </v>
    <v>       0.75479419       0.83730592       0.82203060 </v>
    <v>       0.00879107       0.00847711       0.67231881 </v>
    <v>       0.74383197       0.48688568       0.82926037 </v>
    <v>       0.24770761       0.50592113       0.15732973 </v>
    <v>       0.00272148       0.68042304       0.34484557 </v>
    <v>       0.50067806       0.00444684       0.00684203 </v>
    <v>       0.75110470       0.16845307       0.50312234 </v>
    <v>       0.76828744       0.48077096       0.50293685 </v>
    <v>       0.49637001       0.67528670       0.34312155 </v>
    <v>       0.48627508       0.66200000       0.65850709 </v>
    <v>       0.47773870       0.33435611       0.33858230 </v>
    <v>       0.25201096       0.17333091       0.17162141 </v>
    <v>       0.22428764       0.48700438       0.50120518 </v>
    <v>       0.01151952       0.67196014       0.99115898 </v>
    <v>       0.74902717       0.18225191       0.18083817 </v>
    <v>       0.49115440       0.00651096       0.67086379 </v>
    <v>       0.73760008       0.17752072       0.82339177 </v>
    <v>       0.76393791       0.81187324       0.15390118 </v>
    <v>       0.26269365       0.16917828       0.82817227 </v>
    <v>       0.24862151       0.16113215       0.50470577 </v>
    <v>       0.02171916       0.32328631       0.33270986 </v>
    <v>       0.02013448       0.32761752       0.67454061 </v>
    <v>       0.25623652       0.49087087       0.84075837 </v>
    <v>       0.25838325       0.85658254       0.51344137 </v>
    <v>       0.74099069       0.85004758       0.51727864 </v>
    <v>       0.24932216       0.84100360       0.82899286 </v>
    <v>       0.23988632       0.81530138       0.15401640 </v>
    <v>       0.47896950       0.33481678       0.66599001 </v>
    <v>       0.49583533       0.31718649       0.99892733 </v>
   </varray>
  </structure>
  <varray name="forces" >
   <v>       0.04061595      -0.04974928      -0.07132113 </v>
   <v>       0.01679897      -0.00971586       0.08900505 </v>
   <v>       0.01936930       0.00145977      -0.00419831 </v>
   <v>       0.04403279       0.08970568      -0.05181483 </v>
   <v>       0.02896952       0.04168276      -0.07357402 </v>
   <v>       0.03255079       0.00404872      -0.00660118 </v>
   <v>      -0.01978094      -0.04564705       0.06540277 </v>
   <v>      -0.15408111      -0.15497091       0.02193208 </v>
   <v>       0.07162032       0.09917953       0.08142615 </v>
   <v>       0.01033440      -0.01954749      -0.01899365 </v>
   <v>      -0.02355024       0.00082641      -0.00652012 </v>
   <v>       0.00244312       0.00811131       0.01544096 </v>
   <v>      -0.01070402      -0.02104580       0.04975896 </v>
   <v>      -0.13749784       0.09864232      -0.07750976 </v>
   <v>       0.04771919       0.00396154       0.01198293 </v>
   <v>       0.01962518      -0.03263759      -0.03858139 </v>
   <v>      -0.05118459      -0.07421506       0.01636311 </v>
   <v>      -0.01852048       0.04141828      -0.02993511 </v>
   <v>      -0.03213209      -0.00037968       0.02577291 </v>
   <v>      -0.06059839      -0.03842436       0.01866583 </v>
   <v>       0.02383358      -0.01639563       0.02626079 </v>
   <v>       0.02919009      -0.00350186       0.03103714 </v>
   <v>      -0.10906631      -0.03822784      -0.00028080 </v>
   <v>      -0.18727608       0.22231727       0.02438688 </v>
   <v>       0.04025538      -0.00130471      -0.02139174 </v>
   <v>       0.18993322       0.17390878       0.05742629 </v>
   <v>       0.14481016       0.03119392      -0.09676372 </v>
   <v>       0.01931315       0.00471214      -0.02509192 </v>
   <v>       0.03177430      -0.15674581      -0.01536350 </v>
   <v>      -0.02109162       0.00945770      -0.00639590 </v>
   <v>       0.32095249       0.00104339      -0.10801865 </v>
   <v>      -0.33787790      -0.08986546       0.00005957 </v>
   <v>       0.12461589      -0.15675331       0.14068819 </v>
   <v>      -0.04240749       0.00017828      -0.01086875 </v>
   <v>      -0.03861992       0.06633626       0.00250113 </v>
   <v>      -0.01436877       0.01094363      -0.01488624 </v>
  </varray>
  <varray name="stress" >
   <v>      -7.34650378       0.13412163       0.08596819 </v>
   <v>       0.13412161      -9.05075131      -0.09498309 </v>
   <v>       0.08596819      -0.09498313      -9.52810953 </v>
  </varray>
  <energy>
   <i name="e_fr_energy">   -364.30929572 </i>
   <i name="e_wo_entrp">   -364.31616447 </i>
   <i name="e_0_energy">      0.02060627 </i>
  </energy>
  <time name="totalsc">   10.30   10.96</time>
 </calculation>
 <calculation>
  <scstep>
   <time name="dav">    1.00    1.00</time>
   <time name="total">    1.09    1.23</time>
   <energy>
    <i name="alphaZ">   1493.34256169 </i>
    <i name="ewald"> -18788.62011949 </i>
    <i name="hartreedc">  -6688.28067178 </i>
    <i name="XCdc">   -341.41195043 </i>
    <i name="pawpsdc">  33323.08016119 </i>
    <i name="pawaedc"> -31674.93410407 </i>
    <i name="eentropy">      0.01979222 </i>
    <i name="bandstr">  -2467.30338692 </i>
    <i name="atom">  24779.72038929 </i>
    <i name="e_fr_energy">   -364.38732830 </i>
    <i name="e_wo_entrp">   -364.40712052 </i>
    <i name="e_0_energy">   -364.39392571 </i>
   </energy>
  </scstep>
  <scstep>
   <time name="diag">    0.07    0.08</time>
   <time name="diis">    0.76    0.77</time>
   <time name="orth">    0.01    0.01</time>
   <time name="total">    0.92    0.95</time>
   <energy>
    <i name="e_fr_energy">   -364.42468546 </i>
    <i name="e_wo_entrp">   -364.44429212 </i>
    <i name="e_0_energy">   -364.43122101 </i>
   </energy>
  </scstep>
  <scstep>
   <time name="diag">    0.09    0.09</time>
   <time name="diis">    0.77    0.78</time>
   <time name="orth">    0.01    0.01</time>
   <time name="total">    0.94    0.97</time>
   <energy>
    <i name="e_fr_energy">   -364.37666153 </i>
    <i name="e_wo_entrp">   -364.39665411 </i>
    <i name="e_0_energy">   -364.38332572 </i>
   </energy>
  </scstep>
  <scstep>
   <time name="diag">    0.08    0.08</time>
   <time name="diis">    0.85    0.90</time>
   <time name="orth">    0.01    0.02</time>
   <time name="total">    1.01    1.09</time>
   <energy>
    <i name="e_fr_energy">   -364.36313818 </i>
    <i name="e_wo_entrp">   -364.38237081 </i>
    <i name="e_0_energy">   -364.36954906 </i>
   </energy>
  </scstep>
  <scstep>
   <time name="diag">    0.13    0.13</time>
   <time name="diis">    0.78    0.79</time>
   <time name="orth">    0.01    0.01</time>
   <time name="total">    0.99    1.02</time>
   <energy>
    <i name="e_fr_energy">   -364.36086972 </i>
    <i name="e_wo_entrp">   -364.38034755 </i>
    <i name="e_0_energy">   -364.36736233 </i>
   </energy>
  </scstep>
  <scstep>
   <time name="diag">    0.07    0.07</time>
   <time name="diis">    0.82    0.82</time>
   <time name="orth">    0.01    0.01</time>
   <time name="total">    0.97    1.01</time>
   <energy>
    <i name="e_fr_energy">   -364.36115037 </i>
    <i name="e_wo_entrp">   -364.38067546 </i>
    <i name="e_0_energy">   -364.36765873 </i>
   </energy>
  </scstep>
  <scstep>
   <time name="diag">    0.07    0.07</time>
   <time name="diis">    0.90    0.91</time>
   <time name="orth">    0.01    0.01</time>
   <time name="total">    1.05    1.10</time>
   <energy>
    <i name="e_fr_energy">   -364.36120370 </i>
    <i name="e_wo_entrp">   -364.38060223 </i>
    <i name="e_0_energy">   -364.36766988 </i>
   </energy>
  </scstep>
  <scstep>
   <time name="diag">    0.07    0.08</time>
   <time name="diis">    0.81    0.81</time>
   <time name="orth">    0.03    0.03</time>
   <time name="total">    1.00    1.04</time>
   <energy>
    <i name="e_fr_energy">   -364.36133200 </i>
    <i name="e_wo_entrp">   -364.38077473 </i>
    <i name="e_0_energy">   -364.36781291 </i>
   </energy>
  </scstep>
  <scstep>
   <time name="diag">    0.11    0.13</time>
   <time name="diis">    0.72    0.73</time>
   <time name="orth">    0.01    0.01</time>
   <time name="total">    0.91    0.99</time>
   <energy>
    <i name="e_fr_energy">   -364.36143079 </i>
    <i name="e_wo_entrp">   -364.38087092 </i>
    <i name="e_0_energy">   -364.36791083 </i>
   </energy>
  </scstep>
  <scstep>
   <time name="diag">    0.08    0.08</time>
   <time name="diis">    0.69    0.70</time>
   <time name="orth">    0.01    0.01</time>
   <time name="total">    0.85    0.88</time>
   <energy>
    <i name="e_fr_energy">   -364.36148399 </i>
    <i name="e_wo_entrp">   -364.38094290 </i>
    <i name="e_0_energy">   -364.36797029 </i>
   </energy>
  </scstep>
  <scstep>
   <time name="diag">    0.08    0.08</time>
   <time name="diis">    0.63    0.63</time>
   <time name="orth">    0.01    0.01</time>
   <time name="total">    0.78    0.82</time>
   <energy>
    <i name="e_fr_energy">   -364.36150809 </i>
    <i name="e_wo_entrp">   -364.38092016 </i>
    <i name="e_0_energy">   -364.36797878 </i>
   </energy>
  </scstep>
  <scstep>
   <time name="diag">    0.07    0.07</time>
   <time name="diis">    0.48    0.49</time>
   <time name="orth">    0.01    0.01</time>
   <time name="total">    0.61    0.65</time>
   <energy>
    <i name="alphaZ">   1493.34256169 </i>
    <i name="ewald"> -18788.62011949 </i>
    <i name="hartreedc">  -6665.41091881 </i>
    <i name="XCdc">   -342.36224105 </i>
    <i name="pawpsdc">  33590.17026231 </i>
    <i name="pawaedc"> -31941.49861780 </i>
    <i name="eentropy">      0.01944230 </i>
    <i name="bandstr">  -2489.72227188 </i>
    <i name="atom">  24779.72038929 </i>
    <i name="e_fr_energy">   -364.36151344 </i>
    <i name="e_wo_entrp">   -364.38095574 </i>
    <i name="e_0_energy">   -364.36799421 </i>
   </energy>
  </scstep>
  <structure>
   <crystal>
    <varray name="basis" >
     <v>       6.93687058      -0.00582838       0.00164099 </v>
     <v>      -0.00858648      10.24753931       0.00283139 </v>
     <v>       0.00281057       0.00245683      10.21030096 </v>
    </varray>
    <i name="volume">    725.80735613 </i>
    <varray name="rec_basis" >
     <v>       0.14415733       0.00012080      -0.00003971 </v>
     <v>       0.00008200       0.09758448      -0.00002350 </v>
     <v>      -0.00002319      -0.00002708       0.09794032 </v>
    </varray>
   </crystal>
   <varray name="positions" >
    <v>       0.99998247       0.00471833       0.00382845 </v>
    <v>       0.99920723       0.99516670       0.32761356 </v>
    <v>       0.00103403       0.31757422       0.99888359 </v>
    <v>       0.01064326       0.66674023       0.66066570 </v>
    <v>       0.50203219       0.99388443       0.32451000 </v>
    <v>       0.75258876       0.50150934       0.16529473 </v>
    <v>       0.49461791       0.67891285       0.98743825 </v>
    <v>       0.75260446       0.83568162       0.82273124 </v>
    <v>       0.00889019       0.00965445       0.67332787 </v>
    <v>       0.74368786       0.48679603       0.82924429 </v>
    <v>       0.24758807       0.50597268       0.15732377 </v>
    <v>       0.00270958       0.68044176       0.34493048 </v>
    <v>       0.50057611       0.00433048       0.00696516 </v>
    <v>       0.74932799       0.16955489       0.50220775 </v>
    <v>       0.76848569       0.48078595       0.50295548 </v>
    <v>       0.49657553       0.67530876       0.34303963 </v>
    <v>       0.48608521       0.66185995       0.65855284 </v>
    <v>       0.47759333       0.33431373       0.33861030 </v>
    <v>       0.25198275       0.17347487       0.17181679 </v>
    <v>       0.22408317       0.48692037       0.50119875 </v>
    <v>       0.01155799       0.67205843       0.99127048 </v>
    <v>       0.74894149       0.18232355       0.18110455 </v>
    <v>       0.48963470       0.00633575       0.67089110 </v>
    <v>       0.73504527       0.17948297       0.82399376 </v>
    <v>       0.76404423       0.81173661       0.15371577 </v>
    <v>       0.26547445       0.17078814       0.82903798 </v>
    <v>       0.25118318       0.16214902       0.50307966 </v>
    <v>       0.02177467       0.32321088       0.33260404 </v>
    <v>       0.02017126       0.32635540       0.67449388 </v>
    <v>       0.25633632       0.49090269       0.84091838 </v>
    <v>       0.26260013       0.85595324       0.51205882 </v>
    <v>       0.73693316       0.84878458       0.51652504 </v>
    <v>       0.25179132       0.83924644       0.83056475 </v>
    <v>       0.23973475       0.81512254       0.15397457 </v>
    <v>       0.47872160       0.33496440       0.66604377 </v>
    <v>       0.49574269       0.31698969       0.99858582 </v>
   </varray>
  </structure>
  <varray name="forces" >
   <v>       0.03282120      -0.03935452      -0.05139032 </v>
   <v>       0.02021262      -0.01831605       0.07104092 </v>
   <v>       0.00948030       0.01696110       0.02477528 </v>
   <v>       0.05230286       0.08857817      -0.05000158 </v>
   <v>       0.05135542       0.08260148      -0.14882686 </v>
   <v>       0.03491621       0.00116054      -0.01700511 </v>
   <v>       0.02215135      -0.12642729       0.13548697 </v>
   <v>      -0.05244930      -0.02933922      -0.05920374 </v>
   <v>       0.09026961       0.00227087       0.00332344 </v>
   <v>       0.05514432       0.01973112      -0.02711661 </v>
   <v>      -0.02849163      -0.01576785       0.00403519 </v>
   <v>      -0.00353898      -0.00869039       0.01646412 </v>
   <v>       0.00521876      -0.02829214       0.07474865 </v>
   <v>      -0.06892818      -0.00121830      -0.00363432 </v>
   <v>       0.04554545       0.03818979       0.01693778 </v>
   <v>       0.02393733      -0.11152054      -0.07514931 </v>
   <v>      -0.06568943      -0.14661865       0.02477892 </v>
   <v>       0.02242522       0.12389248      -0.08572261 </v>
   <v>      -0.06720403      -0.06832414       0.00892480 </v>
   <v>      -0.06838650      -0.01628966       0.02965092 </v>
   <v>       0.00467495      -0.08662919       0.01197212 </v>
   <v>       0.07897299      -0.04645189       0.00767213 </v>
   <v>       0.00444649      -0.03805287       0.02074199 </v>
   <v>      -0.04820931       0.05603472      -0.05035600 </v>
   <v>       0.04951631       0.05393709       0.00144211 </v>
   <v>       0.02490444       0.02716326      -0.00927455 </v>
   <v>      -0.00697950      -0.11873676       0.05941082 </v>
   <v>      -0.00890139       0.04709498      -0.03519871 </v>
   <v>       0.00921827      -0.09108826      -0.02673154 </v>
   <v>      -0.07407143       0.05241883      -0.03676079 </v>
   <v>       0.13361807       0.06651409      -0.02408202 </v>
   <v>      -0.18855743       0.01512626       0.09677441 </v>
   <v>      -0.03750540      -0.01709332       0.03032892 </v>
   <v>      -0.04263563       0.07890482       0.01604833 </v>
   <v>      -0.00170301       0.12122089      -0.02057112 </v>
   <v>      -0.00788101       0.11641053       0.06646737 </v>
  </varray>
  <varray name="stress" >
   <v>       0.30878751       0.03574533       0.33704276 </v>
   <v>       0.03574535       0.32021397       0.13380081 </v>
   <v>       0.33704273       0.13380080      -0.48269091 </v>
  </varray>
  <energy>
   <i name="e_fr_energy">   -364.36151344 </i>
   <i name="e_wo_entrp">   -364.36799421 </i>
   <i name="e_0_energy">      0.01944230 </i>
  </energy>
  <time name="totalsc">   12.66   13.46</time>
 </calculation>
 <calculation>
  <scstep>
   <time name="dav">    0.92    0.93</time>
   <time name="total">    1.01    1.15</time>
   <energy>
    <i name="alphaZ">   1494.88656082 </i>
    <i name="ewald"> -18796.51901351 </i>
    <i name="hartreedc">  -6666.31222973 </i>
    <i name="XCdc">   -342.06423907 </i>
    <i name="pawpsdc">  33590.74029130 </i>
    <i name="pawaedc"> -31942.02887948 </i>
    <i name="eentropy">      0.01918744 </i>
    <i name="bandstr">  -2482.80544046 </i>
    <i name="atom">  24779.72038929 </i>
    <i name="e_fr_energy">   -364.36337339 </i>
    <i name="e_wo_entrp">   -364.38256083 </i>
    <i name="e_0_energy">   -364.36976920 </i>
   </energy>
  </scstep>
  <scstep>
   <time name="diag">    0.08    0.08</time>
   <time name="diis">    0.75    0.75</time>
   <time name="orth">    0.01    0.01</time>
   <time name="total">    0.91    0.96</time>
   <energy>
    <i name="e_fr_energy">   -364.36454116 </i>
    <i name="e_wo_entrp">   -364.38368242 </i>
    <i name="e_0_energy">   -364.37092158 </i>
   </energy>
  </scstep>
  <scstep>
   <time name="diag">    0.08    0.08</time>
   <time name="diis">    0.77    0.77</time>
   <time name="orth">    0.01    0.01</time>
   <time name="total">    0.97    1.01</time>
   <energy>
    <i name="e_fr_energy">   -364.36316058 </i>
    <i name="e_wo_entrp">   -364.38236696 </i>
    <i name="e_0_energy">   -364.36956271 </i>
   </energy>
  </scstep>
  <scstep>
   <time name="diag">    0.13    0.13</time>
   <time name="diis">    0.77    0.78</time>
   <time name="orth">    0.01    0.01</time>
   <time name="total">    0.98    1.02</time>
   <energy>
    <i name="e_fr_energy">   -364.36274028 </i>
    <i name="e_wo_entrp">   -364.38181496 </i>
    <i name="e_0_energy">   -364.36909851 </i>
   </energy>
  </scstep>
  <scstep>
   <time name="diag">    0.08    0.08</time>
   <time name="diis">    0.83    0.83</time>
   <time name="orth">    0.02    0.02</time>
   <time name="total">    1.01    1.05</time>
   <energy>
    <i name="e_fr_energy">   -364.36267720 </i>
    <i name="e_wo_entrp">   -364.38179609 </i>
    <i name="e_0_energy">   -364.36905016 </i>
   </energy>
  </scstep>
  <scstep>
   <time name="diag">    0.08    0.08</time>
   <time name="diis">    0.70    0.70</time>
   <time name="orth">    0.01    0.01</time>
   <time name="total">    0.86    0.89</time>
   <energy>
    <i name="e_fr_energy">   -364.36269447 </i>
    <i name="e_wo_entrp">   -364.38182005 </i>
    <i name="e_0_energy">   -364.36906966 </i>
   </energy>
  </scstep>
  <scstep>
   <time name="diag">    0.09    0.09</time>
   <time name="diis">    0.59    0.59</time>
   <time name="orth">    0.01    0.01</time>
   <time name="total">    0.73    0.77</time>
   <energy>
    <i name="alphaZ">   1494.88656082 </i>
    <i name="ewald"> -18796.51901351 </i>
    <i name="hartreedc">  -6662.14280868 </i>
    <i name="XCdc">   -342.23857768 </i>
    <i name="pawpsdc">  33640.59548333 </i>
[...]
       <r>    6.7665    1.0000 </r>
       <r>    6.7947    1.0000 </r>
       <r>    6.8376    1.0000 </r>
       <r>    6.8682    1.0000 </r>
       <r>    6.9010    1.0000 </r>
       <r>    6.9608    1.0000 </r>
       <r>    6.9895    1.0001 </r>
       <r>    7.0505    1.0005 </r>
       <r>    7.0846    1.0015 </r>
       <r>    7.0913    1.0018 </r>
       <r>    7.1360    1.0056 </r>
       <r>    7.1696    1.0115 </r>
       <r>    7.2022    1.0202 </r>
       <r>    7.2599    1.0350 </r>
       <r>    7.2656    1.0354 </r>
       <r>    7.2991    1.0268 </r>
       <r>    7.3197    1.0077 </r>
       <r>    7.3640    0.9128 </r>
       <r>    7.4251    0.6473 </r>
       <r>    7.4506    0.5056 </r>
       <r>    7.5040    0.2236 </r>
       <r>    7.5664    0.0194 </r>
       <r>    7.6111   -0.0305 </r>
       <r>    7.6387   -0.0354 </r>
       <r>    7.6651   -0.0309 </r>
       <r>    7.6956   -0.0218 </r>
       <r>    7.7192   -0.0151 </r>
       <r>    7.7517   -0.0080 </r>
       <r>    7.7764   -0.0045 </r>
       <r>    7.8296   -0.0011 </r>
       <r>    7.8773   -0.0002 </r>
       <r>    7.9096   -0.0001 </r>
       <r>    7.9352   -0.0000 </r>
       <r>    8.0039   -0.0000 </r>
       <r>    8.0211   -0.0000 </r>
       <r>    8.0802   -0.0000 </r>
       <r>    8.1044   -0.0000 </r>
       <r>    8.1507   -0.0000 </r>
       <r>    8.2011   -0.0000 </r>
       <r>    8.2906   -0.0000 </r>
       <r>    8.3406   -0.0000 </r>
       <r>    8.5804   -0.0000 </r>
       <r>    8.7304   -0.0000 </r>
       <r>    8.7858   -0.0000 </r>
       <r>    9.3319   -0.0000 </r>
       <r>    9.4078   -0.0000 </r>
       <r>    9.4406   -0.0000 </r>
       <r>    9.5008   -0.0000 </r>
       <r>    9.5270   -0.0000 </r>
      </set>
     </set>
    </set>
   </array>
  </eigenvalues>
  <separator name="orbital magnetization" >
   <v name="MAGDIPOLOUT">      0.00000000      0.00000000      0.00000000</v>
  </separator>
  <dos>
   <i name="efermi">      7.45163368 </i>
   <total>
    <array>
     <dimension dim="1">gridpoints</dimension>
     <dimension dim="2">spin</dimension>
     <field>energy</field>
     <field>total</field>
     <field>integrated</field>
     <set>
      <set comment="spin 1">
       <r>   -49.6719     0.0000     0.0000 </r>
       <r>   -49.4650     0.0000     0.0000 </r>
       <r>   -49.2581     0.0000     0.0000 </r>
       <r>   -49.0511     0.0000     0.0000 </r>
       <r>   -48.8442     0.0000     0.0000 </r>
       <r>   -48.6373     0.0000     0.0000 </r>
       <r>   -48.4304     0.0000     0.0000 </r>
       <r>   -48.2235    -0.0000    -0.0000 </r>
       <r>   -48.0166    -0.0000    -0.0000 </r>
       <r>   -47.8097    -0.0000    -0.0000 </r>
       <r>   -47.6027    -0.0000    -0.0000 </r>
       <r>   -47.3958    -0.0000    -0.0000 </r>
       <r>   -47.1889    -0.0355    -0.0074 </r>
       <r>   -46.9820    -0.8375    -0.1806 </r>
       <r>   -46.7751    19.6761     3.8906 </r>
       <r>   -46.5682    39.0107    11.9625 </r>
       <r>   -46.3613    20.0993    16.1213 </r>
       <r>   -46.1543    -0.5288    16.0119 </r>
       <r>   -45.9474    -0.0574    16.0000 </r>
       <r>   -45.7405    -0.0000    16.0000 </r>
       <r>   -45.5336    -0.0000    16.0000 </r>
       <r>   -45.3267     0.0000    16.0000 </r>
       <r>   -45.1198     0.0000    16.0000 </r>
       <r>   -44.9129     0.0000    16.0000 </r>
       <r>   -44.7060     0.0000    16.0000 </r>
       <r>   -44.4990     0.0000    16.0000 </r>
       <r>   -44.2921     0.0000    16.0000 </r>
       <r>   -44.0852     0.0000    16.0000 </r>
       <r>   -43.8783     0.0000    16.0000 </r>
       <r>   -43.6714     0.0000    16.0000 </r>
       <r>   -43.4645     0.0000    16.0000 </r>
       <r>   -43.2576     0.0000    16.0000 </r>
       <r>   -43.0506     0.0000    16.0000 </r>
       <r>   -42.8437     0.0000    16.0000 </r>
       <r>   -42.6368     0.0000    16.0000 </r>
       <r>   -42.4299     0.0000    16.0000 </r>
       <r>   -42.2230    -0.0000    16.0000 </r>
       <r>   -42.0161    -0.0000    16.0000 </r>
       <r>   -41.8092    -0.0000    16.0000 </r>
       <r>   -41.6022    -0.0000    16.0000 </r>
       <r>   -41.3953    -0.0000    16.0000 </r>
       <r>   -41.1884    -0.0258    15.9947 </r>
       <r>   -40.9815    -0.7365    15.8423 </r>
       <r>   -40.7746    15.2785    19.0036 </r>
       <r>   -40.5677    45.1101    28.3375 </r>
       <r>   -40.3608    17.2184    31.9002 </r>
       <r>   -40.1538     0.5931    32.0230 </r>
       <r>   -39.9469    -0.1108    32.0000 </r>
       <r>   -39.7400    -0.0002    32.0000 </r>
       <r>   -39.5331    -0.0000    32.0000 </r>
       <r>   -39.3262    -0.0000    32.0000 </r>
       <r>   -39.1193     0.0000    32.0000 </r>
       <r>   -38.9124     0.0000    32.0000 </r>
       <r>   -38.7054     0.0000    32.0000 </r>
       <r>   -38.4985     0.0000    32.0000 </r>
       <r>   -38.2916     0.0000    32.0000 </r>
       <r>   -38.0847     0.0000    32.0000 </r>
       <r>   -37.8778     0.0000    32.0000 </r>
       <r>   -37.6709     0.0000    32.0000 </r>
       <r>   -37.4640     0.0000    32.0000 </r>
       <r>   -37.2570     0.0000    32.0000 </r>
       <r>   -37.0501     0.0000    32.0000 </r>
       <r>   -36.8432     0.0000    32.0000 </r>
       <r>   -36.6363     0.0000    32.0000 </r>
       <r>   -36.4294     0.0000    32.0000 </r>
       <r>   -36.2225     0.0000    32.0000 </r>
       <r>   -36.0156     0.0000    32.0000 </r>
       <r>   -35.8086     0.0000    32.0000 </r>
       <r>   -35.6017     0.0000    32.0000 </r>
       <r>   -35.3948     0.0000    32.0000 </r>
       <r>   -35.1879     0.0000    32.0000 </r>
       <r>   -34.9810     0.0000    32.0000 </r>
       <r>   -34.7741     0.0000    32.0000 </r>
       <r>   -34.5672     0.0000    32.0000 </r>
       <r>   -34.3602     0.0000    32.0000 </r>
       <r>   -34.1533     0.0000    32.0000 </r>
       <r>   -33.9464     0.0000    32.0000 </r>
       <r>   -33.7395     0.0000    32.0000 </r>
       <r>   -33.5326     0.0000    32.0000 </r>
       <r>   -33.3257     0.0000    32.0000 </r>
       <r>   -33.1188     0.0000    32.0000 </r>
       <r>   -32.9118     0.0000    32.0000 </r>
       <r>   -32.7049     0.0000    32.0000 </r>
       <r>   -32.4980     0.0000    32.0000 </r>
       <r>   -32.2911     0.0000    32.0000 </r>
       <r>   -32.0842     0.0000    32.0000 </r>
       <r>   -31.8773     0.0000    32.0000 </r>
       <r>   -31.6704     0.0000    32.0000 </r>
       <r>   -31.4634     0.0000    32.0000 </r>
       <r>   -31.2565     0.0000    32.0000 </r>
       <r>   -31.0496     0.0000    32.0000 </r>
       <r>   -30.8427     0.0000    32.0000 </r>
       <r>   -30.6358     0.0000    32.0000 </r>
       <r>   -30.4289     0.0000    32.0000 </r>
       <r>   -30.2220     0.0000    32.0000 </r>
       <r>   -30.0151     0.0000    32.0000 </r>
       <r>   -29.8081     0.0000    32.0000 </r>
       <r>   -29.6012     0.0000    32.0000 </r>
       <r>   -29.3943     0.0000    32.0000 </r>
       <r>   -29.1874     0.0000    32.0000 </r>
       <r>   -28.9805     0.0000    32.0000 </r>
       <r>   -28.7736     0.0000    32.0000 </r>
       <r>   -28.5667     0.0000    32.0000 </r>
       <r>   -28.3597     0.0000    32.0000 </r>
       <r>   -28.1528     0.0000    32.0000 </r>
       <r>   -27.9459     0.0000    32.0000 </r>
       <r>   -27.7390     0.0000    32.0000 </r>
       <r>   -27.5321     0.0000    32.0000 </r>
       <r>   -27.3252     0.0000    32.0000 </r>
       <r>   -27.1183     0.0000    32.0000 </r>
       <r>   -26.9113     0.0000    32.0000 </r>
       <r>   -26.7044     0.0000    32.0000 </r>
       <r>   -26.4975     0.0000    32.0000 </r>
       <r>   -26.2906     0.0000    32.0000 </r>
       <r>   -26.0837     0.0000    32.0000 </r>
       <r>   -25.8768     0.0000    32.0000 </r>
       <r>   -25.6699     0.0000    32.0000 </r>
       <r>   -25.4629     0.0000    32.0000 </r>
       <r>   -25.2560     0.0000    32.0000 </r>
       <r>   -25.0491     0.0000    32.0000 </r>
       <r>   -24.8422     0.0000    32.0000 </r>
       <r>   -24.6353     0.0000    32.0000 </r>
       <r>   -24.4284    -0.0000    32.0000 </r>
       <r>   -24.2215    -0.0000    32.0000 </r>
       <r>   -24.0145    -0.0000    32.0000 </r>
       <r>   -23.8076    -0.0000    32.0000 </r>
       <r>   -23.6007    -0.0024    31.9995 </r>
       <r>   -23.3938    -0.4015    31.9164 </r>
       <r>   -23.1869     4.1324    32.7715 </r>
       <r>   -22.9800    36.2819    40.2787 </r>
       <r>   -22.7731   102.0640    61.3972 </r>
       <r>   -22.5661    64.8913    74.8241 </r>
       <r>   -22.3592    24.3950    79.8718 </r>
       <r>   -22.1523     0.7730    80.0318 </r>
       <r>   -21.9454    -0.1533    80.0000 </r>
       <r>   -21.7385    -0.0002    80.0000 </r>
       <r>   -21.5316    -0.0000    80.0000 </r>
       <r>   -21.3247    -0.0000    80.0000 </r>
       <r>   -21.1177     0.0000    80.0000 </r>
       <r>   -20.9108     0.0000    80.0000 </r>
       <r>   -20.7039     0.0000    80.0000 </r>
       <r>   -20.4970     0.0000    80.0000 </r>
       <r>   -20.2901    -0.0000    80.0000 </r>
       <r>   -20.0832    -0.0000    80.0000 </r>
       <r>   -19.8763    -0.0000    80.0000 </r>
       <r>   -19.6693    -0.0000    80.0000 </r>
       <r>   -19.4624    -0.0191    79.9960 </r>
       <r>   -19.2555    -1.1578    79.7565 </r>
       <r>   -19.0486    17.6962    83.4181 </r>
       <r>   -18.8417    66.6194    97.2026 </r>
       <r>   -18.6348    90.3036   115.8876 </r>
       <r>   -18.4279    53.7244   127.0040 </r>
       <r>   -18.2209     5.3486   128.1107 </r>
       <r>   -18.0140    -0.5311   128.0008 </r>
       <r>   -17.8071    -0.0038   128.0000 </r>
       <r>   -17.6002    -0.0000   128.0000 </r>
       <r>   -17.3933    -0.0000   128.0000 </r>
       <r>   -17.1864     0.0000   128.0000 </r>
       <r>   -16.9795     0.0000   128.0000 </r>
       <r>   -16.7725     0.0000   128.0000 </r>
       <r>   -16.5656     0.0000   128.0000 </r>
       <r>   -16.3587     0.0000   128.0000 </r>
       <r>   -16.1518     0.0000   128.0000 </r>
       <r>   -15.9449     0.0000   128.0000 </r>
       <r>   -15.7380     0.0000   128.0000 </r>
       <r>   -15.5311     0.0000   128.0000 </r>
       <r>   -15.3242     0.0000   128.0000 </r>
       <r>   -15.1172     0.0000   128.0000 </r>
       <r>   -14.9103     0.0000   128.0000 </r>
       <r>   -14.7034     0.0000   128.0000 </r>
       <r>   -14.4965     0.0000   128.0000 </r>
       <r>   -14.2896     0.0000   128.0000 </r>
       <r>   -14.0827     0.0000   128.0000 </r>
       <r>   -13.8758     0.0000   128.0000 </r>
       <r>   -13.6688     0.0000   128.0000 </r>
       <r>   -13.4619     0.0000   128.0000 </r>
       <r>   -13.2550     0.0000   128.0000 </r>
       <r>   -13.0481     0.0000   128.0000 </r>
       <r>   -12.8412     0.0000   128.0000 </r>
       <r>   -12.6343     0.0000   128.0000 </r>
       <r>   -12.4274     0.0000   128.0000 </r>
       <r>   -12.2204     0.0000   128.0000 </r>
       <r>   -12.0135     0.0000   128.0000 </r>
       <r>   -11.8066     0.0000   128.0000 </r>
       <r>   -11.5997     0.0000   128.0000 </r>
       <r>   -11.3928     0.0000   128.0000 </r>
       <r>   -11.1859     0.0000   128.0000 </r>
       <r>   -10.9790     0.0000   128.0000 </r>
       <r>   -10.7720     0.0000   128.0000 </r>
       <r>   -10.5651     0.0000   128.0000 </r>
       <r>   -10.3582     0.0000   128.0000 </r>
       <r>   -10.1513     0.0000   128.0000 </r>
       <r>    -9.9444     0.0000   128.0000 </r>
       <r>    -9.7375     0.0000   128.0000 </r>
       <r>    -9.5306     0.0000   128.0000 </r>
       <r>    -9.3236     0.0000   128.0000 </r>
       <r>    -9.1167     0.0000   128.0000 </r>
       <r>    -8.9098     0.0000   128.0000 </r>
       <r>    -8.7029     0.0000   128.0000 </r>
       <r>    -8.4960     0.0000   128.0000 </r>
       <r>    -8.2891     0.0000   128.0000 </r>
       <r>    -8.0822     0.0000   128.0000 </r>
       <r>    -7.8752     0.0000   128.0000 </r>
       <r>    -7.6683     0.0000   128.0000 </r>
       <r>    -7.4614     0.0000   128.0000 </r>
       <r>    -7.2545     0.0000   128.0000 </r>
       <r>    -7.0476     0.0000   128.0000 </r>
       <r>    -6.8407     0.0000   128.0000 </r>
       <r>    -6.6338     0.0000   128.0000 </r>
       <r>    -6.4268     0.0000   128.0000 </r>
       <r>    -6.2199     0.0000   128.0000 </r>
       <r>    -6.0130     0.0000   128.0000 </r>
       <r>    -5.8061     0.0000   128.0000 </r>
       <r>    -5.5992     0.0000   128.0000 </r>
       <r>    -5.3923     0.0000   128.0000 </r>
       <r>    -5.1854     0.0000   128.0000 </r>
       <r>    -4.9784     0.0000   128.0000 </r>
       <r>    -4.7715     0.0000   128.0000 </r>
       <r>    -4.5646     0.0000   128.0000 </r>
       <r>    -4.3577     0.0000   128.0000 </r>
       <r>    -4.1508     0.0000   128.0000 </r>
       <r>    -3.9439     0.0000   128.0000 </r>
       <r>    -3.7370     0.0000   128.0000 </r>
       <r>    -3.5300     0.0000   128.0000 </r>
       <r>    -3.3231     0.0000   128.0000 </r>
       <r>    -3.1162     0.0000   128.0000 </r>
       <r>    -2.9093     0.0000   128.0000 </r>
       <r>    -2.7024     0.0000   128.0000 </r>
       <r>    -2.4955     0.0000   128.0000 </r>
       <r>    -2.2886     0.0000   128.0000 </r>
       <r>    -2.0816     0.0000   128.0000 </r>
       <r>    -1.8747     0.0000   128.0000 </r>
       <r>    -1.6678     0.0000   128.0000 </r>
       <r>    -1.4609     0.0000   128.0000 </r>
       <r>    -1.2540     0.0000   128.0000 </r>
       <r>    -1.0471     0.0000   128.0000 </r>
       <r>    -0.8402     0.0000   128.0000 </r>
       <r>    -0.6333    -0.0000   128.0000 </r>
       <r>    -0.4263    -0.0000   128.0000 </r>
       <r>    -0.2194    -0.0000   128.0000 </r>
       <r>    -0.0125    -0.0000   128.0000 </r>
       <r>     0.1944    -0.0000   128.0000 </r>
       <r>     0.4013    -0.0087   127.9982 </r>
       <r>     0.6082     0.0989   128.0186 </r>
       <r>     0.8151     0.6567   128.1545 </r>
       <r>     1.0221     1.4978   128.4644 </r>
       <r>     1.2290     1.7503   128.8266 </r>
       <r>     1.4359     2.8054   129.4071 </r>
       <r>     1.6428     3.8356   130.2007 </r>
       <r>     1.8497     2.3344   130.6837 </r>
       <r>     2.0566     3.2673   131.3598 </r>
       <r>     2.2635     4.7074   132.3338 </r>
       <r>     2.4705     3.4561   133.0489 </r>
       <r>     2.6774     5.6847   134.2252 </r>
       <r>     2.8843     8.7046   136.0263 </r>
       <r>     3.0912     6.8944   137.4528 </r>
       <r>     3.2981     8.2567   139.1612 </r>
       <r>     3.5050     8.0034   140.8173 </r>
       <r>     3.7119    14.1459   143.7442 </r>
       <r>     3.9189    18.6638   147.6061 </r>
       <r>     4.1258    21.3060   152.0146 </r>
       <r>     4.3327    24.2610   157.0345 </r>
       <r>     4.5396    31.9897   163.6536 </r>
       <r>     4.7465    34.4109   170.7737 </r>
       <r>     4.9534    37.8774   178.6111 </r>
       <r>     5.1603    37.4540   186.3609 </r>
       <r>     5.3673    36.7172   193.9582 </r>
       <r>     5.5742    34.0866   201.0112 </r>
       <r>     5.7811    30.7431   207.3723 </r>
       <r>     5.9880    14.7111   210.4163 </r>
       <r>     6.1949    48.4597   220.4433 </r>
       <r>     6.4018    63.0167   233.4823 </r>
       <r>     6.6087    59.4807   245.7897 </r>
       <r>     6.8157    51.8519   256.5186 </r>
       <r>     7.0226    53.9554   267.6827 </r>
       <r>     7.2295    55.7676   279.2218 </r>
       <r>     7.4364    48.8143   289.3222 </r>
       <r>     7.6433    46.9899   299.0451 </r>
       <r>     7.8502    51.9961   309.8038 </r>
       <r>     8.0571    44.5184   319.0153 </r>
       <r>     8.2641    32.4757   325.7350 </r>
       <r>     8.4710    27.3447   331.3930 </r>
       <r>     8.6779    21.1473   335.7687 </r>
       <r>     8.8848    16.4455   339.1715 </r>
       <r>     9.0917    13.1855   341.8997 </r>
       <r>     9.2986    24.2267   346.9126 </r>
       <r>     9.5055    19.9105   351.0324 </r>
       <r>     9.7125     4.9943   352.0657 </r>
       <r>     9.9194    -0.3115   352.0013 </r>
       <r>    10.1263    -0.0062   352.0000 </r>
       <r>    10.3332    -0.0000   352.0000 </r>
       <r>    10.5401    -0.0000   352.0000 </r>
       <r>    10.7470     0.0000   352.0000 </r>
       <r>    10.9539     0.0000   352.0000 </r>
       <r>    11.1609     0.0000   352.0000 </r>
       <r>    11.3678     0.0000   352.0000 </r>
       <r>    11.5747     0.0000   352.0000 </r>
       <r>    11.7816     0.0000   352.0000 </r>
       <r>    11.9885     0.0000   352.0000 </r>
       <r>    12.1954     0.0000   352.0000 </r>
       <r>    12.4023     0.0000   352.0000 </r>
      </set>
     </set>
    </array>
   </total>
  </dos>
 </calculation>
 <structure name="finalpos" >
  <crystal>
   <varray name="basis" >
    <v>       6.94528103      -0.00320152      -0.00127099 </v>
    <v>      -0.00472471      10.23645941       0.00272166 </v>
    <v>      -0.00144531       0.00234358      10.21724343 </v>
   </varray>
   <i name="volume">    726.39559754 </i>
   <varray name="rec_basis" >
    <v>       0.14398269       0.00006645       0.00002035 </v>
    <v>       0.00004503       0.09769005      -0.00002240 </v>
    <v>       0.00001790      -0.00002601       0.09787377 </v>
   </varray>
  </crystal>
  <varray name="positions" >
   <v>       0.00022600       0.00397854       0.00149870 </v>
   <v>       0.00099888       0.99617645       0.33155794 </v>
   <v>      -0.00049125       0.31309071       0.99755777 </v>
   <v>       0.01558357       0.67378998       0.65724103 </v>
   <v>       0.50629501       0.99944490       0.31967204 </v>
   <v>       0.75576143       0.49985925       0.16494219 </v>
   <v>       0.49255102       0.67174751       0.99380506 </v>
   <v>       0.74941961       0.83007311       0.82512538 </v>
   <v>       0.00997305       0.00483207       0.67112917 </v>
   <v>       0.75461388       0.48970331       0.82847143 </v>
   <v>       0.23924094       0.50349125       0.15851334 </v>
   <v>       0.00323421       0.68230949       0.34546837 </v>
   <v>       0.50187480       0.00452902       0.00702487 </v>
   <v>       0.74736779       0.17136999       0.50443426 </v>
   <v>       0.77038599       0.48434895       0.50481461 </v>
   <v>       0.49700594       0.67100644       0.33833630 </v>
   <v>       0.47999439       0.65568523       0.66121128 </v>
   <v>       0.48066976       0.33755791       0.33648642 </v>
   <v>       0.25064732       0.17430366       0.17119710 </v>
   <v>       0.22032361       0.48533144       0.50005795 </v>
   <v>       0.01003741       0.67252713       0.99365369 </v>
   <v>       0.75271695       0.18245108       0.18015237 </v>
   <v>       0.49296195       0.00709974       0.67421829 </v>
   <v>       0.73181153       0.17952120       0.81962823 </v>
   <v>       0.76803701       0.81540954       0.15386968 </v>
   <v>       0.26834159       0.17088144       0.82805060 </v>
   <v>       0.25489874       0.16204471       0.50365274 </v>
   <v>       0.01944054       0.32149183       0.33307681 </v>
   <v>       0.01999752       0.32239964       0.67415299 </v>
   <v>       0.24069818       0.49226253       0.84146323 </v>
   <v>       0.28054990       0.85809535       0.50770681 </v>
   <v>       0.72230568       0.84484173       0.51652517 </v>
   <v>       0.25239749       0.83636771       0.83678329 </v>
   <v>       0.23762987       0.81944832       0.15399934 </v>
   <v>       0.47836005       0.34002877       0.66609288 </v>
   <v>       0.49412262       0.32250609      -0.00157034 </v>
  </varray>
 </structure>
</modeling>
