       N       E                     dE             d eps       ncg     rms          rms(c)
DAV:   1     0.150178184989E+04    0.15018E+04   -0.97844E+04  5000   0.102E+03
DAV:   2    -0.114464067117E+03   -0.16162E+04   -0.15493E+04  5036   0.347E+02
DAV:   3    -0.345329984710E+03   -0.23087E+03   -0.21830E+03  7856   0.101E+02
DAV:   4    -0.373757633888E+03   -0.28428E+02   -0.27049E+02  7816   0.297E+01
DAV:   5    -0.376681614860E+03   -0.29240E+01   -0.28472E+01  7248   0.975E+00    0.664E+01
RMM:   6    -0.366379596337E+03    0.10302E+02   -0.21861E+01  6513   0.922E+00    0.320E+01
RMM:   7    -0.366241383945E+03    0.13821E+00   -0.23634E+01  6921   0.845E+00    0.945E+00
RMM:   8    -0.362120728644E+03    0.41207E+01   -0.50160E+00  7185   0.338E+00    0.374E+00
RMM:   9    -0.361966300076E+03    0.15443E+00   -0.19901E+00  7118   0.177E+00    0.255E+00
RMM:  10    -0.361927393270E+03    0.38907E-01   -0.32406E-01  7113   0.108E+00    0.122E+00
RMM:  11    -0.361917743344E+03    0.96499E-02   -0.11615E-01  7166   0.531E-01    0.648E-01
RMM:  12    -0.361914224636E+03    0.35187E-02   -0.43455E-02  7243   0.301E-01    0.352E-01
RMM:  13    -0.361914081405E+03    0.14323E-03   -0.17444E-02  7242   0.161E-01    0.217E-01
RMM:  14    -0.361914382915E+03   -0.30151E-03   -0.75986E-03  7236   0.958E-02    0.108E-01
RMM:  15    -0.361914618237E+03   -0.23532E-03   -0.34551E-03  7175   0.639E-02    0.430E-02
RMM:  16    -0.361914718756E+03   -0.10052E-03   -0.15264E-03  6007   0.363E-02    0.235E-02
RMM:  17    -0.361914764470E+03   -0.45714E-04   -0.66140E-04  5669   0.253E-02    0.145E-02
RMM:  18    -0.361914787936E+03   -0.23466E-04   -0.33597E-04  5532   0.180E-02    0.827E-03
RMM:  19    -0.361914793335E+03   -0.53989E-05   -0.10860E-04  4084   0.126E-02    0.356E-03
RMM:  20    -0.361914796789E+03   -0.34536E-05   -0.65996E-05  4007   0.113E-02
   1 F= -.36191480E+03 E0= -.36192090E+03  d E =-.361915E+03
       N       E                     dE             d eps       ncg     rms          rms(c)
DAV:   1    -0.361916017571E+03   -0.12242E-02   -0.40807E-02  5176   0.598E-01    0.159E-01
RMM:   2    -0.361915942452E+03    0.75119E-04   -0.23121E-03  7046   0.125E-01    0.601E-02
RMM:   3    -0.361915883679E+03    0.58773E-04   -0.48476E-04  7014   0.378E-02    0.446E-02
RMM:   4    -0.361915830309E+03    0.53370E-04   -0.14023E-04  6616   0.229E-02    0.234E-02
RMM:   5    -0.361915821988E+03    0.83214E-05   -0.42108E-05  3795   0.136E-02
   2 F= -.36191582E+03 E0= -.36192195E+03  d E =-.102520E-02
       N       E                     dE             d eps       ncg     rms          rms(c)
DAV:   1    -0.361919644821E+03   -0.38145E-02   -0.36597E-01  4992   0.179E+00    0.471E-01
RMM:   2    -0.361918851829E+03    0.79299E-03   -0.19851E-02  7039   0.369E-01    0.178E-01
RMM:   3    -0.361918311474E+03    0.54036E-03   -0.40769E-03  7153   0.110E-01    0.132E-01
RMM:   4    -0.361917859538E+03    0.45194E-03   -0.11854E-03  7233   0.663E-02    0.699E-02
RMM:   5    -0.361917808914E+03    0.50623E-04   -0.41481E-04  7175   0.377E-02    0.521E-02
RMM:   6    -0.361917802316E+03    0.65981E-05   -0.14873E-04  6165   0.194E-02    0.301E-02
RMM:   7    -0.361917797973E+03    0.43434E-05   -0.69197E-05  4519   0.159E-02
   3 F= -.36191780E+03 E0= -.36192399E+03  d E =-.300118E-02
       N       E                     dE             d eps       ncg     rms          rms(c)
DAV:   1    -0.361924492452E+03   -0.66901E-02   -0.14641E+00  4832   0.358E+00    0.943E-01
RMM:   2    -0.361921246834E+03    0.32456E-02   -0.78841E-02  7042   0.736E-01    0.356E-01
RMM:   3    -0.361919111716E+03    0.21351E-02   -0.16161E-02  7156   0.217E-01    0.262E-01
RMM:   4    -0.361917316126E+03    0.17956E-02   -0.46620E-03  7238   0.132E-01    0.137E-01
RMM:   5    -0.361917123975E+03    0.19215E-03   -0.16484E-03  7207   0.737E-02    0.101E-01
RMM:   6    -0.361917121766E+03    0.22094E-05   -0.56748E-04  7096   0.382E-02    0.584E-02
RMM:   7    -0.361917127896E+03   -0.61298E-05   -0.27691E-04  5925   0.282E-02    0.272E-02
RMM:   8    -0.361917134358E+03   -0.64625E-05   -0.15301E-04  5522   0.214E-02    0.203E-02
RMM:   9    -0.361917135498E+03   -0.11398E-05   -0.46721E-05  4290   0.145E-02
   4 F= -.36191714E+03 E0= -.36192345E+03  d E =-.233871E-02
       N       E                     dE             d eps       ncg     rms          rms(c)
DAV:   1    -0.361920772690E+03   -0.36383E-02   -0.48677E-01  4848   0.206E+00    0.552E-01
RMM:   2    -0.361919615824E+03    0.11569E-02   -0.26676E-02  7031   0.428E-01    0.209E-01
RMM:   3    -0.361918899532E+03    0.71629E-03   -0.55146E-03  7159   0.127E-01    0.155E-01
RMM:   4    -0.361918274062E+03    0.62547E-03   -0.15375E-03  7245   0.765E-02    0.806E-02
RMM:   5    -0.361918210598E+03    0.63464E-04   -0.51877E-04  7201   0.429E-02    0.586E-02
RMM:   6    -0.361918221793E+03   -0.11195E-04   -0.16902E-04  6515   0.216E-02    0.330E-02
RMM:   7    -0.361918236787E+03   -0.14993E-04   -0.75606E-05  4844   0.164E-02    0.158E-02
RMM:   8    -0.361918243608E+03   -0.68212E-05   -0.37682E-05  3852   0.133E-02
   5 F= -.36191824E+03 E0= -.36192449E+03  d E =-.344682E-02
       N       E                     dE             d eps       ncg     rms          rms(c)
DAV:   1    -0.361918849091E+03   -0.61230E-03   -0.18888E-02  4800   0.383E-01    0.615E-02
RMM:   2    -0.361918859091E+03   -0.99997E-05   -0.63059E-04  6667   0.692E-02    0.236E-02
RMM:   3    -0.361918851656E+03    0.74352E-05   -0.82908E-05  5498   0.201E-02
   6 F= -.36191885E+03 E0= -.36192509E+03  d E =-.608048E-03
       N       E                     dE             d eps       ncg     rms          rms(c)
DAV:   1    -0.361920432764E+03   -0.15737E-02   -0.17010E-01  4704   0.115E+00    0.194E-01
RMM:   2    -0.361920488647E+03   -0.55883E-04   -0.62150E-03  7042   0.212E-01    0.828E-02
RMM:   3    -0.361920416624E+03    0.72023E-04   -0.10003E-03  7037   0.538E-02    0.582E-02
RMM:   4    -0.361920356939E+03    0.59685E-04   -0.29182E-04  6835   0.287E-02    0.353E-02
RMM:   5    -0.361920352249E+03    0.46905E-05   -0.11713E-04  6374   0.190E-02    0.233E-02
RMM:   6    -0.361920356350E+03   -0.41016E-05   -0.36923E-05  3407   0.112E-02
   7 F= -.36192036E+03 E0= -.36192658E+03  d E =-.211274E-02
       N       E                     dE             d eps       ncg     rms          rms(c)
DAV:   1    -0.361922398771E+03   -0.20465E-02   -0.68125E-01  4624   0.230E+00    0.388E-01
RMM:   2    -0.361922704557E+03   -0.30579E-03   -0.24209E-02  7055   0.422E-01    0.165E-01
RMM:   3    -0.361922422100E+03    0.28246E-03   -0.40123E-03  7059   0.110E-01    0.115E-01
RMM:   4    -0.361922150066E+03    0.27203E-03   -0.11355E-03  7098   0.572E-02    0.670E-02
RMM:   5    -0.361922125100E+03    0.24967E-04   -0.45831E-04  7249   0.369E-02    0.432E-02
RMM:   6    -0.361922133251E+03   -0.81512E-05   -0.15997E-04  5938   0.196E-02    0.277E-02
RMM:   7    -0.361922143370E+03   -0.10119E-04   -0.67846E-05  4500   0.144E-02    0.154E-02
RMM:   8    -0.361922148722E+03   -0.53522E-05   -0.39847E-05  3901   0.128E-02
   8 F= -.36192215E+03 E0= -.36192833E+03  d E =-.390511E-02
       N       E                     dE             d eps       ncg     rms          rms(c)
DAV:   1    -0.361921757291E+03    0.38608E-03   -0.27244E+00  4592   0.460E+00    0.783E-01
RMM:   2    -0.361922986559E+03   -0.12293E-02   -0.96611E-02  7060   0.844E-01    0.328E-01
RMM:   3    -0.361921882910E+03    0.11036E-02   -0.15759E-02  7061   0.217E-01    0.229E-01
RMM:   4    -0.361920784955E+03    0.10980E-02   -0.44538E-03  7113   0.114E-01    0.132E-01
RMM:   5    -0.361920670044E+03    0.11491E-03   -0.17672E-03  7247   0.727E-02    0.852E-02
RMM:   6    -0.361920683806E+03   -0.13762E-04   -0.63843E-04  7343   0.385E-02    0.535E-02
RMM:   7    -0.361920713005E+03   -0.29199E-04   -0.27958E-04  6049   0.251E-02    0.302E-02
RMM:   8    -0.361920724308E+03   -0.11304E-04   -0.12023E-04  4931   0.191E-02    0.172E-02
RMM:   9    -0.361920736130E+03   -0.11822E-04   -0.72402E-05  4784   0.158E-02    0.119E-02
RMM:  10    -0.361920743510E+03   -0.73804E-05   -0.21183E-05  3470   0.121E-02
   9 F= -.36192074E+03 E0= -.36192684E+03  d E =-.249990E-02
       N       E                     dE             d eps       ncg     rms          rms(c)
DAV:   1    -0.361923083083E+03   -0.23470E-02   -0.13870E+00  4600   0.328E+00    0.554E-01
RMM:   2    -0.361923779767E+03   -0.69668E-03   -0.49174E-02  7058   0.603E-01    0.237E-01
RMM:   3    -0.361923175087E+03    0.60468E-03   -0.79278E-03  7122   0.155E-01    0.168E-01
RMM:   4    -0.361922565866E+03    0.60922E-03   -0.21373E-03  7062   0.810E-02    0.980E-02
RMM:   5    -0.361922471675E+03    0.94191E-04   -0.83938E-04  7233   0.518E-02    0.622E-02
RMM:   6    -0.361922452271E+03    0.19404E-04   -0.29097E-04  6693   0.272E-02    0.384E-02
RMM:   7    -0.361922448867E+03    0.34047E-05   -0.12623E-04  5441   0.179E-02    0.211E-02
RMM:   8    -0.361922444804E+03    0.40628E-05   -0.58719E-05  4144   0.144E-02
  10 F= -.36192244E+03 E0= -.36192861E+03  d E =-.420120E-02
       N       E                     dE             d eps       ncg     rms          rms(c)
DAV:   1    -0.361922797236E+03   -0.34837E-03   -0.17672E-02  4720   0.384E-01    0.404E-02
RMM:   2    -0.361922830778E+03   -0.33542E-04   -0.63969E-04  7064   0.719E-02    0.209E-02
RMM:   3    -0.361922824577E+03    0.62010E-05   -0.71314E-05  4365   0.199E-02
  11 F= -.36192282E+03 E0= -.36192897E+03  d E =-.379773E-03
       N       E                     dE             d eps       ncg     rms          rms(c)
DAV:   1    -0.361923496652E+03   -0.66587E-03   -0.15894E-01  4680   0.115E+00    0.116E-01
RMM:   2    -0.361923797365E+03   -0.30071E-03   -0.56438E-03  7024   0.211E-01    0.595E-02
RMM:   3    -0.361923762312E+03    0.35053E-04   -0.76626E-04  6822   0.552E-02    0.386E-02
RMM:   4    -0.361923753794E+03    0.85177E-05   -0.26116E-04  6564   0.266E-02    0.208E-02
RMM:   5    -0.361923756259E+03   -0.24649E-05   -0.72762E-05  4204   0.138E-02
  12 F= -.36192376E+03 E0= -.36192985E+03  d E =-.131146E-02
       N       E                     dE             d eps       ncg     rms          rms(c)
DAV:   1    -0.361923600124E+03    0.15367E-03   -0.63626E-01  4608   0.230E+00    0.228E-01
RMM:   2    -0.361924834506E+03   -0.12344E-02   -0.22148E-02  6987   0.423E-01    0.114E-01
RMM:   3    -0.361924715537E+03    0.11897E-03   -0.30409E-03  6972   0.110E-01    0.741E-02
RMM:   4    -0.361924671866E+03    0.43671E-04   -0.88572E-04  7482   0.488E-02    0.422E-02
RMM:   5    -0.361924680211E+03   -0.83454E-05   -0.30515E-04  6046   0.263E-02    0.261E-02
RMM:   6    -0.361924678710E+03    0.15012E-05   -0.13343E-04  5110   0.185E-02    0.139E-02
RMM:   7    -0.361924683504E+03   -0.47942E-05   -0.58392E-05  4138   0.134E-02
  13 F= -.36192468E+03 E0= -.36193067E+03  d E =-.223870E-02
       N       E                     dE             d eps       ncg     rms          rms(c)
DAV:   1    -0.361924666477E+03    0.12233E-04   -0.27397E-02  4800   0.477E-01    0.475E-02
RMM:   2    -0.361924727030E+03   -0.60553E-04   -0.10264E-03  6968   0.888E-02    0.246E-02
RMM:   3    -0.361924721839E+03    0.51908E-05   -0.13346E-04  4933   0.240E-02    0.166E-02
RMM:   4    -0.361924722302E+03   -0.46328E-06   -0.59074E-05  4191   0.130E-02
  14 F= -.36192472E+03 E0= -.36193069E+03  d E =-.227750E-02
       N       E                     dE             d eps       ncg     rms          rms(c)
DAV:   1    -0.361926029548E+03   -0.13077E-02   -0.13329E-01  4864   0.113E+00    0.323E-01
RMM:   2    -0.361925689735E+03    0.33981E-03   -0.93312E-03  6972   0.253E-01    0.116E-01
RMM:   3    -0.361925422076E+03    0.26766E-03   -0.18732E-03  7133   0.790E-02    0.860E-02
RMM:   4    -0.361925215152E+03    0.20692E-03   -0.50251E-04  7174   0.435E-02    0.456E-02
RMM:   5    -0.361925188678E+03    0.26474E-04   -0.16524E-04  6619   0.252E-02    0.337E-02
RMM:   6    -0.361925182043E+03    0.66350E-05   -0.55283E-05  3984   0.140E-02
  15 F= -.36192518E+03 E0= -.36193112E+03  d E =-.459741E-03
       N       E                     dE             d eps       ncg     rms          rms(c)
DAV:   1    -0.361925498812E+03   -0.31013E-03   -0.46690E-02  4792   0.673E-01    0.186E-01
RMM:   2    -0.361925386997E+03    0.11181E-03   -0.32317E-03  6944   0.153E-01    0.662E-02
RMM:   3    -0.361925284257E+03    0.10274E-03   -0.59870E-04  7050   0.472E-02    0.493E-02
RMM:   4    -0.361925217032E+03    0.67225E-04   -0.16726E-04  6689   0.250E-02    0.277E-02
RMM:   5    -0.361925207293E+03    0.97389E-05   -0.51283E-05  4353   0.154E-02
  16 F= -.36192521E+03 E0= -.36193114E+03  d E =-.484991E-03
       N       E                     dE             d eps       ncg     rms          rms(c)
DAV:   1    -0.361925461843E+03   -0.24481E-03   -0.64153E-02  4616   0.726E-01    0.838E-02
RMM:   2    -0.361925554207E+03   -0.92364E-04   -0.21748E-03  7048   0.132E-01    0.430E-02
RMM:   3    -0.361925538766E+03    0.15441E-04   -0.30925E-04  6572   0.360E-02    0.284E-02
RMM:   4    -0.361925531142E+03    0.76240E-05   -0.12049E-04  5588   0.174E-02    0.158E-02
RMM:   5    -0.361925528886E+03    0.22558E-05   -0.36730E-05  3443   0.102E-02
  17 F= -.36192553E+03 E0= -.36193142E+03  d E =-.321594E-03
       N       E                     dE             d eps       ncg     rms          rms(c)
DAV:   1    -0.361925438559E+03    0.92584E-04   -0.43946E-01  4600   0.190E+00    0.204E-01
RMM:   2    -0.361926079709E+03   -0.64115E-03   -0.14336E-02  7027   0.342E-01    0.101E-01
RMM:   3    -0.361925991380E+03    0.88329E-04   -0.20108E-03  6978   0.897E-02    0.665E-02
RMM:   4    -0.361925937502E+03    0.53878E-04   -0.63128E-04  7447   0.393E-02    0.392E-02
RMM:   5    -0.361925932052E+03    0.54500E-05   -0.22209E-04  6046   0.245E-02    0.215E-02
RMM:   6    -0.361925934022E+03   -0.19696E-05   -0.99855E-05  4653   0.157E-02
  18 F= -.36192593E+03 E0= -.36193170E+03  d E =-.726729E-03
       N       E                     dE             d eps       ncg     rms          rms(c)
DAV:   1    -0.361926466136E+03   -0.53408E-03   -0.21613E-02  5136   0.498E-01    0.198E-01
RMM:   2    -0.361926212387E+03    0.25375E-03   -0.23336E-03  6993   0.130E-01    0.649E-02
RMM:   3    -0.361926139773E+03    0.72614E-04   -0.58663E-04  7051   0.429E-02    0.495E-02
RMM:   4    -0.361926067573E+03    0.72200E-04   -0.15507E-04  6447   0.264E-02    0.260E-02
RMM:   5    -0.361926062834E+03    0.47388E-05   -0.42711E-05  3416   0.158E-02
  19 F= -.36192606E+03 E0= -.36193181E+03  d E =-.128813E-03
       N       E                     dE             d eps       ncg     rms          rms(c)
DAV:   1    -0.361926192092E+03   -0.12452E-03   -0.70536E-03  4968   0.288E-01    0.109E-01
RMM:   2    -0.361926109944E+03    0.82148E-04   -0.74328E-04  7022   0.749E-02    0.361E-02
RMM:   3    -0.361926087516E+03    0.22427E-04   -0.17572E-04  6270   0.241E-02    0.283E-02
RMM:   4    -0.361926068244E+03    0.19272E-04   -0.42386E-05  3597   0.158E-02    0.180E-02
RMM:   5    -0.361926069632E+03   -0.13878E-05   -0.14639E-05  2633   0.126E-02
  20 F= -.36192607E+03 E0= -.36193181E+03  d E =-.135610E-03
       N       E                     dE             d eps       ncg     rms          rms(c)
DAV:   1    -0.361926169882E+03   -0.10164E-03   -0.17318E-02  4656   0.378E-01    0.478E-02
RMM:   2    -0.361926196917E+03   -0.27034E-04   -0.68680E-04  7061   0.731E-02    0.250E-02
RMM:   3    -0.361926191837E+03    0.50794E-05   -0.91798E-05  4399   0.204E-02
  21 F= -.36192619E+03 E0= -.36193194E+03  d E =-.122205E-03
       N       E                     dE             d eps       ncg     rms          rms(c)
DAV:   1    -0.361926198802E+03   -0.18857E-05   -0.66260E-02  4616   0.738E-01    0.912E-02
RMM:   2    -0.361926284166E+03   -0.85364E-04   -0.26408E-03  7051   0.142E-01    0.476E-02
RMM:   3    -0.361926262631E+03    0.21535E-04   -0.41123E-04  6468   0.382E-02    0.301E-02
RMM:   4    -0.361926255438E+03    0.71928E-05   -0.16706E-04  5935   0.216E-02    0.154E-02
RMM:   5    -0.361926256304E+03   -0.86598E-06   -0.55390E-05  3927   0.118E-02
  22 F= -.36192626E+03 E0= -.36193202E+03  d E =-.186672E-03
       N       E                     dE             d eps       ncg     rms          rms(c)
DAV:   1    -0.361926714403E+03   -0.45897E-03   -0.22868E-02  4928   0.504E-01    0.189E-01
RMM:   2    -0.361926491890E+03    0.22251E-03   -0.22173E-03  7047   0.124E-01    0.649E-02
RMM:   3    -0.361926413914E+03    0.77976E-04   -0.56686E-04  7049   0.417E-02    0.493E-02
RMM:   4    -0.361926339198E+03    0.74716E-04   -0.14979E-04  6471   0.264E-02    0.264E-02
RMM:   5    -0.361926328127E+03    0.11071E-04   -0.44424E-05  3645   0.156E-02    0.203E-02
RMM:   6    -0.361926323951E+03    0.41759E-05   -0.14436E-05  2639   0.107E-02
  23 F= -.36192632E+03 E0= -.36193210E+03  d E =-.676469E-04
       N       E                     dE             d eps       ncg     rms          rms(c)
DAV:   1    -0.361926320579E+03    0.75477E-05   -0.41851E-05  4376   0.219E-02    0.702E-03
RMM:   2    -0.361926320147E+03    0.43249E-06   -0.97032E-06  2410   0.987E-03
  24 F= -.36192632E+03 E0= -.36193210E+03  d E =-.638427E-04
       N       E                     dE             d eps       ncg     rms          rms(c)
DAV:   1    -0.361926428586E+03   -0.10801E-03   -0.15749E-02  4664   0.361E-01    0.558E-02
RMM:   2    -0.361926413804E+03    0.14782E-04   -0.61631E-04  7048   0.670E-02    0.283E-02
RMM:   3    -0.361926404583E+03    0.92211E-05   -0.10995E-04  5312   0.201E-02    0.181E-02
RMM:   4    -0.361926397745E+03    0.68377E-05   -0.49776E-05  3905   0.139E-02
  25 F= -.36192640E+03 E0= -.36193216E+03  d E =-.775986E-04
