<?xml version="1.0" encoding="ISO-8859-1"?>
<modeling>
 <generator>
  <i name="program" type="string">vasp </i>
  <i name="version" type="string">5.4.1  </i>
  <i name="subversion" type="string">05Feb16 (build Jan 29 2020 16:04:39) complex                          parallel </i>
  <i name="platform" type="string">IFC91_ompi </i>
  <i name="date" type="string">2020 06 15 </i>
  <i name="time" type="string">03:51:40 </i>
 </generator>
 <incar>
  <i type="string" name="SYSTEM"> automatically generated by mexm</i>
  <i type="int" name="ISTART">     0</i>
  <i type="string" name="PREC">accurate               ! avoid wrap aro</i>
  <i type="string" name="ALGO"> Fast                   ! blocked Davids</i>
  <i type="int" name="ISPIN">     1</i>
  <i type="int" name="ICHARG">     2</i>
  <i type="int" name="NELM">    70</i>
  <i type="int" name="IBRION">     2</i>
  <i name="EDIFF">      0.00001000</i>
  <i name="EDIFFG">     -0.01000000</i>
  <i type="int" name="NSW">   300</i>
  <i type="int" name="ISIF">     3</i>
  <i type="int" name="ISYM">     1</i>
  <i name="ENCUT">    300.00000000</i>
  <i name="POTIM">      0.15000000</i>
  <i type="string" name="LREAL"> Auto                  ! unpublished met</i>
  <i type="int" name="ISMEAR">     1</i>
  <i name="SIGMA">      0.15000000</i>
  <i type="logical" name="LWAVE"> F  </i>
  <i type="logical" name="LCHARG"> F  </i>
  <i type="logical" name="LVTOT"> F  </i>
  <v type="int" name="KPOINT_BSE">    -1     0     0     0</v>
  <i type="int" name="NELM">    70</i>
 </incar>
 <kpoints>
  <generation param="Gamma">
   <v type="int" name="divisions">       3        3        3 </v>
   <v name="usershift">      0.00000000       0.00000000       0.00000000 </v>
   <v name="genvec1">      0.33333333       0.00000000       0.00000000 </v>
   <v name="genvec2">     -0.00000000       0.33333333       0.00000000 </v>
   <v name="genvec3">      0.00000000      -0.00000000       0.33333333 </v>
   <v name="shift">      0.00000000       0.00000000       0.00000000 </v>
  </generation>
  <varray name="kpointlist" >
   <v>       0.00000000       0.00000000       0.00000000 </v>
   <v>       0.33333333       0.00000000      -0.00000000 </v>
   <v>      -0.00000000       0.33333333       0.00000000 </v>
   <v>       0.33333333       0.33333333      -0.00000000 </v>
   <v>      -0.33333333       0.33333333       0.00000000 </v>
   <v>      -0.00000000      -0.00000000       0.33333333 </v>
   <v>       0.33333333       0.00000000       0.33333333 </v>
   <v>      -0.33333333       0.00000000       0.33333333 </v>
   <v>      -0.00000000       0.33333333       0.33333333 </v>
   <v>       0.33333333       0.33333333       0.33333333 </v>
   <v>      -0.33333333       0.33333333       0.33333333 </v>
   <v>       0.00000000      -0.33333333       0.33333333 </v>
   <v>       0.33333333      -0.33333333       0.33333333 </v>
   <v>      -0.33333333      -0.33333333       0.33333333 </v>
  </varray>
  <varray name="weights" >
   <v>       0.03703704 </v>
   <v>       0.07407407 </v>
   <v>       0.07407407 </v>
   <v>       0.07407407 </v>
   <v>       0.07407407 </v>
   <v>       0.07407407 </v>
   <v>       0.07407407 </v>
   <v>       0.07407407 </v>
   <v>       0.07407407 </v>
   <v>       0.07407407 </v>
   <v>       0.07407407 </v>
   <v>       0.07407407 </v>
   <v>       0.07407407 </v>
   <v>       0.07407407 </v>
  </varray>
 </kpoints>
 <parameters>
  <separator name="general" >
   <i type="string" name="SYSTEM">automatically generated by mexm</i>
   <i type="logical" name="LCOMPAT"> F  </i>
  </separator>
  <separator name="electronic" >
   <i type="string" name="PREC">accura</i>
   <i name="ENMAX">    300.00000000</i>
   <i name="ENAUG">    461.25700000</i>
   <i name="EDIFF">      0.00001000</i>
   <i type="int" name="IALGO">    68</i>
   <i type="int" name="IWAVPR">    11</i>
   <i type="int" name="NBANDS">   164</i>
   <i name="NELECT">    271.00000000</i>
   <i type="int" name="TURBO">     0</i>
   <i type="int" name="IRESTART">     0</i>
   <i type="int" name="NREBOOT">     0</i>
   <i type="int" name="NMIN">     0</i>
   <i name="EREF">      0.00000000</i>
   <separator name="electronic smearing" >
    <i type="int" name="ISMEAR">     1</i>
    <i name="SIGMA">      0.15000000</i>
    <i name="KSPACING">      0.50000000</i>
    <i type="logical" name="KGAMMA"> T  </i>
   </separator>
   <separator name="electronic projectors" >
    <i type="logical" name="LREAL"> T  </i>
    <v name="ROPT">     -0.00025000     -0.00025000     -0.00025000     -0.00025000</v>
    <i type="int" name="LMAXPAW">  -100</i>
    <i type="int" name="LMAXMIX">     2</i>
    <i type="logical" name="NLSPLINE"> F  </i>
   </separator>
   <separator name="electronic startup" >
    <i type="int" name="ISTART">     0</i>
    <i type="int" name="ICHARG">     2</i>
    <i type="int" name="INIWAV">     1</i>
   </separator>
   <separator name="electronic spin" >
    <i type="int" name="ISPIN">     1</i>
    <i type="logical" name="LNONCOLLINEAR"> F  </i>
    <v name="MAGMOM">      1.00000000      1.00000000      1.00000000      1.00000000      1.00000000      1.00000000      1.00000000      1.00000000      1.00000000      1.00000000      1.00000000      1.00000000      1.00000000      1.00000000      1.00000000      1.00000000      1.00000000      1.00000000      1.00000000      1.00000000
      1.00000000      1.00000000      1.00000000      1.00000000      1.00000000      1.00000000      1.00000000      1.00000000      1.00000000      1.00000000      1.00000000      1.00000000      1.00000000      1.00000000      1.00000000      1.00000000</v>
    <i name="NUPDOWN">     -1.00000000</i>
    <i type="logical" name="LSORBIT"> F  </i>
    <v name="SAXIS">      0.00000000      0.00000000      1.00000000</v>
    <i type="logical" name="LSPIRAL"> F  </i>
    <v name="QSPIRAL">      0.00000000      0.00000000      0.00000000</v>
    <i type="logical" name="LZEROZ"> F  </i>
   </separator>
   <separator name="electronic exchange-correlation" >
    <i type="logical" name="LASPH"> F  </i>
    <i type="logical" name="LMETAGGA"> F  </i>
   </separator>
   <separator name="electronic convergence" >
    <i type="int" name="NELM">    70</i>
    <i type="int" name="NELMDL">    -5</i>
    <i type="int" name="NELMIN">     2</i>
    <i name="ENINI">    300.00000000</i>
    <separator name="electronic convergence detail" >
     <i type="logical" name="LDIAG"> T  </i>
     <i type="logical" name="LSUBROT"> F  </i>
     <i name="WEIMIN">      0.00100000</i>
     <i name="EBREAK">      0.00000002</i>
     <i name="DEPER">      0.30000000</i>
     <i type="int" name="NRMM">     4</i>
     <i name="TIME">      0.40000000</i>
    </separator>
   </separator>
   <separator name="electronic mixer" >
    <i name="AMIX">      0.40000000</i>
    <i name="BMIX">      1.00000000</i>
    <i name="AMIN">      0.10000000</i>
    <i name="AMIX_MAG">      1.60000000</i>
    <i name="BMIX_MAG">      1.00000000</i>
    <separator name="electronic mixer details" >
     <i type="int" name="IMIX">     4</i>
     <i type="logical" name="MIXFIRST"> F  </i>
     <i type="int" name="MAXMIX">   -45</i>
     <i name="WC">    100.00000000</i>
     <i type="int" name="INIMIX">     1</i>
     <i type="int" name="MIXPRE">     1</i>
     <i type="int" name="MREMOVE">     5</i>
    </separator>
   </separator>
   <separator name="electronic dipolcorrection" >
    <i type="logical" name="LDIPOL"> F  </i>
    <i type="logical" name="LMONO"> F  </i>
    <i type="int" name="IDIPOL">     0</i>
    <i name="EPSILON">      1.00000000</i>
    <v name="DIPOL">   -100.00000000   -100.00000000   -100.00000000</v>
    <i name="EFIELD">      0.00000000</i>
   </separator>
  </separator>
  <separator name="grids" >
   <i type="int" name="NGX">    40</i>
   <i type="int" name="NGY">    60</i>
   <i type="int" name="NGZ">    60</i>
   <i type="int" name="NGXF">    80</i>
   <i type="int" name="NGYF">   120</i>
   <i type="int" name="NGZF">   120</i>
   <i type="logical" name="ADDGRID"> F  </i>
  </separator>
  <separator name="ionic" >
   <i type="int" name="NSW">   300</i>
   <i type="int" name="IBRION">     2</i>
   <i type="int" name="ISIF">     3</i>
   <i name="PSTRESS">      0.00000000</i>
   <i name="EDIFFG">     -0.01000000</i>
   <i type="int" name="NFREE">     1</i>
   <i name="POTIM">      0.15000000</i>
   <i name="SMASS">     -3.00000000</i>
   <i name="SCALEE">      1.00000000</i>
  </separator>
  <separator name="ionic md" >
   <i name="TEBEG">      0.00010000</i>
   <i name="TEEND">      0.00010000</i>
   <i type="int" name="NBLOCK">     1</i>
   <i type="int" name="KBLOCK">   300</i>
   <i type="int" name="NPACO">   256</i>
   <i name="APACO">     16.00000000</i>
  </separator>
  <separator name="symmetry" >
   <i type="int" name="ISYM">     1</i>
   <i name="SYMPREC">      0.00001000</i>
  </separator>
  <separator name="dos" >
   <i type="logical" name="LORBIT"> F  </i>
   <v name="RWIGS">     -1.00000000     -1.00000000     -1.00000000     -1.00000000</v>
   <i type="int" name="NEDOS">   301</i>
   <i name="EMIN">     10.00000000</i>
   <i name="EMAX">    -10.00000000</i>
   <i name="EFERMI">      0.00000000</i>
  </separator>
  <separator name="writing" >
   <i type="int" name="NWRITE">     2</i>
   <i type="logical" name="LWAVE"> F  </i>
   <i type="logical" name="LCHARG"> F  </i>
   <i type="logical" name="LPARD"> F  </i>
   <i type="logical" name="LVTOT"> F  </i>
   <i type="logical" name="LVHAR"> F  </i>
   <i type="logical" name="LELF"> F  </i>
   <i type="logical" name="LOPTICS"> F  </i>
   <v name="STM">      0.00000000      0.00000000      0.00000000      0.00000000      0.00000000      0.00000000      0.00000000</v>
  </separator>
  <separator name="performance" >
   <i type="int" name="NPAR">     4</i>
   <i type="int" name="NSIM">     4</i>
   <i type="int" name="NBLK">    -1</i>
   <i type="logical" name="LPLANE"> T  </i>
   <i type="logical" name="LSCALAPACK"> T  </i>
   <i type="logical" name="LSCAAWARE"> F  </i>
   <i type="logical" name="LSCALU"> F  </i>
   <i type="logical" name="LASYNC"> F  </i>
   <i type="logical" name="LORBITALREAL"> F  </i>
  </separator>
  <separator name="miscellaneous" >
   <i type="int" name="IDIOT">     3</i>
   <i type="logical" name="LMUSIC"> F  </i>
   <v name="POMASS">     91.22400000    178.49000000     92.91000000    180.94800000</v>
   <v name="DARWINR">      0.00000000      0.00000000      0.00000000      0.00000000</v>
   <v name="DARWINV">      1.00000000      1.00000000      1.00000000      1.00000000</v>
   <i type="logical" name="LCORR"> T  </i>
  </separator>
  <i type="logical" name="GGA_COMPAT"> T  </i>
  <i type="logical" name="LBERRY"> F  </i>
  <i type="int" name="ICORELEVEL">     0</i>
  <i type="logical" name="LDAU"> F  </i>
  <i type="int" name="I_CONSTRAINED_M">     0</i>
  <separator name="electronic exchange-correlation" >
   <i type="string" name="GGA">--</i>
   <i type="int" name="VOSKOWN">     0</i>
   <i type="logical" name="LHFCALC"> F  </i>
   <i type="string" name="PRECFOCK"></i>
   <i type="logical" name="LSYMGRAD"> F  </i>
   <i type="logical" name="LHFONE"> F  </i>
   <i type="logical" name="LRHFCALC"> F  </i>
   <i type="logical" name="LTHOMAS"> F  </i>
   <i type="logical" name="LMODELHF"> F  </i>
   <i name="ENCUT4O">     -1.00000000</i>
   <i type="int" name="EXXOEP">     0</i>
   <i type="int" name="FOURORBIT">     0</i>
   <i name="AEXX">      0.00000000</i>
   <i name="HFALPHA">      0.00000000</i>
   <i name="MCALPHA">      0.00000000</i>
   <i name="ALDAX">      1.00000000</i>
   <i name="AGGAX">      1.00000000</i>
   <i name="ALDAC">      1.00000000</i>
   <i name="AGGAC">      1.00000000</i>
   <i type="int" name="NKREDX">     1</i>
   <i type="int" name="NKREDY">     1</i>
   <i type="int" name="NKREDZ">     1</i>
   <i type="logical" name="SHIFTRED"> F  </i>
   <i type="logical" name="ODDONLY"> F  </i>
   <i type="logical" name="EVENONLY"> F  </i>
   <i type="int" name="LMAXFOCK">     0</i>
   <i type="int" name="NMAXFOCKAE">     0</i>
   <i type="logical" name="LFOCKAEDFT"> F  </i>
   <i name="HFSCREEN">      0.00000000</i>
   <i name="HFSCREENC">      0.00000000</i>
   <i type="int" name="NBANDSGWLOW">     0</i>
  </separator>
  <separator name="vdW DFT" >
   <i type="logical" name="LUSE_VDW"> F  </i>
   <i name="Zab_VDW">     -0.84910000</i>
   <i name="PARAM1">      0.12340000</i>
   <i name="PARAM2">      1.00000000</i>
   <i name="PARAM3">      0.00000000</i>
  </separator>
  <separator name="model GW" >
   <i type="int" name="MODEL_GW">     0</i>
   <i name="MODEL_EPS0">     12.32797865</i>
   <i name="MODEL_ALPHA">      1.00000000</i>
  </separator>
  <separator name="linear response parameters" >
   <i type="logical" name="LEPSILON"> F  </i>
   <i type="logical" name="LRPA"> F  </i>
   <i type="logical" name="LNABLA"> F  </i>
   <i type="logical" name="LVEL"> F  </i>
   <i type="int" name="KINTER">     0</i>
   <i name="CSHIFT">      0.10000000</i>
   <i name="OMEGAMAX">     -1.00000000</i>
   <i name="DEG_THRESHOLD">      0.00200000</i>
  </separator>
  <separator name="orbital magnetization" >
   <i type="logical" name="NUCIND"> F  </i>
   <v name="MAGPOS">      0.00000000      0.00000000      0.00000000</v>
   <i type="logical" name="LNICSALL"> T  </i>
   <i type="logical" name="ORBITALMAG"> F  </i>
   <i type="logical" name="LMAGBLOCH"> F  </i>
   <i type="logical" name="LCHIMAG"> F  </i>
   <i type="logical" name="LGAUGE"> T  </i>
   <i type="int" name="MAGATOM">     0</i>
   <v name="MAGDIPOL">      0.00000000      0.00000000      0.00000000</v>
   <v name="AVECCONST">      0.00000000      0.00000000      0.00000000</v>
  </separator>
  <separator name="response functions" >
   <i type="logical" name="LADDER"> F  </i>
   <i type="logical" name="LFXC"> F  </i>
   <i type="logical" name="LHARTREE"> T  </i>
   <i type="int" name="IBSE">     0</i>
   <v type="int" name="KPOINT">    -1     0     0     0</v>
   <i type="logical" name="LTCTE"> F  </i>
   <i type="logical" name="LTETE"> F  </i>
   <i type="logical" name="LTRIPLET"> F  </i>
   <i type="logical" name="LFXCEPS"> F  </i>
   <i type="logical" name="LFXHEG"> F  </i>
   <i type="int" name="NATURALO">     0</i>
   <i type="logical" name="L2ORDER"> F  </i>
   <i type="logical" name="LUSEW"> F  </i>
   <i name="ENCUTGW">     -2.00000000</i>
   <i name="ENCUTGWSOFT">     -2.00000000</i>
   <i name="ENCUTLF">     -1.00000000</i>
   <i type="int" name="LMAXMP2">    -1</i>
   <i name="SCISSOR">      0.00000000</i>
   <i type="int" name="NOMEGA">     0</i>
   <i type="int" name="NOMEGAR">     0</i>
   <i type="int" name="NBANDSGW">    -1</i>
   <i type="int" name="NBANDSO">    -1</i>
   <i type="int" name="NBANDSV">    -1</i>
   <i type="int" name="NELM">    70</i>
   <i type="int" name="NELMHF">     1</i>
   <i type="int" name="DIM">     3</i>
   <i type="int" name="ANTIRES">     0</i>
   <i name="OMEGAMAX">    -30.00000000</i>
   <i name="OMEGAMIN">    -30.00000000</i>
   <i name="OMEGATL">   -200.00000000</i>
   <i type="int" name="OMEGAGRID">     0</i>
   <i name="CSHIFT">     -0.10000000</i>
   <i type="logical" name="SELFENERGY"> F  </i>
   <i type="logical" name="LSPECTRAL"> F  </i>
   <i type="logical" name="LSPECTRALGW"> F  </i>
   <i type="logical" name="LSINGLES"> F  </i>
   <i type="logical" name="LFERMIGW"> F  </i>
   <i type="logical" name="ODDONLYGW"> F  </i>
   <i type="logical" name="EVENONLYGW"> F  </i>
   <i type="int" name="NKREDLFX">     1</i>
   <i type="int" name="NKREDLFY">     1</i>
   <i type="int" name="NKREDLFZ">     1</i>
   <i type="int" name="MAXMEM">  1800</i>
   <i type="int" name="TELESCOPE">     0</i>
   <i type="int" name="TAUPAR">     1</i>
   <i type="int" name="OMEGAPAR">    -1</i>
   <i name="LAMBDA">      1.00000000</i>
  </separator>
  <separator name="External order field" >
   <i name="OFIELD_KAPPA">      0.00000000</i>
   <v name="OFIELD_K">      0.00000000      0.00000000      0.00000000</v>
   <i name="OFIELD_Q6_NEAR">      0.00000000</i>
   <i name="OFIELD_Q6_FAR">      0.00000000</i>
   <i name="OFIELD_A">      0.00000000</i>
  </separator>
 </parameters>
 <atominfo>
  <atoms>      36 </atoms>
  <types>       4 </types>
  <array name="atoms" >
   <dimension dim="1">ion</dimension>
   <field type="string">element</field>
   <field type="int">atomtype</field>
   <set>
    <rc><c>Zr</c><c>   1</c></rc>
    <rc><c>Zr</c><c>   1</c></rc>
    <rc><c>Zr</c><c>   1</c></rc>
    <rc><c>Zr</c><c>   1</c></rc>
    <rc><c>Zr</c><c>   1</c></rc>
    <rc><c>Zr</c><c>   1</c></rc>
    <rc><c>Zr</c><c>   1</c></rc>
    <rc><c>Zr</c><c>   1</c></rc>
    <rc><c>Zr</c><c>   1</c></rc>
    <rc><c>Zr</c><c>   1</c></rc>
    <rc><c>Hf</c><c>   2</c></rc>
    <rc><c>Hf</c><c>   2</c></rc>
    <rc><c>Hf</c><c>   2</c></rc>
    <rc><c>Hf</c><c>   2</c></rc>
    <rc><c>Hf</c><c>   2</c></rc>
    <rc><c>Hf</c><c>   2</c></rc>
    <rc><c>Hf</c><c>   2</c></rc>
    <rc><c>Hf</c><c>   2</c></rc>
    <rc><c>Hf</c><c>   2</c></rc>
    <rc><c>Hf</c><c>   2</c></rc>
    <rc><c>Hf</c><c>   2</c></rc>
    <rc><c>Nb</c><c>   3</c></rc>
    <rc><c>Nb</c><c>   3</c></rc>
    <rc><c>Nb</c><c>   3</c></rc>
    <rc><c>Nb</c><c>   3</c></rc>
    <rc><c>Ta</c><c>   4</c></rc>
    <rc><c>Ta</c><c>   4</c></rc>
    <rc><c>Ta</c><c>   4</c></rc>
    <rc><c>Ta</c><c>   4</c></rc>
    <rc><c>Ta</c><c>   4</c></rc>
    <rc><c>Ta</c><c>   4</c></rc>
    <rc><c>Ta</c><c>   4</c></rc>
    <rc><c>Ta</c><c>   4</c></rc>
    <rc><c>Ta</c><c>   4</c></rc>
    <rc><c>Ta</c><c>   4</c></rc>
    <rc><c>Ta</c><c>   4</c></rc>
   </set>
  </array>
  <array name="atomtypes" >
   <dimension dim="1">type</dimension>
   <field type="int">atomspertype</field>
   <field type="string">element</field>
   <field>mass</field>
   <field>valence</field>
   <field type="string">pseudopotential</field>
   <set>
    <rc><c>  10</c><c>Zr</c><c>     91.22400000</c><c>     12.00000000</c><c>  PAW_PBE Zr_sv 04Jan2005               </c></rc>
    <rc><c>  11</c><c>Hf</c><c>    178.49000000</c><c>      4.00000000</c><c>  PAW_PBE Hf 20Jan2003                  </c></rc>
    <rc><c>   4</c><c>Nb</c><c>     92.91000000</c><c>     13.00000000</c><c>  PAW_PBE Nb_sv 25May2007               </c></rc>
    <rc><c>  11</c><c>Ta</c><c>    180.94800000</c><c>      5.00000000</c><c>  PAW_PBE Ta 17Jan2003                  </c></rc>
   </set>
  </array>
 </atominfo>
 <structure name="initialpos" >
  <crystal>
   <varray name="basis" >
    <v>       6.95792924       0.01180733       0.00650974 </v>
    <v>       0.01747904      10.31984067      -0.00347685 </v>
    <v>       0.00914856      -0.00381606      10.30129413 </v>
   </varray>
   <i name="volume">    739.67871881 </i>
   <varray name="rec_basis" >
    <v>       0.14372145      -0.00024347      -0.00012773 </v>
    <v>      -0.00016447       0.09690101       0.00003604 </v>
    <v>      -0.00009088       0.00003286       0.09707527 </v>
   </varray>
  </crystal>
  <varray name="positions" >
   <v>       0.50063700       0.66363900       0.32300100 </v>
   <v>       0.73572300       0.15652500       0.83850200 </v>
   <v>       0.01823900       0.98676500       0.00222400 </v>
   <v>       0.22235700       0.16927800       0.48719100 </v>
   <v>       0.27118300       0.17599700       0.84275300 </v>
   <v>       0.00577100       0.66614600       0.00488200 </v>
   <v>       0.51332800       0.33545000       0.33981500 </v>
   <v>       0.77733200       0.52526700       0.51417600 </v>
   <v>       0.48637000       0.66311300       0.67630800 </v>
   <v>       0.75820400       0.83440000       0.51008400 </v>
   <v>       0.98152100       0.33000600       0.67905900 </v>
   <v>       0.75399700       0.16900000       0.15552800 </v>
   <v>       0.24125700       0.17682100       0.16439300 </v>
   <v>       0.02893900       0.99851600       0.67018600 </v>
   <v>       0.97504100       0.34783400       0.32569800 </v>
   <v>       0.22855800       0.50614700       0.50816100 </v>
   <v>       0.99665500       0.66481000       0.31422300 </v>
   <v>       0.48010900       0.97592000       0.01435200 </v>
   <v>       0.50748900       0.99954400       0.33554600 </v>
   <v>       0.51858000       0.33463200       0.65802200 </v>
   <v>       0.74165900       0.83633800       0.82789600 </v>
   <v>       0.02436900       0.67465400       0.68525900 </v>
   <v>       0.26496800       0.82758100       0.82615000 </v>
   <v>       0.50237300       0.34798300       0.99492600 </v>
   <v>       0.74818000       0.50551500       0.84145900 </v>
   <v>       0.74994500       0.83784400       0.16465000 </v>
   <v>       0.99792600       0.34874000       0.99328000 </v>
   <v>       0.98498400       0.99075500       0.32924400 </v>
   <v>       0.26435900       0.48700700       0.15047400 </v>
   <v>       0.25471300       0.49520700       0.84120200 </v>
   <v>       0.24469800       0.83536000       0.19227700 </v>
   <v>       0.24133000       0.82803500       0.49139600 </v>
   <v>       0.47926200       0.99874200       0.65228300 </v>
   <v>       0.73161100       0.49160000       0.14496300 </v>
   <v>       0.77105900       0.14938200       0.49912800 </v>
   <v>       0.49727600       0.66545600       0.00131300 </v>
  </varray>
 </structure>
 <calculation>
  <scstep>
   <time name="dav">    0.99    1.00</time>
   <time name="total">    1.17    1.49</time>
   <energy>
    <i name="alphaZ">   1353.30760594 </i>
    <i name="ewald"> -16527.99880310 </i>
    <i name="hartreedc">  -5789.47033092 </i>
    <i name="XCdc">   -590.77186208 </i>
    <i name="pawpsdc">  18416.93435466 </i>
    <i name="pawaedc"> -16691.19652907 </i>
    <i name="eentropy">     -0.00978777 </i>
    <i name="bandstr">     -3.10979753 </i>
    <i name="atom">  21334.09699975 </i>
    <i name="e_fr_energy">   1501.78184989 </i>
    <i name="e_wo_entrp">   1501.79163766 </i>
    <i name="e_0_energy">   1501.78511248 </i>
   </energy>
  </scstep>
  <scstep>
   <time name="dav">    1.19    1.22</time>
   <time name="total">    1.25    1.43</time>
   <energy>
    <i name="e_fr_energy">   -114.46406712 </i>
    <i name="e_wo_entrp">   -114.45491650 </i>
    <i name="e_0_energy">   -114.46101691 </i>
   </energy>
  </scstep>
  <scstep>
   <time name="dav">    1.42    1.48</time>
   <time name="total">    1.42    1.51</time>
   <energy>
    <i name="e_fr_energy">   -345.32998471 </i>
    <i name="e_wo_entrp">   -345.32288156 </i>
    <i name="e_0_energy">   -345.32761699 </i>
   </energy>
  </scstep>
  <scstep>
   <time name="dav">    1.33    1.36</time>
   <time name="total">    1.33    1.39</time>
   <energy>
    <i name="e_fr_energy">   -373.75763389 </i>
    <i name="e_wo_entrp">   -373.77321522 </i>
    <i name="e_0_energy">   -373.76282766 </i>
   </energy>
  </scstep>
  <scstep>
   <time name="dav">    1.23    1.26</time>
   <time name="total">    1.27    1.32</time>
   <energy>
    <i name="e_fr_energy">   -376.68161486 </i>
    <i name="e_wo_entrp">   -376.69642648 </i>
    <i name="e_0_energy">   -376.68655207 </i>
   </energy>
  </scstep>
  <scstep>
   <time name="diag">    0.07    0.07</time>
   <time name="diis">    0.66    0.67</time>
   <time name="orth">    0.01    0.01</time>
   <time name="total">    0.81    0.86</time>
   <energy>
    <i name="e_fr_energy">   -366.37959634 </i>
    <i name="e_wo_entrp">   -366.39185369 </i>
    <i name="e_0_energy">   -366.38368212 </i>
   </energy>
  </scstep>
  <scstep>
   <time name="diag">    0.07    0.07</time>
   <time name="diis">    0.73    0.74</time>
   <time name="orth">    0.01    0.01</time>
   <time name="total">    0.88    0.93</time>
   <energy>
    <i name="e_fr_energy">   -366.24138394 </i>
    <i name="e_wo_entrp">   -366.24804528 </i>
    <i name="e_0_energy">   -366.24360439 </i>
   </energy>
  </scstep>
  <scstep>
   <time name="diag">    0.07    0.07</time>
   <time name="diis">    0.71    0.73</time>
   <time name="orth">    0.01    0.01</time>
   <time name="total">    0.86    0.91</time>
   <energy>
    <i name="e_fr_energy">   -362.12072864 </i>
    <i name="e_wo_entrp">   -362.13666560 </i>
    <i name="e_0_energy">   -362.12604096 </i>
   </energy>
  </scstep>
  <scstep>
   <time name="diag">    0.07    0.07</time>
   <time name="diis">    0.71    0.73</time>
   <time name="orth">    0.01    0.01</time>
   <time name="total">    0.86    0.91</time>
   <energy>
    <i name="e_fr_energy">   -361.96630008 </i>
    <i name="e_wo_entrp">   -361.98548510 </i>
    <i name="e_0_energy">   -361.97269508 </i>
   </energy>
  </scstep>
  <scstep>
   <time name="diag">    0.08    0.09</time>
   <time name="diis">    0.78    0.80</time>
   <time name="orth">    0.01    0.01</time>
   <time name="total">    0.94    1.01</time>
   <energy>
    <i name="e_fr_energy">   -361.92739327 </i>
    <i name="e_wo_entrp">   -361.94555091 </i>
    <i name="e_0_energy">   -361.93344582 </i>
   </energy>
  </scstep>
  <scstep>
   <time name="diag">    0.16    0.16</time>
   <time name="diis">    0.80    0.81</time>
   <time name="orth">    0.01    0.01</time>
   <time name="total">    1.07    1.14</time>
   <energy>
    <i name="e_fr_energy">   -361.91774334 </i>
    <i name="e_wo_entrp">   -361.93570342 </i>
    <i name="e_0_energy">   -361.92373004 </i>
   </energy>
  </scstep>
  <scstep>
   <time name="diag">    0.07    0.07</time>
   <time name="diis">    0.83    0.84</time>
   <time name="orth">    0.03    0.03</time>
   <time name="total">    1.01    1.06</time>
   <energy>
    <i name="e_fr_energy">   -361.91422464 </i>
    <i name="e_wo_entrp">   -361.93250079 </i>
    <i name="e_0_energy">   -361.92031669 </i>
   </energy>
  </scstep>
  <scstep>
   <time name="diag">    0.12    0.12</time>
   <time name="diis">    0.81    0.83</time>
   <time name="orth">    0.01    0.01</time>
   <time name="total">    1.01    1.06</time>
   <energy>
    <i name="e_fr_energy">   -361.91408141 </i>
    <i name="e_wo_entrp">   -361.93220333 </i>
    <i name="e_0_energy">   -361.92012205 </i>
   </energy>
  </scstep>
  <scstep>
   <time name="diag">    0.08    0.08</time>
   <time name="diis">    0.72    0.74</time>
   <time name="orth">    0.01    0.01</time>
   <time name="total">    0.87    0.94</time>
   <energy>
    <i name="e_fr_energy">   -361.91438292 </i>
    <i name="e_wo_entrp">   -361.93270912 </i>
    <i name="e_0_energy">   -361.92049165 </i>
   </energy>
  </scstep>
  <scstep>
   <time name="diag">    0.07    0.07</time>
   <time name="diis">    0.72    0.73</time>
   <time name="orth">    0.01    0.01</time>
   <time name="total">    0.86    0.91</time>
   <energy>
    <i name="e_fr_energy">   -361.91461824 </i>
    <i name="e_wo_entrp">   -361.93289009 </i>
    <i name="e_0_energy">   -361.92070885 </i>
   </energy>
  </scstep>
  <scstep>
   <time name="diag">    0.07    0.07</time>
   <time name="diis">    0.61    0.63</time>
   <time name="orth">    0.01    0.01</time>
   <time name="total">    0.75    0.81</time>
   <energy>
    <i name="e_fr_energy">   -361.91471876 </i>
    <i name="e_wo_entrp">   -361.93299565 </i>
    <i name="e_0_energy">   -361.92081105 </i>
   </energy>
  </scstep>
  <scstep>
   <time name="diag">    0.08    0.08</time>
   <time name="diis">    0.58    0.60</time>
   <time name="orth">    0.01    0.01</time>
   <time name="total">    0.73    0.78</time>
   <energy>
    <i name="e_fr_energy">   -361.91476447 </i>
    <i name="e_wo_entrp">   -361.93307546 </i>
    <i name="e_0_energy">   -361.92086813 </i>
   </energy>
  </scstep>
  <scstep>
   <time name="diag">    0.07    0.07</time>
   <time name="diis">    0.57    0.59</time>
   <time name="orth">    0.01    0.01</time>
   <time name="total">    0.72    0.78</time>
   <energy>
    <i name="e_fr_energy">   -361.91478794 </i>
    <i name="e_wo_entrp">   -361.93308366 </i>
    <i name="e_0_energy">   -361.92088651 </i>
   </energy>
  </scstep>
  <scstep>
   <time name="diag">    0.08    0.08</time>
   <time name="diis">    0.44    0.45</time>
   <time name="orth">    0.01    0.01</time>
   <time name="total">    0.60    0.65</time>
   <energy>
    <i name="e_fr_energy">   -361.91479334 </i>
    <i name="e_wo_entrp">   -361.93309872 </i>
    <i name="e_0_energy">   -361.92089513 </i>
   </energy>
  </scstep>
  <scstep>
   <time name="diag">    0.07    0.07</time>
   <time name="diis">    0.44    0.45</time>
   <time name="orth">    0.01    0.01</time>
   <time name="total">    0.56    0.60</time>
   <energy>
    <i name="alphaZ">   1353.30760594 </i>
    <i name="ewald"> -16527.99880310 </i>
    <i name="hartreedc">  -5587.31246715 </i>
    <i name="XCdc">   -586.80855400 </i>
    <i name="pawpsdc">  31312.93525254 </i>
    <i name="pawaedc"> -29577.73889212 </i>
    <i name="eentropy">      0.01830786 </i>
    <i name="bandstr">  -2082.41424652 </i>
    <i name="atom">  21334.09699975 </i>
    <i name="e_fr_energy">   -361.91479679 </i>
    <i name="e_wo_entrp">   -361.93310464 </i>
    <i name="e_0_energy">   -361.92089941 </i>
   </energy>
  </scstep>
  <structure>
   <crystal>
    <varray name="basis" >
     <v>       6.95792924       0.01180733       0.00650974 </v>
     <v>       0.01747904      10.31984067      -0.00347685 </v>
     <v>       0.00914856      -0.00381606      10.30129413 </v>
    </varray>
    <i name="volume">    739.67871881 </i>
    <varray name="rec_basis" >
     <v>       0.14372145      -0.00024347      -0.00012773 </v>
     <v>      -0.00016447       0.09690101       0.00003604 </v>
     <v>      -0.00009088       0.00003286       0.09707527 </v>
    </varray>
   </crystal>
   <varray name="positions" >
    <v>       0.50063700       0.66363900       0.32300100 </v>
    <v>       0.73572300       0.15652500       0.83850200 </v>
    <v>       0.01823900       0.98676500       0.00222400 </v>
    <v>       0.22235700       0.16927800       0.48719100 </v>
    <v>       0.27118300       0.17599700       0.84275300 </v>
    <v>       0.00577100       0.66614600       0.00488200 </v>
    <v>       0.51332800       0.33545000       0.33981500 </v>
    <v>       0.77733200       0.52526700       0.51417600 </v>
    <v>       0.48637000       0.66311300       0.67630800 </v>
    <v>       0.75820400       0.83440000       0.51008400 </v>
    <v>       0.98152100       0.33000600       0.67905900 </v>
    <v>       0.75399700       0.16900000       0.15552800 </v>
    <v>       0.24125700       0.17682100       0.16439300 </v>
    <v>       0.02893900       0.99851600       0.67018600 </v>
    <v>       0.97504100       0.34783400       0.32569800 </v>
    <v>       0.22855800       0.50614700       0.50816100 </v>
    <v>       0.99665500       0.66481000       0.31422300 </v>
    <v>       0.48010900       0.97592000       0.01435200 </v>
    <v>       0.50748900       0.99954400       0.33554600 </v>
    <v>       0.51858000       0.33463200       0.65802200 </v>
    <v>       0.74165900       0.83633800       0.82789600 </v>
    <v>       0.02436900       0.67465400       0.68525900 </v>
    <v>       0.26496800       0.82758100       0.82615000 </v>
    <v>       0.50237300       0.34798300       0.99492600 </v>
    <v>       0.74818000       0.50551500       0.84145900 </v>
    <v>       0.74994500       0.83784400       0.16465000 </v>
    <v>       0.99792600       0.34874000       0.99328000 </v>
    <v>       0.98498400       0.99075500       0.32924400 </v>
    <v>       0.26435900       0.48700700       0.15047400 </v>
    <v>       0.25471300       0.49520700       0.84120200 </v>
    <v>       0.24469800       0.83536000       0.19227700 </v>
    <v>       0.24133000       0.82803500       0.49139600 </v>
    <v>       0.47926200       0.99874200       0.65228300 </v>
    <v>       0.73161100       0.49160000       0.14496300 </v>
    <v>       0.77105900       0.14938200       0.49912800 </v>
    <v>       0.49727600       0.66545600       0.00131300 </v>
   </varray>
  </structure>
  <varray name="forces" >
   <v>      -0.02290452      -0.03582470       0.04059019 </v>
   <v>       0.01814873       0.01666186      -0.02882947 </v>
   <v>       0.04627431       0.01521947      -0.02265247 </v>
   <v>      -0.01574029      -0.00178602       0.00847434 </v>
   <v>      -0.00564742       0.00865998      -0.00057758 </v>
   <v>       0.02312933      -0.01929398      -0.01419949 </v>
   <v>      -0.00754238      -0.01350210      -0.00552192 </v>
   <v>      -0.00311746      -0.02209486       0.01439455 </v>
   <v>       0.00314336       0.00448132       0.00167011 </v>
   <v>      -0.00815137       0.00792262      -0.06928142 </v>
   <v>       0.00231037       0.00766633      -0.00275045 </v>
   <v>       0.00339374      -0.11720567       0.00321481 </v>
   <v>      -0.00120558       0.02711517      -0.00693118 </v>
   <v>       0.00318182      -0.00630691      -0.00529000 </v>
   <v>       0.00337145       0.00310284      -0.00432333 </v>
   <v>      -0.00146681       0.00831046       0.01073804 </v>
   <v>       0.01688021      -0.03943719       0.01594979 </v>
   <v>      -0.05488116       0.02264365      -0.01487838 </v>
   <v>      -0.00843676       0.01875771      -0.00321122 </v>
   <v>      -0.00137535      -0.00101532       0.00395626 </v>
   <v>       0.00485082       0.01263035       0.11224399 </v>
   <v>      -0.00655350       0.01009676       0.00057650 </v>
   <v>      -0.00659360      -0.00789236      -0.01645123 </v>
   <v>      -0.00614332      -0.00832752       0.00281873 </v>
   <v>      -0.00278484      -0.01451035      -0.01111386 </v>
   <v>      -0.00296720       0.05616185      -0.03038533 </v>
   <v>       0.00074541      -0.00276584      -0.00139792 </v>
   <v>      -0.00354174       0.00536042       0.00149904 </v>
   <v>       0.00283995      -0.00630672      -0.01066694 </v>
   <v>       0.00603328      -0.01260353      -0.01247293 </v>
   <v>      -0.02532299      -0.00920270      -0.02165692 </v>
   <v>       0.00838097      -0.00907825       0.02639570 </v>
   <v>       0.01365173      -0.00486241      -0.00729602 </v>
   <v>      -0.00090794       0.06376844       0.00883824 </v>
   <v>       0.00302525       0.01776431       0.02392181 </v>
   <v>       0.02592350       0.02569288       0.01460599 </v>
  </varray>
  <varray name="stress" >
   <v>       0.89257549      -0.33102405      -0.22629494 </v>
   <v>      -0.33102408       0.51959017      -0.20913929 </v>
   <v>      -0.22629493      -0.20913928       0.75411128 </v>
  </varray>
  <energy>
   <i name="e_fr_energy">   -361.91479679 </i>
   <i name="e_wo_entrp">   -361.92089941 </i>
   <i name="e_0_energy">      0.01830786 </i>
  </energy>
  <time name="totalsc">   20.42   22.09</time>
 </calculation>
 <calculation>
  <scstep>
   <time name="dav">    1.00    1.01</time>
   <time name="total">    1.18    1.34</time>
   <energy>
    <i name="alphaZ">   1352.76364507 </i>
    <i name="ewald"> -16525.83323525 </i>
    <i name="hartreedc">  -5586.52352736 </i>
    <i name="XCdc">   -586.90691806 </i>
    <i name="pawpsdc">  31312.79757736 </i>
    <i name="pawaedc"> -29577.60133990 </i>
    <i name="eentropy">      0.01831623 </i>
    <i name="bandstr">  -2084.72753542 </i>
    <i name="atom">  21334.09699975 </i>
    <i name="e_fr_energy">   -361.91601757 </i>
    <i name="e_wo_entrp">   -361.93433380 </i>
    <i name="e_0_energy">   -361.92212298 </i>
   </energy>
  </scstep>
  <scstep>
   <time name="diag">    0.07    0.08</time>
   <time name="diis">    0.79    0.81</time>
   <time name="orth">    0.01    0.01</time>
   <time name="total">    1.10    1.20</time>
   <energy>
    <i name="e_fr_energy">   -361.91594245 </i>
    <i name="e_wo_entrp">   -361.93437383 </i>
    <i name="e_0_energy">   -361.92208625 </i>
   </energy>
  </scstep>
  <scstep>
   <time name="diag">    0.15    0.16</time>
   <time name="diis">    0.64    0.75</time>
   <time name="orth">    0.01    0.01</time>
   <time name="total">    0.86    1.02</time>
   <energy>
    <i name="e_fr_energy">   -361.91588368 </i>
    <i name="e_wo_entrp">   -361.93425341 </i>
    <i name="e_0_energy">   -361.92200692 </i>
   </energy>
  </scstep>
  <scstep>
   <time name="diag">    0.12    0.12</time>
   <time name="diis">    0.69    0.71</time>
   <time name="orth">    0.01    0.01</time>
   <time name="total">    0.89    0.95</time>
   <energy>
    <i name="e_fr_energy">   -361.91583031 </i>
    <i name="e_wo_entrp">   -361.93420195 </i>
    <i name="e_0_energy">   -361.92195419 </i>
   </energy>
  </scstep>
  <scstep>
   <time name="diag">    0.07    0.08</time>
   <time name="diis">    0.42    0.44</time>
   <time name="orth">    0.01    0.01</time>
   <time name="total">    0.53    0.59</time>
   <energy>
    <i name="alphaZ">   1352.76364507 </i>
    <i name="ewald"> -16525.83323525 </i>
    <i name="hartreedc">  -5587.93568006 </i>
    <i name="XCdc">   -586.84782539 </i>
    <i name="pawpsdc">  31291.71687243 </i>
    <i name="pawaedc"> -29556.46652681 </i>
    <i name="eentropy">      0.01839015 </i>
    <i name="bandstr">  -2083.42846188 </i>
    <i name="atom">  21334.09699975 </i>
    <i name="e_fr_energy">   -361.91582199 </i>
    <i name="e_wo_entrp">   -361.93421214 </i>
    <i name="e_0_energy">   -361.92195204 </i>
   </energy>
  </scstep>
  <structure>
   <crystal>
    <varray name="basis" >
     <v>       6.95908092       0.01138073       0.00621796 </v>
     <v>       0.01684804      10.32083494      -0.00387865 </v>
     <v>       0.00871765      -0.00421685      10.30273571 </v>
    </varray>
    <i name="volume">    739.97615161 </i>
    <varray name="rec_basis" >
     <v>       0.14369763      -0.00023462      -0.00012169 </v>
     <v>      -0.00015849       0.09689166       0.00003979 </v>
     <v>      -0.00008678       0.00003662       0.09706169 </v>
    </varray>
   </crystal>
   <varray name="positions" >
    <v>       0.50058941       0.66358883       0.32305804 </v>
    <v>       0.73576074       0.15654831       0.83846148 </v>
    <v>       0.01833524       0.98678622       0.00219212 </v>
    <v>       0.22232425       0.16927554       0.48720293 </v>
    <v>       0.27117122       0.17600916       0.84275220 </v>
    <v>       0.00581920       0.66611888       0.00486201 </v>
    <v>       0.51331237       0.33543108       0.33980725 </v>
    <v>       0.77732557       0.52523603       0.51419622 </v>
    <v>       0.48637652       0.66311928       0.67631034 </v>
    <v>       0.75818714       0.83441109       0.50998668 </v>
    <v>       0.98152578       0.33001674       0.67905514 </v>
    <v>       0.75400447       0.16883562       0.15553246 </v>
    <v>       0.24125441       0.17685903       0.16438328 </v>
    <v>       0.02894565       0.99850714       0.67017856 </v>
    <v>       0.97504801       0.34783834       0.32569192 </v>
    <v>       0.22855490       0.50615866       0.50817609 </v>
    <v>       0.99669022       0.66475466       0.31424537 </v>
    <v>       0.47999479       0.97595188       0.01433118 </v>
    <v>       0.50747139       0.99957032       0.33554151 </v>
    <v>       0.51857714       0.33463058       0.65802756 </v>
    <v>       0.74166884       0.83635576       0.82805370 </v>
    <v>       0.02435533       0.67466818       0.68525982 </v>
    <v>       0.26495434       0.82756994       0.82612689 </v>
    <v>       0.50236025       0.34797134       0.99492996 </v>
    <v>       0.74817428       0.50549465       0.84144338 </v>
    <v>       0.74993869       0.83792275       0.16460734 </v>
    <v>       0.99792756       0.34873612       0.99327803 </v>
    <v>       0.98497661       0.99076253       0.32924611 </v>
    <v>       0.26436495       0.48699814       0.15045901 </v>
    <v>       0.25472562       0.49518930       0.84118446 </v>
    <v>       0.24464540       0.83534714       0.19224660 </v>
    <v>       0.24134742       0.82802226       0.49143307 </v>
    <v>       0.47929043       0.99873514       0.65227273 </v>
    <v>       0.73160887       0.49168944       0.14497545 </v>
    <v>       0.77106519       0.14940692       0.49916161 </v>
    <v>       0.49732980       0.66549198       0.00133350 </v>
   </varray>
  </structure>
  <varray name="forces" >
   <v>      -0.02257828      -0.03160715       0.03606398 </v>
   <v>       0.01689680       0.01577803      -0.02789079 </v>
   <v>       0.04715239       0.01308993      -0.02170223 </v>
   <v>      -0.01450372      -0.00195881       0.00784541 </v>
   <v>      -0.00464869       0.00941287      -0.00168671 </v>
   <v>       0.02129070      -0.01773336      -0.01310592 </v>
   <v>      -0.00612960      -0.01321658      -0.00714804 </v>
   <v>      -0.00241567      -0.01973781       0.01430612 </v>
   <v>       0.00375562       0.00602517       0.00290423 </v>
   <v>      -0.00800102       0.00666251      -0.06205268 </v>
   <v>       0.00168334       0.00729784      -0.00135287 </v>
   <v>       0.00417260      -0.10858915       0.00282771 </v>
   <v>      -0.00225821       0.02792665      -0.00668217 </v>
   <v>       0.00235079      -0.00725376      -0.00548658 </v>
   <v>       0.00129736       0.00286288      -0.00629102 </v>
   <v>      -0.00192781       0.00721136       0.01224053 </v>
   <v>       0.01544168      -0.03400428       0.01155021 </v>
   <v>      -0.05489187       0.02069688      -0.01293363 </v>
   <v>      -0.00943921       0.01696949      -0.00279393 </v>
   <v>      -0.00077294      -0.00121744       0.00465236 </v>
   <v>       0.00463093       0.01261334       0.10292103 </v>
   <v>      -0.00658175       0.01030466       0.00123659 </v>
   <v>      -0.00476251      -0.00767954      -0.01824218 </v>
   <v>      -0.00356492      -0.00505487       0.00402152 </v>
   <v>      -0.00317539      -0.01323376      -0.00792760 </v>
   <v>      -0.00040602       0.05246819      -0.02750654 </v>
   <v>      -0.00048868      -0.00091484      -0.00099379 </v>
   <v>      -0.00356429       0.00332313       0.00197542 </v>
   <v>       0.00472920      -0.00737657      -0.01126332 </v>
   <v>       0.00665505      -0.01142934      -0.01045929 </v>
   <v>      -0.02366711      -0.01110702      -0.01664739 </v>
   <v>       0.00735132      -0.00859428       0.02427200 </v>
   <v>       0.01303470      -0.00512058      -0.00571137 </v>
   <v>      -0.00244140       0.05657784       0.00571455 </v>
   <v>       0.00330800       0.01490030       0.02215425 </v>
   <v>       0.02246860       0.02170808       0.01319212 </v>
  </varray>
  <varray name="stress" >
   <v>       0.43096197      -0.29785925      -0.21397050 </v>
   <v>      -0.29785926       0.06405232      -0.18490664 </v>
   <v>      -0.21397053      -0.18490661       0.29937148 </v>
  </varray>
  <energy>
   <i name="e_fr_energy">   -361.91582199 </i>
   <i name="e_wo_entrp">   -361.92195204 </i>
   <i name="e_0_energy">      0.01839015 </i>
  </energy>
  <time name="totalsc">    6.04    6.82</time>
 </calculation>
 <calculation>
  <scstep>
   <time name="dav">    0.94    0.95</time>
   <time name="total">    1.08    1.25</time>
   <energy>
    <i name="alphaZ">   1351.13364455 </i>
    <i name="ewald"> -16519.33201819 </i>
    <i name="hartreedc">  -5585.56683835 </i>
    <i name="XCdc">   -587.14223035 </i>
    <i name="pawpsdc">  31293.25941979 </i>
    <i name="pawaedc"> -29558.01473107 </i>
    <i name="eentropy">      0.01837627 </i>
    <i name="bandstr">  -2090.37226723 </i>
    <i name="atom">  21334.09699975 </i>
    <i name="e_fr_energy">   -361.91964482 </i>
    <i name="e_wo_entrp">   -361.93802109 </i>
    <i name="e_0_energy">   -361.92577025 </i>
   </energy>
  </scstep>
  <scstep>
   <time name="diag">    0.07    0.07</time>
   <time name="diis">    0.71    0.73</time>
   <time name="orth">    0.01    0.01</time>
   <time name="total">    0.86    0.90</time>
   <energy>
    <i name="e_fr_energy">   -361.91885183 </i>
    <i name="e_wo_entrp">   -361.93756971 </i>
    <i name="e_0_energy">   -361.92509112 </i>
   </energy>
  </scstep>
  <scstep>
   <time name="diag">    0.07    0.07</time>
   <time name="diis">    0.71    0.73</time>
   <time name="orth">    0.01    0.01</time>
   <time name="total">    0.86    0.91</time>
   <energy>
    <i name="e_fr_energy">   -361.91831147 </i>
    <i name="e_wo_entrp">   -361.93685071 </i>
    <i name="e_0_energy">   -361.92449122 </i>
   </energy>
  </scstep>
  <scstep>
   <time name="diag">    0.07    0.07</time>
   <time name="diis">    0.77    0.79</time>
   <time name="orth">    0.01    0.01</time>
   <time name="total">    0.92    0.97</time>
   <energy>
    <i name="e_fr_energy">   -361.91785954 </i>
    <i name="e_wo_entrp">   -361.93639980 </i>
    <i name="e_0_energy">   -361.92403962 </i>
   </energy>
  </scstep>
  <scstep>
   <time name="diag">    0.07    0.07</time>
   <time name="diis">    0.82    0.85</time>
   <time name="orth">    0.01    0.01</time>
   <time name="total">    0.97    1.03</time>
   <energy>
    <i name="e_fr_energy">   -361.91780891 </i>
    <i name="e_wo_entrp">   -361.93640799 </i>
    <i name="e_0_energy">   -361.92400861 </i>
   </energy>
  </scstep>
  <scstep>
   <time name="diag">    0.09    0.10</time>
   <time name="diis">    0.69    0.71</time>
   <time name="orth">    0.01    0.01</time>
   <time name="total">    0.87    0.92</time>
   <energy>
    <i name="e_fr_energy">   -361.91780232 </i>
    <i name="e_wo_entrp">   -361.93637537 </i>
    <i name="e_0_energy">   -361.92399333 </i>
   </energy>
  </scstep>
  <scstep>
   <time name="diag">    0.07    0.07</time>
   <time name="diis">    0.45    0.47</time>
   <time name="orth">    0.01    0.01</time>
   <time name="total">    0.57    0.62</time>
   <energy>
    <i name="alphaZ">   1351.13364455 </i>
    <i name="ewald"> -16519.33201819 </i>
    <i name="hartreedc">  -5589.55885883 </i>
    <i name="XCdc">   -586.97587663 </i>
    <i name="pawpsdc">  31238.14672346 </i>
    <i name="pawaedc"> -29502.89243656 </i>
    <i name="eentropy">      0.01857431 </i>
    <i name="bandstr">  -2086.55454984 </i>
    <i name="atom">  21334.09699975 </i>
    <i name="e_fr_energy">   -361.91779797 </i>
    <i name="e_wo_entrp">   -361.93637228 </i>
    <i name="e_0_energy">   -361.92398941 </i>
   </energy>
  </scstep>
  <structure>
   <crystal>
    <varray name="basis" >
     <v>       6.96253595       0.01010093       0.00534260 </v>
     <v>       0.01495505      10.32381777      -0.00508406 </v>
     <v>       0.00742491      -0.00541922      10.30706045 </v>
    </varray>
    <i name="volume">    740.86885494 </i>
    <varray name="rec_basis" >
     <v>       0.14362621      -0.00020811      -0.00010357 </v>
     <v>      -0.00014056       0.09686362       0.00005103 </v>
     <v>      -0.00007452       0.00004789       0.09702095 </v>
    </varray>
   </crystal>
   <varray name="positions" >
    <v>       0.50044666       0.66343835       0.32322913 </v>
    <v>       0.73587396       0.15661823       0.83833994 </v>
    <v>       0.01862392       0.98684989       0.00209651 </v>
    <v>       0.22222602       0.16926815       0.48723870 </v>
    <v>       0.27113590       0.17604563       0.84274980 </v>
    <v>       0.00596378       0.66603753       0.00480205 </v>
    <v>       0.51326548       0.33537432       0.33978398 </v>
    <v>       0.77730627       0.52514312       0.51425686 </v>
    <v>       0.48639608       0.66313811       0.67631738 </v>
    <v>       0.75813657       0.83444436       0.50969475 </v>
    <v>       0.98154013       0.33004898       0.67904355 </v>
    <v>       0.75402682       0.16834253       0.15554581 </v>
    <v>       0.24124665       0.17697309       0.16435411 </v>
    <v>       0.02896559       0.99848058       0.67015625 </v>
    <v>       0.97506904       0.34785136       0.32567370 </v>
    <v>       0.22854561       0.50619365       0.50822136 </v>
    <v>       0.99679586       0.66458866       0.31431246 </v>
    <v>       0.47965223       0.97604749       0.01426872 </v>
    <v>       0.50741858       0.99964929       0.33552804 </v>
    <v>       0.51856854       0.33462633       0.65804424 </v>
    <v>       0.74169838       0.83640906       0.82852672 </v>
    <v>       0.02431434       0.67471070       0.68526229 </v>
    <v>       0.26491337       0.82753675       0.82605757 </v>
    <v>       0.50232199       0.34793635       0.99494185 </v>
    <v>       0.74815711       0.50543361       0.84139653 </v>
    <v>       0.74991976       0.83815899       0.16447939 </v>
    <v>       0.99793225       0.34872448       0.99327214 </v>
    <v>       0.98495445       0.99078510       0.32925245 </v>
    <v>       0.26438279       0.48697157       0.15041403 </v>
    <v>       0.25476345       0.49513622       0.84113186 </v>
    <v>       0.24448761       0.83530857       0.19215541 </v>
    <v>       0.24139966       0.82798406       0.49154426 </v>
    <v>       0.47937569       0.99871458       0.65224192 </v>
    <v>       0.73160251       0.49195773       0.14501280 </v>
    <v>       0.77108375       0.14948167       0.49926244 </v>
    <v>       0.49749121       0.66559991       0.00139500 </v>
   </varray>
  </structure>
  <varray name="forces" >
   <v>      -0.02272434      -0.01707113       0.02157852 </v>
   <v>       0.01282732       0.01345994      -0.02417135 </v>
   <v>       0.04940591       0.00734689      -0.01855583 </v>
   <v>      -0.01177248      -0.00290399       0.00516459 </v>
   <v>      -0.00123245       0.01191904      -0.00490189 </v>
   <v>       0.01600654      -0.01365931      -0.00905726 </v>
   <v>      -0.00216193      -0.01303846      -0.01333298 </v>
   <v>       0.00129104      -0.01253803       0.01325996 </v>
   <v>       0.00554556       0.01266972       0.00780060 </v>
   <v>      -0.00654372       0.00374015      -0.04197982 </v>
   <v>       0.00057593       0.00751635       0.00239592 </v>
   <v>       0.00524978      -0.08538847       0.00323563 </v>
   <v>      -0.00434022       0.03034240      -0.00530571 </v>
   <v>       0.00039858      -0.01097863      -0.00660151 </v>
   <v>      -0.00473735       0.00277676      -0.01287650 </v>
   <v>      -0.00400085       0.00389890       0.01574541 </v>
   <v>       0.01194965      -0.01877417       0.00036613 </v>
   <v>      -0.05717422       0.01539969      -0.00776345 </v>
   <v>      -0.01386245       0.01262546      -0.00242757 </v>
   <v>      -0.00021934      -0.00188306       0.00686884 </v>
   <v>       0.00420918       0.01261385       0.07807684 </v>
   <v>      -0.00669394       0.01107386       0.00198847 </v>
   <v>       0.00264952      -0.01042873      -0.02399405 </v>
   <v>       0.00592591       0.00396026       0.00741792 </v>
   <v>      -0.00432320      -0.01108571       0.00257940 </v>
   <v>       0.00682496       0.04410279      -0.01911708 </v>
   <v>      -0.00489810       0.00461282       0.00049114 </v>
   <v>      -0.00288548      -0.00275668       0.00328750 </v>
   <v>       0.01098055      -0.01123450      -0.01301771 </v>
   <v>       0.00864873      -0.00960724      -0.00525705 </v>
   <v>      -0.01866917      -0.01698077      -0.00258424 </v>
   <v>       0.00403716      -0.00748280       0.01790885 </v>
   <v>       0.00973130      -0.00645472      -0.00142439 </v>
   <v>      -0.00778723       0.03702463      -0.00203717 </v>
   <v>       0.00469997       0.00638590       0.01675798 </v>
   <v>       0.01306884       0.01079700       0.00948188 </v>
  </varray>
  <varray name="stress" >
   <v>      -1.12044860      -0.13739441      -0.12603500 </v>
   <v>      -0.13739443      -1.43484066      -0.07118523 </v>
   <v>      -0.12603499      -0.07118521      -1.29259528 </v>
  </varray>
  <energy>
   <i name="e_fr_energy">   -361.91779797 </i>
   <i name="e_wo_entrp">   -361.92398941 </i>
   <i name="e_0_energy">      0.01857431 </i>
  </energy>
  <time name="totalsc">    7.55    8.19</time>
 </calculation>
 <calculation>
  <scstep>
   <time name="dav">    0.90    0.92</time>
   <time name="total">    1.03    1.20</time>
   <energy>
    <i name="alphaZ">   1347.88209148 </i>
    <i name="ewald"> -16506.30945818 </i>
    <i name="hartreedc">  -5584.84800679 </i>
    <i name="XCdc">   -587.56374917 </i>
    <i name="pawpsdc">  31238.89559556 </i>
    <i name="pawaedc"> -29503.67201443 </i>
    <i name="eentropy">      0.01853048 </i>
    <i name="bandstr">  -2100.42448115 </i>
    <i name="atom">  21334.09699975 </i>
    <i name="e_fr_energy">   -361.92449245 </i>
    <i name="e_wo_entrp">   -361.94302293 </i>
    <i name="e_0_energy">   -361.93066928 </i>
   </energy>
  </scstep>
  <scstep>
   <time name="diag">    0.07    0.07</time>
   <time name="diis">    0.74    0.76</time>
   <time name="orth">    0.01    0.01</time>
   <time name="total">    0.89    0.94</time>
   <energy>
    <i name="e_fr_energy">   -361.92124683 </i>
    <i name="e_wo_entrp">   -361.94043008 </i>
    <i name="e_0_energy">   -361.92764125 </i>
   </energy>
  </scstep>
  <scstep>
   <time name="diag">    0.07    0.07</time>
   <time name="diis">    0.72    0.73</time>
   <time name="orth">    0.01    0.01</time>
   <time name="total">    0.87    0.91</time>
   <energy>
    <i name="e_fr_energy">   -361.91911172 </i>
    <i name="e_wo_entrp">   -361.93797789 </i>
    <i name="e_0_energy">   -361.92540044 </i>
   </energy>
  </scstep>
  <scstep>
   <time name="diag">    0.07    0.07</time>
   <time name="diis">    0.73    0.74</time>
   <time name="orth">    0.01    0.01</time>
   <time name="total">    0.87    0.92</time>
   <energy>
    <i name="e_fr_energy">   -361.91731613 </i>
    <i name="e_wo_entrp">   -361.93617606 </i>
    <i name="e_0_energy">   -361.92360277 </i>
   </energy>
  </scstep>
  <scstep>
   <time name="diag">    0.07    0.07</time>
   <time name="diis">    0.71    0.74</time>
   <time name="orth">    0.01    0.01</time>
   <time name="total">    0.86    0.92</time>
   <energy>
    <i name="e_fr_energy">   -361.91712398 </i>
    <i name="e_wo_entrp">   -361.93610361 </i>
    <i name="e_0_energy">   -361.92345052 </i>
   </energy>
  </scstep>
  <scstep>
   <time name="diag">    0.08    0.08</time>
   <time name="diis">    0.73    0.73</time>
   <time name="orth">    0.01    0.01</time>
   <time name="total">    0.90    0.96</time>
   <energy>
    <i name="e_fr_energy">   -361.91712177 </i>
    <i name="e_wo_entrp">   -361.93605069 </i>
    <i name="e_0_energy">   -361.92343141 </i>
   </energy>
  </scstep>
  <scstep>
   <time name="diag">    0.07    0.07</time>
   <time name="diis">    0.68    0.70</time>
   <time name="orth">    0.01    0.01</time>
   <time name="total">    0.82    0.88</time>
   <energy>
    <i name="e_fr_energy">   -361.91712790 </i>
    <i name="e_wo_entrp">   -361.93605926 </i>
    <i name="e_0_energy">   -361.92343835 </i>
   </energy>
  </scstep>
  <scstep>
   <time name="diag">    0.12    0.13</time>
   <time name="diis">    0.59    0.60</time>
   <time name="orth">    0.01    0.01</time>
   <time name="total">    0.83    0.89</time>
   <energy>
    <i name="e_fr_energy">   -361.91713436 </i>
    <i name="e_wo_entrp">   -361.93607962 </i>
    <i name="e_0_energy">   -361.92344945 </i>
   </energy>
  </scstep>
  <scstep>
   <time name="diag">    0.08    0.09</time>
   <time name="diis">    0.45    0.46</time>
   <time name="orth">    0.01    0.01</time>
   <time name="total">    0.58    0.63</time>
   <energy>
    <i name="alphaZ">   1347.88209148 </i>
    <i name="ewald"> -16506.30945818 </i>
    <i name="hartreedc">  -5592.80770311 </i>
    <i name="XCdc">   -587.23197188 </i>
    <i name="pawpsdc">  31127.34815565 </i>
    <i name="pawaedc"> -29392.23928935 </i>
    <i name="eentropy">      0.01893208 </i>
    <i name="bandstr">  -2092.67489195 </i>
    <i name="atom">  21334.09699975 </i>
    <i name="e_fr_energy">   -361.91713550 </i>
    <i name="e_wo_entrp">   -361.93606758 </i>
    <i name="e_0_energy">   -361.92344619 </i>
   </energy>
  </scstep>
  <structure>
   <crystal>
    <varray name="basis" >
     <v>       6.96944602       0.00754133       0.00359189 </v>
     <v>       0.01116908      10.32978342      -0.00749488 </v>
     <v>       0.00483944      -0.00782398      10.31570993 </v>
    </varray>
    <i name="volume">    742.65608427 </i>
    <varray name="rec_basis" >
     <v>       0.14348363      -0.00015519      -0.00006743 </v>
     <v>      -0.00010479       0.09680762       0.00007347 </v>
     <v>      -0.00005004       0.00007039       0.09693960 </v>
    </varray>
   </crystal>
   <varray name="positions" >
    <v>       0.50016127       0.66313748       0.32357110 </v>
    <v>       0.73610027       0.15675803       0.83809701 </v>
    <v>       0.01920098       0.98697724       0.00190542 </v>
    <v>       0.22202966       0.16925335       0.48731019 </v>
    <v>       0.27106532       0.17611854       0.84274501 </v>
    <v>       0.00625273       0.66587489       0.00468219 </v>
    <v>       0.51317170       0.33526082       0.33973745 </v>
    <v>       0.77726765       0.52495738       0.51437806 </v>
    <v>       0.48643518       0.66317577       0.67633145 </v>
    <v>       0.75803539       0.83451079       0.50911114 </v>
    <v>       0.98156884       0.33011342       0.67902039 </v>
    <v>       0.75407123       0.16735665       0.15557238 </v>
    <v>       0.24123118       0.17720115       0.16429584 </v>
    <v>       0.02900544       0.99842747       0.67011163 </v>
    <v>       0.97511107       0.34787740       0.32563726 </v>
    <v>       0.22852707       0.50626362       0.50831188 </v>
    <v>       0.99700696       0.66425681       0.31444656 </v>
    <v>       0.47896747       0.97623856       0.01414382 </v>
    <v>       0.50731305       0.99980715       0.33550112 </v>
    <v>       0.51855137       0.33461782       0.65807757 </v>
    <v>       0.74175764       0.83651573       0.82947240 </v>
    <v>       0.02423241       0.67479571       0.68526724 </v>
    <v>       0.26483143       0.82747038       0.82591898 </v>
    <v>       0.50224549       0.34786639       0.99496561 </v>
    <v>       0.74812274       0.50531154       0.84130286 </v>
    <v>       0.74988201       0.83863129       0.16422365 </v>
    <v>       0.99794161       0.34870120       0.99326034 </v>
    <v>       0.98491017       0.99083024       0.32926513 </v>
    <v>       0.26441842       0.48691844       0.15032412 </v>
    <v>       0.25483904       0.49503008       0.84102668 </v>
    <v>       0.24417215       0.83523137       0.19197308 </v>
    <v>       0.24150411       0.82790771       0.49176655 </v>
    <v>       0.47954611       0.99867348       0.65218035 </v>
    <v>       0.73158995       0.49249415       0.14508753 </v>
    <v>       0.77112095       0.14963116       0.49946404 </v>
    <v>       0.49781393       0.66581577       0.00151799 </v>
   </varray>
  </structure>
  <varray name="forces" >
   <v>      -0.02175162       0.01144536      -0.00878246 </v>
   <v>       0.00504630       0.00890242      -0.01896773 </v>
   <v>       0.05208572      -0.00442007      -0.01095588 </v>
   <v>      -0.00739200      -0.00621633       0.00037529 </v>
   <v>       0.00542460       0.01752944      -0.01125258 </v>
   <v>       0.00553083      -0.00548722       0.00041083 </v>
   <v>       0.00588277      -0.01218044      -0.02583826 </v>
   <v>       0.00796571       0.00134944       0.01126273 </v>
   <v>       0.00903732       0.02506668       0.01718602 </v>
   <v>      -0.00433799      -0.00018377      -0.00394515 </v>
   <v>      -0.00155247       0.00822817       0.01004044 </v>
   <v>       0.00893997      -0.04126298       0.00347057 </v>
   <v>      -0.01145080       0.03398510      -0.00380768 </v>
   <v>      -0.00340418      -0.01944497      -0.00822141 </v>
   <v>      -0.01588185       0.00178711      -0.02704931 </v>
   <v>      -0.00835509      -0.00145514       0.02296296 </v>
   <v>       0.00521948       0.01171139      -0.02276727 </v>
   <v>      -0.06015484       0.00438801       0.00347733 </v>
   <v>      -0.02265627       0.00252506      -0.00269021 </v>
   <v>       0.00027295      -0.00304205       0.01154502 </v>
   <v>       0.00345100       0.01208962       0.03251075 </v>
   <v>      -0.00493317       0.01177498       0.00466246 </v>
   <v>       0.01655302      -0.01407192      -0.03303295 </v>
   <v>       0.02326873       0.02456868       0.01461416 </v>
   <v>      -0.00608969      -0.00543628       0.02519615 </v>
   <v>       0.02169899       0.02812384      -0.00349579 </v>
   <v>      -0.01187974       0.01440576       0.00449524 </v>
   <v>      -0.00078195      -0.01563849       0.00417627 </v>
   <v>       0.02139689      -0.01866263      -0.01744384 </v>
   <v>       0.01159980      -0.00446005       0.00596977 </v>
   <v>      -0.00909662      -0.02756684       0.02276207 </v>
   <v>      -0.00197275      -0.00578663       0.00624089 </v>
   <v>       0.00318075      -0.01004549       0.00652990 </v>
   <v>      -0.01734682       0.00001967      -0.01829239 </v>
   <v>       0.00838651      -0.01165052       0.00596492 </v>
   <v>      -0.00590350      -0.01088889       0.00268915 </v>
  </varray>
  <varray name="stress" >
   <v>      -4.48431903       0.21392880       0.06109309 </v>
   <v>       0.21392884      -4.63853397       0.16413039 </v>
   <v>       0.06109312       0.16413042      -4.65421896 </v>
  </varray>
  <energy>
   <i name="e_fr_energy">   -361.91713550 </i>
   <i name="e_wo_entrp">   -361.92344619 </i>
   <i name="e_0_energy">      0.01893208 </i>
  </energy>
  <time name="totalsc">    9.15    9.91</time>
 </calculation>
 <calculation>
  <scstep>
   <time name="dav">    0.87    0.89</time>
   <time name="total">    1.01    1.17</time>
   <energy>
    <i name="alphaZ">   1349.75263110 </i>
    <i name="ewald"> -16513.80969448 </i>
    <i name="hartreedc">  -5595.42680357 </i>
    <i name="XCdc">   -586.89730493 </i>
    <i name="pawpsdc">  31126.14436683 </i>
    <i name="pawaedc"> -29391.14422863 </i>
    <i name="eentropy">      0.01896204 </i>
    <i name="bandstr">  -2084.65570081 </i>
    <i name="atom">  21334.09699975 </i>
    <i name="e_fr_energy">   -361.92077269 </i>
    <i name="e_wo_entrp">   -361.93973473 </i>
    <i name="e_0_energy">   -361.92709337 </i>
   </energy>
  </scstep>
  <scstep>
   <time name="diag">    0.07    0.07</time>
   <time name="diis">    0.69    0.72</time>
   <time name="orth">    0.01    0.01</time>
   <time name="total">    0.84    0.90</time>
   <energy>
    <i name="e_fr_energy">   -361.91961582 </i>
    <i name="e_wo_entrp">   -361.93818678 </i>
    <i name="e_0_energy">   -361.92580614 </i>
   </energy>
  </scstep>
  <scstep>
   <time name="diag">    0.07    0.07</time>
   <time name="diis">    0.71    0.74</time>
   <time name="orth">    0.01    0.01</time>
   <time name="total">    0.86    0.92</time>
   <energy>
    <i name="e_fr_energy">   -361.91889953 </i>
    <i name="e_wo_entrp">   -361.93767071 </i>
    <i name="e_0_energy">   -361.92515659 </i>
   </energy>
  </scstep>
  <scstep>
   <time name="diag">    0.07    0.07</time>
   <time name="diis">    0.73    0.74</time>
   <time name="orth">    0.01    0.01</time>
   <time name="total">    0.87    0.92</time>
   <energy>
    <i name="e_fr_energy">   -361.91827406 </i>
    <i name="e_wo_entrp">   -361.93705066 </i>
    <i name="e_0_energy">   -361.92453293 </i>
   </energy>
  </scstep>
  <scstep>
   <time name="diag">    0.07    0.08</time>
   <time name="diis">    0.70    0.79</time>
   <time name="orth">    0.01    0.01</time>
   <time name="total">    0.85    0.98</time>
   <energy>
    <i name="e_fr_energy">   -361.91821060 </i>
    <i name="e_wo_entrp">   -361.93692028 </i>
    <i name="e_0_energy">   -361.92444716 </i>
   </energy>
  </scstep>
  <scstep>
   <time name="diag">    0.10    0.11</time>
   <time name="diis">    0.68    0.73</time>
   <time name="orth">    0.01    0.01</time>
   <time name="total">    0.86    0.95</time>
   <energy>
    <i name="e_fr_energy">   -361.91822179 </i>
    <i name="e_wo_entrp">   -361.93696000 </i>
    <i name="e_0_energy">   -361.92446786 </i>
   </energy>
  </scstep>
  <scstep>
   <time name="diag">    0.08    0.08</time>
   <time name="diis">    0.61    0.62</time>
   <time name="orth">    0.01    0.01</time>
   <time name="total">    0.78    0.82</time>
   <energy>
    <i name="e_fr_energy">   -361.91823679 </i>
    <i name="e_wo_entrp">   -361.93697515 </i>
    <i name="e_0_energy">   -361.92448291 </i>
   </energy>
  </scstep>
  <scstep>
   <time name="diag">    0.07    0.07</time>
   <time name="diis">    0.47    0.49</time>
   <time name="orth">    0.01    0.01</time>
   <time name="total">    0.60    0.66</time>
   <energy>
    <i name="alphaZ">   1349.75263110 </i>
    <i name="ewald"> -16513.80969448 </i>
    <i name="hartreedc">  -5590.64856315 </i>
    <i name="XCdc">   -587.09649994 </i>
    <i name="pawpsdc">  31188.06367879 </i>
    <i name="pawaedc"> -29453.19494372 </i>
    <i name="eentropy">      0.01872988 </i>
    <i name="bandstr">  -2089.10058184 </i>
    <i name="atom">  21334.09699975 </i>
    <i name="e_fr_energy">   -361.91824361 </i>
    <i name="e_wo_entrp">   -361.93697349 </i>
    <i name="e_0_energy">   -361.92448690 </i>
   </energy>
  </scstep>
  <structure>
   <crystal>
    <varray name="basis" >
     <v>       6.96546790       0.00901489       0.00459977 </v>
     <v>       0.01334866      10.32634900      -0.00610697 </v>
     <v>       0.00632789      -0.00643956      10.31073044 </v>
    </varray>
    <i name="volume">    741.62688262 </i>
    <varray name="rec_basis" >
     <v>       0.14356567      -0.00018564      -0.00008822 </v>
     <v>      -0.00012537       0.09683985       0.00006056 </v>
     <v>      -0.00006412       0.00005744       0.09698641 </v>
    </varray>
   </crystal>
   <varray name="positions" >
    <v>       0.50032542       0.66331059       0.32337446 </v>
    <v>       0.73597012       0.15667759       0.83823671 </v>
    <v>       0.01886910       0.98690391       0.00201526 </v>
    <v>       0.22214258       0.16926188       0.48726908 </v>
    <v>       0.27110589       0.17607660       0.84274776 </v>
    <v>       0.00608662       0.66596844       0.00475113 </v>
    <v>       0.51322568       0.33532614       0.33976424 </v>
    <v>       0.77728989       0.52506424       0.51430837 </v>
    <v>       0.48641268       0.66315410       0.67632335 </v>
    <v>       0.75809369       0.83447266       0.50944684 </v>
    <v>       0.98155231       0.33007634       0.67903370 </v>
    <v>       0.75404599       0.16792388       0.15555722 </v>
    <v>       0.24124002       0.17706994       0.16432933 </v>
    <v>       0.02898255       0.99845803       0.67013730 </v>
    <v>       0.97508689       0.34786242       0.32565821 </v>
    <v>       0.22853769       0.50622335       0.50825980 </v>
    <v>       0.99688562       0.66444770       0.31436945 </v>
    <v>       0.47936126       0.97612874       0.01421571 </v>
    <v>       0.50737370       0.99971634       0.33551659 </v>
    <v>       0.51856124       0.33462271       0.65805840 </v>
    <v>       0.74172332       0.83645422       0.82892841 </v>
    <v>       0.02427950       0.67474681       0.68526439 </v>
    <v>       0.26487861       0.82750860       0.82599872 </v>
    <v>       0.50228950       0.34790665       0.99495196 </v>
    <v>       0.74814257       0.50538179       0.84135676 </v>
    <v>       0.74990363       0.83835958       0.16437069 </v>
    <v>       0.99793624       0.34871459       0.99326713 </v>
    <v>       0.98493562       0.99080428       0.32925783 </v>
    <v>       0.26439796       0.48694902       0.15037584 </v>
    <v>       0.25479562       0.49509115       0.84108719 </v>
    <v>       0.24435364       0.83527586       0.19207800 </v>
    <v>       0.24144402       0.82795160       0.49163869 </v>
    <v>       0.47944812       0.99869711       0.65221575 </v>
    <v>       0.73159699       0.49218550       0.14504447 </v>
    <v>       0.77109947       0.14954512       0.49934805 </v>
    <v>       0.49762823       0.66569151       0.00144718 </v>
   </varray>
  </structure>
  <varray name="forces" >
   <v>      -0.02248530      -0.00485748       0.00854710 </v>
   <v>       0.00980792       0.01130377      -0.02154551 </v>
   <v>       0.05074216       0.00287760      -0.01498884 </v>
   <v>      -0.00994886      -0.00480426       0.00276225 </v>
   <v>       0.00148452       0.01398912      -0.00778069 </v>
   <v>       0.01219659      -0.01033325      -0.00471789 </v>
   <v>       0.00148156      -0.01287217      -0.01943066 </v>
   <v>       0.00353110      -0.00627198       0.01207570 </v>
   <v>       0.00773860       0.01863836       0.01195021 </v>
   <v>      -0.00582047       0.00200409      -0.02605563 </v>
   <v>      -0.00006846       0.00796985       0.00538500 </v>
   <v>       0.00725639      -0.06878151       0.00359199 </v>
   <v>      -0.00755635       0.03194674      -0.00485878 </v>
   <v>      -0.00117826      -0.01493158      -0.00753086 </v>
   <v>      -0.00933955       0.00228451      -0.01937389 </v>
   <v>      -0.00610472       0.00163092       0.01854909 </v>
   <v>       0.00942712      -0.00636699      -0.00914193 </v>
   <v>      -0.05895635       0.01109198      -0.00278107 </v>
   <v>      -0.01833353       0.00848210      -0.00287429 </v>
   <v>      -0.00059756      -0.00242802       0.00889229 </v>
   <v>       0.00384480       0.01202546       0.06116328 </v>
   <v>      -0.00696165       0.01175117       0.00287256 </v>
   <v>       0.00836775      -0.01309321      -0.02704710 </v>
   <v>       0.01406496       0.01331002       0.01104242 </v>
   <v>      -0.00515782      -0.00838023       0.01275107 </v>
   <v>       0.01308675       0.03872531      -0.01350491 </v>
   <v>      -0.00774075       0.00844108       0.00270110 </v>
   <v>      -0.00202377      -0.00832596       0.00302587 </v>
   <v>       0.01497811      -0.01442562      -0.01577909 </v>
   <v>       0.00943770      -0.00761334      -0.00063296 </v>
   <v>      -0.01516553      -0.02153561       0.00722433 </v>
   <v>       0.00190636      -0.00698789       0.01327030 </v>
   <v>       0.00714401      -0.00873438       0.00130216 </v>
   <v>      -0.01142697       0.02314057      -0.00863830 </v>
   <v>       0.00638200      -0.00091666       0.01222674 </v>
   <v>       0.00598753       0.00204747       0.00734896 </v>
  </varray>
  <varray name="stress" >
   <v>      -2.88008057       0.04700151      -0.02282549 </v>
   <v>       0.04700147      -3.09501866       0.05045864 </v>
   <v>      -0.02282552       0.05045864      -3.03671117 </v>
  </varray>
  <energy>
   <i name="e_fr_energy">   -361.91824361 </i>
   <i name="e_wo_entrp">   -361.92448690 </i>
   <i name="e_0_energy">      0.01872988 </i>
  </energy>
  <time name="totalsc">    8.26    9.10</time>
 </calculation>
 <calculation>
  <scstep>
   <time name="dav">    0.87    0.93</time>
   <time name="total">    0.98    1.19</time>
   <energy>
    <i name="alphaZ">   1349.96290130 </i>
    <i name="ewald"> -16514.65620654 </i>
    <i name="hartreedc">  -5590.96400106 </i>
    <i name="XCdc">   -587.05813892 </i>
    <i name="pawpsdc">  31187.83585663 </i>
    <i name="pawaedc"> -29452.93864058 </i>
    <i name="eentropy">      0.01872493 </i>
    <i name="bandstr">  -2088.21634460 </i>
    <i name="atom">  21334.09699975 </i>
    <i name="e_fr_energy">   -361.91884909 </i>
    <i name="e_wo_entrp">   -361.93757402 </i>
    <i name="e_0_energy">   -361.92509073 </i>
   </energy>
  </scstep>
  <scstep>
   <time name="diag">    0.07    0.07</time>
   <time name="diis">    0.66    0.69</time>
   <time name="orth">    0.01    0.01</time>
   <time name="total">    0.81    0.87</time>
   <energy>
    <i name="e_fr_energy">   -361.91885909 </i>
    <i name="e_wo_entrp">   -361.93758433 </i>
    <i name="e_0_energy">   -361.92510084 </i>
   </energy>
  </scstep>
  <scstep>
   <time name="diag">    0.07    0.07</time>
   <time name="diis">    0.55    0.58</time>
   <time name="orth">    0.01    0.01</time>
   <time name="total">    0.67    0.72</time>
   <energy>
    <i name="alphaZ">   1349.96290130 </i>
    <i name="ewald"> -16514.65620654 </i>
    <i name="hartreedc">  -5590.55933693 </i>
    <i name="XCdc">   -587.07564022 </i>
    <i name="pawpsdc">  31194.88386418 </i>
    <i name="pawaedc"> -29459.95280642 </i>
    <i name="eentropy">      0.01871962 </i>
    <i name="bandstr">  -2088.63734639 </i>
    <i name="atom">  21334.09699975 </i>
    <i name="e_fr_energy">   -361.91885166 </i>
    <i name="e_wo_entrp">   -361.93757127 </i>
    <i name="e_0_energy">   -361.92509153 </i>
   </energy>
  </scstep>
  <structure>
   <crystal>
    <varray name="basis" >
     <v>       6.96527911       0.00876684       0.00441327 </v>
     <v>       0.01298193      10.32553311      -0.00632904 </v>
     <v>       0.00605250      -0.00666096      10.31021748 </v>
    </varray>
    <i name="volume">    741.51136683 </i>
    <varray name="rec_basis" >
     <v>       0.14356955      -0.00018056      -0.00008440 </v>
     <v>      -0.00012194       0.09684749       0.00006264 </v>
     <v>      -0.00006153       0.00005953       0.09699124 </v>
    </varray>
   </crystal>
   <varray name="positions" >
    <v>       0.50028514       0.66327829       0.32341219 </v>
    <v>       0.73599807       0.15669563       0.83820470 </v>
    <v>       0.01895318       0.98691784       0.00199074 </v>
    <v>       0.22211762       0.16925877       0.48727730 </v>
    <v>       0.27109943       0.17608872       0.84274466 </v>
    <v>       0.00612215       0.66594839       0.00473732 </v>
    <v>       0.51321687       0.33531024       0.33975296 </v>
    <v>       0.77728771       0.52504320       0.51432478 </v>
    <v>       0.48642050       0.66316419       0.67632880 </v>
    <v>       0.75808047       0.83448010       0.50937859 </v>
    <v>       0.98155520       0.33008559       0.67903315 </v>
    <v>       0.75405415       0.16780028       0.15556111 </v>
    <v>       0.24123467       0.17710392       0.16432177 </v>
    <v>       0.02898603       0.99844760       0.67013021 </v>
    <v>       0.97508653       0.34786584       0.32564799 </v>
    <v>       0.22853276       0.50623104       0.50827527 </v>
    <v>       0.99691183       0.66441173       0.31438004 </v>
    <v>       0.47926212       0.97615196       0.01420205 </v>
    <v>       0.50735381       0.99973529       0.33551289 </v>
    <v>       0.51855920       0.33462103       0.65806479 </v>
    <v>       0.74173127       0.83646915       0.82904538 </v>
    <v>       0.02426768       0.67475942       0.68526586 </v>
    <v>       0.26487443       0.82749742       0.82597549 </v>
    <v>       0.50228869       0.34790399       0.99495809 </v>
    <v>       0.74813649       0.50536654       0.84135150 </v>
    <v>       0.74990628       0.83842072       0.16434009 </v>
    <v>       0.99793333       0.34871506       0.99326684 </v>
    <v>       0.98493010       0.99080608       0.32926014 </v>
    <v>       0.26440906       0.48693875       0.15036136 </v>
    <v>       0.25480803       0.49507777       0.84107625 </v>
    <v>       0.24431395       0.83526076       0.19206184 </v>
    <v>       0.24145561       0.82794147       0.49166581 </v>
    <v>       0.47946905       0.99868999       0.65220991 </v>
    <v>       0.73159002       0.49224796       0.14504920 </v>
    <v>       0.77110644       0.14956005       0.49937272 </v>
    <v>       0.49766411       0.66571421       0.00146219 </v>
   </varray>
  </structure>
  <varray name="forces" >
   <v>      -0.01987694      -0.00212554       0.00634960 </v>
   <v>       0.00920846       0.01100494      -0.02000843 </v>
   <v>       0.04870701       0.00184644      -0.01501178 </v>
   <v>      -0.00778846      -0.00422404       0.00228437 </v>
   <v>       0.00183342       0.01384465      -0.00815404 </v>
   <v>       0.00983069      -0.00756702      -0.00467141 </v>
   <v>       0.00124867      -0.01242693      -0.01943477 </v>
   <v>       0.00282582      -0.00407682       0.01096958 </v>
   <v>       0.00818183       0.01928299       0.01128785 </v>
   <v>      -0.00652980      -0.00070256      -0.02133423 </v>
   <v>       0.00032234       0.00515786       0.00581542 </v>
   <v>       0.00686957      -0.06253238       0.00324850 </v>
   <v>      -0.00757097       0.03061871      -0.00413104 </v>
   <v>      -0.00273779      -0.01350272      -0.00700213 </v>
   <v>      -0.00980590      -0.00003857      -0.02010444 </v>
   <v>      -0.00521356      -0.00090814       0.01751659 </v>
   <v>       0.00801658      -0.00252687      -0.01217142 </v>
   <v>      -0.05763302       0.01173759      -0.00199659 </v>
   <v>      -0.01972256       0.00846079      -0.00294953 </v>
   <v>      -0.00078365      -0.00486789       0.00822651 </v>
   <v>       0.00424217       0.01427747       0.05462263 </v>
   <v>      -0.00533527       0.00997577       0.00353360 </v>
   <v>       0.00869558      -0.01044096      -0.02499998 </v>
   <v>       0.01614477       0.01061038       0.00927396 </v>
   <v>      -0.00448840      -0.00594021       0.01422636 </v>
   <v>       0.01408267       0.03583736      -0.01066670 </v>
   <v>      -0.00849915       0.00544400       0.00295694 </v>
   <v>      -0.00024510      -0.00706054       0.00403778 </v>
   <v>       0.01512526      -0.01396103      -0.01296765 </v>
   <v>       0.00965784      -0.00744556       0.00025433 </v>
   <v>      -0.01296435      -0.02155108       0.00830294 </v>
   <v>       0.00100994      -0.00590498       0.01118461 </v>
   <v>       0.00731623      -0.00639154       0.00311826 </v>
   <v>      -0.01146398       0.01727406      -0.00847468 </v>
   <v>       0.00513334      -0.00205625       0.01012965 </v>
   <v>       0.00220670       0.00087861       0.00673932 </v>
  </varray>
  <varray name="stress" >
   <v>      -2.81751945      -0.01535455      -0.07205085 </v>
   <v>      -0.01535453      -3.14573771       0.02774895 </v>
   <v>      -0.07205089       0.02774898      -3.00877190 </v>
  </varray>
  <energy>
   <i name="e_fr_energy">   -361.91885166 </i>
   <i name="e_wo_entrp">   -361.92509153 </i>
   <i name="e_0_energy">      0.01871962 </i>
  </energy>
  <time name="totalsc">    3.90    4.37</time>
 </calculation>
 <calculation>
  <scstep>
   <time name="dav">    0.83    0.86</time>
   <time name="total">    0.96    1.12</time>
   <energy>
    <i name="alphaZ">   1350.59402448 </i>
    <i name="ewald"> -16517.19253593 </i>
    <i name="hartreedc">  -5591.41673830 </i>
    <i name="XCdc">   -586.96409253 </i>
    <i name="pawpsdc">  31195.81793775 </i>
    <i name="pawaedc"> -29460.87540691 </i>
    <i name="eentropy">      0.01868079 </i>
    <i name="bandstr">  -2085.99930187 </i>
    <i name="atom">  21334.09699975 </i>
    <i name="e_fr_energy">   -361.92043276 </i>
    <i name="e_wo_entrp">   -361.93911355 </i>
    <i name="e_0_energy">   -361.92665969 </i>
   </energy>
  </scstep>
  <scstep>
   <time name="diag">    0.09    0.10</time>
   <time name="diis">    0.72    0.74</time>
   <time name="orth">    0.01    0.01</time>
   <time name="total">    0.88    0.94</time>
   <energy>
    <i name="e_fr_energy">   -361.92048865 </i>
    <i name="e_wo_entrp">   -361.93918024 </i>
    <i name="e_0_energy">   -361.92671918 </i>
   </energy>
  </scstep>
  <scstep>
   <time name="diag">    0.16    0.16</time>
   <time name="diis">    0.83    0.86</time>
   <time name="orth">    0.01    0.01</time>
   <time name="total">    1.08    1.14</time>
   <energy>
    <i name="e_fr_energy">   -361.92041662 </i>
    <i name="e_wo_entrp">   -361.93908352 </i>
    <i name="e_0_energy">   -361.92663892 </i>
[...]
       <r>    6.2768    1.0000 </r>
       <r>    6.3010    1.0000 </r>
       <r>    6.3573    1.0000 </r>
       <r>    6.4169    1.0000 </r>
       <r>    6.4499    1.0000 </r>
       <r>    6.5003    1.0000 </r>
       <r>    6.5240    1.0000 </r>
       <r>    6.5667    1.0000 </r>
       <r>    6.5929    1.0001 </r>
       <r>    6.6165    1.0001 </r>
       <r>    6.6543    1.0005 </r>
       <r>    6.6987    1.0019 </r>
       <r>    6.7455    1.0062 </r>
       <r>    6.7909    1.0155 </r>
       <r>    6.8113    1.0214 </r>
       <r>    6.8383    1.0295 </r>
       <r>    6.8570    1.0339 </r>
       <r>    6.8932    1.0322 </r>
       <r>    6.9230    1.0100 </r>
       <r>    6.9868    0.8517 </r>
       <r>    7.0178    0.7125 </r>
       <r>    7.0237    0.6822 </r>
       <r>    7.1086    0.2267 </r>
       <r>    7.1453    0.0846 </r>
       <r>    7.1852   -0.0029 </r>
       <r>    7.2009   -0.0205 </r>
       <r>    7.2652   -0.0322 </r>
       <r>    7.2842   -0.0270 </r>
       <r>    7.3214   -0.0159 </r>
       <r>    7.3490   -0.0094 </r>
       <r>    7.4188   -0.0017 </r>
       <r>    7.4268   -0.0013 </r>
       <r>    7.4836   -0.0002 </r>
       <r>    7.4933   -0.0002 </r>
       <r>    7.5439   -0.0000 </r>
       <r>    7.5791   -0.0000 </r>
       <r>    7.6053   -0.0000 </r>
       <r>    7.6191   -0.0000 </r>
       <r>    7.6702   -0.0000 </r>
       <r>    7.7184   -0.0000 </r>
       <r>    7.8212   -0.0000 </r>
       <r>    7.8816   -0.0000 </r>
       <r>    7.8984   -0.0000 </r>
       <r>    7.9296   -0.0000 </r>
       <r>    8.0014   -0.0000 </r>
       <r>    8.2024   -0.0000 </r>
       <r>    8.3273   -0.0000 </r>
       <r>    8.4187   -0.0000 </r>
       <r>    8.9653   -0.0000 </r>
      </set>
     </set>
    </set>
   </array>
  </eigenvalues>
  <separator name="orbital magnetization" >
   <v name="MAGDIPOLOUT">      0.00000000      0.00000000      0.00000000</v>
  </separator>
  <dos>
   <i name="efermi">      7.05686689 </i>
   <total>
    <array>
     <dimension dim="1">gridpoints</dimension>
     <dimension dim="2">spin</dimension>
     <field>energy</field>
     <field>total</field>
     <field>integrated</field>
     <set>
      <set comment="spin 1">
       <r>   -50.0326     0.0000     0.0000 </r>
       <r>   -49.8265     0.0000     0.0000 </r>
       <r>   -49.6204     0.0000     0.0000 </r>
       <r>   -49.4143     0.0000     0.0000 </r>
       <r>   -49.2082     0.0000     0.0000 </r>
       <r>   -49.0021     0.0000     0.0000 </r>
       <r>   -48.7960     0.0000     0.0000 </r>
       <r>   -48.5899    -0.0000    -0.0000 </r>
       <r>   -48.3838    -0.0000    -0.0000 </r>
       <r>   -48.1777    -0.0000    -0.0000 </r>
       <r>   -47.9716    -0.0000    -0.0000 </r>
       <r>   -47.7655    -0.0000    -0.0000 </r>
       <r>   -47.5594    -0.0326    -0.0067 </r>
       <r>   -47.3533    -0.2228    -0.0526 </r>
       <r>   -47.1472    10.3776     2.0862 </r>
       <r>   -46.9411    20.2586     6.2615 </r>
       <r>   -46.7350     9.0086     8.1182 </r>
       <r>   -46.5289    -0.5659     8.0016 </r>
       <r>   -46.3228    -0.0076     8.0000 </r>
       <r>   -46.1167    -0.0000     8.0000 </r>
       <r>   -45.9106    -0.0000     8.0000 </r>
       <r>   -45.7045     0.0000     8.0000 </r>
       <r>   -45.4984     0.0000     8.0000 </r>
       <r>   -45.2923     0.0000     8.0000 </r>
       <r>   -45.0862     0.0000     8.0000 </r>
       <r>   -44.8801     0.0000     8.0000 </r>
       <r>   -44.6740     0.0000     8.0000 </r>
       <r>   -44.4679     0.0000     8.0000 </r>
       <r>   -44.2618     0.0000     8.0000 </r>
       <r>   -44.0557     0.0000     8.0000 </r>
       <r>   -43.8496     0.0000     8.0000 </r>
       <r>   -43.6435     0.0000     8.0000 </r>
       <r>   -43.4374     0.0000     8.0000 </r>
       <r>   -43.2312     0.0000     8.0000 </r>
       <r>   -43.0251     0.0000     8.0000 </r>
       <r>   -42.8190     0.0000     8.0000 </r>
       <r>   -42.6129    -0.0000     8.0000 </r>
       <r>   -42.4068    -0.0000     8.0000 </r>
       <r>   -42.2007    -0.0000     8.0000 </r>
       <r>   -41.9946    -0.0000     8.0000 </r>
       <r>   -41.7885    -0.0000     8.0000 </r>
       <r>   -41.5824    -0.0211     7.9956 </r>
       <r>   -41.3763    -1.6355     7.6586 </r>
       <r>   -41.1702    25.8739    12.9912 </r>
       <r>   -40.9641    65.6752    26.5269 </r>
       <r>   -40.7580     7.8121    28.1370 </r>
       <r>   -40.5519    -0.6561    28.0018 </r>
       <r>   -40.3458    -0.0086    28.0000 </r>
       <r>   -40.1397    -0.0000    28.0000 </r>
       <r>   -39.9336    -0.0000    28.0000 </r>
       <r>   -39.7275     0.0000    28.0000 </r>
       <r>   -39.5214     0.0000    28.0000 </r>
       <r>   -39.3153     0.0000    28.0000 </r>
       <r>   -39.1092     0.0000    28.0000 </r>
       <r>   -38.9031     0.0000    28.0000 </r>
       <r>   -38.6970     0.0000    28.0000 </r>
       <r>   -38.4909     0.0000    28.0000 </r>
       <r>   -38.2848     0.0000    28.0000 </r>
       <r>   -38.0787     0.0000    28.0000 </r>
       <r>   -37.8726     0.0000    28.0000 </r>
       <r>   -37.6665     0.0000    28.0000 </r>
       <r>   -37.4604     0.0000    28.0000 </r>
       <r>   -37.2543     0.0000    28.0000 </r>
       <r>   -37.0482     0.0000    28.0000 </r>
       <r>   -36.8421     0.0000    28.0000 </r>
       <r>   -36.6360     0.0000    28.0000 </r>
       <r>   -36.4299     0.0000    28.0000 </r>
       <r>   -36.2238     0.0000    28.0000 </r>
       <r>   -36.0177     0.0000    28.0000 </r>
       <r>   -35.8116     0.0000    28.0000 </r>
       <r>   -35.6055     0.0000    28.0000 </r>
       <r>   -35.3994     0.0000    28.0000 </r>
       <r>   -35.1933     0.0000    28.0000 </r>
       <r>   -34.9872     0.0000    28.0000 </r>
       <r>   -34.7811     0.0000    28.0000 </r>
       <r>   -34.5750     0.0000    28.0000 </r>
       <r>   -34.3689     0.0000    28.0000 </r>
       <r>   -34.1628     0.0000    28.0000 </r>
       <r>   -33.9567     0.0000    28.0000 </r>
       <r>   -33.7506     0.0000    28.0000 </r>
       <r>   -33.5445     0.0000    28.0000 </r>
       <r>   -33.3384     0.0000    28.0000 </r>
       <r>   -33.1323     0.0000    28.0000 </r>
       <r>   -32.9262     0.0000    28.0000 </r>
       <r>   -32.7201     0.0000    28.0000 </r>
       <r>   -32.5140     0.0000    28.0000 </r>
       <r>   -32.3079     0.0000    28.0000 </r>
       <r>   -32.1018     0.0000    28.0000 </r>
       <r>   -31.8957     0.0000    28.0000 </r>
       <r>   -31.6896     0.0000    28.0000 </r>
       <r>   -31.4835     0.0000    28.0000 </r>
       <r>   -31.2774     0.0000    28.0000 </r>
       <r>   -31.0713     0.0000    28.0000 </r>
       <r>   -30.8652     0.0000    28.0000 </r>
       <r>   -30.6591     0.0000    28.0000 </r>
       <r>   -30.4530     0.0000    28.0000 </r>
       <r>   -30.2469     0.0000    28.0000 </r>
       <r>   -30.0408     0.0000    28.0000 </r>
       <r>   -29.8347     0.0000    28.0000 </r>
       <r>   -29.6286     0.0000    28.0000 </r>
       <r>   -29.4225     0.0000    28.0000 </r>
       <r>   -29.2164     0.0000    28.0000 </r>
       <r>   -29.0103     0.0000    28.0000 </r>
       <r>   -28.8042     0.0000    28.0000 </r>
       <r>   -28.5981     0.0000    28.0000 </r>
       <r>   -28.3920     0.0000    28.0000 </r>
       <r>   -28.1859     0.0000    28.0000 </r>
       <r>   -27.9798     0.0000    28.0000 </r>
       <r>   -27.7737     0.0000    28.0000 </r>
       <r>   -27.5676     0.0000    28.0000 </r>
       <r>   -27.3615     0.0000    28.0000 </r>
       <r>   -27.1554     0.0000    28.0000 </r>
       <r>   -26.9493     0.0000    28.0000 </r>
       <r>   -26.7432     0.0000    28.0000 </r>
       <r>   -26.5371     0.0000    28.0000 </r>
       <r>   -26.3310     0.0000    28.0000 </r>
       <r>   -26.1249     0.0000    28.0000 </r>
       <r>   -25.9188     0.0000    28.0000 </r>
       <r>   -25.7127     0.0000    28.0000 </r>
       <r>   -25.5066     0.0000    28.0000 </r>
       <r>   -25.3005     0.0000    28.0000 </r>
       <r>   -25.0944     0.0000    28.0000 </r>
       <r>   -24.8883    -0.0000    28.0000 </r>
       <r>   -24.6822    -0.0000    28.0000 </r>
       <r>   -24.4761    -0.0000    28.0000 </r>
       <r>   -24.2700    -0.0000    28.0000 </r>
       <r>   -24.0639    -0.0002    28.0000 </r>
       <r>   -23.8577    -0.1269    27.9738 </r>
       <r>   -23.6516     0.9204    28.1635 </r>
       <r>   -23.4455    16.5875    31.5822 </r>
       <r>   -23.2394    28.4161    37.4388 </r>
       <r>   -23.0333    46.0687    46.9336 </r>
       <r>   -22.8272    20.9091    51.2430 </r>
       <r>   -22.6211     4.0032    52.0681 </r>
       <r>   -22.4150    -0.3285    52.0004 </r>
       <r>   -22.2089    -0.0018    52.0000 </r>
       <r>   -22.0028    -0.0000    52.0000 </r>
       <r>   -21.7967    -0.0000    52.0000 </r>
       <r>   -21.5906     0.0000    52.0000 </r>
       <r>   -21.3845     0.0000    52.0000 </r>
       <r>   -21.1784     0.0000    52.0000 </r>
       <r>   -20.9723     0.0000    52.0000 </r>
       <r>   -20.7662    -0.0000    52.0000 </r>
       <r>   -20.5601    -0.0000    52.0000 </r>
       <r>   -20.3540    -0.0000    52.0000 </r>
       <r>   -20.1479    -0.0000    52.0000 </r>
       <r>   -19.9418    -0.0032    51.9993 </r>
       <r>   -19.7357    -0.6528    51.8648 </r>
       <r>   -19.5296     5.7230    53.0443 </r>
       <r>   -19.3235    71.2659    67.7323 </r>
       <r>   -19.1174   131.3189    94.7972 </r>
       <r>   -18.9113    75.4998   110.3578 </r>
       <r>   -18.7052     8.7549   112.1622 </r>
       <r>   -18.4991    -0.7778   112.0019 </r>
       <r>   -18.2930    -0.0093   112.0000 </r>
       <r>   -18.0869    -0.0000   112.0000 </r>
       <r>   -17.8808    -0.0000   112.0000 </r>
       <r>   -17.6747     0.0000   112.0000 </r>
       <r>   -17.4686     0.0000   112.0000 </r>
       <r>   -17.2625     0.0000   112.0000 </r>
       <r>   -17.0564     0.0000   112.0000 </r>
       <r>   -16.8503     0.0000   112.0000 </r>
       <r>   -16.6442     0.0000   112.0000 </r>
       <r>   -16.4381     0.0000   112.0000 </r>
       <r>   -16.2320     0.0000   112.0000 </r>
       <r>   -16.0259     0.0000   112.0000 </r>
       <r>   -15.8198     0.0000   112.0000 </r>
       <r>   -15.6137     0.0000   112.0000 </r>
       <r>   -15.4076     0.0000   112.0000 </r>
       <r>   -15.2015     0.0000   112.0000 </r>
       <r>   -14.9954     0.0000   112.0000 </r>
       <r>   -14.7893     0.0000   112.0000 </r>
       <r>   -14.5832     0.0000   112.0000 </r>
       <r>   -14.3771     0.0000   112.0000 </r>
       <r>   -14.1710     0.0000   112.0000 </r>
       <r>   -13.9649     0.0000   112.0000 </r>
       <r>   -13.7588     0.0000   112.0000 </r>
       <r>   -13.5527     0.0000   112.0000 </r>
       <r>   -13.3466     0.0000   112.0000 </r>
       <r>   -13.1405     0.0000   112.0000 </r>
       <r>   -12.9344     0.0000   112.0000 </r>
       <r>   -12.7283     0.0000   112.0000 </r>
       <r>   -12.5222     0.0000   112.0000 </r>
       <r>   -12.3161     0.0000   112.0000 </r>
       <r>   -12.1100     0.0000   112.0000 </r>
       <r>   -11.9039     0.0000   112.0000 </r>
       <r>   -11.6978     0.0000   112.0000 </r>
       <r>   -11.4917     0.0000   112.0000 </r>
       <r>   -11.2856     0.0000   112.0000 </r>
       <r>   -11.0795     0.0000   112.0000 </r>
       <r>   -10.8734     0.0000   112.0000 </r>
       <r>   -10.6673     0.0000   112.0000 </r>
       <r>   -10.4612     0.0000   112.0000 </r>
       <r>   -10.2551     0.0000   112.0000 </r>
       <r>   -10.0490     0.0000   112.0000 </r>
       <r>    -9.8429     0.0000   112.0000 </r>
       <r>    -9.6368     0.0000   112.0000 </r>
       <r>    -9.4307     0.0000   112.0000 </r>
       <r>    -9.2246     0.0000   112.0000 </r>
       <r>    -9.0185     0.0000   112.0000 </r>
       <r>    -8.8124     0.0000   112.0000 </r>
       <r>    -8.6063     0.0000   112.0000 </r>
       <r>    -8.4002     0.0000   112.0000 </r>
       <r>    -8.1941     0.0000   112.0000 </r>
       <r>    -7.9880     0.0000   112.0000 </r>
       <r>    -7.7819     0.0000   112.0000 </r>
       <r>    -7.5758     0.0000   112.0000 </r>
       <r>    -7.3697     0.0000   112.0000 </r>
       <r>    -7.1636     0.0000   112.0000 </r>
       <r>    -6.9575     0.0000   112.0000 </r>
       <r>    -6.7514     0.0000   112.0000 </r>
       <r>    -6.5453     0.0000   112.0000 </r>
       <r>    -6.3392     0.0000   112.0000 </r>
       <r>    -6.1331     0.0000   112.0000 </r>
       <r>    -5.9270     0.0000   112.0000 </r>
       <r>    -5.7209     0.0000   112.0000 </r>
       <r>    -5.5148     0.0000   112.0000 </r>
       <r>    -5.3087     0.0000   112.0000 </r>
       <r>    -5.1026     0.0000   112.0000 </r>
       <r>    -4.8965     0.0000   112.0000 </r>
       <r>    -4.6904     0.0000   112.0000 </r>
       <r>    -4.4843     0.0000   112.0000 </r>
       <r>    -4.2781     0.0000   112.0000 </r>
       <r>    -4.0720     0.0000   112.0000 </r>
       <r>    -3.8659     0.0000   112.0000 </r>
       <r>    -3.6598     0.0000   112.0000 </r>
       <r>    -3.4537     0.0000   112.0000 </r>
       <r>    -3.2476     0.0000   112.0000 </r>
       <r>    -3.0415     0.0000   112.0000 </r>
       <r>    -2.8354     0.0000   112.0000 </r>
       <r>    -2.6293     0.0000   112.0000 </r>
       <r>    -2.4232     0.0000   112.0000 </r>
       <r>    -2.2171     0.0000   112.0000 </r>
       <r>    -2.0110     0.0000   112.0000 </r>
       <r>    -1.8049     0.0000   112.0000 </r>
       <r>    -1.5988     0.0000   112.0000 </r>
       <r>    -1.3927     0.0000   112.0000 </r>
       <r>    -1.1866     0.0000   112.0000 </r>
       <r>    -0.9805    -0.0000   112.0000 </r>
       <r>    -0.7744    -0.0000   112.0000 </r>
       <r>    -0.5683    -0.0000   112.0000 </r>
       <r>    -0.3622    -0.0000   112.0000 </r>
       <r>    -0.1561    -0.0003   111.9999 </r>
       <r>     0.0500    -0.0131   111.9972 </r>
       <r>     0.2561     0.1934   112.0371 </r>
       <r>     0.4622     0.8999   112.2226 </r>
       <r>     0.6683     1.5458   112.5412 </r>
       <r>     0.8744     1.8064   112.9135 </r>
       <r>     1.0805     3.2469   113.5827 </r>
       <r>     1.2866     4.5335   114.5170 </r>
       <r>     1.4927     1.5466   114.8358 </r>
       <r>     1.6988     5.2065   115.9089 </r>
       <r>     1.9049     3.1590   116.5599 </r>
       <r>     2.1110     4.0845   117.4017 </r>
       <r>     2.3171     6.9777   118.8399 </r>
       <r>     2.5232     7.9492   120.4782 </r>
       <r>     2.7293     7.6104   122.0467 </r>
       <r>     2.9354     7.9266   123.6804 </r>
       <r>     3.1415     8.1807   125.3664 </r>
       <r>     3.3476    12.9772   128.0411 </r>
       <r>     3.5537    19.0010   131.9572 </r>
       <r>     3.7598    22.5655   136.6080 </r>
       <r>     3.9659    24.8283   141.7251 </r>
       <r>     4.1720    29.9738   147.9027 </r>
       <r>     4.3781    31.1498   154.3227 </r>
       <r>     4.5842    38.1345   162.1823 </r>
       <r>     4.7903    37.5107   169.9133 </r>
       <r>     4.9964    35.7578   177.2830 </r>
       <r>     5.2025    31.9443   183.8668 </r>
       <r>     5.4086    31.9420   190.4500 </r>
       <r>     5.6147    16.7712   193.9066 </r>
       <r>     5.8208    42.6698   202.7009 </r>
       <r>     6.0269    60.2735   215.1233 </r>
       <r>     6.2330    55.1110   226.4818 </r>
       <r>     6.4391    54.5491   237.7244 </r>
       <r>     6.6452    56.2450   249.3166 </r>
       <r>     6.8513    55.9802   260.8542 </r>
       <r>     7.0574    49.3451   271.0242 </r>
       <r>     7.2635    44.6587   280.2284 </r>
       <r>     7.4696    52.7011   291.0902 </r>
       <r>     7.6757    46.9511   300.7669 </r>
       <r>     7.8818    33.6241   307.6968 </r>
       <r>     8.0879    31.7283   314.2361 </r>
       <r>     8.2940    24.4041   319.2658 </r>
       <r>     8.5001    17.5123   322.8751 </r>
       <r>     8.7062    11.9176   325.3313 </r>
       <r>     8.9123    10.6011   327.5162 </r>
       <r>     9.1184     2.4910   328.0296 </r>
       <r>     9.3245    -0.1394   328.0009 </r>
       <r>     9.5306    -0.0043   328.0000 </r>
       <r>     9.7367    -0.0000   328.0000 </r>
       <r>     9.9428    -0.0000   328.0000 </r>
       <r>    10.1489     0.0000   328.0000 </r>
       <r>    10.3550     0.0000   328.0000 </r>
       <r>    10.5611     0.0000   328.0000 </r>
       <r>    10.7672     0.0000   328.0000 </r>
       <r>    10.9733     0.0000   328.0000 </r>
       <r>    11.1794     0.0000   328.0000 </r>
       <r>    11.3855     0.0000   328.0000 </r>
       <r>    11.5916     0.0000   328.0000 </r>
       <r>    11.7977     0.0000   328.0000 </r>
      </set>
     </set>
    </array>
   </total>
  </dos>
 </calculation>
 <structure name="finalpos" >
  <crystal>
   <varray name="basis" >
    <v>       6.96397691       0.00689650       0.00099289 </v>
    <v>       0.01022153      10.31420510      -0.00411798 </v>
    <v>       0.00099122      -0.00444332      10.30503333 </v>
   </varray>
   <i name="volume">    740.18789722 </i>
   <varray name="rec_basis" >
    <v>       0.14359625      -0.00014231      -0.00001387 </v>
    <v>      -0.00009602       0.09695378       0.00004181 </v>
    <v>      -0.00001387       0.00003876       0.09703998 </v>
   </varray>
  </crystal>
  <varray name="positions" >
   <v>       0.49993935       0.66325761       0.32377238 </v>
   <v>       0.73685669       0.15665163       0.83770316 </v>
   <v>       0.02240068       0.98728231       0.00095362 </v>
   <v>       0.22141297       0.16934627       0.48731135 </v>
   <v>       0.27147778       0.17683806       0.84209935 </v>
   <v>       0.00657811       0.66574581       0.00465293 </v>
   <v>       0.51303738       0.33449053       0.33915082 </v>
   <v>       0.77712169       0.52472142       0.51394165 </v>
   <v>       0.48798047       0.66376882       0.67661760 </v>
   <v>       0.75741029       0.83431953       0.50875488 </v>
   <v>       0.98128539       0.33051847       0.67920159 </v>
   <v>       0.75484471       0.16493940       0.15587311 </v>
   <v>       0.24048268       0.17859837       0.16410587 </v>
   <v>       0.02855358       0.99781889       0.66990358 </v>
   <v>       0.97453512       0.34808251       0.32500752 </v>
   <v>       0.22881039       0.50623354       0.50907147 </v>
   <v>       0.99656586       0.66425527       0.31444557 </v>
   <v>       0.47609076       0.97695585       0.01417628 </v>
   <v>       0.50546875      -0.00014098       0.33541167 </v>
   <v>       0.51893978       0.33455295       0.65814481 </v>
   <v>       0.74168432       0.83768943       0.83143982 </v>
   <v>       0.02298502       0.67490456       0.68531563 </v>
   <v>       0.26558232       0.82678906       0.82490408 </v>
   <v>       0.50328264       0.34759356       0.99520016 </v>
   <v>       0.74807188       0.50531720       0.84175315 </v>
   <v>       0.75063860       0.84071025       0.16368267 </v>
   <v>       0.99740246       0.34866549       0.99336993 </v>
   <v>       0.98567851       0.99028738       0.32986859 </v>
   <v>       0.26495107       0.48667227       0.15014760 </v>
   <v>       0.25520181       0.49507799       0.84075242 </v>
   <v>       0.24379852       0.83380124       0.19201414 </v>
   <v>       0.24149435       0.82731258       0.49239375 </v>
   <v>       0.48012861       0.99863751       0.65241152 </v>
   <v>       0.73103286       0.49322808       0.14523770 </v>
   <v>       0.77073214       0.14937999       0.49966885 </v>
   <v>       0.49754446       0.66570616       0.00154480 </v>
  </varray>
 </structure>
</modeling>
