       N       E                     dE             d eps       ncg     rms          rms(c)
DAV:   1     0.185027652402E+04    0.18503E+04   -0.11110E+05  5456   0.106E+03
DAV:   2    -0.109742206338E+03   -0.19600E+04   -0.18970E+04  5712   0.394E+02
DAV:   3    -0.356159105779E+03   -0.24642E+03   -0.23421E+03  8344   0.953E+01
DAV:   4    -0.384476258137E+03   -0.28317E+02   -0.26783E+02  8208   0.299E+01
DAV:   5    -0.387381746394E+03   -0.29055E+01   -0.28372E+01  8016   0.990E+00    0.654E+01
RMM:   6    -0.376854909962E+03    0.10527E+02   -0.25155E+01  6902   0.103E+01    0.319E+01
RMM:   7    -0.380372110460E+03   -0.35172E+01   -0.34574E+01  7533   0.988E+00    0.131E+01
RMM:   8    -0.372367661119E+03    0.80044E+01   -0.83591E+00  7096   0.416E+00    0.446E+00
RMM:   9    -0.372116451958E+03    0.25121E+00   -0.34696E+00  7558   0.254E+00    0.292E+00
RMM:  10    -0.372064745283E+03    0.51707E-01   -0.64275E-01  7584   0.122E+00    0.166E+00
RMM:  11    -0.372025844768E+03    0.38901E-01   -0.17173E-01  7496   0.587E-01    0.101E+00
RMM:  12    -0.372017449323E+03    0.83954E-02   -0.88572E-02  7593   0.453E-01    0.554E-01
RMM:  13    -0.372015801231E+03    0.16481E-02   -0.29070E-02  7619   0.263E-01    0.302E-01
RMM:  14    -0.372014642024E+03    0.11592E-02   -0.86836E-03  7635   0.128E-01    0.180E-01
RMM:  15    -0.372014467006E+03    0.17502E-03   -0.62284E-03  7631   0.961E-02    0.999E-02
RMM:  16    -0.372014579400E+03   -0.11239E-03   -0.25139E-03  7352   0.557E-02    0.703E-02
RMM:  17    -0.372014504280E+03    0.75120E-04   -0.69000E-04  6777   0.311E-02    0.380E-02
RMM:  18    -0.372014501737E+03    0.25425E-05   -0.46513E-04  6557   0.260E-02    0.183E-02
RMM:  19    -0.372014513174E+03   -0.11436E-04   -0.16987E-04  5655   0.151E-02    0.106E-02
RMM:  20    -0.372014515664E+03   -0.24908E-05   -0.80075E-05  3873   0.108E-02
   1 F= -.37201452E+03 E0= -.37202089E+03  d E =-.372015E+03
       N       E                     dE             d eps       ncg     rms          rms(c)
DAV:   1    -0.372015970473E+03   -0.14573E-02   -0.82285E-02  5648   0.909E-01    0.208E-01
RMM:   2    -0.372015998193E+03   -0.27721E-04   -0.63604E-03  6393   0.217E-01    0.835E-02
RMM:   3    -0.372015894777E+03    0.10342E-03   -0.99533E-04  7442   0.720E-02    0.614E-02
RMM:   4    -0.372015777654E+03    0.11712E-03   -0.24702E-04  7305   0.310E-02    0.328E-02
RMM:   5    -0.372015761829E+03    0.15825E-04   -0.70176E-05  5651   0.164E-02    0.229E-02
RMM:   6    -0.372015754903E+03    0.69265E-05   -0.34114E-05  3500   0.118E-02
   2 F= -.37201575E+03 E0= -.37202218E+03  d E =-.123924E-02
       N       E                     dE             d eps       ncg     rms          rms(c)
DAV:   1    -0.372019920582E+03   -0.41588E-02   -0.74007E-01  5296   0.273E+00    0.622E-01
RMM:   2    -0.372019854253E+03    0.66328E-04   -0.54181E-02  6208   0.642E-01    0.251E-01
RMM:   3    -0.372018884635E+03    0.96962E-03   -0.86756E-03  7446   0.211E-01    0.183E-01
RMM:   4    -0.372017876657E+03    0.10080E-02   -0.22110E-03  7593   0.930E-02    0.997E-02
RMM:   5    -0.372017765579E+03    0.11108E-03   -0.66113E-04  7587   0.469E-02    0.700E-02
RMM:   6    -0.372017746218E+03    0.19361E-04   -0.36035E-04  7246   0.323E-02    0.406E-02
RMM:   7    -0.372017736429E+03    0.97889E-05   -0.16430E-04  6392   0.229E-02    0.232E-02
RMM:   8    -0.372017732942E+03    0.34868E-05   -0.72501E-05  4538   0.152E-02
   3 F= -.37201773E+03 E0= -.37202431E+03  d E =-.321728E-02
       N       E                     dE             d eps       ncg     rms          rms(c)
DAV:   1    -0.372018077135E+03   -0.34071E-03   -0.99960E-02  5296   0.100E+00    0.223E-01
RMM:   2    -0.372018091376E+03   -0.14241E-04   -0.72230E-03  6232   0.235E-01    0.887E-02
RMM:   3    -0.372017962965E+03    0.12841E-03   -0.11281E-03  7415   0.766E-02    0.644E-02
RMM:   4    -0.372017836130E+03    0.12683E-03   -0.29237E-04  7307   0.334E-02    0.353E-02
RMM:   5    -0.372017821943E+03    0.14187E-04   -0.91343E-05  6134   0.183E-02    0.255E-02
RMM:   6    -0.372017817203E+03    0.47400E-05   -0.47428E-05  4236   0.126E-02
   4 F= -.37201782E+03 E0= -.37202444E+03  d E =-.330154E-02
       N       E                     dE             d eps       ncg     rms          rms(c)
DAV:   1    -0.372018746988E+03   -0.92505E-03   -0.80323E-02  5240   0.872E-01    0.160E-01
RMM:   2    -0.372018922938E+03   -0.17595E-03   -0.54804E-03  6618   0.198E-01    0.731E-02
RMM:   3    -0.372018800655E+03    0.12228E-03   -0.77257E-04  7420   0.631E-02    0.553E-02
RMM:   4    -0.372018740989E+03    0.59666E-04   -0.18707E-04  6988   0.256E-02    0.297E-02
RMM:   5    -0.372018733826E+03    0.71636E-05   -0.65619E-05  5342   0.160E-02
   5 F= -.37201873E+03 E0= -.37202537E+03  d E =-.916623E-03
       N       E                     dE             d eps       ncg     rms          rms(c)
DAV:   1    -0.372020245537E+03   -0.15045E-02   -0.72066E-01  5056   0.261E+00    0.461E-01
RMM:   2    -0.372021765960E+03   -0.15204E-02   -0.47849E-02  6418   0.588E-01    0.203E-01
RMM:   3    -0.372020698914E+03    0.10670E-02   -0.60784E-03  7299   0.183E-01    0.152E-01
RMM:   4    -0.372020205207E+03    0.49371E-03   -0.14327E-03  7522   0.719E-02    0.837E-02
RMM:   5    -0.372020157241E+03    0.47966E-04   -0.53356E-04  7703   0.418E-02    0.518E-02
RMM:   6    -0.372020166122E+03   -0.88808E-05   -0.27232E-04  7219   0.292E-02    0.302E-02
RMM:   7    -0.372020173071E+03   -0.69492E-05   -0.91116E-05  5503   0.174E-02
   6 F= -.37202017E+03 E0= -.37202681E+03  d E =-.235587E-02
       N       E                     dE             d eps       ncg     rms          rms(c)
DAV:   1    -0.372020209299E+03   -0.43177E-04   -0.57290E-02  5152   0.738E-01    0.126E-01
RMM:   2    -0.372020334946E+03   -0.12565E-03   -0.37960E-03  6482   0.165E-01    0.558E-02
RMM:   3    -0.372020258449E+03    0.76497E-04   -0.48619E-04  7103   0.508E-02    0.410E-02
RMM:   4    -0.372020231529E+03    0.26920E-04   -0.11816E-04  6233   0.204E-02    0.232E-02
RMM:   5    -0.372020233767E+03   -0.22381E-05   -0.41636E-05  3889   0.133E-02
   7 F= -.37202023E+03 E0= -.37202688E+03  d E =-.241656E-02
       N       E                     dE             d eps       ncg     rms          rms(c)
DAV:   1    -0.372020245254E+03   -0.13725E-04   -0.13425E-03  5920   0.113E-01    0.250E-02
RMM:   2    -0.372020254256E+03   -0.90012E-05   -0.10902E-04  6528   0.263E-02    0.121E-02
RMM:   3    -0.372020251790E+03    0.24655E-05   -0.73584E-06  2827   0.941E-03
   8 F= -.37202025E+03 E0= -.37202689E+03  d E =-.243459E-02
       N       E                     dE             d eps       ncg     rms          rms(c)
DAV:   1    -0.372020251522E+03    0.27339E-05   -0.11111E-02  5152   0.323E-01    0.593E-02
RMM:   2    -0.372020276585E+03   -0.25063E-04   -0.76085E-04  6447   0.737E-02    0.269E-02
RMM:   3    -0.372020257767E+03    0.18818E-04   -0.93581E-05  5745   0.230E-02    0.206E-02
RMM:   4    -0.372020247146E+03    0.10621E-04   -0.18230E-05  2731   0.118E-02    0.121E-02
RMM:   5    -0.372020244695E+03    0.24514E-05   -0.62202E-06  2590   0.832E-03
   9 F= -.37202024E+03 E0= -.37202688E+03  d E =-.242749E-02
       N       E                     dE             d eps       ncg     rms          rms(c)
DAV:   1    -0.372020255420E+03   -0.82743E-05   -0.57792E-03  5264   0.236E-01    0.436E-02
RMM:   2    -0.372020264663E+03   -0.92429E-05   -0.39686E-04  6113   0.538E-02    0.192E-02
RMM:   3    -0.372020254600E+03    0.10063E-04   -0.39455E-05  3859   0.169E-02    0.137E-02
RMM:   4    -0.372020250523E+03    0.40773E-05   -0.92102E-06  2552   0.110E-02
  10 F= -.37202025E+03 E0= -.37202689E+03  d E =-.243332E-02
       N       E                     dE             d eps       ncg     rms          rms(c)
DAV:   1    -0.372020436718E+03   -0.18212E-03   -0.72889E-03  5152   0.251E-01    0.460E-02
RMM:   2    -0.372020442659E+03   -0.59406E-05   -0.40132E-04  6993   0.541E-02    0.213E-02
RMM:   3    -0.372020433661E+03    0.89979E-05   -0.49312E-05  4785   0.163E-02
  11 F= -.37202043E+03 E0= -.37202710E+03  d E =-.183138E-03
       N       E                     dE             d eps       ncg     rms          rms(c)
DAV:   1    -0.372020866397E+03   -0.42374E-03   -0.65771E-02  5072   0.751E-01    0.143E-01
RMM:   2    -0.372020906945E+03   -0.40548E-04   -0.36841E-03  7163   0.163E-01    0.640E-02
RMM:   3    -0.372020844444E+03    0.62501E-04   -0.55391E-04  7342   0.470E-02    0.462E-02
RMM:   4    -0.372020796091E+03    0.48353E-04   -0.16220E-04  6781   0.234E-02    0.244E-02
RMM:   5    -0.372020792180E+03    0.39113E-05   -0.57729E-05  4955   0.138E-02
  12 F= -.37202079E+03 E0= -.37202748E+03  d E =-.541656E-03
       N       E                     dE             d eps       ncg     rms          rms(c)
DAV:   1    -0.372021020881E+03   -0.22479E-03   -0.26347E-01  4960   0.151E+00    0.282E-01
RMM:   2    -0.372021248263E+03   -0.22738E-03   -0.14354E-02  7091   0.324E-01    0.124E-01
RMM:   3    -0.372020998986E+03    0.24928E-03   -0.21215E-03  7382   0.966E-02    0.898E-02
RMM:   4    -0.372020808099E+03    0.19089E-03   -0.61970E-04  7459   0.461E-02    0.461E-02
RMM:   5    -0.372020794482E+03    0.13617E-04   -0.22828E-04  7116   0.255E-02    0.306E-02
RMM:   6    -0.372020801185E+03   -0.67037E-05   -0.10506E-04  6036   0.173E-02    0.183E-02
RMM:   7    -0.372020806666E+03   -0.54804E-05   -0.43451E-05  3932   0.126E-02
  13 F= -.37202081E+03 E0= -.37202756E+03  d E =-.556143E-03
       N       E                     dE             d eps       ncg     rms          rms(c)
DAV:   1    -0.372020990943E+03   -0.18976E-03   -0.57080E-02  5040   0.704E-01    0.135E-01
RMM:   2    -0.372021067063E+03   -0.76120E-04   -0.31821E-03  6896   0.153E-01    0.603E-02
RMM:   3    -0.372021002276E+03    0.64787E-04   -0.46084E-04  7336   0.483E-02    0.457E-02
RMM:   4    -0.372020951531E+03    0.50745E-04   -0.12009E-04  6571   0.219E-02    0.230E-02
RMM:   5    -0.372020942222E+03    0.93090E-05   -0.32554E-05  3752   0.121E-02
  14 F= -.37202094E+03 E0= -.37202767E+03  d E =-.691699E-03
       N       E                     dE             d eps       ncg     rms          rms(c)
DAV:   1    -0.372021219053E+03   -0.26752E-03   -0.16997E-02  5488   0.422E-01    0.109E-01
RMM:   2    -0.372021164096E+03    0.54957E-04   -0.12895E-03  6097   0.102E-01    0.429E-02
RMM:   3    -0.372021135451E+03    0.28645E-04   -0.23674E-04  7066   0.340E-02    0.315E-02
RMM:   4    -0.372021101036E+03    0.34415E-04   -0.61155E-05  4178   0.179E-02    0.172E-02
RMM:   5    -0.372021096091E+03    0.49443E-05   -0.12946E-05  2744   0.122E-02
  15 F= -.37202110E+03 E0= -.37202786E+03  d E =-.153869E-03
       N       E                     dE             d eps       ncg     rms          rms(c)
DAV:   1    -0.372021443467E+03   -0.34243E-03   -0.39835E-02  5448   0.646E-01    0.167E-01
RMM:   2    -0.372021313185E+03    0.13028E-03   -0.30723E-03  6426   0.157E-01    0.637E-02
RMM:   3    -0.372021259651E+03    0.53534E-04   -0.58976E-04  7441   0.511E-02    0.488E-02
RMM:   4    -0.372021184966E+03    0.74685E-04   -0.17855E-04  6775   0.267E-02    0.261E-02
RMM:   5    -0.372021176251E+03    0.87151E-05   -0.38310E-05  3757   0.145E-02
  16 F= -.37202118E+03 E0= -.37202800E+03  d E =-.234028E-03
       N       E                     dE             d eps       ncg     rms          rms(c)
DAV:   1    -0.372021239821E+03   -0.54856E-04   -0.61332E-03  5152   0.232E-01    0.211E-02
RMM:   2    -0.372021261400E+03   -0.21579E-04   -0.28749E-04  6498   0.486E-02    0.134E-02
RMM:   3    -0.372021255105E+03    0.62948E-05   -0.24179E-05  3227   0.156E-02
  17 F= -.37202126E+03 E0= -.37202810E+03  d E =-.788547E-04
       N       E                     dE             d eps       ncg     rms          rms(c)
DAV:   1    -0.372021293442E+03   -0.32042E-04   -0.55417E-02  5056   0.695E-01    0.566E-02
RMM:   2    -0.372021482921E+03   -0.18948E-03   -0.23651E-03  6645   0.141E-01    0.330E-02
RMM:   3    -0.372021463597E+03    0.19324E-04   -0.26505E-04  6770   0.401E-02    0.254E-02
RMM:   4    -0.372021458255E+03    0.53416E-05   -0.68500E-05  4952   0.132E-02
  18 F= -.37202146E+03 E0= -.37202836E+03  d E =-.282004E-03
       N       E                     dE             d eps       ncg     rms          rms(c)
DAV:   1    -0.372020952546E+03    0.51105E-03   -0.22043E-01  4960   0.139E+00    0.112E-01
RMM:   2    -0.372021707384E+03   -0.75484E-03   -0.92763E-03  6648   0.284E-01    0.650E-02
RMM:   3    -0.372021649130E+03    0.58255E-04   -0.10434E-03  7319   0.786E-02    0.514E-02
RMM:   4    -0.372021628493E+03    0.20637E-04   -0.25553E-04  6594   0.239E-02    0.322E-02
RMM:   5    -0.372021626053E+03    0.24393E-05   -0.10072E-04  6173   0.162E-02    0.173E-02
RMM:   6    -0.372021622528E+03    0.35250E-05   -0.32469E-05  3743   0.119E-02
  19 F= -.37202162E+03 E0= -.37202864E+03  d E =-.446278E-03
       N       E                     dE             d eps       ncg     rms          rms(c)
DAV:   1    -0.372021999367E+03   -0.37331E-03   -0.47501E-02  5768   0.723E-01    0.193E-01
RMM:   2    -0.372021828978E+03    0.17039E-03   -0.40616E-03  6549   0.178E-01    0.700E-02
RMM:   3    -0.372021781832E+03    0.47146E-04   -0.78257E-04  7586   0.571E-02    0.537E-02
RMM:   4    -0.372021690537E+03    0.91296E-04   -0.21941E-04  7245   0.294E-02    0.268E-02
RMM:   5    -0.372021688697E+03    0.18399E-05   -0.48331E-05  4081   0.153E-02
  20 F= -.37202169E+03 E0= -.37202869E+03  d E =-.661682E-04
       N       E                     dE             d eps       ncg     rms          rms(c)
DAV:   1    -0.372021702191E+03   -0.11655E-04   -0.97459E-04  6120   0.103E-01    0.244E-02
RMM:   2    -0.372021704164E+03   -0.19725E-05   -0.10377E-04  5363   0.274E-02    0.136E-02
RMM:   3    -0.372021698465E+03    0.56983E-05   -0.11026E-05  2706   0.966E-03
  21 F= -.37202170E+03 E0= -.37202870E+03  d E =-.759368E-04
       N       E                     dE             d eps       ncg     rms          rms(c)
DAV:   1    -0.372021744640E+03   -0.40476E-04   -0.26815E-02  5072   0.479E-01    0.479E-02
RMM:   2    -0.372021822238E+03   -0.77598E-04   -0.11330E-03  7057   0.985E-02    0.258E-02
RMM:   3    -0.372021817833E+03    0.44057E-05   -0.12803E-04  5884   0.265E-02    0.201E-02
RMM:   4    -0.372021814454E+03    0.33785E-05   -0.32814E-05  3598   0.115E-02
  22 F= -.37202181E+03 E0= -.37202880E+03  d E =-.115989E-03
