<?xml version="1.0" encoding="ISO-8859-1"?>
<modeling>
 <generator>
  <i name="program" type="string">vasp </i>
  <i name="version" type="string">5.4.1  </i>
  <i name="subversion" type="string">05Feb16 (build Jan 29 2020 16:04:39) complex                          parallel </i>
  <i name="platform" type="string">IFC91_ompi </i>
  <i name="date" type="string">2020 06 15 </i>
  <i name="time" type="string">04:27:32 </i>
 </generator>
 <incar>
  <i type="string" name="SYSTEM"> automatically generated by mexm</i>
  <i type="int" name="ISTART">     0</i>
  <i type="string" name="PREC">accurate               ! avoid wrap aro</i>
  <i type="string" name="ALGO"> Fast                   ! blocked Davids</i>
  <i type="int" name="ISPIN">     1</i>
  <i type="int" name="ICHARG">     2</i>
  <i type="int" name="NELM">    70</i>
  <i type="int" name="IBRION">     2</i>
  <i name="EDIFF">      0.00001000</i>
  <i name="EDIFFG">     -0.01000000</i>
  <i type="int" name="NSW">   300</i>
  <i type="int" name="ISIF">     3</i>
  <i type="int" name="ISYM">     1</i>
  <i name="ENCUT">    300.00000000</i>
  <i name="POTIM">      0.15000000</i>
  <i type="string" name="LREAL"> Auto                  ! unpublished met</i>
  <i type="int" name="ISMEAR">     1</i>
  <i name="SIGMA">      0.15000000</i>
  <i type="logical" name="LWAVE"> F  </i>
  <i type="logical" name="LCHARG"> F  </i>
  <i type="logical" name="LVTOT"> F  </i>
  <v type="int" name="KPOINT_BSE">    -1     0     0     0</v>
  <i type="int" name="NELM">    70</i>
 </incar>
 <kpoints>
  <generation param="Gamma">
   <v type="int" name="divisions">       3        3        3 </v>
   <v name="usershift">      0.00000000       0.00000000       0.00000000 </v>
   <v name="genvec1">      0.33333333       0.00000000       0.00000000 </v>
   <v name="genvec2">     -0.00000000       0.33333333      -0.00000000 </v>
   <v name="genvec3">      0.00000000       0.00000000       0.33333333 </v>
   <v name="shift">      0.00000000       0.00000000       0.00000000 </v>
  </generation>
  <varray name="kpointlist" >
   <v>       0.00000000       0.00000000       0.00000000 </v>
   <v>       0.33333333      -0.00000000      -0.00000000 </v>
   <v>      -0.00000000       0.33333333       0.00000000 </v>
   <v>       0.33333333       0.33333333       0.00000000 </v>
   <v>      -0.33333333       0.33333333      -0.00000000 </v>
   <v>       0.00000000       0.00000000       0.33333333 </v>
   <v>       0.33333333      -0.00000000       0.33333333 </v>
   <v>      -0.33333333       0.00000000       0.33333333 </v>
   <v>       0.00000000       0.33333333       0.33333333 </v>
   <v>       0.33333333       0.33333333       0.33333333 </v>
   <v>      -0.33333333       0.33333333       0.33333333 </v>
   <v>       0.00000000      -0.33333333       0.33333333 </v>
   <v>       0.33333333      -0.33333333       0.33333333 </v>
   <v>      -0.33333333      -0.33333333       0.33333333 </v>
  </varray>
  <varray name="weights" >
   <v>       0.03703704 </v>
   <v>       0.07407407 </v>
   <v>       0.07407407 </v>
   <v>       0.07407407 </v>
   <v>       0.07407407 </v>
   <v>       0.07407407 </v>
   <v>       0.07407407 </v>
   <v>       0.07407407 </v>
   <v>       0.07407407 </v>
   <v>       0.07407407 </v>
   <v>       0.07407407 </v>
   <v>       0.07407407 </v>
   <v>       0.07407407 </v>
   <v>       0.07407407 </v>
  </varray>
 </kpoints>
 <parameters>
  <separator name="general" >
   <i type="string" name="SYSTEM">automatically generated by mexm</i>
   <i type="logical" name="LCOMPAT"> F  </i>
  </separator>
  <separator name="electronic" >
   <i type="string" name="PREC">accura</i>
   <i name="ENMAX">    300.00000000</i>
   <i name="ENAUG">    461.25700000</i>
   <i name="EDIFF">      0.00001000</i>
   <i type="int" name="IALGO">    68</i>
   <i type="int" name="IWAVPR">    11</i>
   <i type="int" name="NBANDS">   176</i>
   <i name="NELECT">    294.00000000</i>
   <i type="int" name="TURBO">     0</i>
   <i type="int" name="IRESTART">     0</i>
   <i type="int" name="NREBOOT">     0</i>
   <i type="int" name="NMIN">     0</i>
   <i name="EREF">      0.00000000</i>
   <separator name="electronic smearing" >
    <i type="int" name="ISMEAR">     1</i>
    <i name="SIGMA">      0.15000000</i>
    <i name="KSPACING">      0.50000000</i>
    <i type="logical" name="KGAMMA"> T  </i>
   </separator>
   <separator name="electronic projectors" >
    <i type="logical" name="LREAL"> T  </i>
    <v name="ROPT">     -0.00025000     -0.00025000     -0.00025000     -0.00025000</v>
    <i type="int" name="LMAXPAW">  -100</i>
    <i type="int" name="LMAXMIX">     2</i>
    <i type="logical" name="NLSPLINE"> F  </i>
   </separator>
   <separator name="electronic startup" >
    <i type="int" name="ISTART">     0</i>
    <i type="int" name="ICHARG">     2</i>
    <i type="int" name="INIWAV">     1</i>
   </separator>
   <separator name="electronic spin" >
    <i type="int" name="ISPIN">     1</i>
    <i type="logical" name="LNONCOLLINEAR"> F  </i>
    <v name="MAGMOM">      1.00000000      1.00000000      1.00000000      1.00000000      1.00000000      1.00000000      1.00000000      1.00000000      1.00000000      1.00000000      1.00000000      1.00000000      1.00000000      1.00000000      1.00000000      1.00000000      1.00000000      1.00000000      1.00000000      1.00000000
      1.00000000      1.00000000      1.00000000      1.00000000      1.00000000      1.00000000      1.00000000      1.00000000      1.00000000      1.00000000      1.00000000      1.00000000      1.00000000      1.00000000      1.00000000      1.00000000</v>
    <i name="NUPDOWN">     -1.00000000</i>
    <i type="logical" name="LSORBIT"> F  </i>
    <v name="SAXIS">      0.00000000      0.00000000      1.00000000</v>
    <i type="logical" name="LSPIRAL"> F  </i>
    <v name="QSPIRAL">      0.00000000      0.00000000      0.00000000</v>
    <i type="logical" name="LZEROZ"> F  </i>
   </separator>
   <separator name="electronic exchange-correlation" >
    <i type="logical" name="LASPH"> F  </i>
    <i type="logical" name="LMETAGGA"> F  </i>
   </separator>
   <separator name="electronic convergence" >
    <i type="int" name="NELM">    70</i>
    <i type="int" name="NELMDL">    -5</i>
    <i type="int" name="NELMIN">     2</i>
    <i name="ENINI">    300.00000000</i>
    <separator name="electronic convergence detail" >
     <i type="logical" name="LDIAG"> T  </i>
     <i type="logical" name="LSUBROT"> F  </i>
     <i name="WEIMIN">      0.00100000</i>
     <i name="EBREAK">      0.00000001</i>
     <i name="DEPER">      0.30000000</i>
     <i type="int" name="NRMM">     4</i>
     <i name="TIME">      0.40000000</i>
    </separator>
   </separator>
   <separator name="electronic mixer" >
    <i name="AMIX">      0.40000000</i>
    <i name="BMIX">      1.00000000</i>
    <i name="AMIN">      0.10000000</i>
    <i name="AMIX_MAG">      1.60000000</i>
    <i name="BMIX_MAG">      1.00000000</i>
    <separator name="electronic mixer details" >
     <i type="int" name="IMIX">     4</i>
     <i type="logical" name="MIXFIRST"> F  </i>
     <i type="int" name="MAXMIX">   -45</i>
     <i name="WC">    100.00000000</i>
     <i type="int" name="INIMIX">     1</i>
     <i type="int" name="MIXPRE">     1</i>
     <i type="int" name="MREMOVE">     5</i>
    </separator>
   </separator>
   <separator name="electronic dipolcorrection" >
    <i type="logical" name="LDIPOL"> F  </i>
    <i type="logical" name="LMONO"> F  </i>
    <i type="int" name="IDIPOL">     0</i>
    <i name="EPSILON">      1.00000000</i>
    <v name="DIPOL">   -100.00000000   -100.00000000   -100.00000000</v>
    <i name="EFIELD">      0.00000000</i>
   </separator>
  </separator>
  <separator name="grids" >
   <i type="int" name="NGX">    40</i>
   <i type="int" name="NGY">    60</i>
   <i type="int" name="NGZ">    60</i>
   <i type="int" name="NGXF">    80</i>
   <i type="int" name="NGYF">   120</i>
   <i type="int" name="NGZF">   120</i>
   <i type="logical" name="ADDGRID"> F  </i>
  </separator>
  <separator name="ionic" >
   <i type="int" name="NSW">   300</i>
   <i type="int" name="IBRION">     2</i>
   <i type="int" name="ISIF">     3</i>
   <i name="PSTRESS">      0.00000000</i>
   <i name="EDIFFG">     -0.01000000</i>
   <i type="int" name="NFREE">     1</i>
   <i name="POTIM">      0.15000000</i>
   <i name="SMASS">     -3.00000000</i>
   <i name="SCALEE">      1.00000000</i>
  </separator>
  <separator name="ionic md" >
   <i name="TEBEG">      0.00010000</i>
   <i name="TEEND">      0.00010000</i>
   <i type="int" name="NBLOCK">     1</i>
   <i type="int" name="KBLOCK">   300</i>
   <i type="int" name="NPACO">   256</i>
   <i name="APACO">     16.00000000</i>
  </separator>
  <separator name="symmetry" >
   <i type="int" name="ISYM">     1</i>
   <i name="SYMPREC">      0.00001000</i>
  </separator>
  <separator name="dos" >
   <i type="logical" name="LORBIT"> F  </i>
   <v name="RWIGS">     -1.00000000     -1.00000000     -1.00000000     -1.00000000</v>
   <i type="int" name="NEDOS">   301</i>
   <i name="EMIN">     10.00000000</i>
   <i name="EMAX">    -10.00000000</i>
   <i name="EFERMI">      0.00000000</i>
  </separator>
  <separator name="writing" >
   <i type="int" name="NWRITE">     2</i>
   <i type="logical" name="LWAVE"> F  </i>
   <i type="logical" name="LCHARG"> F  </i>
   <i type="logical" name="LPARD"> F  </i>
   <i type="logical" name="LVTOT"> F  </i>
   <i type="logical" name="LVHAR"> F  </i>
   <i type="logical" name="LELF"> F  </i>
   <i type="logical" name="LOPTICS"> F  </i>
   <v name="STM">      0.00000000      0.00000000      0.00000000      0.00000000      0.00000000      0.00000000      0.00000000</v>
  </separator>
  <separator name="performance" >
   <i type="int" name="NPAR">     4</i>
   <i type="int" name="NSIM">     4</i>
   <i type="int" name="NBLK">    -1</i>
   <i type="logical" name="LPLANE"> T  </i>
   <i type="logical" name="LSCALAPACK"> T  </i>
   <i type="logical" name="LSCAAWARE"> F  </i>
   <i type="logical" name="LSCALU"> F  </i>
   <i type="logical" name="LASYNC"> F  </i>
   <i type="logical" name="LORBITALREAL"> F  </i>
  </separator>
  <separator name="miscellaneous" >
   <i type="int" name="IDIOT">     3</i>
   <i type="logical" name="LMUSIC"> F  </i>
   <v name="POMASS">    178.49000000     91.22400000     92.91000000    180.94800000</v>
   <v name="DARWINR">      0.00000000      0.00000000      0.00000000      0.00000000</v>
   <v name="DARWINV">      1.00000000      1.00000000      1.00000000      1.00000000</v>
   <i type="logical" name="LCORR"> T  </i>
  </separator>
  <i type="logical" name="GGA_COMPAT"> T  </i>
  <i type="logical" name="LBERRY"> F  </i>
  <i type="int" name="ICORELEVEL">     0</i>
  <i type="logical" name="LDAU"> F  </i>
  <i type="int" name="I_CONSTRAINED_M">     0</i>
  <separator name="electronic exchange-correlation" >
   <i type="string" name="GGA">--</i>
   <i type="int" name="VOSKOWN">     0</i>
   <i type="logical" name="LHFCALC"> F  </i>
   <i type="string" name="PRECFOCK"></i>
   <i type="logical" name="LSYMGRAD"> F  </i>
   <i type="logical" name="LHFONE"> F  </i>
   <i type="logical" name="LRHFCALC"> F  </i>
   <i type="logical" name="LTHOMAS"> F  </i>
   <i type="logical" name="LMODELHF"> F  </i>
   <i name="ENCUT4O">     -1.00000000</i>
   <i type="int" name="EXXOEP">     0</i>
   <i type="int" name="FOURORBIT">     0</i>
   <i name="AEXX">      0.00000000</i>
   <i name="HFALPHA">      0.00000000</i>
   <i name="MCALPHA">      0.00000000</i>
   <i name="ALDAX">      1.00000000</i>
   <i name="AGGAX">      1.00000000</i>
   <i name="ALDAC">      1.00000000</i>
   <i name="AGGAC">      1.00000000</i>
   <i type="int" name="NKREDX">     1</i>
   <i type="int" name="NKREDY">     1</i>
   <i type="int" name="NKREDZ">     1</i>
   <i type="logical" name="SHIFTRED"> F  </i>
   <i type="logical" name="ODDONLY"> F  </i>
   <i type="logical" name="EVENONLY"> F  </i>
   <i type="int" name="LMAXFOCK">     0</i>
   <i type="int" name="NMAXFOCKAE">     0</i>
   <i type="logical" name="LFOCKAEDFT"> F  </i>
   <i name="HFSCREEN">      0.00000000</i>
   <i name="HFSCREENC">      0.00000000</i>
   <i type="int" name="NBANDSGWLOW">     0</i>
  </separator>
  <separator name="vdW DFT" >
   <i type="logical" name="LUSE_VDW"> F  </i>
   <i name="Zab_VDW">     -0.84910000</i>
   <i name="PARAM1">      0.12340000</i>
   <i name="PARAM2">      1.00000000</i>
   <i name="PARAM3">      0.00000000</i>
  </separator>
  <separator name="model GW" >
   <i type="int" name="MODEL_GW">     0</i>
   <i name="MODEL_EPS0">     11.77971902</i>
   <i name="MODEL_ALPHA">      1.00000000</i>
  </separator>
  <separator name="linear response parameters" >
   <i type="logical" name="LEPSILON"> F  </i>
   <i type="logical" name="LRPA"> F  </i>
   <i type="logical" name="LNABLA"> F  </i>
   <i type="logical" name="LVEL"> F  </i>
   <i type="int" name="KINTER">     0</i>
   <i name="CSHIFT">      0.10000000</i>
   <i name="OMEGAMAX">     -1.00000000</i>
   <i name="DEG_THRESHOLD">      0.00200000</i>
  </separator>
  <separator name="orbital magnetization" >
   <i type="logical" name="NUCIND"> F  </i>
   <v name="MAGPOS">      0.00000000      0.00000000      0.00000000</v>
   <i type="logical" name="LNICSALL"> T  </i>
   <i type="logical" name="ORBITALMAG"> F  </i>
   <i type="logical" name="LMAGBLOCH"> F  </i>
   <i type="logical" name="LCHIMAG"> F  </i>
   <i type="logical" name="LGAUGE"> T  </i>
   <i type="int" name="MAGATOM">     0</i>
   <v name="MAGDIPOL">      0.00000000      0.00000000      0.00000000</v>
   <v name="AVECCONST">      0.00000000      0.00000000      0.00000000</v>
  </separator>
  <separator name="response functions" >
   <i type="logical" name="LADDER"> F  </i>
   <i type="logical" name="LFXC"> F  </i>
   <i type="logical" name="LHARTREE"> T  </i>
   <i type="int" name="IBSE">     0</i>
   <v type="int" name="KPOINT">    -1     0     0     0</v>
   <i type="logical" name="LTCTE"> F  </i>
   <i type="logical" name="LTETE"> F  </i>
   <i type="logical" name="LTRIPLET"> F  </i>
   <i type="logical" name="LFXCEPS"> F  </i>
   <i type="logical" name="LFXHEG"> F  </i>
   <i type="int" name="NATURALO">     0</i>
   <i type="logical" name="L2ORDER"> F  </i>
   <i type="logical" name="LUSEW"> F  </i>
   <i name="ENCUTGW">     -2.00000000</i>
   <i name="ENCUTGWSOFT">     -2.00000000</i>
   <i name="ENCUTLF">     -1.00000000</i>
   <i type="int" name="LMAXMP2">    -1</i>
   <i name="SCISSOR">      0.00000000</i>
   <i type="int" name="NOMEGA">     0</i>
   <i type="int" name="NOMEGAR">     0</i>
   <i type="int" name="NBANDSGW">    -1</i>
   <i type="int" name="NBANDSO">    -1</i>
   <i type="int" name="NBANDSV">    -1</i>
   <i type="int" name="NELM">    70</i>
   <i type="int" name="NELMHF">     1</i>
   <i type="int" name="DIM">     3</i>
   <i type="int" name="ANTIRES">     0</i>
   <i name="OMEGAMAX">    -30.00000000</i>
   <i name="OMEGAMIN">    -30.00000000</i>
   <i name="OMEGATL">   -200.00000000</i>
   <i type="int" name="OMEGAGRID">     0</i>
   <i name="CSHIFT">     -0.10000000</i>
   <i type="logical" name="SELFENERGY"> F  </i>
   <i type="logical" name="LSPECTRAL"> F  </i>
   <i type="logical" name="LSPECTRALGW"> F  </i>
   <i type="logical" name="LSINGLES"> F  </i>
   <i type="logical" name="LFERMIGW"> F  </i>
   <i type="logical" name="ODDONLYGW"> F  </i>
   <i type="logical" name="EVENONLYGW"> F  </i>
   <i type="int" name="NKREDLFX">     1</i>
   <i type="int" name="NKREDLFY">     1</i>
   <i type="int" name="NKREDLFZ">     1</i>
   <i type="int" name="MAXMEM">  1800</i>
   <i type="int" name="TELESCOPE">     0</i>
   <i type="int" name="TAUPAR">     1</i>
   <i type="int" name="OMEGAPAR">    -1</i>
   <i name="LAMBDA">      1.00000000</i>
  </separator>
  <separator name="External order field" >
   <i name="OFIELD_KAPPA">      0.00000000</i>
   <v name="OFIELD_K">      0.00000000      0.00000000      0.00000000</v>
   <i name="OFIELD_Q6_NEAR">      0.00000000</i>
   <i name="OFIELD_Q6_FAR">      0.00000000</i>
   <i name="OFIELD_A">      0.00000000</i>
  </separator>
 </parameters>
 <atominfo>
  <atoms>      36 </atoms>
  <types>       4 </types>
  <array name="atoms" >
   <dimension dim="1">ion</dimension>
   <field type="string">element</field>
   <field type="int">atomtype</field>
   <set>
    <rc><c>Hf</c><c>   1</c></rc>
    <rc><c>Hf</c><c>   1</c></rc>
    <rc><c>Hf</c><c>   1</c></rc>
    <rc><c>Hf</c><c>   1</c></rc>
    <rc><c>Hf</c><c>   1</c></rc>
    <rc><c>Hf</c><c>   1</c></rc>
    <rc><c>Hf</c><c>   1</c></rc>
    <rc><c>Hf</c><c>   1</c></rc>
    <rc><c>Zr</c><c>   2</c></rc>
    <rc><c>Zr</c><c>   2</c></rc>
    <rc><c>Zr</c><c>   2</c></rc>
    <rc><c>Zr</c><c>   2</c></rc>
    <rc><c>Zr</c><c>   2</c></rc>
    <rc><c>Zr</c><c>   2</c></rc>
    <rc><c>Nb</c><c>   3</c></rc>
    <rc><c>Nb</c><c>   3</c></rc>
    <rc><c>Nb</c><c>   3</c></rc>
    <rc><c>Nb</c><c>   3</c></rc>
    <rc><c>Nb</c><c>   3</c></rc>
    <rc><c>Nb</c><c>   3</c></rc>
    <rc><c>Nb</c><c>   3</c></rc>
    <rc><c>Nb</c><c>   3</c></rc>
    <rc><c>Nb</c><c>   3</c></rc>
    <rc><c>Nb</c><c>   3</c></rc>
    <rc><c>Ta</c><c>   4</c></rc>
    <rc><c>Ta</c><c>   4</c></rc>
    <rc><c>Ta</c><c>   4</c></rc>
    <rc><c>Ta</c><c>   4</c></rc>
    <rc><c>Ta</c><c>   4</c></rc>
    <rc><c>Ta</c><c>   4</c></rc>
    <rc><c>Ta</c><c>   4</c></rc>
    <rc><c>Ta</c><c>   4</c></rc>
    <rc><c>Ta</c><c>   4</c></rc>
    <rc><c>Ta</c><c>   4</c></rc>
    <rc><c>Ta</c><c>   4</c></rc>
    <rc><c>Ta</c><c>   4</c></rc>
   </set>
  </array>
  <array name="atomtypes" >
   <dimension dim="1">type</dimension>
   <field type="int">atomspertype</field>
   <field type="string">element</field>
   <field>mass</field>
   <field>valence</field>
   <field type="string">pseudopotential</field>
   <set>
    <rc><c>   8</c><c>Hf</c><c>    178.49000000</c><c>      4.00000000</c><c>  PAW_PBE Hf 20Jan2003                  </c></rc>
    <rc><c>   6</c><c>Zr</c><c>     91.22400000</c><c>     12.00000000</c><c>  PAW_PBE Zr_sv 04Jan2005               </c></rc>
    <rc><c>  10</c><c>Nb</c><c>     92.91000000</c><c>     13.00000000</c><c>  PAW_PBE Nb_sv 25May2007               </c></rc>
    <rc><c>  12</c><c>Ta</c><c>    180.94800000</c><c>      5.00000000</c><c>  PAW_PBE Ta 17Jan2003                  </c></rc>
   </set>
  </array>
 </atominfo>
 <structure name="initialpos" >
  <crystal>
   <varray name="basis" >
    <v>       6.80322678       0.00513796      -0.00344193 </v>
    <v>       0.00783664      10.19040899      -0.00633017 </v>
    <v>      -0.00502822      -0.00616056      10.19483362 </v>
   </varray>
   <i name="volume">    706.78314130 </i>
   <varray name="rec_basis" >
    <v>       0.14698920      -0.00011299       0.00007243 </v>
    <v>      -0.00007408       0.09813158       0.00005926 </v>
    <v>       0.00004958       0.00006089       0.09808896 </v>
   </varray>
  </crystal>
  <varray name="positions" >
   <v>       0.74281300       0.16234500       0.49192800 </v>
   <v>       0.75397100       0.83134000       0.82351900 </v>
   <v>       0.49899800       0.34132700       0.99474800 </v>
   <v>       0.24478500       0.17218600       0.17588100 </v>
   <v>       0.00342700       0.33868100       0.66444800 </v>
   <v>       0.24358500       0.83285600       0.50114700 </v>
   <v>       0.75413600       0.14721800       0.82819300 </v>
   <v>       0.76867800       0.48925400       0.17772000 </v>
   <v>       0.50214700       0.66830300       0.32967500 </v>
   <v>       0.24494100       0.14228000       0.83058600 </v>
   <v>       0.00320800       0.34039600       0.98516400 </v>
   <v>       0.50434400       0.99387600       0.01502200 </v>
   <v>       0.49788400       0.34228000       0.67320300 </v>
   <v>       0.49402100       0.66525400       0.00721400 </v>
   <v>       0.50328100       0.99215000       0.32619400 </v>
   <v>       0.99442900       0.99809800       0.33029900 </v>
   <v>       0.25359600       0.16118100       0.49218200 </v>
   <v>       0.00451800       0.00112200       0.65705800 </v>
   <v>       0.99810500       0.66782500       0.33394200 </v>
   <v>       0.00027900       0.66294400       0.66375000 </v>
   <v>       0.49490900       0.99293400       0.65519500 </v>
   <v>       0.50000600       0.66336800       0.66117100 </v>
   <v>       0.00664000       0.33447900       0.34924800 </v>
   <v>       0.49338000       0.34025600       0.34124100 </v>
   <v>       0.75482200       0.83678500       0.50306000 </v>
   <v>       0.23627700       0.49029900       0.17889400 </v>
   <v>       0.24604800       0.50831000       0.49756900 </v>
   <v>       0.24346300       0.52633000       0.82563500 </v>
   <v>       0.00849100       0.67064500       0.00132900 </v>
   <v>       0.22808200       0.83823500       0.17540800 </v>
   <v>       0.75382600       0.50197800       0.49441800 </v>
   <v>       0.77229400       0.83390600       0.17270700 </v>
   <v>       0.99494300       0.98725000       0.01056800 </v>
   <v>       0.75222600       0.16946400       0.17891200 </v>
   <v>       0.24427800       0.83111200       0.82450800 </v>
   <v>       0.75916900       0.52373300       0.82826200 </v>
  </varray>
 </structure>
 <calculation>
  <scstep>
   <time name="dav">    1.17    1.19</time>
   <time name="total">    1.24    1.68</time>
   <energy>
    <i name="alphaZ">   1581.57243235 </i>
    <i name="ewald"> -20044.83890812 </i>
    <i name="hartreedc">  -6406.55476990 </i>
    <i name="XCdc">   -356.22065213 </i>
    <i name="pawpsdc">  21622.06675053 </i>
    <i name="pawaedc"> -19958.75855003 </i>
    <i name="eentropy">      0.00076428 </i>
    <i name="bandstr">    -18.10432576 </i>
    <i name="atom">  25431.11378281 </i>
    <i name="e_fr_energy">   1850.27652402 </i>
    <i name="e_wo_entrp">   1850.27575974 </i>
    <i name="e_0_energy">   1850.27626926 </i>
   </energy>
  </scstep>
  <scstep>
   <time name="dav">    1.07    1.08</time>
   <time name="total">    1.07    1.28</time>
   <energy>
    <i name="e_fr_energy">   -109.74220634 </i>
    <i name="e_wo_entrp">   -109.73995447 </i>
    <i name="e_0_energy">   -109.74145571 </i>
   </energy>
  </scstep>
  <scstep>
   <time name="dav">    1.53    1.54</time>
   <time name="total">    1.53    1.58</time>
   <energy>
    <i name="e_fr_energy">   -356.15910578 </i>
    <i name="e_wo_entrp">   -356.16236751 </i>
    <i name="e_0_energy">   -356.16019302 </i>
   </energy>
  </scstep>
  <scstep>
   <time name="dav">    1.33    1.34</time>
   <time name="total">    1.33    1.38</time>
   <energy>
    <i name="e_fr_energy">   -384.47625814 </i>
    <i name="e_wo_entrp">   -384.49724469 </i>
    <i name="e_0_energy">   -384.48325365 </i>
   </energy>
  </scstep>
  <scstep>
   <time name="dav">    1.39    1.39</time>
   <time name="total">    1.42    1.48</time>
   <energy>
    <i name="e_fr_energy">   -387.38174639 </i>
    <i name="e_wo_entrp">   -387.40534361 </i>
    <i name="e_0_energy">   -387.38961213 </i>
   </energy>
  </scstep>
  <scstep>
   <time name="diag">    0.08    0.08</time>
   <time name="diis">    0.74    0.74</time>
   <time name="orth">    0.01    0.01</time>
   <time name="total">    0.89    0.96</time>
   <energy>
    <i name="e_fr_energy">   -376.85490996 </i>
    <i name="e_wo_entrp">   -376.88714813 </i>
    <i name="e_0_energy">   -376.86565602 </i>
   </energy>
  </scstep>
  <scstep>
   <time name="diag">    0.07    0.11</time>
   <time name="diis">    0.88    0.89</time>
   <time name="orth">    0.01    0.01</time>
   <time name="total">    1.04    1.14</time>
   <energy>
    <i name="e_fr_energy">   -380.37211046 </i>
    <i name="e_wo_entrp">   -380.37503401 </i>
    <i name="e_0_energy">   -380.37308498 </i>
   </energy>
  </scstep>
  <scstep>
   <time name="diag">    0.07    0.07</time>
   <time name="diis">    0.82    0.82</time>
   <time name="orth">    0.03    0.03</time>
   <time name="total">    1.04    1.09</time>
   <energy>
    <i name="e_fr_energy">   -372.36766112 </i>
    <i name="e_wo_entrp">   -372.38846093 </i>
    <i name="e_0_energy">   -372.37459439 </i>
   </energy>
  </scstep>
  <scstep>
   <time name="diag">    0.11    0.12</time>
   <time name="diis">    0.75    0.84</time>
   <time name="orth">    0.01    0.01</time>
   <time name="total">    0.96    1.12</time>
   <energy>
    <i name="e_fr_energy">   -372.11645196 </i>
    <i name="e_wo_entrp">   -372.13561153 </i>
    <i name="e_0_energy">   -372.12283848 </i>
   </energy>
  </scstep>
  <scstep>
   <time name="diag">    0.07    0.12</time>
   <time name="diis">    0.81    0.85</time>
   <time name="orth">    0.01    0.01</time>
   <time name="total">    0.97    1.10</time>
   <energy>
    <i name="e_fr_energy">   -372.06474528 </i>
    <i name="e_wo_entrp">   -372.08559923 </i>
    <i name="e_0_energy">   -372.07169660 </i>
   </energy>
  </scstep>
  <scstep>
   <time name="diag">    0.09    0.10</time>
   <time name="diis">    0.76    0.84</time>
   <time name="orth">    0.01    0.01</time>
   <time name="total">    0.92    1.09</time>
   <energy>
    <i name="e_fr_energy">   -372.02584477 </i>
    <i name="e_wo_entrp">   -372.04541699 </i>
    <i name="e_0_energy">   -372.03236884 </i>
   </energy>
  </scstep>
  <scstep>
   <time name="diag">    0.08    0.08</time>
   <time name="diis">    0.80    0.81</time>
   <time name="orth">    0.01    0.01</time>
   <time name="total">    0.95    1.02</time>
   <energy>
    <i name="e_fr_energy">   -372.01744932 </i>
    <i name="e_wo_entrp">   -372.03671882 </i>
    <i name="e_0_energy">   -372.02387249 </i>
   </energy>
  </scstep>
  <scstep>
   <time name="diag">    0.08    0.08</time>
   <time name="diis">    0.80    0.81</time>
   <time name="orth">    0.01    0.01</time>
   <time name="total">    0.96    1.02</time>
   <energy>
    <i name="e_fr_energy">   -372.01580123 </i>
    <i name="e_wo_entrp">   -372.03470121 </i>
    <i name="e_0_energy">   -372.02210122 </i>
   </energy>
  </scstep>
  <scstep>
   <time name="diag">    0.09    0.09</time>
   <time name="diis">    0.80    0.80</time>
   <time name="orth">    0.01    0.01</time>
   <time name="total">    0.96    1.03</time>
   <energy>
    <i name="e_fr_energy">   -372.01464202 </i>
    <i name="e_wo_entrp">   -372.03380695 </i>
    <i name="e_0_energy">   -372.02103033 </i>
   </energy>
  </scstep>
  <scstep>
   <time name="diag">    0.08    0.08</time>
   <time name="diis">    0.80    0.80</time>
   <time name="orth">    0.01    0.01</time>
   <time name="total">    0.95    1.01</time>
   <energy>
    <i name="e_fr_energy">   -372.01446701 </i>
    <i name="e_wo_entrp">   -372.03353079 </i>
    <i name="e_0_energy">   -372.02082160 </i>
   </energy>
  </scstep>
  <scstep>
   <time name="diag">    0.08    0.08</time>
   <time name="diis">    0.77    0.78</time>
   <time name="orth">    0.01    0.01</time>
   <time name="total">    0.92    0.99</time>
   <energy>
    <i name="e_fr_energy">   -372.01457940 </i>
    <i name="e_wo_entrp">   -372.03377174 </i>
    <i name="e_0_energy">   -372.02097685 </i>
   </energy>
  </scstep>
  <scstep>
   <time name="diag">    0.14    0.14</time>
   <time name="diis">    0.73    0.74</time>
   <time name="orth">    0.01    0.01</time>
   <time name="total">    0.95    1.02</time>
   <energy>
    <i name="e_fr_energy">   -372.01450428 </i>
    <i name="e_wo_entrp">   -372.03362257 </i>
    <i name="e_0_energy">   -372.02087704 </i>
   </energy>
  </scstep>
  <scstep>
   <time name="diag">    0.07    0.08</time>
   <time name="diis">    0.69    0.70</time>
   <time name="orth">    0.01    0.01</time>
   <time name="total">    0.85    0.90</time>
   <energy>
    <i name="e_fr_energy">   -372.01450174 </i>
    <i name="e_wo_entrp">   -372.03365117 </i>
    <i name="e_0_energy">   -372.02088488 </i>
   </energy>
  </scstep>
  <scstep>
   <time name="diag">    0.08    0.08</time>
   <time name="diis">    0.62    0.62</time>
   <time name="orth">    0.01    0.01</time>
   <time name="total">    0.87    0.94</time>
   <energy>
    <i name="e_fr_energy">   -372.01451317 </i>
    <i name="e_wo_entrp">   -372.03363003 </i>
    <i name="e_0_energy">   -372.02088546 </i>
   </energy>
  </scstep>
  <scstep>
   <time name="diag">    0.08    0.08</time>
   <time name="diis">    0.43    0.43</time>
   <time name="orth">    0.01    0.01</time>
   <time name="total">    0.55    0.61</time>
   <energy>
    <i name="alphaZ">   1581.57243235 </i>
    <i name="ewald"> -20044.83890812 </i>
    <i name="hartreedc">  -6176.89285842 </i>
    <i name="XCdc">   -355.33804525 </i>
    <i name="pawpsdc">  34015.70487058 </i>
    <i name="pawaedc"> -32333.75946165 </i>
    <i name="eentropy">      0.01912706 </i>
    <i name="bandstr">  -2489.59545502 </i>
    <i name="atom">  25431.11378281 </i>
    <i name="e_fr_energy">   -372.01451566 </i>
    <i name="e_wo_entrp">   -372.03364272 </i>
    <i name="e_0_energy">   -372.02089135 </i>
   </energy>
  </scstep>
  <structure>
   <crystal>
    <varray name="basis" >
     <v>       6.80322678       0.00513796      -0.00344193 </v>
     <v>       0.00783664      10.19040899      -0.00633017 </v>
     <v>      -0.00502822      -0.00616056      10.19483362 </v>
    </varray>
    <i name="volume">    706.78314130 </i>
    <varray name="rec_basis" >
     <v>       0.14698920      -0.00011299       0.00007243 </v>
     <v>      -0.00007408       0.09813158       0.00005926 </v>
     <v>       0.00004958       0.00006089       0.09808896 </v>
    </varray>
   </crystal>
   <varray name="positions" >
    <v>       0.74281300       0.16234500       0.49192800 </v>
    <v>       0.75397100       0.83134000       0.82351900 </v>
    <v>       0.49899800       0.34132700       0.99474800 </v>
    <v>       0.24478500       0.17218600       0.17588100 </v>
    <v>       0.00342700       0.33868100       0.66444800 </v>
    <v>       0.24358500       0.83285600       0.50114700 </v>
    <v>       0.75413600       0.14721800       0.82819300 </v>
    <v>       0.76867800       0.48925400       0.17772000 </v>
    <v>       0.50214700       0.66830300       0.32967500 </v>
    <v>       0.24494100       0.14228000       0.83058600 </v>
    <v>       0.00320800       0.34039600       0.98516400 </v>
    <v>       0.50434400       0.99387600       0.01502200 </v>
    <v>       0.49788400       0.34228000       0.67320300 </v>
    <v>       0.49402100       0.66525400       0.00721400 </v>
    <v>       0.50328100       0.99215000       0.32619400 </v>
    <v>       0.99442900       0.99809800       0.33029900 </v>
    <v>       0.25359600       0.16118100       0.49218200 </v>
    <v>       0.00451800       0.00112200       0.65705800 </v>
    <v>       0.99810500       0.66782500       0.33394200 </v>
    <v>       0.00027900       0.66294400       0.66375000 </v>
    <v>       0.49490900       0.99293400       0.65519500 </v>
    <v>       0.50000600       0.66336800       0.66117100 </v>
    <v>       0.00664000       0.33447900       0.34924800 </v>
    <v>       0.49338000       0.34025600       0.34124100 </v>
    <v>       0.75482200       0.83678500       0.50306000 </v>
    <v>       0.23627700       0.49029900       0.17889400 </v>
    <v>       0.24604800       0.50831000       0.49756900 </v>
    <v>       0.24346300       0.52633000       0.82563500 </v>
    <v>       0.00849100       0.67064500       0.00132900 </v>
    <v>       0.22808200       0.83823500       0.17540800 </v>
    <v>       0.75382600       0.50197800       0.49441800 </v>
    <v>       0.77229400       0.83390600       0.17270700 </v>
    <v>       0.99494300       0.98725000       0.01056800 </v>
    <v>       0.75222600       0.16946400       0.17891200 </v>
    <v>       0.24427800       0.83111200       0.82450800 </v>
    <v>       0.75916900       0.52373300       0.82826200 </v>
   </varray>
  </structure>
  <varray name="forces" >
   <v>       0.00175194      -0.00354574       0.00974252 </v>
   <v>       0.00560228       0.01304941       0.00079070 </v>
   <v>      -0.00259004       0.01350057       0.00644440 </v>
   <v>      -0.01542999      -0.00463824      -0.00503867 </v>
   <v>       0.00164611       0.01923800      -0.01350164 </v>
   <v>      -0.02059420       0.04350635       0.02240042 </v>
   <v>       0.00950074      -0.00579935      -0.00577629 </v>
   <v>       0.01916846      -0.04663406      -0.04029078 </v>
   <v>      -0.00114410       0.03186158      -0.02017975 </v>
   <v>      -0.00725522      -0.00598854      -0.00406240 </v>
   <v>       0.01340209       0.01545553       0.01704751 </v>
   <v>      -0.00623005      -0.00735286       0.00883789 </v>
   <v>      -0.00333819       0.01432785      -0.01962674 </v>
   <v>       0.00423844      -0.00387406      -0.08144020 </v>
   <v>       0.00476759       0.10634423       0.01418718 </v>
   <v>      -0.00015145      -0.02534462       0.01670474 </v>
   <v>      -0.00730387      -0.00557889       0.00201565 </v>
   <v>      -0.00004086      -0.02402379      -0.01538861 </v>
   <v>       0.01181514       0.00538438      -0.01011117 </v>
   <v>      -0.00239805      -0.01575311      -0.00927487 </v>
   <v>       0.00085141      -0.00871924      -0.01835098 </v>
   <v>       0.00715396      -0.00453530       0.09382327 </v>
   <v>      -0.00368390       0.02248522      -0.00038791 </v>
   <v>      -0.00203201      -0.12121249       0.01551943 </v>
   <v>       0.03318212       0.04094520       0.02254844 </v>
   <v>      -0.02909884      -0.04364474      -0.02348987 </v>
   <v>      -0.01055289      -0.05323705       0.02426328 </v>
   <v>      -0.00097443       0.01080990       0.00814213 </v>
   <v>      -0.00184888      -0.01002419       0.02522920 </v>
   <v>      -0.02496461       0.02855395      -0.03872029 </v>
   <v>      -0.00247423      -0.03234878       0.02817287 </v>
   <v>       0.01633874       0.04400391      -0.02661389 </v>
   <v>       0.00344741      -0.01143595       0.01682119 </v>
   <v>       0.01648851       0.01097170      -0.00657788 </v>
   <v>      -0.00467295       0.01317685       0.00000540 </v>
   <v>      -0.00257618       0.00007638       0.00613569 </v>
  </varray>
  <varray name="stress" >
   <v>       0.58761053       0.02326177       0.03549264 </v>
   <v>       0.02326180       1.74553330       0.11011561 </v>
   <v>       0.03549266       0.11011563       0.45328420 </v>
  </varray>
  <energy>
   <i name="e_fr_energy">   -372.01451566 </i>
   <i name="e_wo_entrp">   -372.02089135 </i>
   <i name="e_0_energy">      0.01912706 </i>
  </energy>
  <time name="totalsc">   22.07   24.27</time>
 </calculation>
 <calculation>
  <scstep>
   <time name="dav">    1.02    1.03</time>
   <time name="total">    1.09    1.32</time>
   <energy>
    <i name="alphaZ">   1580.79115529 </i>
    <i name="ewald"> -20041.61763446 </i>
    <i name="hartreedc">  -6175.82282368 </i>
    <i name="XCdc">   -355.47942770 </i>
    <i name="pawpsdc">  34015.84860022 </i>
    <i name="pawaedc"> -32333.90282976 </i>
    <i name="eentropy">      0.01923691 </i>
    <i name="bandstr">  -2492.96603009 </i>
    <i name="atom">  25431.11378281 </i>
    <i name="e_fr_energy">   -372.01597047 </i>
    <i name="e_wo_entrp">   -372.03520738 </i>
    <i name="e_0_energy">   -372.02238278 </i>
   </energy>
  </scstep>
  <scstep>
   <time name="diag">    0.08    0.08</time>
   <time name="diis">    0.66    0.67</time>
   <time name="orth">    0.01    0.01</time>
   <time name="total">    0.82    0.86</time>
   <energy>
    <i name="e_fr_energy">   -372.01599819 </i>
    <i name="e_wo_entrp">   -372.03531303 </i>
    <i name="e_0_energy">   -372.02243647 </i>
   </energy>
  </scstep>
  <scstep>
   <time name="diag">    0.08    0.08</time>
   <time name="diis">    0.78    0.79</time>
   <time name="orth">    0.01    0.01</time>
   <time name="total">    0.94    0.99</time>
   <energy>
    <i name="e_fr_energy">   -372.01589478 </i>
    <i name="e_wo_entrp">   -372.03512992 </i>
    <i name="e_0_energy">   -372.02230649 </i>
   </energy>
  </scstep>
  <scstep>
   <time name="diag">    0.07    0.07</time>
   <time name="diis">    0.78    0.78</time>
   <time name="orth">    0.01    0.01</time>
   <time name="total">    0.93    0.98</time>
   <energy>
    <i name="e_fr_energy">   -372.01577765 </i>
    <i name="e_wo_entrp">   -372.03504753 </i>
    <i name="e_0_energy">   -372.02220095 </i>
   </energy>
  </scstep>
  <scstep>
   <time name="diag">    0.08    0.08</time>
   <time name="diis">    0.68    0.68</time>
   <time name="orth">    0.01    0.01</time>
   <time name="total">    0.85    0.90</time>
   <energy>
    <i name="e_fr_energy">   -372.01576183 </i>
    <i name="e_wo_entrp">   -372.03504852 </i>
    <i name="e_0_energy">   -372.02219073 </i>
   </energy>
  </scstep>
  <scstep>
   <time name="diag">    0.07    0.07</time>
   <time name="diis">    0.39    0.39</time>
   <time name="orth">    0.01    0.01</time>
   <time name="total">    0.51    0.55</time>
   <energy>
    <i name="alphaZ">   1580.79115529 </i>
    <i name="ewald"> -20041.61763446 </i>
    <i name="hartreedc">  -6177.85709458 </i>
    <i name="XCdc">   -355.39465094 </i>
    <i name="pawpsdc">  33992.50512655 </i>
    <i name="pawaedc"> -32310.49791789 </i>
    <i name="eentropy">      0.01926981 </i>
    <i name="bandstr">  -2491.07779149 </i>
    <i name="atom">  25431.11378281 </i>
    <i name="e_fr_energy">   -372.01575490 </i>
    <i name="e_wo_entrp">   -372.03502471 </i>
    <i name="e_0_energy">   -372.02217817 </i>
   </energy>
  </scstep>
  <structure>
   <crystal>
    <varray name="basis" >
     <v>       6.80393575       0.00516755      -0.00339929 </v>
     <v>       0.00787945      10.19356351      -0.00613162 </v>
     <v>      -0.00496459      -0.00596340      10.19565302 </v>
    </varray>
    <i name="volume">    707.13245592 </i>
    <varray name="rec_basis" >
     <v>       0.14697388      -0.00011357       0.00007150 </v>
     <v>      -0.00007448       0.09810121       0.00005734 </v>
     <v>       0.00004896       0.00005896       0.09808107 </v>
    </varray>
   </crystal>
   <varray name="positions" >
    <v>       0.74281674       0.16233997       0.49194183 </v>
    <v>       0.75398290       0.83135853       0.82352014 </v>
    <v>       0.49899247       0.34134618       0.99475716 </v>
    <v>       0.24475218       0.17217942       0.17587383 </v>
    <v>       0.00343046       0.33870831       0.66442885 </v>
    <v>       0.24354114       0.83291783       0.50117882 </v>
    <v>       0.75415621       0.14720975       0.82818480 </v>
    <v>       0.76871881       0.48918771       0.17766277 </v>
    <v>       0.50214449       0.66834823       0.32964638 </v>
    <v>       0.24492557       0.14227150       0.83058022 </v>
    <v>       0.00323650       0.34041795       0.98518822 </v>
    <v>       0.50433077       0.99386557       0.01503454 </v>
    <v>       0.49787685       0.34230034       0.67317515 </v>
    <v>       0.49402994       0.66524842       0.00709839 </v>
    <v>       0.50329098       0.99230104       0.32621424 </v>
    <v>       0.99442874       0.99806202       0.33032269 </v>
    <v>       0.25358047       0.16117309       0.49218485 </v>
    <v>       0.00451794       0.00108787       0.65703613 </v>
    <v>       0.99813012       0.66783263       0.33392766 </v>
    <v>       0.00027391       0.66292162       0.66373682 </v>
    <v>       0.49491081       0.99292160       0.65516894 </v>
    <v>       0.50002132       0.66336163       0.66130419 </v>
    <v>       0.00663213       0.33451094       0.34924747 </v>
    <v>       0.49337589       0.34008386       0.34126292 </v>
    <v>       0.75489255       0.83684314       0.50309207 </v>
    <v>       0.23621514       0.49023703       0.17886059 </v>
    <v>       0.24602566       0.50823442       0.49760339 </v>
    <v>       0.24346092       0.52634536       0.82564657 </v>
    <v>       0.00848711       0.67063079       0.00136481 </v>
    <v>       0.22802880       0.83827555       0.17535304 </v>
    <v>       0.75382082       0.50193208       0.49445796 </v>
    <v>       0.77232866       0.83396846       0.17266927 </v>
    <v>       0.99495037       0.98723377       0.01059187 </v>
    <v>       0.75226105       0.16947956       0.17890268 </v>
    <v>       0.24426804       0.83113072       0.82450802 </v>
    <v>       0.75916353       0.52373312       0.82827071 </v>
   </varray>
  </structure>
  <varray name="forces" >
   <v>       0.00383632      -0.00298624       0.00820673 </v>
   <v>       0.00665651       0.01031805       0.00184561 </v>
   <v>      -0.00258943       0.01169963       0.00566812 </v>
   <v>      -0.01540773      -0.00486792      -0.00270120 </v>
   <v>       0.00084197       0.01771945      -0.01069057 </v>
   <v>      -0.01563879       0.03747542       0.01941542 </v>
   <v>       0.00913510      -0.00552374      -0.00485857 </v>
   <v>       0.01541250      -0.04175799      -0.03243185 </v>
   <v>      -0.00131957       0.02873427      -0.01934563 </v>
   <v>      -0.00703924      -0.00674525      -0.00423637 </v>
   <v>       0.01366965       0.01341917       0.01291266 </v>
   <v>      -0.00565655      -0.00679242       0.00903619 </v>
   <v>      -0.00337554       0.01353160      -0.01899355 </v>
   <v>       0.00315517      -0.00298783      -0.07279860 </v>
   <v>       0.00344608       0.09752638       0.01332066 </v>
   <v>      -0.00002945      -0.02129560       0.01499580 </v>
   <v>      -0.00603622      -0.00484164      -0.00069633 </v>
   <v>       0.00002907      -0.02249267      -0.01414082 </v>
   <v>       0.00982873       0.00301354      -0.01001721 </v>
   <v>      -0.00131988      -0.01620783      -0.00698445 </v>
   <v>       0.00079976      -0.00829663      -0.01685848 </v>
   <v>       0.00477009      -0.00490793       0.08529047 </v>
   <v>      -0.00451344       0.01929390      -0.00074589 </v>
   <v>      -0.00142761      -0.11107461       0.01512005 </v>
   <v>       0.02837507       0.03720815       0.01818779 </v>
   <v>      -0.02469314      -0.03861915      -0.01756624 </v>
   <v>      -0.00644927      -0.04501816       0.01792257 </v>
   <v>      -0.00303575       0.01185612       0.00683477 </v>
   <v>      -0.00181248      -0.00801104       0.02199974 </v>
   <v>      -0.02070531       0.02589869      -0.03346500 </v>
   <v>      -0.00430606      -0.02862863       0.02132915 </v>
   <v>       0.01354250       0.03991945      -0.02254475 </v>
   <v>       0.00284636      -0.00906473       0.01313222 </v>
   <v>       0.01414956       0.00992491      -0.00291686 </v>
   <v>      -0.00457875       0.00960045       0.00041439 </v>
   <v>      -0.00056022       0.00298084       0.00636006 </v>
  </varray>
  <varray name="stress" >
   <v>      -0.03569773       0.01535223       0.04059072 </v>
   <v>       0.01535219       0.97045763       0.09738656 </v>
   <v>       0.04059073       0.09738651      -0.19238327 </v>
  </varray>
  <energy>
   <i name="e_fr_energy">   -372.01575490 </i>
   <i name="e_wo_entrp">   -372.02217817 </i>
   <i name="e_0_energy">      0.01926981 </i>
  </energy>
  <time name="totalsc">    6.88    7.53</time>
 </calculation>
 <calculation>
  <scstep>
   <time name="dav">    0.98    0.99</time>
   <time name="total">    1.07    1.35</time>
   <energy>
    <i name="alphaZ">   1578.45071794 </i>
    <i name="ewald"> -20031.91786061 </i>
    <i name="hartreedc">  -6174.58319934 </i>
    <i name="XCdc">   -355.82240002 </i>
    <i name="pawpsdc">  33993.64053238 </i>
    <i name="pawaedc"> -32311.64360845 </i>
    <i name="eentropy">      0.01954863 </i>
    <i name="bandstr">  -2501.27743390 </i>
    <i name="atom">  25431.11378281 </i>
    <i name="e_fr_energy">   -372.01992058 </i>
    <i name="e_wo_entrp">   -372.03946921 </i>
    <i name="e_0_energy">   -372.02643679 </i>
   </energy>
  </scstep>
  <scstep>
   <time name="diag">    0.08    0.11</time>
   <time name="diis">    0.71    0.75</time>
   <time name="orth">    0.01    0.01</time>
   <time name="total">    0.90    1.01</time>
   <energy>
    <i name="e_fr_energy">   -372.01985425 </i>
    <i name="e_wo_entrp">   -372.03967927 </i>
    <i name="e_0_energy">   -372.02646259 </i>
   </energy>
  </scstep>
  <scstep>
   <time name="diag">    0.12    0.12</time>
   <time name="diis">    0.78    0.79</time>
   <time name="orth">    0.01    0.01</time>
   <time name="total">    0.99    1.03</time>
   <energy>
    <i name="e_fr_energy">   -372.01888463 </i>
    <i name="e_wo_entrp">   -372.03847418 </i>
    <i name="e_0_energy">   -372.02541448 </i>
   </energy>
  </scstep>
  <scstep>
   <time name="diag">    0.08    0.08</time>
   <time name="diis">    0.85    0.86</time>
   <time name="orth">    0.01    0.01</time>
   <time name="total">    1.01    1.06</time>
   <energy>
    <i name="e_fr_energy">   -372.01787666 </i>
    <i name="e_wo_entrp">   -372.03754809 </i>
    <i name="e_0_energy">   -372.02443380 </i>
   </energy>
  </scstep>
  <scstep>
   <time name="diag">    0.08    0.08</time>
   <time name="diis">    0.80    0.80</time>
   <time name="orth">    0.01    0.01</time>
   <time name="total">    0.95    1.02</time>
   <energy>
    <i name="e_fr_energy">   -372.01776558 </i>
    <i name="e_wo_entrp">   -372.03750351 </i>
    <i name="e_0_energy">   -372.02434489 </i>
   </energy>
  </scstep>
  <scstep>
   <time name="diag">    0.07    0.07</time>
   <time name="diis">    0.76    0.77</time>
   <time name="orth">    0.01    0.01</time>
   <time name="total">    0.92    0.97</time>
   <energy>
    <i name="e_fr_energy">   -372.01774622 </i>
    <i name="e_wo_entrp">   -372.03742456 </i>
    <i name="e_0_energy">   -372.02430566 </i>
   </energy>
  </scstep>
  <scstep>
   <time name="diag">    0.08    0.08</time>
   <time name="diis">    0.74    0.77</time>
   <time name="orth">    0.01    0.01</time>
   <time name="total">    0.93    1.00</time>
   <energy>
    <i name="e_fr_energy">   -372.01773643 </i>
    <i name="e_wo_entrp">   -372.03745430 </i>
    <i name="e_0_energy">   -372.02430905 </i>
   </energy>
  </scstep>
  <scstep>
   <time name="diag">    0.08    0.08</time>
   <time name="diis">    0.49    0.49</time>
   <time name="orth">    0.01    0.01</time>
   <time name="total">    0.61    0.66</time>
   <energy>
    <i name="alphaZ">   1578.45071794 </i>
    <i name="ewald"> -20031.91786061 </i>
    <i name="hartreedc">  -6180.55397737 </i>
    <i name="XCdc">   -355.57172103 </i>
    <i name="pawpsdc">  33928.45306813 </i>
    <i name="pawaedc"> -32246.42855715 </i>
    <i name="eentropy">      0.01972370 </i>
    <i name="bandstr">  -2495.58290936 </i>
    <i name="atom">  25431.11378281 </i>
    <i name="e_fr_energy">   -372.01773294 </i>
    <i name="e_wo_entrp">   -372.03745664 </i>
    <i name="e_0_energy">   -372.02430751 </i>
   </energy>
  </scstep>
  <structure>
   <crystal>
    <varray name="basis" >
     <v>       6.80606267       0.00525632      -0.00327135 </v>
     <v>       0.00800790      10.20302705      -0.00553598 </v>
     <v>      -0.00477373      -0.00537190      10.19811122 </v>
    </varray>
    <i name="volume">    708.18095189 </i>
    <varray name="rec_basis" >
     <v>       0.14692795      -0.00011528       0.00006872 </v>
     <v>      -0.00007567       0.09801022       0.00005159 </v>
     <v>       0.00004709       0.00005317       0.09805742 </v>
    </varray>
   </crystal>
   <varray name="positions" >
    <v>       0.74282797       0.16232489       0.49198331 </v>
    <v>       0.75401859       0.83141409       0.82352355 </v>
    <v>       0.49897590       0.34140371       0.99478463 </v>
    <v>       0.24465372       0.17215971       0.17585233 </v>
    <v>       0.00344082       0.33879021       0.66437141 </v>
    <v>       0.24340958       0.83310326       0.50127428 </v>
    <v>       0.75421685       0.14718500       0.82816021 </v>
    <v>       0.76884124       0.48898892       0.17749112 </v>
    <v>       0.50213697       0.66848390       0.32956052 </v>
    <v>       0.24487929       0.14224600       0.83056289 </v>
    <v>       0.00332200       0.34048378       0.98526089 </v>
    <v>       0.50429108       0.99383429       0.01507214 </v>
    <v>       0.49785542       0.34236133       0.67309160 </v>
    <v>       0.49405675       0.66523171       0.00675157 </v>
    <v>       0.50332093       0.99275402       0.32627494 </v>
    <v>       0.99442795       0.99795411       0.33039376 </v>
    <v>       0.25353390       0.16114935       0.49219341 </v>
    <v>       0.00451775       0.00098550       0.65697054 </v>
    <v>       0.99820545       0.66785550       0.33388464 </v>
    <v>       0.00025866       0.66285451       0.66369727 </v>
    <v>       0.49491623       0.99288441       0.65509077 </v>
    <v>       0.50006729       0.66334252       0.66170375 </v>
    <v>       0.00660851       0.33460672       0.34924586 </v>
    <v>       0.49336357       0.33956762       0.34132870 </v>
    <v>       0.75510416       0.83701749       0.50318827 </v>
    <v>       0.23602960       0.49005116       0.17876039 </v>
    <v>       0.24595866       0.50800776       0.49770656 </v>
    <v>       0.24345467       0.52639143       0.82568127 </v>
    <v>       0.00847544       0.67058816       0.00147222 </v>
    <v>       0.22786923       0.83839715       0.17518817 </v>
    <v>       0.75380528       0.50179438       0.49457785 </v>
    <v>       0.77243262       0.83415577       0.17255608 </v>
    <v>       0.99497248       0.98718509       0.01066348 </v>
    <v>       0.75236620       0.16952622       0.17887473 </v>
    <v>       0.24423815       0.83118686       0.82450806 </v>
    <v>       0.75914711       0.52373347       0.82829683 </v>
   </varray>
  </structure>
  <varray name="forces" >
   <v>       0.01204223      -0.00173803       0.00645236 </v>
   <v>       0.01041227       0.00289892       0.00266795 </v>
   <v>      -0.00381223       0.00680276       0.00001594 </v>
   <v>      -0.01748735      -0.00577382       0.00130017 </v>
   <v>       0.00003552       0.01443985      -0.00004827 </v>
   <v>      -0.00337470       0.01912743       0.01422241 </v>
   <v>       0.00962805      -0.00522515      -0.00317715 </v>
   <v>       0.00685035      -0.02662601      -0.00968299 </v>
   <v>      -0.00160737       0.02014917      -0.01757786 </v>
   <v>      -0.00806350      -0.00783459      -0.00620656 </v>
   <v>       0.01475919       0.00824244      -0.00183807 </v>
   <v>      -0.00378286      -0.00610685       0.01010239 </v>
   <v>      -0.00324609       0.01204907      -0.01665642 </v>
   <v>      -0.00019754      -0.00046045      -0.04741573 </v>
   <v>       0.00016153       0.07079436       0.00881053 </v>
   <v>       0.00030939      -0.01126064       0.00972038 </v>
   <v>      -0.00660650      -0.00428853      -0.00605425 </v>
   <v>      -0.00107497      -0.01917883      -0.00903383 </v>
   <v>       0.00402238      -0.00286296      -0.00983371 </v>
   <v>       0.00187973      -0.01699772       0.00165392 </v>
   <v>       0.00136060      -0.00805228      -0.01198621 </v>
   <v>      -0.00214751      -0.00647858       0.06296494 </v>
   <v>      -0.00487479       0.01027988       0.00111754 </v>
   <v>      -0.00121570      -0.08050487       0.01291680 </v>
   <v>       0.01694532       0.02529994       0.00886675 </v>
   <v>      -0.01497142      -0.02330120      -0.00053490 </v>
   <v>       0.00334828      -0.02018006       0.00160442 </v>
   <v>      -0.00922118       0.01314177       0.00008358 </v>
   <v>      -0.00136328      -0.00276561       0.01264415 </v>
   <v>      -0.01059972       0.01791788      -0.01880125 </v>
   <v>      -0.00740969      -0.01463567       0.00444257 </v>
   <v>       0.00659916       0.02866744      -0.01065292 </v>
   <v>       0.00196466      -0.00264268       0.00159547 </v>
   <v>       0.00967142       0.00655383       0.00505603 </v>
   <v>      -0.00457844      -0.00004835      -0.00033711 </v>
   <v>       0.00564477       0.01059816       0.00359893 </v>
  </varray>
  <varray name="stress" >
   <v>      -1.77961934      -0.00278533       0.04969620 </v>
   <v>      -0.00278538      -1.37666433       0.02041466 </v>
   <v>       0.04969618       0.02041468      -2.04940857 </v>
  </varray>
  <energy>
   <i name="e_fr_energy">   -372.01773294 </i>
   <i name="e_wo_entrp">   -372.02430751 </i>
   <i name="e_0_energy">      0.01972370 </i>
  </energy>
  <time name="totalsc">    9.05   10.11</time>
 </calculation>
 <calculation>
  <scstep>
   <time name="dav">    1.05    1.06</time>
   <time name="total">    1.13    1.44</time>
   <energy>
    <i name="alphaZ">   1577.59026869 </i>
    <i name="ewald"> -20028.33304843 </i>
    <i name="hartreedc">  -6179.38404455 </i>
    <i name="XCdc">   -355.72766028 </i>
    <i name="pawpsdc">  33929.14851194 </i>
    <i name="pawaedc"> -32247.18091113 </i>
    <i name="eentropy">      0.01980503 </i>
    <i name="bandstr">  -2499.26478122 </i>
    <i name="atom">  25431.11378281 </i>
    <i name="e_fr_energy">   -372.01807714 </i>
    <i name="e_wo_entrp">   -372.03788216 </i>
    <i name="e_0_energy">   -372.02467881 </i>
   </energy>
  </scstep>
  <scstep>
   <time name="diag">    0.12    0.13</time>
   <time name="diis">    0.69    0.70</time>
   <time name="orth">    0.01    0.01</time>
   <time name="total">    0.90    0.95</time>
   <energy>
    <i name="e_fr_energy">   -372.01809138 </i>
    <i name="e_wo_entrp">   -372.03799904 </i>
    <i name="e_0_energy">   -372.02472726 </i>
   </energy>
  </scstep>
  <scstep>
   <time name="diag">    0.07    0.07</time>
   <time name="diis">    0.78    0.79</time>
   <time name="orth">    0.01    0.01</time>
   <time name="total">    0.94    1.00</time>
   <energy>
    <i name="e_fr_energy">   -372.01796296 </i>
    <i name="e_wo_entrp">   -372.03778575 </i>
    <i name="e_0_energy">   -372.02457056 </i>
   </energy>
  </scstep>
  <scstep>
   <time name="diag">    0.08    0.08</time>
   <time name="diis">    0.76    0.77</time>
   <time name="orth">    0.01    0.01</time>
   <time name="total">    0.93    0.99</time>
   <energy>
    <i name="e_fr_energy">   -372.01783613 </i>
    <i name="e_wo_entrp">   -372.03768371 </i>
    <i name="e_0_energy">   -372.02445199 </i>
   </energy>
  </scstep>
  <scstep>
   <time name="diag">    0.07    0.08</time>
   <time name="diis">    0.66    0.66</time>
   <time name="orth">    0.01    0.01</time>
   <time name="total">    0.81    0.86</time>
   <energy>
    <i name="e_fr_energy">   -372.01782194 </i>
    <i name="e_wo_entrp">   -372.03769675 </i>
    <i name="e_0_energy">   -372.02444688 </i>
   </energy>
  </scstep>
  <scstep>
   <time name="diag">    0.08    0.08</time>
   <time name="diis">    0.46    0.46</time>
   <time name="orth">    0.01    0.01</time>
   <time name="total">    0.58    0.63</time>
   <energy>
    <i name="alphaZ">   1577.59026869 </i>
    <i name="ewald"> -20028.33304843 </i>
    <i name="hartreedc">  -6181.47000273 </i>
    <i name="XCdc">   -355.64034171 </i>
    <i name="pawpsdc">  33903.18994212 </i>
    <i name="pawaedc"> -32221.29729216 </i>
    <i name="eentropy">      0.01985442 </i>
    <i name="bandstr">  -2497.19098023 </i>
    <i name="atom">  25431.11378281 </i>
    <i name="e_fr_energy">   -372.01781720 </i>
    <i name="e_wo_entrp">   -372.03767162 </i>
    <i name="e_0_energy">   -372.02443534 </i>
   </energy>
  </scstep>
  <structure>
   <crystal>
    <varray name="basis" >
     <v>       6.80684579       0.00528900      -0.00322424 </v>
     <v>       0.00805520      10.20651145      -0.00531667 </v>
     <v>      -0.00470345      -0.00515412      10.19901631 </v>
    </varray>
    <i name="volume">    708.56720792 </i>
    <varray name="rec_basis" >
     <v>       0.14691105      -0.00011591       0.00006769 </v>
     <v>      -0.00007611       0.09797676       0.00004948 </v>
     <v>       0.00004640       0.00005104       0.09804872 </v>
    </varray>
   </crystal>
   <varray name="positions" >
    <v>       0.74283210       0.16231934       0.49199858 </v>
    <v>       0.75403172       0.83143453       0.82352481 </v>
    <v>       0.49896980       0.34142487       0.99479474 </v>
    <v>       0.24461748       0.17215245       0.17584442 </v>
    <v>       0.00344464       0.33882034       0.66435026 </v>
    <v>       0.24336115       0.83317147       0.50130942 </v>
    <v>       0.75423917       0.14717590       0.82815116 </v>
    <v>       0.76888630       0.48891579       0.17742793 </v>
    <v>       0.50213420       0.66853381       0.32952892 </v>
    <v>       0.24486226       0.14223663       0.83055651 </v>
    <v>       0.00335347       0.34050799       0.98528764 </v>
    <v>       0.50427647       0.99382279       0.01508598 </v>
    <v>       0.49784753       0.34238376       0.67306084 </v>
    <v>       0.49406662       0.66522556       0.00662391 </v>
    <v>       0.50333194       0.99292065       0.32629727 </v>
    <v>       0.99442766       0.99791441       0.33041993 </v>
    <v>       0.25351676       0.16114062       0.49219655 </v>
    <v>       0.00451768       0.00094785       0.65694640 </v>
    <v>       0.99823319       0.66786391       0.33386880 </v>
    <v>       0.00025305       0.66282982       0.66368272 </v>
    <v>       0.49491822       0.99287074       0.65506200 </v>
    <v>       0.50008421       0.66333549       0.66185082 </v>
    <v>       0.00659981       0.33464196       0.34924527 </v>
    <v>       0.49335904       0.33937772       0.34135292 </v>
    <v>       0.75518205       0.83708162       0.50322367 </v>
    <v>       0.23596130       0.48998279       0.17872351 </v>
    <v>       0.24593400       0.50792438       0.49774454 </v>
    <v>       0.24345237       0.52640837       0.82569404 </v>
    <v>       0.00847114       0.67057248       0.00151175 </v>
    <v>       0.22781050       0.83844189       0.17512748 </v>
    <v>       0.75379956       0.50174372       0.49462198 </v>
    <v>       0.77247089       0.83422467       0.17251441 </v>
    <v>       0.99498061       0.98716718       0.01068984 </v>
    <v>       0.75240490       0.16954339       0.17886444 </v>
    <v>       0.24422715       0.83120751       0.82450808 </v>
    <v>       0.75914106       0.52373359       0.82830645 </v>
   </varray>
  </structure>
  <varray name="forces" >
   <v>       0.01466632      -0.00122865       0.00513998 </v>
   <v>       0.01203474       0.00022812       0.00373909 </v>
   <v>      -0.00351329       0.00505444      -0.00069728 </v>
   <v>      -0.01790439      -0.00602827       0.00406523 </v>
   <v>      -0.00116495       0.01337943       0.00321937 </v>
   <v>       0.00146455       0.01296382       0.01172217 </v>
   <v>       0.00950748      -0.00512982      -0.00247135 </v>
   <v>       0.00315660      -0.02169488      -0.00126609 </v>
   <v>      -0.00173946       0.01681715      -0.01650435 </v>
   <v>      -0.00816797      -0.00863523      -0.00690763 </v>
   <v>       0.01481567       0.00574106      -0.00604955 </v>
   <v>      -0.00258512      -0.00489711       0.01088293 </v>
   <v>      -0.00288581       0.01115665      -0.01582882 </v>
   <v>      -0.00101585       0.00020913      -0.03725639 </v>
   <v>      -0.00073573       0.06080164       0.00743242 </v>
   <v>       0.00014071      -0.00782055       0.00742471 </v>
   <v>      -0.00536913      -0.00417838      -0.00884836 </v>
   <v>      -0.00215177      -0.01744529      -0.00730399 </v>
   <v>       0.00169138      -0.00547636      -0.00939668 </v>
   <v>       0.00278348      -0.01750137       0.00315468 </v>
   <v>       0.00228257      -0.00709748      -0.01030639 </v>
   <v>      -0.00466390      -0.00722059       0.05187488 </v>
   <v>      -0.00628466       0.00746937       0.00026610 </v>
   <v>       0.00006937      -0.06842246       0.01208909 </v>
   <v>       0.01229538       0.02173073       0.00493201 </v>
   <v>      -0.01097832      -0.01801892       0.00577684 </v>
   <v>       0.00730937      -0.01183391      -0.00478421 </v>
   <v>      -0.01162071       0.01379729      -0.00138797 </v>
   <v>      -0.00139424      -0.00103094       0.00896138 </v>
   <v>      -0.00771757       0.01521081      -0.01325925 </v>
   <v>      -0.00900522      -0.01082579      -0.00231737 </v>
   <v>       0.00504475       0.02458710      -0.00636006 </v>
   <v>       0.00088826       0.00011641      -0.00236690 </v>
   <v>       0.00761323       0.00544713       0.00889978 </v>
   <v>      -0.00484045      -0.00381095       0.00013764 </v>
   <v>       0.00797466       0.01358667       0.00359431 </v>
  </varray>
  <varray name="stress" >
   <v>      -2.63504870      -0.01562371       0.05781902 </v>
   <v>      -0.01562367      -2.42660841       0.00317039 </v>
   <v>       0.05781897       0.00317037      -2.91880604 </v>
  </varray>
  <energy>
   <i name="e_fr_energy">   -372.01781720 </i>
   <i name="e_wo_entrp">   -372.02443534 </i>
   <i name="e_0_energy">      0.01985442 </i>
  </energy>
  <time name="totalsc">    7.02    7.85</time>
 </calculation>
 <calculation>
  <scstep>
   <time name="dav">    0.94    0.95</time>
   <time name="total">    1.00    1.26</time>
   <energy>
    <i name="alphaZ">   1578.17289132 </i>
    <i name="ewald"> -20030.77309708 </i>
    <i name="hartreedc">  -6182.20064723 </i>
    <i name="XCdc">   -355.53674603 </i>
    <i name="pawpsdc">  33904.31788728 </i>
    <i name="pawaedc"> -32222.45648704 </i>
    <i name="eentropy">      0.01991591 </i>
    <i name="bandstr">  -2494.67624693 </i>
    <i name="atom">  25431.11378281 </i>
    <i name="e_fr_energy">   -372.01874699 </i>
    <i name="e_wo_entrp">   -372.03866290 </i>
    <i name="e_0_energy">   -372.02538563 </i>
   </energy>
  </scstep>
  <scstep>
   <time name="diag">    0.08    0.08</time>
   <time name="diis">    0.70    0.71</time>
   <time name="orth">    0.01    0.01</time>
   <time name="total">    0.85    0.90</time>
   <energy>
    <i name="e_fr_energy">   -372.01892294 </i>
    <i name="e_wo_entrp">   -372.03874001 </i>
    <i name="e_0_energy">   -372.02552863 </i>
   </energy>
  </scstep>
  <scstep>
   <time name="diag">    0.07    0.08</time>
   <time name="diis">    0.79    0.80</time>
   <time name="orth">    0.01    0.01</time>
   <time name="total">    0.94    1.01</time>
   <energy>
    <i name="e_fr_energy">   -372.01880066 </i>
    <i name="e_wo_entrp">   -372.03879542 </i>
    <i name="e_0_energy">   -372.02546558 </i>
   </energy>
  </scstep>
  <scstep>
   <time name="diag">    0.07    0.08</time>
   <time name="diis">    0.78    0.78</time>
   <time name="orth">    0.01    0.01</time>
   <time name="total">    0.93    0.99</time>
   <energy>
    <i name="e_fr_energy">   -372.01874099 </i>
    <i name="e_wo_entrp">   -372.03860278 </i>
    <i name="e_0_energy">   -372.02536159 </i>
   </energy>
  </scstep>
  <scstep>
   <time name="diag">    0.07    0.08</time>
   <time name="diis">    0.58    0.59</time>
   <time name="orth">    0.01    0.01</time>
   <time name="total">    0.70    0.77</time>
   <energy>
    <i name="alphaZ">   1578.17289132 </i>
    <i name="ewald"> -20030.77309708 </i>
    <i name="hartreedc">  -6180.56799940 </i>
    <i name="XCdc">   -355.60519423 </i>
    <i name="pawpsdc">  33922.20864230 </i>
    <i name="pawaedc"> -32240.48289244 </i>
    <i name="eentropy">      0.01990812 </i>
    <i name="bandstr">  -2496.10477522 </i>
    <i name="atom">  25431.11378281 </i>
    <i name="e_fr_energy">   -372.01873383 </i>
    <i name="e_wo_entrp">   -372.03864195 </i>
    <i name="e_0_energy">   -372.02536987 </i>
   </energy>
  </scstep>
  <structure>
   <crystal>
    <varray name="basis" >
     <v>       6.80570718       0.00530063      -0.00315355 </v>
     <v>       0.00807122      10.20661662      -0.00515906 </v>
     <v>      -0.00459790      -0.00499790      10.19685147 </v>
    </varray>
    <i name="volume">    708.30562233 </i>
    <varray name="rec_basis" >
     <v>       0.14693562      -0.00011616       0.00006620 </v>
     <v>      -0.00007629       0.09797574       0.00004799 </v>
     <v>       0.00004540       0.00004953       0.09806953 </v>
    </varray>
   </crystal>
   <varray name="positions" >
    <v>       0.74285146       0.16231455       0.49201308 </v>
    <v>       0.75405439       0.83144893       0.82352849 </v>
    <v>       0.49896160       0.34144340       0.99480126 </v>
    <v>       0.24457214       0.17214290       0.17584194 </v>
    <v>       0.00344598       0.33885135       0.66433795 </v>
    <v>       0.24332906       0.83322868       0.50134268 </v>
    <v>       0.75426540       0.14716571       0.82814300 </v>
    <v>       0.76892126       0.48884863       0.17738297 </v>
    <v>       0.50213030       0.66858115       0.32949454 </v>
    <v>       0.24484122       0.14222363       0.83054689 </v>
    <v>       0.00339202       0.34052914       0.98530174 </v>
    <v>       0.50426340       0.99381111       0.01510378 </v>
    <v>       0.49783878       0.34240774       0.67302756 </v>
    <v>       0.49407234       0.66522143       0.00650706 </v>
    <v>       0.50333874       0.99308222       0.32631842 </v>
    <v>       0.99442762       0.99788091       0.33044371 </v>
    <v>       0.25349878       0.16113141       0.49219211 </v>
    <v>       0.00451523       0.00090856       0.65692410 </v>
    <v>       0.99825440       0.66786566       0.33385073 </v>
    <v>       0.00025228       0.66279952       0.66367494 </v>
    <v>       0.49492218       0.99285589       0.65503423 </v>
    <v>       0.50009078       0.66332520       0.66199214 </v>
    <v>       0.00658669       0.33467209       0.34924506 </v>
    <v>       0.49335603       0.33919424       0.34137883 </v>
    <v>       0.75525009       0.83714255       0.50325204 </v>
    <v>       0.23590143       0.48992170       0.17870214 </v>
    <v>       0.24592504       0.50785745       0.49776741 </v>
    <v>       0.24343771       0.52643051       0.82570190 </v>
    <v>       0.00846659       0.67056079       0.00154601 </v>
    <v>       0.22776091       0.83848444       0.17507527 </v>
    <v>       0.75378547       0.50170034       0.49465098 </v>
    <v>       0.77250318       0.83429106       0.17248063 </v>
    <v>       0.99498728       0.98715480       0.01070643 </v>
    <v>       0.75244040       0.16955942       0.17886395 </v>
    <v>       0.24421406       0.83121904       0.82450819 </v>
    <v>       0.75914580       0.52374385       0.82831585 </v>
   </varray>
  </structure>
  <varray name="forces" >
   <v>       0.01630118      -0.00034754       0.00790713 </v>
   <v>       0.01043670      -0.00036353       0.00489862 </v>
   <v>      -0.00407771       0.00187640      -0.00343256 </v>
   <v>      -0.01779177      -0.00556958       0.00088603 </v>
   <v>      -0.00110663       0.01031744       0.00756375 </v>
   <v>       0.00594738       0.00637749       0.00941284 </v>
   <v>       0.00770556      -0.00269974      -0.00069454 </v>
   <v>      -0.00150558      -0.01571457       0.00207007 </v>
   <v>      -0.00185600       0.01454209      -0.01656120 </v>
   <v>      -0.00678887      -0.00593511      -0.00667539 </v>
   <v>       0.01471901       0.00203238      -0.01046590 </v>
   <v>      -0.00276346      -0.00353053       0.00798523 </v>
   <v>      -0.00244233       0.00814431      -0.01382282 </v>
   <v>      -0.00072193       0.00146468      -0.02718199 </v>
   <v>      -0.00269891       0.05286033       0.00741948 </v>
   <v>       0.00133338      -0.00353075       0.00799045 </v>
   <v>      -0.00476603      -0.00301305      -0.00841461 </v>
   <v>      -0.00306633      -0.01513775      -0.00436413 </v>
   <v>       0.00035071      -0.00685810      -0.00859096 </v>
   <v>       0.00309149      -0.01559317       0.00416266 </v>
   <v>       0.00345357      -0.00509378      -0.00734247 </v>
   <v>      -0.00563809      -0.00626818       0.04363942 </v>
   <v>      -0.00655659       0.00347804       0.00089753 </v>
   <v>       0.00041344      -0.05999194       0.01158927 </v>
   <v>       0.00743263       0.01530202       0.00140857 </v>
   <v>      -0.00596502      -0.01098791       0.00756531 </v>
   <v>       0.01094837      -0.00518605      -0.00875111 </v>
   <v>      -0.01098646       0.00830428      -0.00137185 </v>
   <v>      -0.00242326       0.00006471       0.00804867 </v>
   <v>       0.00017817       0.01013506      -0.01042665 </v>
   <v>      -0.01089331      -0.00533416      -0.00521120 </v>
   <v>      -0.00237008       0.01885744      -0.00341406 </v>
   <v>       0.00149951       0.00529272      -0.00854533 </v>
   <v>       0.00578457       0.00591556       0.00638484 </v>
   <v>      -0.00247034      -0.00453998       0.00151954 </v>
   <v>       0.00729304       0.01073045       0.00391736 </v>
  </varray>
  <varray name="stress" >
   <v>      -2.21172775      -0.01549802       0.05885755 </v>
   <v>      -0.01549800      -2.15081842      -0.03210311 </v>
   <v>       0.05885753      -0.03210309      -2.56940495 </v>
  </varray>
  <energy>
   <i name="e_fr_energy">   -372.01873383 </i>
   <i name="e_wo_entrp">   -372.02536987 </i>
   <i name="e_0_energy">      0.01990812 </i>
  </energy>
  <time name="totalsc">    6.07    6.76</time>
 </calculation>
 <calculation>
  <scstep>
   <time name="dav">    0.92    0.93</time>
   <time name="total">    0.99    1.20</time>
   <energy>
    <i name="alphaZ">   1579.92275080 </i>
    <i name="ewald"> -20038.05271244 </i>
    <i name="hartreedc">  -6182.91754690 </i>
    <i name="XCdc">   -355.28743847 </i>
    <i name="pawpsdc">  33921.44456835 </i>
    <i name="pawaedc"> -32239.73553664 </i>
    <i name="eentropy">      0.01999446 </i>
    <i name="bandstr">  -2488.52810751 </i>
    <i name="atom">  25431.11378281 </i>
    <i name="e_fr_energy">   -372.02024554 </i>
    <i name="e_wo_entrp">   -372.04024000 </i>
    <i name="e_0_energy">   -372.02691036 </i>
   </energy>
  </scstep>
  <scstep>
   <time name="diag">    0.08    0.08</time>
   <time name="diis">    0.68    0.69</time>
   <time name="orth">    0.01    0.01</time>
   <time name="total">    0.83    0.87</time>
   <energy>
    <i name="e_fr_energy">   -372.02176596 </i>
    <i name="e_wo_entrp">   -372.04148807 </i>
    <i name="e_0_energy">   -372.02834000 </i>
   </energy>
  </scstep>
  <scstep>
   <time name="diag">    0.08    0.08</time>
   <time name="diis">    0.83    0.85</time>
   <time name="orth">    0.01    0.01</time>
   <time name="total">    1.00    1.08</time>
   <energy>
    <i name="e_fr_energy">   -372.02069891 </i>
    <i name="e_wo_entrp">   -372.04093852 </i>
    <i name="e_0_energy">   -372.02744545 </i>
   </energy>
  </scstep>
  <scstep>
   <time name="diag">    0.08    0.08</time>
   <time name="diis">    0.82    0.83</time>
   <time name="orth">    0.01    0.01</time>
   <time name="total">    1.02    1.08</time>
   <energy>
    <i name="e_fr_energy">   -372.02020521 </i>
    <i name="e_wo_entrp">   -372.04006901 </i>
    <i name="e_0_energy">   -372.02682647 </i>
   </energy>
  </scstep>
  <scstep>
   <time name="diag">    0.08    0.08</time>
   <time name="diis">    0.89    0.90</time>
   <time name="orth">    0.01    0.01</time>
   <time name="total">    1.06    1.11</time>
   <energy>
    <i name="e_fr_energy">   -372.02015724 </i>
    <i name="e_wo_entrp">   -372.04014633 </i>
    <i name="e_0_energy">   -372.02682027 </i>
   </energy>
  </scstep>
  <scstep>
   <time name="diag">    0.07    0.08</time>
   <time name="diis">    0.75    0.76</time>
   <time name="orth">    0.01    0.01</time>
   <time name="total">    0.90    0.98</time>
   <energy>
    <i name="e_fr_energy">   -372.02016612 </i>
    <i name="e_wo_entrp">   -372.04005599 </i>
    <i name="e_0_energy">   -372.02679608 </i>
   </energy>
  </scstep>
  <scstep>
   <time name="diag">    0.08    0.08</time>
   <time name="diis">    0.59    0.60</time>
   <time name="orth">    0.02    0.02</time>
   <time name="total">    0.74    0.84</time>
   <energy>
    <i name="alphaZ">   1579.92275080 </i>
    <i name="ewald"> -20038.05271244 </i>
    <i name="hartreedc">  -6178.33757616 </i>
    <i name="XCdc">   -355.47969291 </i>
    <i name="pawpsdc">  33969.94734680 </i>
    <i name="pawaedc"> -32288.31834067 </i>
    <i name="eentropy">      0.01992032 </i>
    <i name="bandstr">  -2492.83565162 </i>
    <i name="atom">  25431.11378281 </i>
    <i name="e_fr_energy">   -372.02017307 </i>
    <i name="e_wo_entrp">   -372.04009339 </i>
    <i name="e_0_energy">   -372.02681318 </i>
   </energy>
  </scstep>
  <structure>
   <crystal>
    <varray name="basis" >
     <v>       6.80229137       0.00533550      -0.00294147 </v>
     <v>       0.00811928      10.20693211      -0.00468622 </v>
     <v>      -0.00428125      -0.00452922      10.19035696 </v>
    </varray>
    <i name="volume">    707.52113125 </i>
    <varray name="rec_basis" >
     <v>       0.14700940      -0.00011691       0.00006171 </v>
     <v>      -0.00007683       0.09797271       0.00004351 </v>
     <v>       0.00004240       0.00004502       0.09813203 </v>
    </varray>
   </crystal>
   <varray name="positions" >
    <v>       0.74290952       0.16230017       0.49205657 </v>
    <v>       0.75412240       0.83149213       0.82353953 </v>
    <v>       0.49893699       0.34149896       0.99482083 </v>
    <v>       0.24443610       0.17211424       0.17583452 </v>
    <v>       0.00345000       0.33894435       0.66430100 </v>
    <v>       0.24323277       0.83340031       0.50144249 </v>
    <v>       0.75434409       0.14713515       0.82811853 </v>
    <v>       0.76902613       0.48864712       0.17724805 </v>
    <v>       0.50211858       0.66872318       0.32939137 </v>
    <v>       0.24477811       0.14218465       0.83051800 </v>
    <v>       0.00350769       0.34059259       0.98534405 </v>
    <v>       0.50422418       0.99377609       0.01515718 </v>
    <v>       0.49781252       0.34247967       0.67292768 </v>
    <v>       0.49408950       0.66520904       0.00615645 </v>
    <v>       0.50335913       0.99356693       0.32638186 </v>
    <v>       0.99442752       0.99778042       0.33051509 </v>
    <v>       0.25344486       0.16110379       0.49217879 </v>
    <v>       0.00450787       0.00079070       0.65685719 </v>
    <v>       0.99831805       0.66787092       0.33379649 </v>
    <v>       0.00024998       0.66270863       0.66365160 </v>
    <v>       0.49493404       0.99281136       0.65495091 </v>
    <v>       0.50011051       0.66329433       0.66241619 </v>
    <v>       0.00654732       0.33476249       0.34924442 </v>
    <v>       0.49334699       0.33864380       0.34145658 </v>
    <v>       0.75545424       0.83732533       0.50333717 </v>
    <v>       0.23572177       0.48973842       0.17863802 </v>
    <v>       0.24589815       0.50765666       0.49783603 </v>
    <v>       0.24339370       0.52649693       0.82572547 </v>
    <v>       0.00845293       0.67052572       0.00164880 </v>
    <v>       0.22761210       0.83861207       0.17491861 </v>
    <v>       0.75374319       0.50157020       0.49473799 </v>
    <v>       0.77260008       0.83449024       0.17237926 </v>
    <v>       0.99500727       0.98711764       0.01075621 </v>
    <v>       0.75254694       0.16960751       0.17886248 </v>
    <v>       0.24417477       0.83125363       0.82450852 </v>
    <v>       0.75916000       0.52377464       0.82834405 </v>
   </varray>
  </structure>
  <varray name="forces" >
   <v>       0.02316591       0.00345449       0.01181819 </v>
   <v>       0.00889497      -0.00495893       0.00908208 </v>
   <v>      -0.00383285      -0.00520982      -0.00811615 </v>
   <v>      -0.01917275      -0.00485229      -0.00061100 </v>
   <v>      -0.00379866       0.00260349       0.01754332 </v>
   <v>       0.01875758      -0.01139997       0.00156873 </v>
   <v>       0.00453104       0.00379491       0.00310632 </v>
   <v>      -0.01573511      -0.00014991       0.01461974 </v>
   <v>      -0.00210430       0.00869119      -0.01556659 </v>
   <v>      -0.00318938      -0.00112510      -0.00747972 </v>
   <v>       0.01452313      -0.00832831      -0.02181759 </v>
   <v>      -0.00275654      -0.00005366       0.00166306 </v>
   <v>      -0.00130375      -0.00030598      -0.00873884 </v>
   <v>       0.00137907       0.00576492       0.00062619 </v>
   <v>      -0.00897428       0.02537002       0.00820606 </v>
   <v>       0.00537214       0.00835874       0.00987228 </v>
   <v>      -0.00326128       0.00063531      -0.00828100 </v>
   <v>      -0.00599374      -0.00884954       0.00288004 </v>
   <v>      -0.00384444      -0.01027135      -0.00522546 </v>
   <v>       0.00391382      -0.00751596       0.00442703 </v>
   <v>       0.00710575      -0.00042609      -0.00061031 </v>
   <v>      -0.00895424      -0.00089234       0.01494690 </v>
   <v>      -0.01110987      -0.00869332      -0.00127418 </v>
   <v>       0.00461339      -0.03114885       0.00877355 </v>
   <v>      -0.00626706      -0.00182336      -0.01029455 </v>
   <v>       0.00899806       0.00818239       0.01526530 </v>
   <v>       0.02278398       0.01191322      -0.02114203 </v>
   <v>      -0.01074601      -0.00461029      -0.00046419 </v>
   <v>      -0.00673496       0.00300076       0.00327604 </v>
   <v>       0.02112543      -0.00307640      -0.00081908 </v>
   <v>      -0.01742557       0.00664178      -0.01482128 </v>
   <v>      -0.02140875       0.00281117       0.00529671 </v>
   <v>       0.00108899       0.01941946      -0.02494637 </v>
   <v>       0.00172081       0.00722707       0.00541536 </v>
   <v>       0.00151008      -0.00988693       0.00631024 </v>
   <v>       0.00712941       0.00570947       0.00551120 </v>
  </varray>
  <varray name="stress" >
   <v>      -0.49324427      -0.03559118       0.06652314 </v>
   <v>      -0.03559119      -0.86427841      -0.11863757 </v>
   <v>       0.06652317      -0.11863748      -0.81240645 </v>
  </varray>
  <energy>
   <i name="e_fr_energy">   -372.02017307 </i>
   <i name="e_wo_entrp">   -372.02681318 </i>
   <i name="e_0_energy">      0.01992032 </i>
  </energy>
  <time name="totalsc">    8.19    8.98</time>
 </calculation>
 <calculation>
  <scstep>
   <time name="dav">    0.97    0.98</time>
   <time name="total">    1.05    1.26</time>
   <energy>
    <i name="alphaZ">   1580.41660699 </i>
    <i name="ewald"> -20040.09402423 </i>
    <i name="hartreedc">  -6179.00853115 </i>
    <i name="XCdc">   -355.39045426 </i>
    <i name="pawpsdc">  33969.25777458 </i>
    <i name="pawaedc"> -32287.59606171 </i>
    <i name="eentropy">      0.01995273 </i>
    <i name="bandstr">  -2490.73925506 </i>
    <i name="atom">  25431.11378281 </i>
    <i name="e_fr_energy">   -372.02020930 </i>
    <i name="e_wo_entrp">   -372.04016203 </i>
    <i name="e_0_energy">   -372.02686021 </i>
   </energy>
  </scstep>
  <scstep>
   <time name="diag">    0.08    0.08</time>
   <time name="diis">    0.71    0.72</time>
   <time name="orth">    0.01    0.01</time>
   <time name="total">    0.87    0.91</time>
   <energy>
    <i name="e_fr_energy">   -372.02033495 </i>
    <i name="e_wo_entrp">   -372.04019699 </i>
    <i name="e_0_energy">   -372.02695563 </i>
   </energy>
  </scstep>
  <scstep>
   <time name="diag">    0.08    0.08</time>
   <time name="diis">    0.77    0.79</time>
   <time name="orth">    0.01    0.02</time>
   <time name="total">    0.93    1.00</time>
   <energy>
    <i name="e_fr_energy">   -372.02025845 </i>
    <i name="e_wo_entrp">   -372.04028040 </i>
    <i name="e_0_energy">   -372.02693243 </i>
[...]
       <r>    6.8821    1.0000 </r>
       <r>    6.9204    1.0000 </r>
       <r>    6.9668    1.0000 </r>
       <r>    7.0057    1.0000 </r>
       <r>    7.0466    1.0000 </r>
       <r>    7.0682    1.0000 </r>
       <r>    7.1173    1.0000 </r>
       <r>    7.1772    1.0002 </r>
       <r>    7.1953    1.0003 </r>
       <r>    7.2355    1.0012 </r>
       <r>    7.2693    1.0030 </r>
       <r>    7.3110    1.0081 </r>
       <r>    7.3296    1.0118 </r>
       <r>    7.3846    1.0273 </r>
       <r>    7.3981    1.0311 </r>
       <r>    7.4161    1.0347 </r>
       <r>    7.4507    1.0307 </r>
       <r>    7.4678    1.0195 </r>
       <r>    7.4883    0.9939 </r>
       <r>    7.5251    0.9064 </r>
       <r>    7.5591    0.7728 </r>
       <r>    7.6079    0.5155 </r>
       <r>    7.6322    0.3801 </r>
       <r>    7.6954    0.0962 </r>
       <r>    7.7254    0.0195 </r>
       <r>    7.7526   -0.0186 </r>
       <r>    7.7778   -0.0333 </r>
       <r>    7.8410   -0.0260 </r>
       <r>    7.8535   -0.0222 </r>
       <r>    7.8985   -0.0103 </r>
       <r>    7.9182   -0.0068 </r>
       <r>    7.9426   -0.0038 </r>
       <r>    7.9866   -0.0011 </r>
       <r>    8.0463   -0.0002 </r>
       <r>    8.0761   -0.0001 </r>
       <r>    8.1211   -0.0000 </r>
       <r>    8.1594   -0.0000 </r>
       <r>    8.2442   -0.0000 </r>
       <r>    8.3261   -0.0000 </r>
       <r>    8.4005   -0.0000 </r>
       <r>    8.4151   -0.0000 </r>
       <r>    8.7092   -0.0000 </r>
       <r>    8.8215   -0.0000 </r>
       <r>    8.8593   -0.0000 </r>
       <r>    9.5292   -0.0000 </r>
       <r>    9.6042   -0.0000 </r>
       <r>    9.6241   -0.0000 </r>
       <r>    9.6712   -0.0000 </r>
       <r>    9.8153   -0.0000 </r>
      </set>
     </set>
    </set>
   </array>
  </eigenvalues>
  <separator name="orbital magnetization" >
   <v name="MAGDIPOLOUT">      0.00000000      0.00000000      0.00000000</v>
  </separator>
  <dos>
   <i name="efermi">      7.61066238 </i>
   <total>
    <array>
     <dimension dim="1">gridpoints</dimension>
     <dimension dim="2">spin</dimension>
     <field>energy</field>
     <field>total</field>
     <field>integrated</field>
     <set>
      <set comment="spin 1">
       <r>   -49.4679     0.0000     0.0000 </r>
       <r>   -49.2609     0.0000     0.0000 </r>
       <r>   -49.0539     0.0000     0.0000 </r>
       <r>   -48.8469     0.0000     0.0000 </r>
       <r>   -48.6398     0.0000     0.0000 </r>
       <r>   -48.4328     0.0000     0.0000 </r>
       <r>   -48.2258     0.0000     0.0000 </r>
       <r>   -48.0188    -0.0000    -0.0000 </r>
       <r>   -47.8118    -0.0000    -0.0000 </r>
       <r>   -47.6047    -0.0000    -0.0000 </r>
       <r>   -47.3977    -0.0000    -0.0000 </r>
       <r>   -47.1907    -0.0000    -0.0000 </r>
       <r>   -46.9837    -0.0359    -0.0074 </r>
       <r>   -46.7766    -0.7956    -0.1721 </r>
       <r>   -46.5696    17.4239     3.4350 </r>
       <r>   -46.3626    66.9442    17.2938 </r>
       <r>   -46.1556    14.1627    20.2258 </r>
       <r>   -45.9486    -1.0847    20.0012 </r>
       <r>   -45.7415    -0.0059    20.0000 </r>
       <r>   -45.5345    -0.0000    20.0000 </r>
       <r>   -45.3275    -0.0000    20.0000 </r>
       <r>   -45.1205     0.0000    20.0000 </r>
       <r>   -44.9135     0.0000    20.0000 </r>
       <r>   -44.7064     0.0000    20.0000 </r>
       <r>   -44.4994     0.0000    20.0000 </r>
       <r>   -44.2924     0.0000    20.0000 </r>
       <r>   -44.0854     0.0000    20.0000 </r>
       <r>   -43.8784     0.0000    20.0000 </r>
       <r>   -43.6713     0.0000    20.0000 </r>
       <r>   -43.4643     0.0000    20.0000 </r>
       <r>   -43.2573     0.0000    20.0000 </r>
       <r>   -43.0503     0.0000    20.0000 </r>
       <r>   -42.8433     0.0000    20.0000 </r>
       <r>   -42.6362     0.0000    20.0000 </r>
       <r>   -42.4292     0.0000    20.0000 </r>
       <r>   -42.2222     0.0000    20.0000 </r>
       <r>   -42.0152     0.0000    20.0000 </r>
       <r>   -41.8081    -0.0000    20.0000 </r>
       <r>   -41.6011    -0.0000    20.0000 </r>
       <r>   -41.3941    -0.0000    20.0000 </r>
       <r>   -41.1871    -0.0000    20.0000 </r>
       <r>   -40.9801    -0.0070    19.9985 </r>
       <r>   -40.7730    -0.6926    19.8552 </r>
       <r>   -40.5660     9.7260    21.8686 </r>
       <r>   -40.3590    44.9951    31.1836 </r>
       <r>   -40.1520     4.3771    32.0897 </r>
       <r>   -39.9450    -0.4321    32.0002 </r>
       <r>   -39.7379    -0.0012    32.0000 </r>
       <r>   -39.5309    -0.0000    32.0000 </r>
       <r>   -39.3239    -0.0000    32.0000 </r>
       <r>   -39.1169     0.0000    32.0000 </r>
       <r>   -38.9099     0.0000    32.0000 </r>
       <r>   -38.7028     0.0000    32.0000 </r>
       <r>   -38.4958     0.0000    32.0000 </r>
       <r>   -38.2888     0.0000    32.0000 </r>
       <r>   -38.0818     0.0000    32.0000 </r>
       <r>   -37.8748     0.0000    32.0000 </r>
       <r>   -37.6677     0.0000    32.0000 </r>
       <r>   -37.4607     0.0000    32.0000 </r>
       <r>   -37.2537     0.0000    32.0000 </r>
       <r>   -37.0467     0.0000    32.0000 </r>
       <r>   -36.8397     0.0000    32.0000 </r>
       <r>   -36.6326     0.0000    32.0000 </r>
       <r>   -36.4256     0.0000    32.0000 </r>
       <r>   -36.2186     0.0000    32.0000 </r>
       <r>   -36.0116     0.0000    32.0000 </r>
       <r>   -35.8045     0.0000    32.0000 </r>
       <r>   -35.5975     0.0000    32.0000 </r>
       <r>   -35.3905     0.0000    32.0000 </r>
       <r>   -35.1835     0.0000    32.0000 </r>
       <r>   -34.9765     0.0000    32.0000 </r>
       <r>   -34.7694     0.0000    32.0000 </r>
       <r>   -34.5624     0.0000    32.0000 </r>
       <r>   -34.3554     0.0000    32.0000 </r>
       <r>   -34.1484     0.0000    32.0000 </r>
       <r>   -33.9414     0.0000    32.0000 </r>
       <r>   -33.7343     0.0000    32.0000 </r>
       <r>   -33.5273     0.0000    32.0000 </r>
       <r>   -33.3203     0.0000    32.0000 </r>
       <r>   -33.1133     0.0000    32.0000 </r>
       <r>   -32.9063     0.0000    32.0000 </r>
       <r>   -32.6992     0.0000    32.0000 </r>
       <r>   -32.4922     0.0000    32.0000 </r>
       <r>   -32.2852     0.0000    32.0000 </r>
       <r>   -32.0782     0.0000    32.0000 </r>
       <r>   -31.8712     0.0000    32.0000 </r>
       <r>   -31.6641     0.0000    32.0000 </r>
       <r>   -31.4571     0.0000    32.0000 </r>
       <r>   -31.2501     0.0000    32.0000 </r>
       <r>   -31.0431     0.0000    32.0000 </r>
       <r>   -30.8360     0.0000    32.0000 </r>
       <r>   -30.6290     0.0000    32.0000 </r>
       <r>   -30.4220     0.0000    32.0000 </r>
       <r>   -30.2150     0.0000    32.0000 </r>
       <r>   -30.0080     0.0000    32.0000 </r>
       <r>   -29.8009     0.0000    32.0000 </r>
       <r>   -29.5939     0.0000    32.0000 </r>
       <r>   -29.3869     0.0000    32.0000 </r>
       <r>   -29.1799     0.0000    32.0000 </r>
       <r>   -28.9729     0.0000    32.0000 </r>
       <r>   -28.7658     0.0000    32.0000 </r>
       <r>   -28.5588     0.0000    32.0000 </r>
       <r>   -28.3518     0.0000    32.0000 </r>
       <r>   -28.1448     0.0000    32.0000 </r>
       <r>   -27.9378     0.0000    32.0000 </r>
       <r>   -27.7307     0.0000    32.0000 </r>
       <r>   -27.5237     0.0000    32.0000 </r>
       <r>   -27.3167     0.0000    32.0000 </r>
       <r>   -27.1097     0.0000    32.0000 </r>
       <r>   -26.9027     0.0000    32.0000 </r>
       <r>   -26.6956     0.0000    32.0000 </r>
       <r>   -26.4886     0.0000    32.0000 </r>
       <r>   -26.2816     0.0000    32.0000 </r>
       <r>   -26.0746     0.0000    32.0000 </r>
       <r>   -25.8676     0.0000    32.0000 </r>
       <r>   -25.6605     0.0000    32.0000 </r>
       <r>   -25.4535     0.0000    32.0000 </r>
       <r>   -25.2465     0.0000    32.0000 </r>
       <r>   -25.0395     0.0000    32.0000 </r>
       <r>   -24.8324     0.0000    32.0000 </r>
       <r>   -24.6254     0.0000    32.0000 </r>
       <r>   -24.4184     0.0000    32.0000 </r>
       <r>   -24.2114    -0.0000    32.0000 </r>
       <r>   -24.0044    -0.0000    32.0000 </r>
       <r>   -23.7973    -0.0000    32.0000 </r>
       <r>   -23.5903    -0.0000    32.0000 </r>
       <r>   -23.3833    -0.0115    31.9976 </r>
       <r>   -23.1763    -0.7951    31.8330 </r>
       <r>   -22.9693    12.6359    34.4489 </r>
       <r>   -22.7622    26.9520    40.0285 </r>
       <r>   -22.5552   141.8877    69.4022 </r>
       <r>   -22.3482    98.1385    89.7189 </r>
       <r>   -22.1412    11.6434    92.1294 </r>
       <r>   -21.9342    -0.5882    92.0076 </r>
       <r>   -21.7271    -0.0367    92.0000 </r>
       <r>   -21.5201    -0.0000    92.0000 </r>
       <r>   -21.3131    -0.0000    92.0000 </r>
       <r>   -21.1061     0.0000    92.0000 </r>
       <r>   -20.8991     0.0000    92.0000 </r>
       <r>   -20.6920     0.0000    92.0000 </r>
       <r>   -20.4850     0.0000    92.0000 </r>
       <r>   -20.2780     0.0000    92.0000 </r>
       <r>   -20.0710    -0.0000    92.0000 </r>
       <r>   -19.8639    -0.0000    92.0000 </r>
       <r>   -19.6569    -0.0000    92.0000 </r>
       <r>   -19.4499    -0.0000    92.0000 </r>
       <r>   -19.2429    -0.0108    91.9978 </r>
       <r>   -19.0359    -0.7926    91.8337 </r>
       <r>   -18.8288    10.2496    93.9555 </r>
       <r>   -18.6218    68.7874   108.1960 </r>
       <r>   -18.4148    76.5878   124.0512 </r>
       <r>   -18.2078    19.8048   128.1512 </r>
       <r>   -18.0008    -0.6746   128.0115 </r>
       <r>   -17.7937    -0.0557   128.0000 </r>
       <r>   -17.5867    -0.0000   128.0000 </r>
       <r>   -17.3797    -0.0000   128.0000 </r>
       <r>   -17.1727     0.0000   128.0000 </r>
       <r>   -16.9657     0.0000   128.0000 </r>
       <r>   -16.7586     0.0000   128.0000 </r>
       <r>   -16.5516     0.0000   128.0000 </r>
       <r>   -16.3446     0.0000   128.0000 </r>
       <r>   -16.1376     0.0000   128.0000 </r>
       <r>   -15.9306     0.0000   128.0000 </r>
       <r>   -15.7235     0.0000   128.0000 </r>
       <r>   -15.5165     0.0000   128.0000 </r>
       <r>   -15.3095     0.0000   128.0000 </r>
       <r>   -15.1025     0.0000   128.0000 </r>
       <r>   -14.8955     0.0000   128.0000 </r>
       <r>   -14.6884     0.0000   128.0000 </r>
       <r>   -14.4814     0.0000   128.0000 </r>
       <r>   -14.2744     0.0000   128.0000 </r>
       <r>   -14.0674     0.0000   128.0000 </r>
       <r>   -13.8603     0.0000   128.0000 </r>
       <r>   -13.6533     0.0000   128.0000 </r>
       <r>   -13.4463     0.0000   128.0000 </r>
       <r>   -13.2393     0.0000   128.0000 </r>
       <r>   -13.0323     0.0000   128.0000 </r>
       <r>   -12.8252     0.0000   128.0000 </r>
       <r>   -12.6182     0.0000   128.0000 </r>
       <r>   -12.4112     0.0000   128.0000 </r>
       <r>   -12.2042     0.0000   128.0000 </r>
       <r>   -11.9972     0.0000   128.0000 </r>
       <r>   -11.7901     0.0000   128.0000 </r>
       <r>   -11.5831     0.0000   128.0000 </r>
       <r>   -11.3761     0.0000   128.0000 </r>
       <r>   -11.1691     0.0000   128.0000 </r>
       <r>   -10.9621     0.0000   128.0000 </r>
       <r>   -10.7550     0.0000   128.0000 </r>
       <r>   -10.5480     0.0000   128.0000 </r>
       <r>   -10.3410     0.0000   128.0000 </r>
       <r>   -10.1340     0.0000   128.0000 </r>
       <r>    -9.9270     0.0000   128.0000 </r>
       <r>    -9.7199     0.0000   128.0000 </r>
       <r>    -9.5129     0.0000   128.0000 </r>
       <r>    -9.3059     0.0000   128.0000 </r>
       <r>    -9.0989     0.0000   128.0000 </r>
       <r>    -8.8918     0.0000   128.0000 </r>
       <r>    -8.6848     0.0000   128.0000 </r>
       <r>    -8.4778     0.0000   128.0000 </r>
       <r>    -8.2708     0.0000   128.0000 </r>
       <r>    -8.0638     0.0000   128.0000 </r>
       <r>    -7.8567     0.0000   128.0000 </r>
       <r>    -7.6497     0.0000   128.0000 </r>
       <r>    -7.4427     0.0000   128.0000 </r>
       <r>    -7.2357     0.0000   128.0000 </r>
       <r>    -7.0287     0.0000   128.0000 </r>
       <r>    -6.8216     0.0000   128.0000 </r>
       <r>    -6.6146     0.0000   128.0000 </r>
       <r>    -6.4076     0.0000   128.0000 </r>
       <r>    -6.2006     0.0000   128.0000 </r>
       <r>    -5.9936     0.0000   128.0000 </r>
       <r>    -5.7865     0.0000   128.0000 </r>
       <r>    -5.5795     0.0000   128.0000 </r>
       <r>    -5.3725     0.0000   128.0000 </r>
       <r>    -5.1655     0.0000   128.0000 </r>
       <r>    -4.9585     0.0000   128.0000 </r>
       <r>    -4.7514     0.0000   128.0000 </r>
       <r>    -4.5444     0.0000   128.0000 </r>
       <r>    -4.3374     0.0000   128.0000 </r>
       <r>    -4.1304     0.0000   128.0000 </r>
       <r>    -3.9234     0.0000   128.0000 </r>
       <r>    -3.7163     0.0000   128.0000 </r>
       <r>    -3.5093     0.0000   128.0000 </r>
       <r>    -3.3023     0.0000   128.0000 </r>
       <r>    -3.0953     0.0000   128.0000 </r>
       <r>    -2.8882     0.0000   128.0000 </r>
       <r>    -2.6812     0.0000   128.0000 </r>
       <r>    -2.4742     0.0000   128.0000 </r>
       <r>    -2.2672     0.0000   128.0000 </r>
       <r>    -2.0602     0.0000   128.0000 </r>
       <r>    -1.8531     0.0000   128.0000 </r>
       <r>    -1.6461     0.0000   128.0000 </r>
       <r>    -1.4391     0.0000   128.0000 </r>
       <r>    -1.2321     0.0000   128.0000 </r>
       <r>    -1.0251     0.0000   128.0000 </r>
       <r>    -0.8180     0.0000   128.0000 </r>
       <r>    -0.6110    -0.0000   128.0000 </r>
       <r>    -0.4040    -0.0000   128.0000 </r>
       <r>    -0.1970    -0.0000   128.0000 </r>
       <r>     0.0100    -0.0000   128.0000 </r>
       <r>     0.2171    -0.0000   128.0000 </r>
       <r>     0.4241    -0.0006   127.9999 </r>
       <r>     0.6311    -0.0102   127.9978 </r>
       <r>     0.8381     0.2400   128.0474 </r>
       <r>     1.0451     1.0070   128.2559 </r>
       <r>     1.2522     1.5065   128.5678 </r>
       <r>     1.4592     1.7657   128.9333 </r>
       <r>     1.6662     3.1481   129.5850 </r>
       <r>     1.8732     4.2227   130.4592 </r>
       <r>     2.0803     2.0908   130.8921 </r>
       <r>     2.2873     4.1416   131.7495 </r>
       <r>     2.4943     4.2213   132.6234 </r>
       <r>     2.7013     2.6002   133.1617 </r>
       <r>     2.9083     6.4107   134.4888 </r>
       <r>     3.1154     8.6004   136.2693 </r>
       <r>     3.3224     8.4689   138.0225 </r>
       <r>     3.5294     8.9984   139.8854 </r>
       <r>     3.7364    12.1219   142.3949 </r>
       <r>     3.9434    17.7722   146.0741 </r>
       <r>     4.1505    24.3082   151.1064 </r>
       <r>     4.3575    24.4697   156.1721 </r>
       <r>     4.5645    25.5816   161.4680 </r>
       <r>     4.7715    32.6975   168.2371 </r>
       <r>     4.9785    35.8931   175.6677 </r>
       <r>     5.1856    38.6115   183.6611 </r>
       <r>     5.3926    40.5078   192.0471 </r>
       <r>     5.5996    32.6548   198.8073 </r>
       <r>     5.8066    31.0311   205.2314 </r>
       <r>     6.0136    16.0513   208.5543 </r>
       <r>     6.2207    29.8946   214.7431 </r>
       <r>     6.4277    67.6980   228.7580 </r>
       <r>     6.6347    61.9349   241.5798 </r>
       <r>     6.8417    48.5504   251.6308 </r>
       <r>     7.0488    52.4763   262.4945 </r>
       <r>     7.2558    56.2685   274.1432 </r>
       <r>     7.4628    59.1503   286.3885 </r>
       <r>     7.6698    49.5868   296.6540 </r>
       <r>     7.8768    46.8624   306.3555 </r>
       <r>     8.0839    49.3599   316.5740 </r>
       <r>     8.2909    37.4803   324.3332 </r>
       <r>     8.4979    27.0124   329.9254 </r>
       <r>     8.7049    18.5966   333.7752 </r>
       <r>     8.9119    19.3240   337.7757 </r>
       <r>     9.1190    10.8707   340.0262 </r>
       <r>     9.3260    15.5495   343.2453 </r>
       <r>     9.5330    22.4031   347.8832 </r>
       <r>     9.7400    16.0955   351.2153 </r>
       <r>     9.9470     4.0320   352.0500 </r>
       <r>    10.1541    -0.2355   352.0012 </r>
       <r>    10.3611    -0.0058   352.0000 </r>
       <r>    10.5681    -0.0000   352.0000 </r>
       <r>    10.7751    -0.0000   352.0000 </r>
       <r>    10.9821     0.0000   352.0000 </r>
       <r>    11.1892     0.0000   352.0000 </r>
       <r>    11.3962     0.0000   352.0000 </r>
       <r>    11.6032     0.0000   352.0000 </r>
       <r>    11.8102     0.0000   352.0000 </r>
       <r>    12.0172     0.0000   352.0000 </r>
       <r>    12.2243     0.0000   352.0000 </r>
       <r>    12.4313     0.0000   352.0000 </r>
       <r>    12.6383     0.0000   352.0000 </r>
      </set>
     </set>
    </array>
   </total>
  </dos>
 </calculation>
 <structure name="finalpos" >
  <crystal>
   <varray name="basis" >
    <v>       6.80165862       0.00530811      -0.00109985 </v>
    <v>       0.00807552      10.20606336      -0.00631323 </v>
    <v>      -0.00152369      -0.00615782      10.18591308 </v>
   </varray>
   <i name="volume">    707.08661384 </i>
   <varray name="rec_basis" >
    <v>       0.14702306      -0.00011632       0.00002192 </v>
    <v>      -0.00007646       0.09798107       0.00005922 </v>
    <v>       0.00001583       0.00006072       0.09817484 </v>
   </varray>
  </crystal>
  <varray name="positions" >
   <v>       0.74399418       0.16221673       0.49266629 </v>
   <v>       0.75442164       0.83132608       0.82377803 </v>
   <v>       0.49846420       0.34140527       0.99461613 </v>
   <v>       0.24334588       0.17205118       0.17570550 </v>
   <v>       0.00341525       0.33932173       0.66439218 </v>
   <v>       0.24390793       0.83310562       0.50158846 </v>
   <v>       0.75437983       0.14732869       0.82799814 </v>
   <v>       0.76830695       0.48821888       0.17737936 </v>
   <v>       0.50209725       0.66909758       0.32870350 </v>
   <v>       0.24497146       0.14208236       0.83004145 </v>
   <v>       0.00437530       0.34058426       0.98514871 </v>
   <v>       0.50408555       0.99395085       0.01521618 </v>
   <v>       0.49774061       0.34250259       0.67264599 </v>
   <v>       0.49407819       0.66534269       0.00628930 </v>
   <v>       0.50314030       0.99451288       0.32674283 </v>
   <v>       0.99468039       0.99773468       0.33076179 </v>
   <v>       0.25311148       0.16110084       0.49209298 </v>
   <v>       0.00444716       0.00012144       0.65689938 </v>
   <v>       0.99822029       0.66787690       0.33356454 </v>
   <v>       0.00039511       0.66249513       0.66357935 </v>
   <v>       0.49551530       0.99262119       0.65488975 </v>
   <v>       0.50002143       0.66320674       0.66281225 </v>
   <v>       0.00611975       0.33476579       0.34916442 </v>
   <v>       0.49344199       0.33768711       0.34180058 </v>
   <v>       0.75528084       0.83731723       0.50316807 </v>
   <v>       0.23589183       0.48978104       0.17892364 </v>
   <v>       0.24663841       0.50773563       0.49733211 </v>
   <v>       0.24304504       0.52641707       0.82580934 </v>
   <v>       0.00811604       0.67057753       0.00194716 </v>
   <v>       0.22773972       0.83879403       0.17476225 </v>
   <v>       0.75303780       0.50161867       0.49447883 </v>
   <v>       0.77225413       0.83501236       0.17247960 </v>
   <v>       0.99497681       0.98737677       0.01046661 </v>
   <v>       0.75280927       0.16981922       0.17890092 </v>
   <v>       0.24416082       0.83109610       0.82467956 </v>
   <v>       0.75937186       0.52379713       0.82857283 </v>
  </varray>
 </structure>
</modeling>
