       N       E                     dE             d eps       ncg     rms          rms(c)
DAV:   1     0.182897942058E+04    0.18290E+04   -0.10917E+05  5480   0.103E+03
DAV:   2    -0.722819637274E+02   -0.19013E+04   -0.18206E+04  5484   0.367E+02
DAV:   3    -0.336527381829E+03   -0.26425E+03   -0.25039E+03  8744   0.103E+02
DAV:   4    -0.369362318691E+03   -0.32835E+02   -0.31409E+02  8408   0.312E+01
DAV:   5    -0.372708668052E+03   -0.33463E+01   -0.32911E+01  7896   0.100E+01    0.649E+01
RMM:   6    -0.362368528552E+03    0.10340E+02   -0.23440E+01  7250   0.954E+00    0.307E+01
RMM:   7    -0.364486639219E+03   -0.21181E+01   -0.27224E+01  7567   0.798E+00    0.117E+01
RMM:   8    -0.358114974315E+03    0.63717E+01   -0.66022E+00  7524   0.369E+00    0.402E+00
RMM:   9    -0.357902691940E+03    0.21228E+00   -0.24180E+00  7630   0.192E+00    0.278E+00
RMM:  10    -0.357884996310E+03    0.17696E-01   -0.49352E-01  7620   0.108E+00    0.162E+00
RMM:  11    -0.357854620922E+03    0.30375E-01   -0.15768E-01  7597   0.602E-01    0.791E-01
RMM:  12    -0.357849845681E+03    0.47752E-02   -0.69799E-02  7700   0.386E-01    0.427E-01
RMM:  13    -0.357847733418E+03    0.21123E-02   -0.18405E-02  7682   0.185E-01    0.243E-01
RMM:  14    -0.357847852336E+03   -0.11892E-03   -0.83042E-03  7823   0.101E-01    0.157E-01
RMM:  15    -0.357847992128E+03   -0.13979E-03   -0.40523E-03  7663   0.725E-02    0.835E-02
RMM:  16    -0.357848002921E+03   -0.10793E-04   -0.16012E-03  7045   0.424E-02    0.471E-02
RMM:  17    -0.357847988195E+03    0.14726E-04   -0.69104E-04  6390   0.297E-02    0.199E-02
RMM:  18    -0.357848007874E+03   -0.19679E-04   -0.33526E-04  5699   0.190E-02    0.941E-03
RMM:  19    -0.357848014030E+03   -0.61560E-05   -0.11949E-04  5073   0.141E-02    0.575E-03
RMM:  20    -0.357848015141E+03   -0.11105E-05   -0.47612E-05  4001   0.108E-02
   1 F= -.35784802E+03 E0= -.35785584E+03  d E =-.357848E+03
       N       E                     dE             d eps       ncg     rms          rms(c)
DAV:   1    -0.357917824092E+03   -0.69810E-01   -0.25066E+00  6032   0.494E+00    0.187E+00
RMM:   2    -0.357898901064E+03    0.18923E-01   -0.22186E-01  7232   0.117E+00    0.636E-01
RMM:   3    -0.357891045104E+03    0.78560E-02   -0.58175E-02  7719   0.422E-01    0.483E-01
RMM:   4    -0.357884227564E+03    0.68175E-02   -0.14757E-02  7730   0.245E-01    0.252E-01
RMM:   5    -0.357883582147E+03    0.64542E-03   -0.47882E-03  7656   0.131E-01    0.199E-01
RMM:   6    -0.357883773698E+03   -0.19155E-03   -0.18385E-03  8075   0.667E-02    0.124E-01
RMM:   7    -0.357883849232E+03   -0.75534E-04   -0.74110E-04  7380   0.492E-02    0.670E-02
RMM:   8    -0.357883924711E+03   -0.75480E-04   -0.46565E-04  6843   0.297E-02    0.455E-02
RMM:   9    -0.357883978369E+03   -0.53658E-04   -0.14931E-04  6229   0.229E-02    0.321E-02
RMM:  10    -0.357884024532E+03   -0.46162E-04   -0.94730E-05  5160   0.166E-02    0.168E-02
RMM:  11    -0.357884043901E+03   -0.19369E-04   -0.42053E-05  4343   0.137E-02    0.703E-03
RMM:  12    -0.357884049048E+03   -0.51467E-05   -0.22844E-05  3964   0.124E-02
   2 F= -.35788405E+03 E0= -.35789170E+03  d E =-.360339E-01
       N       E                     dE             d eps       ncg     rms          rms(c)
DAV:   1    -0.358055907436E+03   -0.17186E+00   -0.10548E+01  5632   0.101E+01    0.389E+00
RMM:   2    -0.357973745633E+03    0.82162E-01   -0.92421E-01  7182   0.239E+00    0.129E+00
RMM:   3    -0.357942228961E+03    0.31517E-01   -0.24190E-01  7710   0.867E-01    0.989E-01
RMM:   4    -0.357913447238E+03    0.28782E-01   -0.61064E-02  7735   0.501E-01    0.520E-01
RMM:   5    -0.357910899541E+03    0.25477E-02   -0.20389E-02  7719   0.263E-01    0.411E-01
RMM:   6    -0.357911601295E+03   -0.70175E-03   -0.73413E-03  8261   0.138E-01    0.252E-01
RMM:   7    -0.357911861056E+03   -0.25976E-03   -0.32895E-03  8416   0.981E-02    0.137E-01
RMM:   8    -0.357912127058E+03   -0.26600E-03   -0.18578E-03  8343   0.593E-02    0.941E-02
RMM:   9    -0.357912317158E+03   -0.19010E-03   -0.63868E-04  7404   0.426E-02    0.689E-02
RMM:  10    -0.357912472764E+03   -0.15561E-03   -0.37061E-04  6438   0.283E-02    0.377E-02
RMM:  11    -0.357912535890E+03   -0.63127E-04   -0.16966E-04  5849   0.231E-02    0.144E-02
RMM:  12    -0.357912551927E+03   -0.16037E-04   -0.84062E-05  5527   0.169E-02    0.824E-03
RMM:  13    -0.357912556182E+03   -0.42548E-05   -0.30440E-05  4271   0.136E-02
   3 F= -.35791256E+03 E0= -.35791974E+03  d E =-.645410E-01
       N       E                     dE             d eps       ncg     rms          rms(c)
DAV:   1    -0.357940763057E+03   -0.28211E-01   -0.25636E+00  5312   0.430E+00    0.713E-01
RMM:   2    -0.357944351769E+03   -0.35887E-02   -0.95130E-02  7373   0.791E-01    0.321E-01
RMM:   3    -0.357942258755E+03    0.20930E-02   -0.13968E-02  7633   0.219E-01    0.233E-01
RMM:   4    -0.357941309109E+03    0.94965E-03   -0.31851E-03  7720   0.926E-02    0.145E-01
RMM:   5    -0.357941129198E+03    0.17991E-03   -0.13080E-03  7649   0.655E-02    0.881E-02
RMM:   6    -0.357941122442E+03    0.67563E-05   -0.52003E-04  7556   0.353E-02    0.570E-02
RMM:   7    -0.357941103136E+03    0.19306E-04   -0.21343E-04  6570   0.232E-02    0.359E-02
RMM:   8    -0.357941096485E+03    0.66513E-05   -0.82726E-05  5335   0.154E-02
   4 F= -.35794110E+03 E0= -.35794831E+03  d E =-.285403E-01
       N       E                     dE             d eps       ncg     rms          rms(c)
DAV:   1    -0.357980083633E+03   -0.38980E-01   -0.23042E+01  5040   0.129E+01    0.209E+00
RMM:   2    -0.358013755224E+03   -0.33672E-01   -0.86496E-01  7350   0.243E+00    0.935E-01
RMM:   3    -0.357997602564E+03    0.16153E-01   -0.12413E-01  7656   0.667E-01    0.697E-01
RMM:   4    -0.357989456030E+03    0.81465E-02   -0.26541E-02  7689   0.269E-01    0.440E-01
RMM:   5    -0.357987871065E+03    0.15850E-02   -0.11706E-02  7695   0.189E-01    0.270E-01
RMM:   6    -0.357987821185E+03    0.49880E-04   -0.42923E-03  7833   0.106E-01    0.174E-01
RMM:   7    -0.357987750465E+03    0.70720E-04   -0.20411E-03  8469   0.623E-02    0.113E-01
RMM:   8    -0.357987744804E+03    0.56603E-05   -0.83427E-04  7409   0.410E-02    0.550E-02
RMM:   9    -0.357987772229E+03   -0.27424E-04   -0.39839E-04  6861   0.297E-02    0.339E-02
RMM:  10    -0.357987775843E+03   -0.36148E-05   -0.15938E-04  5787   0.203E-02    0.201E-02
RMM:  11    -0.357987774323E+03    0.15207E-05   -0.72959E-05  5246   0.148E-02
   5 F= -.35798777E+03 E0= -.35799497E+03  d E =-.752181E-01
       N       E                     dE             d eps       ncg     rms          rms(c)
DAV:   1    -0.357990272416E+03   -0.24966E-02   -0.20602E+00  5256   0.388E+00    0.633E-01
RMM:   2    -0.357992903659E+03   -0.26312E-02   -0.75354E-02  7357   0.715E-01    0.278E-01
RMM:   3    -0.357991384379E+03    0.15193E-02   -0.10830E-02  7632   0.195E-01    0.204E-01
RMM:   4    -0.357990667880E+03    0.71650E-03   -0.24700E-03  7719   0.816E-02    0.127E-01
RMM:   5    -0.357990543347E+03    0.12453E-03   -0.10582E-03  7710   0.575E-02    0.783E-02
RMM:   6    -0.357990541839E+03    0.15082E-05   -0.40952E-04  7214   0.313E-02    0.515E-02
RMM:   7    -0.357990530421E+03    0.11418E-04   -0.17638E-04  6270   0.209E-02    0.329E-02
RMM:   8    -0.357990524868E+03    0.55532E-05   -0.76938E-05  5058   0.153E-02
   6 F= -.35799052E+03 E0= -.35799768E+03  d E =-.779687E-01
       N       E                     dE             d eps       ncg     rms          rms(c)
DAV:   1    -0.357998956817E+03   -0.84264E-02   -0.56071E-01  5544   0.229E+00    0.602E-01
RMM:   2    -0.357998087834E+03    0.86898E-03   -0.37031E-02  7058   0.501E-01    0.216E-01
RMM:   3    -0.357997229631E+03    0.85820E-03   -0.64879E-03  7608   0.164E-01    0.157E-01
RMM:   4    -0.357996533314E+03    0.69632E-03   -0.17248E-03  7738   0.777E-02    0.848E-02
RMM:   5    -0.357996459732E+03    0.73581E-04   -0.57026E-04  7597   0.457E-02    0.629E-02
RMM:   6    -0.357996457207E+03    0.25256E-05   -0.24501E-04  7103   0.254E-02    0.372E-02
RMM:   7    -0.357996450404E+03    0.68023E-05   -0.94991E-05  5860   0.193E-02
   7 F= -.35799645E+03 E0= -.35800368E+03  d E =-.592554E-02
       N       E                     dE             d eps       ncg     rms          rms(c)
DAV:   1    -0.358014167164E+03   -0.17710E-01   -0.28421E+00  5304   0.515E+00    0.135E+00
RMM:   2    -0.358009596010E+03    0.45712E-02   -0.18811E-01  7105   0.113E+00    0.489E-01
RMM:   3    -0.358005198121E+03    0.43979E-02   -0.33442E-02  7632   0.369E-01    0.357E-01
RMM:   4    -0.358001676543E+03    0.35216E-02   -0.88926E-03  7749   0.176E-01    0.195E-01
RMM:   5    -0.358001312913E+03    0.36363E-03   -0.29835E-03  7630   0.104E-01    0.144E-01
RMM:   6    -0.358001346191E+03   -0.33278E-04   -0.13138E-03  8139   0.575E-02    0.843E-02
RMM:   7    -0.358001350238E+03   -0.40467E-05   -0.53036E-04  7121   0.409E-02    0.421E-02
RMM:   8    -0.358001368123E+03   -0.17885E-04   -0.25343E-04  5936   0.243E-02    0.326E-02
RMM:   9    -0.358001376677E+03   -0.85539E-05   -0.10852E-04  5372   0.193E-02    0.251E-02
RMM:  10    -0.358001378837E+03   -0.21598E-05   -0.49975E-05  4906   0.138E-02
   8 F= -.35800138E+03 E0= -.35800871E+03  d E =-.108540E-01
       N       E                     dE             d eps       ncg     rms          rms(c)
DAV:   1    -0.358005484492E+03   -0.41078E-02   -0.33374E-01  5376   0.173E+00    0.352E-01
RMM:   2    -0.358005644475E+03   -0.15998E-03   -0.17831E-02  7330   0.349E-01    0.136E-01
RMM:   3    -0.358005354095E+03    0.29038E-03   -0.26551E-03  7588   0.104E-01    0.101E-01
RMM:   4    -0.358005120706E+03    0.23339E-03   -0.78657E-04  7745   0.496E-02    0.566E-02
RMM:   5    -0.358005093649E+03    0.27057E-04   -0.28288E-04  7228   0.320E-02    0.408E-02
RMM:   6    -0.358005103483E+03   -0.98343E-05   -0.11145E-04  6491   0.175E-02    0.242E-02
RMM:   7    -0.358005108255E+03   -0.47718E-05   -0.38353E-05  3860   0.131E-02
   9 F= -.35800511E+03 E0= -.35801237E+03  d E =-.372942E-02
       N       E                     dE             d eps       ncg     rms          rms(c)
DAV:   1    -0.358014340124E+03   -0.92366E-02   -0.29981E+00  5264   0.517E+00    0.106E+00
RMM:   2    -0.358015567394E+03   -0.12273E-02   -0.15758E-01  7252   0.104E+00    0.396E-01
RMM:   3    -0.358012911057E+03    0.26563E-02   -0.22547E-02  7549   0.309E-01    0.295E-01
RMM:   4    -0.358010868219E+03    0.20428E-02   -0.66983E-03  7760   0.146E-01    0.163E-01
RMM:   5    -0.358010656100E+03    0.21212E-03   -0.24264E-03  7706   0.926E-02    0.120E-01
RMM:   6    -0.358010724431E+03   -0.68331E-04   -0.96096E-04  8025   0.503E-02    0.732E-02
RMM:   7    -0.358010754440E+03   -0.30009E-04   -0.37130E-04  6922   0.347E-02    0.432E-02
RMM:   8    -0.358010787229E+03   -0.32789E-04   -0.17656E-04  5720   0.212E-02    0.270E-02
RMM:   9    -0.358010808721E+03   -0.21492E-04   -0.88368E-05  5223   0.179E-02    0.188E-02
RMM:  10    -0.358010825260E+03   -0.16540E-04   -0.43125E-05  4628   0.135E-02    0.974E-03
RMM:  11    -0.358010833984E+03   -0.87231E-05   -0.21045E-05  3927   0.117E-02
  10 F= -.35801083E+03 E0= -.35801787E+03  d E =-.945515E-02
       N       E                     dE             d eps       ncg     rms          rms(c)
DAV:   1    -0.358011054166E+03   -0.22891E-03   -0.92756E-02  5520   0.911E-01    0.184E-01
RMM:   2    -0.358011101470E+03   -0.47303E-04   -0.48222E-03  7256   0.182E-01    0.685E-02
RMM:   3    -0.358011026125E+03    0.75344E-04   -0.68332E-04  7508   0.526E-02    0.505E-02
RMM:   4    -0.358010967732E+03    0.58393E-04   -0.20396E-04  7331   0.249E-02    0.278E-02
RMM:   5    -0.358010963844E+03    0.38880E-05   -0.73050E-05  6061   0.161E-02
  11 F= -.35801096E+03 E0= -.35801795E+03  d E =-.958501E-02
       N       E                     dE             d eps       ncg     rms          rms(c)
DAV:   1    -0.358012376492E+03   -0.14088E-02   -0.95013E-02  5160   0.867E-01    0.998E-02
RMM:   2    -0.358012560907E+03   -0.18442E-03   -0.32394E-03  7353   0.155E-01    0.485E-02
RMM:   3    -0.358012520997E+03    0.39910E-04   -0.38276E-04  7193   0.405E-02    0.360E-02
RMM:   4    -0.358012510859E+03    0.10138E-04   -0.98412E-05  5892   0.170E-02    0.237E-02
RMM:   5    -0.358012511774E+03   -0.91514E-06   -0.35871E-05  3940   0.112E-02
  12 F= -.35801251E+03 E0= -.35801949E+03  d E =-.154793E-02
       N       E                     dE             d eps       ncg     rms          rms(c)
DAV:   1    -0.358014850053E+03   -0.23392E-02   -0.85594E-01  5040   0.260E+00    0.310E-01
RMM:   2    -0.358016485648E+03   -0.16356E-02   -0.29244E-02  7470   0.469E-01    0.152E-01
RMM:   3    -0.358016153369E+03    0.33228E-03   -0.35551E-03  7478   0.119E-01    0.108E-01
RMM:   4    -0.358016029279E+03    0.12409E-03   -0.92240E-04  7952   0.493E-02    0.703E-02
RMM:   5    -0.358016008008E+03    0.21271E-04   -0.40046E-04  7773   0.333E-02    0.424E-02
RMM:   6    -0.358016007557E+03    0.45116E-06   -0.15520E-04  6744   0.206E-02    0.257E-02
RMM:   7    -0.358016011422E+03   -0.38654E-05   -0.54392E-05  4458   0.132E-02
  13 F= -.35801601E+03 E0= -.35802296E+03  d E =-.504758E-02
       N       E                     dE             d eps       ncg     rms          rms(c)
DAV:   1    -0.358013479708E+03    0.25278E-02   -0.34267E+00  5040   0.521E+00    0.626E-01
RMM:   2    -0.358019863845E+03   -0.63841E-02   -0.11698E-01  7474   0.937E-01    0.301E-01
RMM:   3    -0.358018576521E+03    0.12873E-02   -0.14029E-02  7473   0.237E-01    0.214E-01
RMM:   4    -0.358018062617E+03    0.51390E-03   -0.36618E-03  8037   0.976E-02    0.138E-01
RMM:   5    -0.358017962025E+03    0.10059E-03   -0.15712E-03  8030   0.666E-02    0.825E-02
RMM:   6    -0.358017951232E+03    0.10793E-04   -0.60461E-04  8092   0.398E-02    0.502E-02
RMM:   7    -0.358017960871E+03   -0.96387E-05   -0.23288E-04  6645   0.221E-02    0.306E-02
RMM:   8    -0.358017971333E+03   -0.10462E-04   -0.89828E-05  5302   0.161E-02    0.179E-02
RMM:   9    -0.358017980000E+03   -0.86669E-05   -0.52097E-05  4637   0.133E-02
  14 F= -.35801798E+03 E0= -.35802486E+03  d E =-.701616E-02
       N       E                     dE             d eps       ncg     rms          rms(c)
DAV:   1    -0.358020457023E+03   -0.24857E-02   -0.19752E-01  5720   0.135E+00    0.388E-01
RMM:   2    -0.358019919773E+03    0.53725E-03   -0.13295E-02  7106   0.290E-01    0.139E-01
RMM:   3    -0.358019561186E+03    0.35859E-03   -0.28160E-03  7719   0.101E-01    0.102E-01
RMM:   4    -0.358019263482E+03    0.29770E-03   -0.75358E-04  7698   0.515E-02    0.556E-02
RMM:   5    -0.358019228136E+03    0.35346E-04   -0.23248E-04  7113   0.304E-02    0.417E-02
RMM:   6    -0.358019222519E+03    0.56173E-05   -0.10309E-04  5921   0.166E-02    0.233E-02
RMM:   7    -0.358019215896E+03    0.66224E-05   -0.35029E-05  3745   0.136E-02
  15 F= -.35801922E+03 E0= -.35802612E+03  d E =-.123590E-02
       N       E                     dE             d eps       ncg     rms          rms(c)
DAV:   1    -0.358024613994E+03   -0.53915E-02   -0.78178E-01  5496   0.268E+00    0.764E-01
RMM:   2    -0.358022485830E+03    0.21282E-02   -0.51799E-02  6907   0.572E-01    0.271E-01
RMM:   3    -0.358021013868E+03    0.14720E-02   -0.10574E-02  7690   0.200E-01    0.196E-01
RMM:   4    -0.358019893074E+03    0.11208E-02   -0.28273E-03  7745   0.100E-01    0.107E-01
RMM:   5    -0.358019785363E+03    0.10771E-03   -0.86065E-04  7600   0.573E-02    0.815E-02
RMM:   6    -0.358019796129E+03   -0.10767E-04   -0.37473E-04  7111   0.306E-02    0.466E-02
RMM:   7    -0.358019794549E+03    0.15800E-05   -0.14545E-04  6267   0.239E-02    0.245E-02
RMM:   8    -0.358019796140E+03   -0.15910E-05   -0.87327E-05  4840   0.156E-02
  16 F= -.35801980E+03 E0= -.35802676E+03  d E =-.181614E-02
       N       E                     dE             d eps       ncg     rms          rms(c)
DAV:   1    -0.358020033087E+03   -0.23854E-03   -0.24423E-02  5736   0.472E-01    0.143E-01
RMM:   2    -0.358019951064E+03    0.82023E-04   -0.16796E-03  7161   0.103E-01    0.544E-02
RMM:   3    -0.358019906622E+03    0.44442E-04   -0.37229E-04  7508   0.363E-02    0.402E-02
RMM:   4    -0.358019862690E+03    0.43932E-04   -0.95722E-05  6493   0.192E-02    0.213E-02
RMM:   5    -0.358019856575E+03    0.61147E-05   -0.20411E-05  2867   0.127E-02
  17 F= -.35801986E+03 E0= -.35802681E+03  d E =-.187657E-02
       N       E                     dE             d eps       ncg     rms          rms(c)
DAV:   1    -0.358020503948E+03   -0.64126E-03   -0.40376E-02  5144   0.565E-01    0.509E-02
RMM:   2    -0.358020572346E+03   -0.68398E-04   -0.12326E-03  7324   0.100E-01    0.262E-02
RMM:   3    -0.358020563447E+03    0.88989E-05   -0.13639E-04  5724   0.277E-02    0.185E-02
RMM:   4    -0.358020560523E+03    0.29242E-05   -0.61773E-05  4522   0.132E-02
  18 F= -.35802056E+03 E0= -.35802749E+03  d E =-.703948E-03
       N       E                     dE             d eps       ncg     rms          rms(c)
DAV:   1    -0.358021565203E+03   -0.10018E-02   -0.36227E-01  5040   0.169E+00    0.151E-01
RMM:   2    -0.358022195562E+03   -0.63036E-03   -0.11217E-02  7384   0.301E-01    0.800E-02
RMM:   3    -0.358022148013E+03    0.47549E-04   -0.15578E-03  7385   0.814E-02    0.588E-02
RMM:   4    -0.358022102348E+03    0.45666E-04   -0.47716E-04  8288   0.328E-02    0.319E-02
RMM:   5    -0.358022097377E+03    0.49710E-05   -0.15501E-04  5718   0.211E-02    0.156E-02
RMM:   6    -0.358022099179E+03   -0.18024E-05   -0.75519E-05  4843   0.148E-02
  19 F= -.35802210E+03 E0= -.35802894E+03  d E =-.224260E-02
       N       E                     dE             d eps       ncg     rms          rms(c)
DAV:   1    -0.358020481799E+03    0.16156E-02   -0.14507E+00  5040   0.339E+00    0.300E-01
RMM:   2    -0.358022987169E+03   -0.25054E-02   -0.44649E-02  7376   0.601E-01    0.159E-01
RMM:   3    -0.358022784930E+03    0.20224E-03   -0.61684E-03  7475   0.161E-01    0.116E-01
RMM:   4    -0.358022598219E+03    0.18671E-03   -0.17242E-03  8449   0.626E-02    0.638E-02
RMM:   5    -0.358022585219E+03    0.12999E-04   -0.68884E-04  7669   0.410E-02    0.323E-02
RMM:   6    -0.358022587819E+03   -0.25998E-05   -0.26923E-04  6557   0.244E-02    0.175E-02
RMM:   7    -0.358022591727E+03   -0.39074E-05   -0.10024E-04  5434   0.154E-02    0.113E-02
RMM:   8    -0.358022592596E+03   -0.86989E-06   -0.31605E-05  4195   0.112E-02
  20 F= -.35802259E+03 E0= -.35802925E+03  d E =-.273602E-02
       N       E                     dE             d eps       ncg     rms          rms(c)
DAV:   1    -0.358022560642E+03    0.31085E-04   -0.20450E-01  5048   0.127E+00    0.112E-01
RMM:   2    -0.358022887702E+03   -0.32706E-03   -0.60830E-03  7187   0.224E-01    0.584E-02
RMM:   3    -0.358022845825E+03    0.41877E-04   -0.73143E-04  7376   0.598E-02    0.427E-02
RMM:   4    -0.358022816130E+03    0.29695E-04   -0.20680E-04  7148   0.225E-02    0.228E-02
RMM:   5    -0.358022812075E+03    0.40548E-05   -0.67983E-05  4789   0.134E-02
  21 F= -.35802281E+03 E0= -.35802954E+03  d E =-.295550E-02
       N       E                     dE             d eps       ncg     rms          rms(c)
DAV:   1    -0.358024068934E+03   -0.12528E-02   -0.88410E-02  5592   0.923E-01    0.310E-01
RMM:   2    -0.358023495751E+03    0.57318E-03   -0.63797E-03  7135   0.204E-01    0.103E-01
RMM:   3    -0.358023331866E+03    0.16389E-03   -0.15891E-03  7699   0.748E-02    0.767E-02
RMM:   4    -0.358023160673E+03    0.17119E-03   -0.41519E-04  7572   0.414E-02    0.419E-02
RMM:   5    -0.358023148399E+03    0.12274E-04   -0.13434E-04  6690   0.224E-02    0.321E-02
RMM:   6    -0.358023162130E+03   -0.13731E-04   -0.46037E-05  3994   0.126E-02    0.185E-02
RMM:   7    -0.358023170563E+03   -0.84326E-05   -0.22392E-05  3158   0.120E-02
  22 F= -.35802317E+03 E0= -.35802986E+03  d E =-.358488E-03
       N       E                     dE             d eps       ncg     rms          rms(c)
DAV:   1    -0.358023653338E+03   -0.49121E-03   -0.44896E-02  5584   0.660E-01    0.220E-01
RMM:   2    -0.358023360282E+03    0.29306E-03   -0.32548E-03  7068   0.147E-01    0.714E-02
RMM:   3    -0.358023278218E+03    0.82065E-04   -0.78463E-04  7653   0.525E-02    0.534E-02
RMM:   4    -0.358023197137E+03    0.81080E-04   -0.21153E-04  7186   0.292E-02    0.298E-02
RMM:   5    -0.358023194349E+03    0.27881E-05   -0.66477E-05  5406   0.175E-02
  23 F= -.35802319E+03 E0= -.35802985E+03  d E =-.382274E-03
       N       E                     dE             d eps       ncg     rms          rms(c)
DAV:   1    -0.358023419245E+03   -0.22211E-03   -0.36380E-02  5112   0.525E-01    0.519E-02
RMM:   2    -0.358023499608E+03   -0.80363E-04   -0.11037E-03  7472   0.930E-02    0.308E-02
RMM:   3    -0.358023491831E+03    0.77773E-05   -0.12912E-04  5304   0.259E-02    0.241E-02
RMM:   4    -0.358023491854E+03   -0.23178E-07   -0.58501E-05  5127   0.142E-02
  24 F= -.35802349E+03 E0= -.35803016E+03  d E =-.297505E-03
       N       E                     dE             d eps       ncg     rms          rms(c)
DAV:   1    -0.358023565550E+03   -0.73720E-04   -0.32694E-01  5040   0.157E+00    0.140E-01
RMM:   2    -0.358024216071E+03   -0.65052E-03   -0.94200E-03  7445   0.274E-01    0.758E-02
RMM:   3    -0.358024156714E+03    0.59357E-04   -0.11882E-03  7366   0.740E-02    0.566E-02
RMM:   4    -0.358024122810E+03    0.33904E-04   -0.31601E-04  7792   0.284E-02    0.341E-02
RMM:   5    -0.358024118960E+03    0.38508E-05   -0.12945E-04  6429   0.188E-02    0.184E-02
RMM:   6    -0.358024115241E+03    0.37182E-05   -0.48974E-05  4285   0.122E-02
  25 F= -.35802412E+03 E0= -.35803081E+03  d E =-.920892E-03
       N       E                     dE             d eps       ncg     rms          rms(c)
DAV:   1    -0.358022293795E+03    0.18252E-02   -0.13091E+00  5040   0.315E+00    0.278E-01
RMM:   2    -0.358024881846E+03   -0.25881E-02   -0.37567E-02  7416   0.547E-01    0.149E-01
RMM:   3    -0.358024610226E+03    0.27162E-03   -0.45846E-03  7463   0.144E-01    0.109E-01
RMM:   4    -0.358024478777E+03    0.13145E-03   -0.11390E-03  8481   0.536E-02    0.666E-02
RMM:   5    -0.358024465440E+03    0.13337E-04   -0.50988E-04  7846   0.372E-02    0.368E-02
RMM:   6    -0.358024451568E+03    0.13872E-04   -0.18326E-04  6580   0.221E-02    0.199E-02
RMM:   7    -0.358024449910E+03    0.16576E-05   -0.54078E-05  4828   0.144E-02
  26 F= -.35802445E+03 E0= -.35803120E+03  d E =-.125556E-02
       N       E                     dE             d eps       ncg     rms          rms(c)
DAV:   1    -0.358025292498E+03   -0.84093E-03   -0.24890E-01  5160   0.141E+00    0.271E-01
RMM:   2    -0.358025375058E+03   -0.82560E-04   -0.10531E-02  7495   0.267E-01    0.116E-01
RMM:   3    -0.358025119822E+03    0.25524E-03   -0.16288E-03  7613   0.756E-02    0.814E-02
RMM:   4    -0.358024963925E+03    0.15590E-03   -0.47663E-04  7610   0.399E-02    0.449E-02
RMM:   5    -0.358024942054E+03    0.21871E-04   -0.17153E-04  7067   0.243E-02    0.320E-02
RMM:   6    -0.358024936174E+03    0.58805E-05   -0.60779E-05  4778   0.130E-02
  27 F= -.35802494E+03 E0= -.35803169E+03  d E =-.486263E-03
       N       E                     dE             d eps       ncg     rms          rms(c)
DAV:   1    -0.358025431390E+03   -0.48934E-03   -0.26766E-01  5136   0.146E+00    0.279E-01
RMM:   2    -0.358025510885E+03   -0.79495E-04   -0.11301E-02  7500   0.277E-01    0.119E-01
RMM:   3    -0.358025231222E+03    0.27966E-03   -0.17431E-03  7601   0.782E-02    0.841E-02
RMM:   4    -0.358025068887E+03    0.16234E-03   -0.52422E-04  7595   0.415E-02    0.476E-02
RMM:   5    -0.358025046835E+03    0.22051E-04   -0.19773E-04  7161   0.256E-02    0.346E-02
RMM:   6    -0.358025042576E+03    0.42596E-05   -0.71987E-05  5032   0.139E-02
  28 F= -.35802504E+03 E0= -.35803179E+03  d E =-.592665E-03
       N       E                     dE             d eps       ncg     rms          rms(c)
DAV:   1    -0.358025490391E+03   -0.44356E-03   -0.11869E-01  5104   0.961E-01    0.159E-01
RMM:   2    -0.358025581118E+03   -0.90727E-04   -0.44833E-03  7515   0.179E-01    0.725E-02
RMM:   3    -0.358025537369E+03    0.43749E-04   -0.72100E-04  7546   0.508E-02    0.482E-02
RMM:   4    -0.358025497044E+03    0.40325E-04   -0.21453E-04  7099   0.250E-02    0.282E-02
RMM:   5    -0.358025488813E+03    0.82315E-05   -0.80394E-05  5517   0.143E-02
  29 F= -.35802549E+03 E0= -.35803219E+03  d E =-.446237E-03
       N       E                     dE             d eps       ncg     rms          rms(c)
DAV:   1    -0.358025921012E+03   -0.42397E-03   -0.64126E-01  5040   0.223E+00    0.354E-01
RMM:   2    -0.358026394582E+03   -0.47357E-03   -0.23384E-02  7510   0.408E-01    0.160E-01
RMM:   3    -0.358026103441E+03    0.29114E-03   -0.33996E-03  7546   0.110E-01    0.108E-01
RMM:   4    -0.358025894565E+03    0.20888E-03   -0.10206E-03  7551   0.546E-02    0.639E-02
RMM:   5    -0.358025860331E+03    0.34235E-04   -0.44072E-04  7754   0.339E-02    0.435E-02
RMM:   6    -0.358025861925E+03   -0.15947E-05   -0.14076E-04  6140   0.194E-02    0.262E-02
RMM:   7    -0.358025869437E+03   -0.75115E-05   -0.64612E-05  4889   0.146E-02
  30 F= -.35802587E+03 E0= -.35803245E+03  d E =-.826861E-03
       N       E                     dE             d eps       ncg     rms          rms(c)
DAV:   1    -0.358025988794E+03   -0.12687E-03   -0.25336E-02  5376   0.441E-01    0.403E-02
RMM:   2    -0.358026037447E+03   -0.48653E-04   -0.78802E-04  7243   0.780E-02    0.230E-02
RMM:   3    -0.358026030142E+03    0.73050E-05   -0.89123E-05  5049   0.224E-02
  31 F= -.35802603E+03 E0= -.35803262E+03  d E =-.160705E-03
       N       E                     dE             d eps       ncg     rms          rms(c)
DAV:   1    -0.358026088570E+03   -0.51123E-04   -0.22752E-01  5048   0.132E+00    0.124E-01
RMM:   2    -0.358026483743E+03   -0.39517E-03   -0.69674E-03  7411   0.230E-01    0.687E-02
RMM:   3    -0.358026429645E+03    0.54098E-04   -0.92780E-04  7334   0.616E-02    0.528E-02
RMM:   4    -0.358026391307E+03    0.38338E-04   -0.28716E-04  7510   0.271E-02    0.276E-02
RMM:   5    -0.358026389208E+03    0.20992E-05   -0.10793E-04  5883   0.171E-02    0.144E-02
RMM:   6    -0.358026390598E+03   -0.13899E-05   -0.38043E-05  3870   0.112E-02
  32 F= -.35802639E+03 E0= -.35803300E+03  d E =-.521161E-03
       N       E                     dE             d eps       ncg     rms          rms(c)
DAV:   1    -0.358025395564E+03    0.99364E-03   -0.91084E-01  5040   0.265E+00    0.240E-01
RMM:   2    -0.358027067105E+03   -0.16715E-02   -0.27401E-02  7420   0.461E-01    0.133E-01
RMM:   3    -0.358026817411E+03    0.24969E-03   -0.35273E-03  7479   0.123E-01    0.101E-01
RMM:   4    -0.358026654159E+03    0.16325E-03   -0.98151E-04  8253   0.514E-02    0.522E-02
RMM:   5    -0.358026646026E+03    0.81325E-05   -0.40792E-04  7566   0.331E-02    0.273E-02
RMM:   6    -0.358026646953E+03   -0.92649E-06   -0.12579E-04  5281   0.179E-02    0.155E-02
RMM:   7    -0.358026651085E+03   -0.41319E-05   -0.71313E-05  4660   0.146E-02
  33 F= -.35802665E+03 E0= -.35803328E+03  d E =-.781648E-03
       N       E                     dE             d eps       ncg     rms          rms(c)
DAV:   1    -0.358026829439E+03   -0.18249E-03   -0.27638E-02  5584   0.478E-01    0.988E-02
RMM:   2    -0.358026846326E+03   -0.16887E-04   -0.12828E-03  7463   0.927E-02    0.391E-02
RMM:   3    -0.358026825875E+03    0.20451E-04   -0.22585E-04  7062   0.276E-02    0.287E-02
RMM:   4    -0.358026805951E+03    0.19924E-04   -0.69115E-05  5906   0.161E-02    0.159E-02
RMM:   5    -0.358026802606E+03    0.33441E-05   -0.20461E-05  3130   0.105E-02
  34 F= -.35802680E+03 E0= -.35803345E+03  d E =-.151522E-03
       N       E                     dE             d eps       ncg     rms          rms(c)
DAV:   1    -0.358027325837E+03   -0.51989E-03   -0.24763E-01  5264   0.143E+00    0.286E-01
RMM:   2    -0.358027410502E+03   -0.84665E-04   -0.10982E-02  7263   0.276E-01    0.111E-01
RMM:   3    -0.358027192787E+03    0.21771E-03   -0.17272E-03  7563   0.840E-02    0.809E-02
RMM:   4    -0.358027026603E+03    0.16618E-03   -0.48930E-04  7713   0.410E-02    0.442E-02
RMM:   5    -0.358027009396E+03    0.17207E-04   -0.16830E-04  6929   0.244E-02    0.326E-02
RMM:   6    -0.358027002267E+03    0.71285E-05   -0.60674E-05  4863   0.132E-02
  35 F= -.35802700E+03 E0= -.35803368E+03  d E =-.351183E-03
       N       E                     dE             d eps       ncg     rms          rms(c)
DAV:   1    -0.358027019497E+03   -0.10101E-04   -0.19073E-02  5312   0.398E-01    0.766E-02
RMM:   2    -0.358027028433E+03   -0.89352E-05   -0.85637E-04  7236   0.766E-02    0.304E-02
RMM:   3    -0.358027008120E+03    0.20312E-04   -0.13482E-04  6545   0.239E-02    0.222E-02
RMM:   4    -0.358026995270E+03    0.12850E-04   -0.34501E-05  3953   0.136E-02    0.143E-02
RMM:   5    -0.358026992987E+03    0.22829E-05   -0.13471E-05  2942   0.105E-02
  36 F= -.35802699E+03 E0= -.35803368E+03  d E =-.341903E-03
       N       E                     dE             d eps       ncg     rms          rms(c)
DAV:   1    -0.358027083545E+03   -0.88275E-04   -0.48242E-02  5072   0.609E-01    0.483E-02
RMM:   2    -0.358027179074E+03   -0.95529E-04   -0.13807E-03  7357   0.105E-01    0.265E-02
RMM:   3    -0.358027169582E+03    0.94915E-05   -0.15065E-04  5596   0.288E-02    0.201E-02
RMM:   4    -0.358027166889E+03    0.26935E-05   -0.63011E-05  4913   0.133E-02
  37 F= -.35802717E+03 E0= -.35803383E+03  d E =-.173902E-03
       N       E                     dE             d eps       ncg     rms          rms(c)
DAV:   1    -0.358026787401E+03    0.38218E-03   -0.43383E-01  5040   0.183E+00    0.140E-01
RMM:   2    -0.358027655235E+03   -0.86783E-03   -0.12147E-02  7347   0.311E-01    0.773E-02
RMM:   3    -0.358027597251E+03    0.57984E-04   -0.15356E-03  7380   0.854E-02    0.589E-02
RMM:   4    -0.358027557553E+03    0.39697E-04   -0.39136E-04  8051   0.316E-02    0.341E-02
RMM:   5    -0.358027553822E+03    0.37310E-05   -0.15068E-04  6275   0.202E-02    0.177E-02
RMM:   6    -0.358027553502E+03    0.31984E-06   -0.58955E-05  4376   0.137E-02
  38 F= -.35802755E+03 E0= -.35803417E+03  d E =-.560515E-03
       N       E                     dE             d eps       ncg     rms          rms(c)
DAV:   1    -0.358024696246E+03    0.28576E-02   -0.17361E+00  5040   0.366E+00    0.279E-01
RMM:   2    -0.358028153742E+03   -0.34575E-02   -0.48427E-02  7319   0.621E-01    0.152E-01
RMM:   3    -0.358027886353E+03    0.26739E-03   -0.59534E-03  7465   0.169E-01    0.114E-01
RMM:   4    -0.358027734173E+03    0.15218E-03   -0.14517E-03  8570   0.606E-02    0.674E-02
RMM:   5    -0.358027718174E+03    0.15999E-04   -0.61744E-04  7841   0.399E-02    0.358E-02
RMM:   6    -0.358027714601E+03    0.35729E-05   -0.21283E-04  6580   0.236E-02    0.179E-02
RMM:   7    -0.358027717628E+03   -0.30270E-05   -0.71922E-05  5112   0.150E-02
  39 F= -.35802772E+03 E0= -.35803423E+03  d E =-.724641E-03
       N       E                     dE             d eps       ncg     rms          rms(c)
DAV:   1    -0.358027346103E+03    0.36850E-03   -0.26238E-01  5040   0.142E+00    0.109E-01
RMM:   2    -0.358027847356E+03   -0.50125E-03   -0.71066E-03  7036   0.241E-01    0.572E-02
RMM:   3    -0.358027793956E+03    0.53400E-04   -0.77187E-04  7265   0.667E-02    0.437E-02
RMM:   4    -0.358027765737E+03    0.28218E-04   -0.18360E-04  7125   0.224E-02    0.252E-02
RMM:   5    -0.358027760852E+03    0.48852E-05   -0.70332E-05  5578   0.136E-02
  40 F= -.35802776E+03 E0= -.35803431E+03  d E =-.767865E-03
       N       E                     dE             d eps       ncg     rms          rms(c)
DAV:   1    -0.358028221417E+03   -0.45568E-03   -0.49326E-02  5344   0.669E-01    0.195E-01
RMM:   2    -0.358028036421E+03    0.18500E-03   -0.30784E-03  7373   0.145E-01    0.687E-02
RMM:   3    -0.358027962968E+03    0.73453E-04   -0.65589E-04  7674   0.472E-02    0.511E-02
RMM:   4    -0.358027890483E+03    0.72485E-04   -0.17509E-04  7389   0.261E-02    0.270E-02
RMM:   5    -0.358027884470E+03    0.60132E-05   -0.52312E-05  5549   0.150E-02
  41 F= -.35802788E+03 E0= -.35803440E+03  d E =-.123618E-03
       N       E                     dE             d eps       ncg     rms          rms(c)
DAV:   1    -0.358028027477E+03   -0.13699E-03   -0.20569E-02  5424   0.433E-01    0.120E-01
RMM:   2    -0.358027953434E+03    0.74043E-04   -0.12667E-03  7450   0.926E-02    0.431E-02
RMM:   3    -0.358027922070E+03    0.31364E-04   -0.26317E-04  7255   0.297E-02    0.330E-02
RMM:   4    -0.358027897171E+03    0.24900E-04   -0.71910E-05  5813   0.176E-02    0.200E-02
RMM:   5    -0.358027897335E+03   -0.16468E-06   -0.20885E-05  3053   0.118E-02
  42 F= -.35802790E+03 E0= -.35803440E+03  d E =-.136483E-03
       N       E                     dE             d eps       ncg     rms          rms(c)
DAV:   1    -0.358027999058E+03   -0.10189E-03   -0.20661E-02  5096   0.403E-01    0.530E-02
RMM:   2    -0.358028030926E+03   -0.31868E-04   -0.72377E-04  7516   0.739E-02    0.273E-02
RMM:   3    -0.358028026694E+03    0.42321E-05   -0.10131E-04  4769   0.211E-02    0.203E-02
RMM:   4    -0.358028022010E+03    0.46834E-05   -0.46682E-05  4631   0.135E-02
  43 F= -.35802802E+03 E0= -.35803452E+03  d E =-.124675E-03
       N       E                     dE             d eps       ncg     rms          rms(c)
DAV:   1    -0.358028051568E+03   -0.24874E-04   -0.18568E-01  5040   0.121E+00    0.146E-01
RMM:   2    -0.358028308286E+03   -0.25672E-03   -0.61917E-03  7506   0.217E-01    0.748E-02
RMM:   3    -0.358028260332E+03    0.47954E-04   -0.95176E-04  7444   0.584E-02    0.568E-02
RMM:   4    -0.358028200058E+03    0.60274E-04   -0.28418E-04  7330   0.288E-02    0.303E-02
RMM:   5    -0.358028194597E+03    0.54609E-05   -0.11967E-04  6335   0.183E-02    0.183E-02
RMM:   6    -0.358028190752E+03    0.38458E-05   -0.40696E-05  3974   0.109E-02
  44 F= -.35802819E+03 E0= -.35803469E+03  d E =-.293416E-03
       N       E                     dE             d eps       ncg     rms          rms(c)
DAV:   1    -0.358028497118E+03   -0.30252E-03   -0.11627E-02  5848   0.358E-01    0.146E-01
RMM:   2    -0.358028348137E+03    0.14898E-03   -0.12204E-03  7432   0.913E-02    0.485E-02
RMM:   3    -0.358028301052E+03    0.47085E-04   -0.32538E-04  7387   0.314E-02    0.368E-02
RMM:   4    -0.358028260101E+03    0.40951E-04   -0.83637E-05  5869   0.200E-02    0.204E-02
RMM:   5    -0.358028251678E+03    0.84234E-05   -0.20068E-05  2948   0.127E-02
  45 F= -.35802825E+03 E0= -.35803477E+03  d E =-.609264E-04
       N       E                     dE             d eps       ncg     rms          rms(c)
DAV:   1    -0.358028301561E+03   -0.41459E-04   -0.25638E-03  5648   0.174E-01    0.645E-02
RMM:   2    -0.358028270608E+03    0.30953E-04   -0.26243E-04  7481   0.436E-02    0.229E-02
RMM:   3    -0.358028256322E+03    0.14286E-04   -0.59564E-05  5998   0.144E-02    0.180E-02
RMM:   4    -0.358028245687E+03    0.10635E-04   -0.13600E-05  2818   0.109E-02    0.126E-02
RMM:   5    -0.358028243830E+03    0.18571E-05   -0.72591E-06  2746   0.985E-03
  46 F= -.35802824E+03 E0= -.35803477E+03  d E =-.530779E-04
