<?xml version="1.0" encoding="ISO-8859-1"?>
<modeling>
 <generator>
  <i name="program" type="string">vasp </i>
  <i name="version" type="string">5.4.1  </i>
  <i name="subversion" type="string">05Feb16 (build Jan 29 2020 16:04:39) complex                          parallel </i>
  <i name="platform" type="string">IFC91_ompi </i>
  <i name="date" type="string">2020 06 15 </i>
  <i name="time" type="string">12:12:04 </i>
 </generator>
 <incar>
  <i type="string" name="SYSTEM"> automatically generated by mexm</i>
  <i type="int" name="ISTART">     0</i>
  <i type="string" name="PREC">accurate               ! avoid wrap aro</i>
  <i type="string" name="ALGO"> Fast                   ! blocked Davids</i>
  <i type="int" name="ISPIN">     1</i>
  <i type="int" name="ICHARG">     2</i>
  <i type="int" name="NELM">    70</i>
  <i type="int" name="IBRION">     2</i>
  <i name="EDIFF">      0.00001000</i>
  <i name="EDIFFG">     -0.01000000</i>
  <i type="int" name="NSW">   300</i>
  <i type="int" name="ISIF">     3</i>
  <i type="int" name="ISYM">     1</i>
  <i name="ENCUT">    300.00000000</i>
  <i name="POTIM">      0.15000000</i>
  <i type="string" name="LREAL"> Auto                  ! unpublished met</i>
  <i type="int" name="ISMEAR">     1</i>
  <i name="SIGMA">      0.15000000</i>
  <i type="logical" name="LWAVE"> F  </i>
  <i type="logical" name="LCHARG"> F  </i>
  <i type="logical" name="LVTOT"> F  </i>
  <v type="int" name="KPOINT_BSE">    -1     0     0     0</v>
  <i type="int" name="NELM">    70</i>
 </incar>
 <kpoints>
  <generation param="Gamma">
   <v type="int" name="divisions">       3        3        3 </v>
   <v name="usershift">      0.00000000       0.00000000       0.00000000 </v>
   <v name="genvec1">      0.33333333       0.00000000      -0.00000000 </v>
   <v name="genvec2">      0.00000000       0.33333333      -0.00000000 </v>
   <v name="genvec3">      0.00000000       0.00000000       0.33333333 </v>
   <v name="shift">      0.00000000       0.00000000       0.00000000 </v>
  </generation>
  <varray name="kpointlist" >
   <v>       0.00000000       0.00000000       0.00000000 </v>
   <v>       0.33333333       0.00000000       0.00000000 </v>
   <v>      -0.00000000       0.33333333       0.00000000 </v>
   <v>       0.33333333       0.33333333       0.00000000 </v>
   <v>      -0.33333333       0.33333333       0.00000000 </v>
   <v>      -0.00000000       0.00000000       0.33333333 </v>
   <v>       0.33333333      -0.00000000       0.33333333 </v>
   <v>      -0.33333333      -0.00000000       0.33333333 </v>
   <v>      -0.00000000       0.33333333       0.33333333 </v>
   <v>       0.33333333       0.33333333       0.33333333 </v>
   <v>      -0.33333333       0.33333333       0.33333333 </v>
   <v>      -0.00000000      -0.33333333       0.33333333 </v>
   <v>       0.33333333      -0.33333333       0.33333333 </v>
   <v>      -0.33333333      -0.33333333       0.33333333 </v>
  </varray>
  <varray name="weights" >
   <v>       0.03703704 </v>
   <v>       0.07407407 </v>
   <v>       0.07407407 </v>
   <v>       0.07407407 </v>
   <v>       0.07407407 </v>
   <v>       0.07407407 </v>
   <v>       0.07407407 </v>
   <v>       0.07407407 </v>
   <v>       0.07407407 </v>
   <v>       0.07407407 </v>
   <v>       0.07407407 </v>
   <v>       0.07407407 </v>
   <v>       0.07407407 </v>
   <v>       0.07407407 </v>
  </varray>
 </kpoints>
 <parameters>
  <separator name="general" >
   <i type="string" name="SYSTEM">automatically generated by mexm</i>
   <i type="logical" name="LCOMPAT"> F  </i>
  </separator>
  <separator name="electronic" >
   <i type="string" name="PREC">accura</i>
   <i name="ENMAX">    300.00000000</i>
   <i name="ENAUG">    461.25700000</i>
   <i name="EDIFF">      0.00001000</i>
   <i type="int" name="IALGO">    68</i>
   <i type="int" name="IWAVPR">    11</i>
   <i type="int" name="NBANDS">   188</i>
   <i name="NELECT">    312.00000000</i>
   <i type="int" name="TURBO">     0</i>
   <i type="int" name="IRESTART">     0</i>
   <i type="int" name="NREBOOT">     0</i>
   <i type="int" name="NMIN">     0</i>
   <i name="EREF">      0.00000000</i>
   <separator name="electronic smearing" >
    <i type="int" name="ISMEAR">     1</i>
    <i name="SIGMA">      0.15000000</i>
    <i name="KSPACING">      0.50000000</i>
    <i type="logical" name="KGAMMA"> T  </i>
   </separator>
   <separator name="electronic projectors" >
    <i type="logical" name="LREAL"> T  </i>
    <v name="ROPT">     -0.00025000     -0.00025000     -0.00025000     -0.00025000</v>
    <i type="int" name="LMAXPAW">  -100</i>
    <i type="int" name="LMAXMIX">     2</i>
    <i type="logical" name="NLSPLINE"> F  </i>
   </separator>
   <separator name="electronic startup" >
    <i type="int" name="ISTART">     0</i>
    <i type="int" name="ICHARG">     2</i>
    <i type="int" name="INIWAV">     1</i>
   </separator>
   <separator name="electronic spin" >
    <i type="int" name="ISPIN">     1</i>
    <i type="logical" name="LNONCOLLINEAR"> F  </i>
    <v name="MAGMOM">      1.00000000      1.00000000      1.00000000      1.00000000      1.00000000      1.00000000      1.00000000      1.00000000      1.00000000      1.00000000      1.00000000      1.00000000      1.00000000      1.00000000      1.00000000      1.00000000      1.00000000      1.00000000      1.00000000      1.00000000
      1.00000000      1.00000000      1.00000000      1.00000000      1.00000000      1.00000000      1.00000000      1.00000000      1.00000000      1.00000000      1.00000000      1.00000000      1.00000000      1.00000000      1.00000000      1.00000000</v>
    <i name="NUPDOWN">     -1.00000000</i>
    <i type="logical" name="LSORBIT"> F  </i>
    <v name="SAXIS">      0.00000000      0.00000000      1.00000000</v>
    <i type="logical" name="LSPIRAL"> F  </i>
    <v name="QSPIRAL">      0.00000000      0.00000000      0.00000000</v>
    <i type="logical" name="LZEROZ"> F  </i>
   </separator>
   <separator name="electronic exchange-correlation" >
    <i type="logical" name="LASPH"> F  </i>
    <i type="logical" name="LMETAGGA"> F  </i>
   </separator>
   <separator name="electronic convergence" >
    <i type="int" name="NELM">    70</i>
    <i type="int" name="NELMDL">    -5</i>
    <i type="int" name="NELMIN">     2</i>
    <i name="ENINI">    300.00000000</i>
    <separator name="electronic convergence detail" >
     <i type="logical" name="LDIAG"> T  </i>
     <i type="logical" name="LSUBROT"> F  </i>
     <i name="WEIMIN">      0.00100000</i>
     <i name="EBREAK">      0.00000001</i>
     <i name="DEPER">      0.30000000</i>
     <i type="int" name="NRMM">     4</i>
     <i name="TIME">      0.40000000</i>
    </separator>
   </separator>
   <separator name="electronic mixer" >
    <i name="AMIX">      0.40000000</i>
    <i name="BMIX">      1.00000000</i>
    <i name="AMIN">      0.10000000</i>
    <i name="AMIX_MAG">      1.60000000</i>
    <i name="BMIX_MAG">      1.00000000</i>
    <separator name="electronic mixer details" >
     <i type="int" name="IMIX">     4</i>
     <i type="logical" name="MIXFIRST"> F  </i>
     <i type="int" name="MAXMIX">   -45</i>
     <i name="WC">    100.00000000</i>
     <i type="int" name="INIMIX">     1</i>
     <i type="int" name="MIXPRE">     1</i>
     <i type="int" name="MREMOVE">     5</i>
    </separator>
   </separator>
   <separator name="electronic dipolcorrection" >
    <i type="logical" name="LDIPOL"> F  </i>
    <i type="logical" name="LMONO"> F  </i>
    <i type="int" name="IDIPOL">     0</i>
    <i name="EPSILON">      1.00000000</i>
    <v name="DIPOL">   -100.00000000   -100.00000000   -100.00000000</v>
    <i name="EFIELD">      0.00000000</i>
   </separator>
  </separator>
  <separator name="grids" >
   <i type="int" name="NGX">    40</i>
   <i type="int" name="NGY">    60</i>
   <i type="int" name="NGZ">    60</i>
   <i type="int" name="NGXF">    80</i>
   <i type="int" name="NGYF">   120</i>
   <i type="int" name="NGZF">   120</i>
   <i type="logical" name="ADDGRID"> F  </i>
  </separator>
  <separator name="ionic" >
   <i type="int" name="NSW">   300</i>
   <i type="int" name="IBRION">     2</i>
   <i type="int" name="ISIF">     3</i>
   <i name="PSTRESS">      0.00000000</i>
   <i name="EDIFFG">     -0.01000000</i>
   <i type="int" name="NFREE">     1</i>
   <i name="POTIM">      0.15000000</i>
   <i name="SMASS">     -3.00000000</i>
   <i name="SCALEE">      1.00000000</i>
  </separator>
  <separator name="ionic md" >
   <i name="TEBEG">      0.00010000</i>
   <i name="TEEND">      0.00010000</i>
   <i type="int" name="NBLOCK">     1</i>
   <i type="int" name="KBLOCK">   300</i>
   <i type="int" name="NPACO">   256</i>
   <i name="APACO">     16.00000000</i>
  </separator>
  <separator name="symmetry" >
   <i type="int" name="ISYM">     1</i>
   <i name="SYMPREC">      0.00001000</i>
  </separator>
  <separator name="dos" >
   <i type="logical" name="LORBIT"> F  </i>
   <v name="RWIGS">     -1.00000000     -1.00000000     -1.00000000     -1.00000000</v>
   <i type="int" name="NEDOS">   301</i>
   <i name="EMIN">     10.00000000</i>
   <i name="EMAX">    -10.00000000</i>
   <i name="EFERMI">      0.00000000</i>
  </separator>
  <separator name="writing" >
   <i type="int" name="NWRITE">     2</i>
   <i type="logical" name="LWAVE"> F  </i>
   <i type="logical" name="LCHARG"> F  </i>
   <i type="logical" name="LPARD"> F  </i>
   <i type="logical" name="LVTOT"> F  </i>
   <i type="logical" name="LVHAR"> F  </i>
   <i type="logical" name="LELF"> F  </i>
   <i type="logical" name="LOPTICS"> F  </i>
   <v name="STM">      0.00000000      0.00000000      0.00000000      0.00000000      0.00000000      0.00000000      0.00000000</v>
  </separator>
  <separator name="performance" >
   <i type="int" name="NPAR">     4</i>
   <i type="int" name="NSIM">     4</i>
   <i type="int" name="NBLK">    -1</i>
   <i type="logical" name="LPLANE"> T  </i>
   <i type="logical" name="LSCALAPACK"> T  </i>
   <i type="logical" name="LSCAAWARE"> F  </i>
   <i type="logical" name="LSCALU"> F  </i>
   <i type="logical" name="LASYNC"> F  </i>
   <i type="logical" name="LORBITALREAL"> F  </i>
  </separator>
  <separator name="miscellaneous" >
   <i type="int" name="IDIOT">     3</i>
   <i type="logical" name="LMUSIC"> F  </i>
   <v name="POMASS">    178.49000000     92.91000000    180.94800000     91.22400000</v>
   <v name="DARWINR">      0.00000000      0.00000000      0.00000000      0.00000000</v>
   <v name="DARWINV">      1.00000000      1.00000000      1.00000000      1.00000000</v>
   <i type="logical" name="LCORR"> T  </i>
  </separator>
  <i type="logical" name="GGA_COMPAT"> T  </i>
  <i type="logical" name="LBERRY"> F  </i>
  <i type="int" name="ICORELEVEL">     0</i>
  <i type="logical" name="LDAU"> F  </i>
  <i type="int" name="I_CONSTRAINED_M">     0</i>
  <separator name="electronic exchange-correlation" >
   <i type="string" name="GGA">--</i>
   <i type="int" name="VOSKOWN">     0</i>
   <i type="logical" name="LHFCALC"> F  </i>
   <i type="string" name="PRECFOCK"></i>
   <i type="logical" name="LSYMGRAD"> F  </i>
   <i type="logical" name="LHFONE"> F  </i>
   <i type="logical" name="LRHFCALC"> F  </i>
   <i type="logical" name="LTHOMAS"> F  </i>
   <i type="logical" name="LMODELHF"> F  </i>
   <i name="ENCUT4O">     -1.00000000</i>
   <i type="int" name="EXXOEP">     0</i>
   <i type="int" name="FOURORBIT">     0</i>
   <i name="AEXX">      0.00000000</i>
   <i name="HFALPHA">      0.00000000</i>
   <i name="MCALPHA">      0.00000000</i>
   <i name="ALDAX">      1.00000000</i>
   <i name="AGGAX">      1.00000000</i>
   <i name="ALDAC">      1.00000000</i>
   <i name="AGGAC">      1.00000000</i>
   <i type="int" name="NKREDX">     1</i>
   <i type="int" name="NKREDY">     1</i>
   <i type="int" name="NKREDZ">     1</i>
   <i type="logical" name="SHIFTRED"> F  </i>
   <i type="logical" name="ODDONLY"> F  </i>
   <i type="logical" name="EVENONLY"> F  </i>
   <i type="int" name="LMAXFOCK">     0</i>
   <i type="int" name="NMAXFOCKAE">     0</i>
   <i type="logical" name="LFOCKAEDFT"> F  </i>
   <i name="HFSCREEN">      0.00000000</i>
   <i name="HFSCREENC">      0.00000000</i>
   <i type="int" name="NBANDSGWLOW">     0</i>
  </separator>
  <separator name="vdW DFT" >
   <i type="logical" name="LUSE_VDW"> F  </i>
   <i name="Zab_VDW">     -0.84910000</i>
   <i name="PARAM1">      0.12340000</i>
   <i name="PARAM2">      1.00000000</i>
   <i name="PARAM3">      0.00000000</i>
  </separator>
  <separator name="model GW" >
   <i type="int" name="MODEL_GW">     0</i>
   <i name="MODEL_EPS0">     11.65682005</i>
   <i name="MODEL_ALPHA">      1.00000000</i>
  </separator>
  <separator name="linear response parameters" >
   <i type="logical" name="LEPSILON"> F  </i>
   <i type="logical" name="LRPA"> F  </i>
   <i type="logical" name="LNABLA"> F  </i>
   <i type="logical" name="LVEL"> F  </i>
   <i type="int" name="KINTER">     0</i>
   <i name="CSHIFT">      0.10000000</i>
   <i name="OMEGAMAX">     -1.00000000</i>
   <i name="DEG_THRESHOLD">      0.00200000</i>
  </separator>
  <separator name="orbital magnetization" >
   <i type="logical" name="NUCIND"> F  </i>
   <v name="MAGPOS">      0.00000000      0.00000000      0.00000000</v>
   <i type="logical" name="LNICSALL"> T  </i>
   <i type="logical" name="ORBITALMAG"> F  </i>
   <i type="logical" name="LMAGBLOCH"> F  </i>
   <i type="logical" name="LCHIMAG"> F  </i>
   <i type="logical" name="LGAUGE"> T  </i>
   <i type="int" name="MAGATOM">     0</i>
   <v name="MAGDIPOL">      0.00000000      0.00000000      0.00000000</v>
   <v name="AVECCONST">      0.00000000      0.00000000      0.00000000</v>
  </separator>
  <separator name="response functions" >
   <i type="logical" name="LADDER"> F  </i>
   <i type="logical" name="LFXC"> F  </i>
   <i type="logical" name="LHARTREE"> T  </i>
   <i type="int" name="IBSE">     0</i>
   <v type="int" name="KPOINT">    -1     0     0     0</v>
   <i type="logical" name="LTCTE"> F  </i>
   <i type="logical" name="LTETE"> F  </i>
   <i type="logical" name="LTRIPLET"> F  </i>
   <i type="logical" name="LFXCEPS"> F  </i>
   <i type="logical" name="LFXHEG"> F  </i>
   <i type="int" name="NATURALO">     0</i>
   <i type="logical" name="L2ORDER"> F  </i>
   <i type="logical" name="LUSEW"> F  </i>
   <i name="ENCUTGW">     -2.00000000</i>
   <i name="ENCUTGWSOFT">     -2.00000000</i>
   <i name="ENCUTLF">     -1.00000000</i>
   <i type="int" name="LMAXMP2">    -1</i>
   <i name="SCISSOR">      0.00000000</i>
   <i type="int" name="NOMEGA">     0</i>
   <i type="int" name="NOMEGAR">     0</i>
   <i type="int" name="NBANDSGW">    -1</i>
   <i type="int" name="NBANDSO">    -1</i>
   <i type="int" name="NBANDSV">    -1</i>
   <i type="int" name="NELM">    70</i>
   <i type="int" name="NELMHF">     1</i>
   <i type="int" name="DIM">     3</i>
   <i type="int" name="ANTIRES">     0</i>
   <i name="OMEGAMAX">    -30.00000000</i>
   <i name="OMEGAMIN">    -30.00000000</i>
   <i name="OMEGATL">   -200.00000000</i>
   <i type="int" name="OMEGAGRID">     0</i>
   <i name="CSHIFT">     -0.10000000</i>
   <i type="logical" name="SELFENERGY"> F  </i>
   <i type="logical" name="LSPECTRAL"> F  </i>
   <i type="logical" name="LSPECTRALGW"> F  </i>
   <i type="logical" name="LSINGLES"> F  </i>
   <i type="logical" name="LFERMIGW"> F  </i>
   <i type="logical" name="ODDONLYGW"> F  </i>
   <i type="logical" name="EVENONLYGW"> F  </i>
   <i type="int" name="NKREDLFX">     1</i>
   <i type="int" name="NKREDLFY">     1</i>
   <i type="int" name="NKREDLFZ">     1</i>
   <i type="int" name="MAXMEM">  1800</i>
   <i type="int" name="TELESCOPE">     0</i>
   <i type="int" name="TAUPAR">     1</i>
   <i type="int" name="OMEGAPAR">    -1</i>
   <i name="LAMBDA">      1.00000000</i>
  </separator>
  <separator name="External order field" >
   <i name="OFIELD_KAPPA">      0.00000000</i>
   <v name="OFIELD_K">      0.00000000      0.00000000      0.00000000</v>
   <i name="OFIELD_Q6_NEAR">      0.00000000</i>
   <i name="OFIELD_Q6_FAR">      0.00000000</i>
   <i name="OFIELD_A">      0.00000000</i>
  </separator>
 </parameters>
 <atominfo>
  <atoms>      36 </atoms>
  <types>       4 </types>
  <array name="atoms" >
   <dimension dim="1">ion</dimension>
   <field type="string">element</field>
   <field type="int">atomtype</field>
   <set>
    <rc><c>Hf</c><c>   1</c></rc>
    <rc><c>Hf</c><c>   1</c></rc>
    <rc><c>Hf</c><c>   1</c></rc>
    <rc><c>Hf</c><c>   1</c></rc>
    <rc><c>Hf</c><c>   1</c></rc>
    <rc><c>Nb</c><c>   2</c></rc>
    <rc><c>Nb</c><c>   2</c></rc>
    <rc><c>Nb</c><c>   2</c></rc>
    <rc><c>Nb</c><c>   2</c></rc>
    <rc><c>Nb</c><c>   2</c></rc>
    <rc><c>Nb</c><c>   2</c></rc>
    <rc><c>Nb</c><c>   2</c></rc>
    <rc><c>Nb</c><c>   2</c></rc>
    <rc><c>Nb</c><c>   2</c></rc>
    <rc><c>Nb</c><c>   2</c></rc>
    <rc><c>Nb</c><c>   2</c></rc>
    <rc><c>Ta</c><c>   3</c></rc>
    <rc><c>Ta</c><c>   3</c></rc>
    <rc><c>Ta</c><c>   3</c></rc>
    <rc><c>Ta</c><c>   3</c></rc>
    <rc><c>Ta</c><c>   3</c></rc>
    <rc><c>Ta</c><c>   3</c></rc>
    <rc><c>Ta</c><c>   3</c></rc>
    <rc><c>Ta</c><c>   3</c></rc>
    <rc><c>Ta</c><c>   3</c></rc>
    <rc><c>Ta</c><c>   3</c></rc>
    <rc><c>Ta</c><c>   3</c></rc>
    <rc><c>Ta</c><c>   3</c></rc>
    <rc><c>Ta</c><c>   3</c></rc>
    <rc><c>Zr</c><c>   4</c></rc>
    <rc><c>Zr</c><c>   4</c></rc>
    <rc><c>Zr</c><c>   4</c></rc>
    <rc><c>Zr</c><c>   4</c></rc>
    <rc><c>Zr</c><c>   4</c></rc>
    <rc><c>Zr</c><c>   4</c></rc>
    <rc><c>Zr</c><c>   4</c></rc>
   </set>
  </array>
  <array name="atomtypes" >
   <dimension dim="1">type</dimension>
   <field type="int">atomspertype</field>
   <field type="string">element</field>
   <field>mass</field>
   <field>valence</field>
   <field type="string">pseudopotential</field>
   <set>
    <rc><c>   5</c><c>Hf</c><c>    178.49000000</c><c>      4.00000000</c><c>  PAW_PBE Hf 20Jan2003                  </c></rc>
    <rc><c>  11</c><c>Nb</c><c>     92.91000000</c><c>     13.00000000</c><c>  PAW_PBE Nb_sv 25May2007               </c></rc>
    <rc><c>  13</c><c>Ta</c><c>    180.94800000</c><c>      5.00000000</c><c>  PAW_PBE Ta 17Jan2003                  </c></rc>
    <rc><c>   7</c><c>Zr</c><c>     91.22400000</c><c>     12.00000000</c><c>  PAW_PBE Zr_sv 04Jan2005               </c></rc>
   </set>
  </array>
 </atominfo>
 <structure name="initialpos" >
  <crystal>
   <varray name="basis" >
    <v>       6.81381197      -0.03098239      -0.02180889 </v>
    <v>      -0.04510430      10.08549485       0.00043398 </v>
    <v>      -0.03250383       0.00008480      10.17787836 </v>
   </varray>
   <i name="volume">    699.40920298 </i>
   <varray name="rec_basis" >
    <v>       0.14676521       0.00065634       0.00046870 </v>
    <v>       0.00045086       0.09915432       0.00000061 </v>
    <v>       0.00031447      -0.00000282       0.09825331 </v>
   </varray>
  </crystal>
  <varray name="positions" >
   <v>       0.24937800       0.83451300       0.16753600 </v>
   <v>       0.01150700       0.32848000       0.66416900 </v>
   <v>       0.72043900       0.17143900       0.82990500 </v>
   <v>       0.50342200       0.67088700       0.66279300 </v>
   <v>       0.99807000       0.00890500       0.66108700 </v>
   <v>       0.98920300       0.66506100       0.99815800 </v>
   <v>       0.49853300       0.66349900       0.34235700 </v>
   <v>       0.76137300       0.83379100       0.83672400 </v>
   <v>       0.25475200       0.49421100       0.49763100 </v>
   <v>       0.50984700       0.00140600       0.33485800 </v>
   <v>       0.99427900       0.99922600       0.33839900 </v>
   <v>       0.99358000       0.66449200       0.66174700 </v>
   <v>       0.00298100       0.33133400       0.34530700 </v>
   <v>       0.22935700       0.51933400       0.82776100 </v>
   <v>       0.48677400       0.33995800       0.66071000 </v>
   <v>       0.75070400       0.16170800       0.17422400 </v>
   <v>       0.52525100       0.99079700       0.00406000 </v>
   <v>       0.26197800       0.84447300       0.49280200 </v>
   <v>       0.74216600       0.83990100       0.49223900 </v>
   <v>       0.24358800       0.50630600       0.17800200 </v>
   <v>       0.74293200       0.49133500       0.50301200 </v>
   <v>       0.75379300       0.84062200       0.17109800 </v>
   <v>       0.98044200       0.00272700       0.00013700 </v>
   <v>       0.75856700       0.49843700       0.81965400 </v>
   <v>       0.26465900       0.16439700       0.49343700 </v>
   <v>       0.27767100       0.15165200       0.82988400 </v>
   <v>       0.50657100       0.99123400       0.65825600 </v>
   <v>       0.49771700       0.33238000       0.33874800 </v>
   <v>       0.73713600       0.16815700       0.49425100 </v>
   <v>       0.48118900       0.34354000       0.99944700 </v>
   <v>       0.00161400       0.66768100       0.34657700 </v>
   <v>       0.24135000       0.83562400       0.83725800 </v>
   <v>       0.75691500       0.49102600       0.17651400 </v>
   <v>       0.01434100       0.33066000       0.99152000 </v>
   <v>       0.50783900       0.66408400       0.99804700 </v>
   <v>       0.25008100       0.15673600       0.17169400 </v>
  </varray>
 </structure>
 <calculation>
  <scstep>
   <time name="dav">    1.08    1.11</time>
   <time name="total">    1.37    1.65</time>
   <energy>
    <i name="alphaZ">   1735.66076817 </i>
    <i name="ewald"> -22056.15883697 </i>
    <i name="hartreedc">  -7159.14412957 </i>
    <i name="XCdc">   -156.33145277 </i>
    <i name="pawpsdc">  23678.50690210 </i>
    <i name="pawaedc"> -22078.13480033 </i>
    <i name="eentropy">     -0.00670193 </i>
    <i name="bandstr">    -35.75073812 </i>
    <i name="atom">  28173.36956058 </i>
    <i name="e_fr_energy">   2102.01057118 </i>
    <i name="e_wo_entrp">   2102.01727311 </i>
    <i name="e_0_energy">   2102.01280515 </i>
   </energy>
  </scstep>
  <scstep>
   <time name="dav">    1.35    1.37</time>
   <time name="total">    1.36    1.50</time>
   <energy>
    <i name="e_fr_energy">    -86.10067440 </i>
    <i name="e_wo_entrp">    -86.09686077 </i>
    <i name="e_0_energy">    -86.09940319 </i>
   </energy>
  </scstep>
  <scstep>
   <time name="dav">    1.59    1.60</time>
   <time name="total">    1.59    1.62</time>
   <energy>
    <i name="e_fr_energy">   -354.50791730 </i>
    <i name="e_wo_entrp">   -354.50211594 </i>
    <i name="e_0_energy">   -354.50598351 </i>
   </energy>
  </scstep>
  <scstep>
   <time name="dav">    1.43    1.44</time>
   <time name="total">    1.43    1.48</time>
   <energy>
    <i name="e_fr_energy">   -384.85313125 </i>
    <i name="e_wo_entrp">   -384.85744891 </i>
    <i name="e_0_energy">   -384.85457047 </i>
   </energy>
  </scstep>
  <scstep>
   <time name="dav">    1.58    1.59</time>
   <time name="total">    1.70    1.73</time>
   <energy>
    <i name="e_fr_energy">   -387.84448548 </i>
    <i name="e_wo_entrp">   -387.84941772 </i>
    <i name="e_0_energy">   -387.84612956 </i>
   </energy>
  </scstep>
  <scstep>
   <time name="diag">    0.09    0.13</time>
   <time name="diis">    0.73    0.77</time>
   <time name="orth">    0.01    0.01</time>
   <time name="total">    0.92    1.04</time>
   <energy>
    <i name="e_fr_energy">   -376.83993238 </i>
    <i name="e_wo_entrp">   -376.84999497 </i>
    <i name="e_0_energy">   -376.84328658 </i>
   </energy>
  </scstep>
  <scstep>
   <time name="diag">    0.09    0.09</time>
   <time name="diis">    0.81    0.83</time>
   <time name="orth">    0.01    0.01</time>
   <time name="total">    1.03    1.09</time>
   <energy>
    <i name="e_fr_energy">   -377.46072131 </i>
    <i name="e_wo_entrp">   -377.45699201 </i>
    <i name="e_0_energy">   -377.45947821 </i>
   </energy>
  </scstep>
  <scstep>
   <time name="diag">    0.14    0.15</time>
   <time name="diis">    0.84    0.85</time>
   <time name="orth">    0.01    0.01</time>
   <time name="total">    1.06    1.10</time>
   <energy>
    <i name="e_fr_energy">   -372.79942034 </i>
    <i name="e_wo_entrp">   -372.81015430 </i>
    <i name="e_0_energy">   -372.80299833 </i>
   </energy>
  </scstep>
  <scstep>
   <time name="diag">    0.09    0.09</time>
   <time name="diis">    0.83    0.84</time>
   <time name="orth">    0.01    0.01</time>
   <time name="total">    1.00    1.03</time>
   <energy>
    <i name="e_fr_energy">   -372.73695204 </i>
    <i name="e_wo_entrp">   -372.75170428 </i>
    <i name="e_0_energy">   -372.74186945 </i>
   </energy>
  </scstep>
  <scstep>
   <time name="diag">    0.09    0.09</time>
   <time name="diis">    0.91    0.91</time>
   <time name="orth">    0.02    0.02</time>
   <time name="total">    1.14    1.17</time>
   <energy>
    <i name="e_fr_energy">   -372.66652310 </i>
    <i name="e_wo_entrp">   -372.67913233 </i>
    <i name="e_0_energy">   -372.67072618 </i>
   </energy>
  </scstep>
  <scstep>
   <time name="diag">    0.09    0.09</time>
   <time name="diis">    0.84    0.84</time>
   <time name="orth">    0.01    0.01</time>
   <time name="total">    1.03    1.07</time>
   <energy>
    <i name="e_fr_energy">   -372.64248689 </i>
    <i name="e_wo_entrp">   -372.65606214 </i>
    <i name="e_0_energy">   -372.64701198 </i>
   </energy>
  </scstep>
  <scstep>
   <time name="diag">    0.11    0.11</time>
   <time name="diis">    0.86    0.87</time>
   <time name="orth">    0.01    0.01</time>
   <time name="total">    1.06    1.09</time>
   <energy>
    <i name="e_fr_energy">   -372.64139131 </i>
    <i name="e_wo_entrp">   -372.65425894 </i>
    <i name="e_0_energy">   -372.64568052 </i>
   </energy>
  </scstep>
  <scstep>
   <time name="diag">    0.09    0.09</time>
   <time name="diis">    0.86    0.87</time>
   <time name="orth">    0.01    0.01</time>
   <time name="total">    1.08    1.11</time>
   <energy>
    <i name="e_fr_energy">   -372.63969085 </i>
    <i name="e_wo_entrp">   -372.65268244 </i>
    <i name="e_0_energy">   -372.64402138 </i>
   </energy>
  </scstep>
  <scstep>
   <time name="diag">    0.08    0.09</time>
   <time name="diis">    0.85    0.86</time>
   <time name="orth">    0.01    0.01</time>
   <time name="total">    1.02    1.07</time>
   <energy>
    <i name="e_fr_energy">   -372.63981898 </i>
    <i name="e_wo_entrp">   -372.65280775 </i>
    <i name="e_0_energy">   -372.64414857 </i>
   </energy>
  </scstep>
  <scstep>
   <time name="diag">    0.08    0.08</time>
   <time name="diis">    0.87    0.88</time>
   <time name="orth">    0.01    0.01</time>
   <time name="total">    1.04    1.08</time>
   <energy>
    <i name="e_fr_energy">   -372.63990778 </i>
    <i name="e_wo_entrp">   -372.65298658 </i>
    <i name="e_0_energy">   -372.64426738 </i>
   </energy>
  </scstep>
  <scstep>
   <time name="diag">    0.08    0.08</time>
   <time name="diis">    1.23    1.24</time>
   <time name="orth">    0.02    0.02</time>
   <time name="total">    1.41    1.45</time>
   <energy>
    <i name="e_fr_energy">   -372.63991448 </i>
    <i name="e_wo_entrp">   -372.65295645 </i>
    <i name="e_0_energy">   -372.64426180 </i>
   </energy>
  </scstep>
  <scstep>
   <time name="diag">    0.11    0.11</time>
   <time name="diis">    0.70    0.70</time>
   <time name="orth">    0.01    0.01</time>
   <time name="total">    1.04    1.10</time>
   <energy>
    <i name="e_fr_energy">   -372.63992363 </i>
    <i name="e_wo_entrp">   -372.65295495 </i>
    <i name="e_0_energy">   -372.64426740 </i>
   </energy>
  </scstep>
  <scstep>
   <time name="diag">    0.08    0.08</time>
   <time name="diis">    0.61    0.61</time>
   <time name="orth">    0.01    0.01</time>
   <time name="total">    0.77    0.80</time>
   <energy>
    <i name="e_fr_energy">   -372.63992894 </i>
    <i name="e_wo_entrp">   -372.65296012 </i>
    <i name="e_0_energy">   -372.64427267 </i>
   </energy>
  </scstep>
  <scstep>
   <time name="diag">    0.08    0.08</time>
   <time name="diis">    0.58    0.58</time>
   <time name="orth">    0.01    0.01</time>
   <time name="total">    0.72    0.77</time>
   <energy>
    <i name="alphaZ">   1735.66076817 </i>
    <i name="ewald"> -22056.15883697 </i>
    <i name="hartreedc">  -6895.38981336 </i>
    <i name="XCdc">   -158.41404362 </i>
    <i name="pawpsdc">  36638.41483549 </i>
    <i name="pawaedc"> -35014.38793071 </i>
    <i name="eentropy">      0.01303851 </i>
    <i name="bandstr">  -2795.74751097 </i>
    <i name="atom">  28173.36956058 </i>
    <i name="e_fr_energy">   -372.63993287 </i>
    <i name="e_wo_entrp">   -372.65297138 </i>
    <i name="e_0_energy">   -372.64427904 </i>
   </energy>
  </scstep>
  <structure>
   <crystal>
    <varray name="basis" >
     <v>       6.81381197      -0.03098239      -0.02180889 </v>
     <v>      -0.04510430      10.08549485       0.00043398 </v>
     <v>      -0.03250383       0.00008480      10.17787836 </v>
    </varray>
    <i name="volume">    699.40920298 </i>
    <varray name="rec_basis" >
     <v>       0.14676521       0.00065634       0.00046870 </v>
     <v>       0.00045086       0.09915432       0.00000061 </v>
     <v>       0.00031447      -0.00000282       0.09825331 </v>
    </varray>
   </crystal>
   <varray name="positions" >
    <v>       0.24937800       0.83451300       0.16753600 </v>
    <v>       0.01150700       0.32848000       0.66416900 </v>
    <v>       0.72043900       0.17143900       0.82990500 </v>
    <v>       0.50342200       0.67088700       0.66279300 </v>
    <v>       0.99807000       0.00890500       0.66108700 </v>
    <v>       0.98920300       0.66506100       0.99815800 </v>
    <v>       0.49853300       0.66349900       0.34235700 </v>
    <v>       0.76137300       0.83379100       0.83672400 </v>
    <v>       0.25475200       0.49421100       0.49763100 </v>
    <v>       0.50984700       0.00140600       0.33485800 </v>
    <v>       0.99427900       0.99922600       0.33839900 </v>
    <v>       0.99358000       0.66449200       0.66174700 </v>
    <v>       0.00298100       0.33133400       0.34530700 </v>
    <v>       0.22935700       0.51933400       0.82776100 </v>
    <v>       0.48677400       0.33995800       0.66071000 </v>
    <v>       0.75070400       0.16170800       0.17422400 </v>
    <v>       0.52525100       0.99079700       0.00406000 </v>
    <v>       0.26197800       0.84447300       0.49280200 </v>
    <v>       0.74216600       0.83990100       0.49223900 </v>
    <v>       0.24358800       0.50630600       0.17800200 </v>
    <v>       0.74293200       0.49133500       0.50301200 </v>
    <v>       0.75379300       0.84062200       0.17109800 </v>
    <v>       0.98044200       0.00272700       0.00013700 </v>
    <v>       0.75856700       0.49843700       0.81965400 </v>
    <v>       0.26465900       0.16439700       0.49343700 </v>
    <v>       0.27767100       0.15165200       0.82988400 </v>
    <v>       0.50657100       0.99123400       0.65825600 </v>
    <v>       0.49771700       0.33238000       0.33874800 </v>
    <v>       0.73713600       0.16815700       0.49425100 </v>
    <v>       0.48118900       0.34354000       0.99944700 </v>
    <v>       0.00161400       0.66768100       0.34657700 </v>
    <v>       0.24135000       0.83562400       0.83725800 </v>
    <v>       0.75691500       0.49102600       0.17651400 </v>
    <v>       0.01434100       0.33066000       0.99152000 </v>
    <v>       0.50783900       0.66408400       0.99804700 </v>
    <v>       0.25008100       0.15673600       0.17169400 </v>
   </varray>
  </structure>
  <varray name="forces" >
   <v>      -0.00505047       0.02789708      -0.00093942 </v>
   <v>       0.00306323       0.00990328      -0.00298198 </v>
   <v>       0.00359513      -0.00376337      -0.07617559 </v>
   <v>      -0.01299037      -0.00744856      -0.00165022 </v>
   <v>       0.00949318      -0.00469090       0.00677797 </v>
   <v>       0.00212279      -0.00719875      -0.00617800 </v>
   <v>      -0.00710552      -0.00076179       0.01973801 </v>
   <v>       0.00106553       0.01268338       0.01654882 </v>
   <v>       0.00743571       0.00103273      -0.01134392 </v>
   <v>       0.03808505       0.02048219      -0.03097018 </v>
   <v>      -0.01103467       0.02134649      -0.02234825 </v>
   <v>       0.00967896      -0.00410017      -0.00231228 </v>
   <v>      -0.00363003      -0.00906412       0.00513786 </v>
   <v>       0.00687886      -0.01904359       0.02240905 </v>
   <v>      -0.00474673       0.02003096       0.00415640 </v>
   <v>      -0.00511820      -0.00000769      -0.02121559 </v>
   <v>      -0.01092414      -0.00121564       0.00839272 </v>
   <v>      -0.00857875       0.00750020      -0.00796389 </v>
   <v>       0.00148901       0.01812550      -0.01991354 </v>
   <v>      -0.00715672      -0.01969748      -0.00710669 </v>
   <v>      -0.00063695      -0.01798773      -0.00984465 </v>
   <v>       0.00673216      -0.13731942      -0.00783774 </v>
   <v>       0.00996139      -0.00426588       0.01148285 </v>
   <v>      -0.00829221      -0.01203728       0.01314522 </v>
   <v>       0.00323324      -0.01227517      -0.02308284 </v>
   <v>       0.00364362       0.00154758       0.02698635 </v>
   <v>      -0.00750256      -0.00930395       0.00137245 </v>
   <v>      -0.00822286       0.00507912      -0.00610977 </v>
   <v>      -0.00099600       0.01997667       0.12890535 </v>
   <v>      -0.00903484       0.01103153      -0.00352138 </v>
   <v>       0.00647273      -0.00596390       0.01069170 </v>
   <v>      -0.00852464       0.00432022       0.00090546 </v>
   <v>       0.00720658       0.10110105       0.00269551 </v>
   <v>      -0.01349280      -0.00558852       0.00350048 </v>
   <v>       0.00140580      -0.00503752      -0.01469959 </v>
   <v>       0.01147553       0.00471344      -0.00665069 </v>
  </varray>
  <varray name="stress" >
   <v>       0.09222801      -0.09555489      -0.00967303 </v>
   <v>      -0.09555484       0.39146292       0.33321510 </v>
   <v>      -0.00967299       0.33321513       0.13168235 </v>
  </varray>
  <energy>
   <i name="e_fr_energy">   -372.63993287 </i>
   <i name="e_wo_entrp">   -372.64427904 </i>
   <i name="e_0_energy">      0.01303851 </i>
  </energy>
  <time name="totalsc">   23.57   24.84</time>
 </calculation>
 <calculation>
  <scstep>
   <time name="dav">    1.08    1.12</time>
   <time name="total">    1.24    1.39</time>
   <energy>
    <i name="alphaZ">   1735.47334437 </i>
    <i name="ewald"> -22055.15426794 </i>
    <i name="hartreedc">  -6895.34498059 </i>
    <i name="XCdc">   -158.44975283 </i>
    <i name="pawpsdc">  36638.60505352 </i>
    <i name="pawaedc"> -35014.56974515 </i>
    <i name="eentropy">      0.01297423 </i>
    <i name="bandstr">  -2796.58301695 </i>
    <i name="atom">  28173.36956058 </i>
    <i name="e_fr_energy">   -372.64083075 </i>
    <i name="e_wo_entrp">   -372.65380499 </i>
    <i name="e_0_energy">   -372.64515550 </i>
   </energy>
  </scstep>
  <scstep>
   <time name="diag">    0.08    0.09</time>
   <time name="diis">    0.84    0.84</time>
   <time name="orth">    0.01    0.01</time>
   <time name="total">    1.00    1.04</time>
   <energy>
    <i name="e_fr_energy">   -372.64091418 </i>
    <i name="e_wo_entrp">   -372.65383784 </i>
    <i name="e_0_energy">   -372.64522207 </i>
   </energy>
  </scstep>
  <scstep>
   <time name="diag">    0.08    0.08</time>
   <time name="diis">    0.72    0.73</time>
   <time name="orth">    0.03    0.03</time>
   <time name="total">    0.94    0.98</time>
   <energy>
    <i name="e_fr_energy">   -372.64089896 </i>
    <i name="e_wo_entrp">   -372.65386640 </i>
    <i name="e_0_energy">   -372.64522144 </i>
   </energy>
  </scstep>
  <scstep>
   <time name="diag">    0.09    0.10</time>
   <time name="diis">    0.53    0.53</time>
   <time name="orth">    0.01    0.01</time>
   <time name="total">    0.67    0.71</time>
   <energy>
    <i name="alphaZ">   1735.47334437 </i>
    <i name="ewald"> -22055.15426794 </i>
    <i name="hartreedc">  -6895.81264081 </i>
    <i name="XCdc">   -158.42987595 </i>
    <i name="pawpsdc">  36634.63411368 </i>
    <i name="pawaedc"> -35010.58847620 </i>
    <i name="eentropy">      0.01295426 </i>
    <i name="bandstr">  -2796.14560277 </i>
    <i name="atom">  28173.36956058 </i>
    <i name="e_fr_energy">   -372.64089078 </i>
    <i name="e_wo_entrp">   -372.65384503 </i>
    <i name="e_0_energy">   -372.64520886 </i>
   </energy>
  </scstep>
  <structure>
   <crystal>
    <varray name="basis" >
     <v>       6.81392282      -0.03110006      -0.02182277 </v>
     <v>      -0.04527416      10.08618852       0.00102385 </v>
     <v>      -0.03252163       0.00068054      10.17811363 </v>
    </varray>
    <i name="volume">    699.48473623 </i>
    <varray name="rec_basis" >
     <v>       0.14676285       0.00065873       0.00046890 </v>
     <v>       0.00045251       0.09914751      -0.00000518 </v>
     <v>       0.00031463      -0.00000856       0.09825104 </v>
    </varray>
   </crystal>
   <varray name="positions" >
    <v>       0.24936753       0.83455300       0.16753464 </v>
    <v>       0.01151358       0.32849423       0.66416477 </v>
    <v>       0.72044608       0.17143362       0.82979669 </v>
    <v>       0.50339433       0.67087623       0.66279059 </v>
    <v>       0.99809017       0.00889833       0.66109668 </v>
    <v>       0.98920740       0.66505068       0.99814922 </v>
    <v>       0.49851803       0.66349786       0.34238504 </v>
    <v>       0.76137550       0.83380921       0.83674754 </v>
    <v>       0.25476773       0.49421253       0.49761490 </v>
    <v>       0.50992788       0.00143564       0.33481413 </v>
    <v>       0.99425561       0.99925656       0.33836717 </v>
    <v>       0.99360050       0.66448618       0.66174376 </v>
    <v>       0.00297324       0.33132097       0.34531429 </v>
    <v>       0.22937158       0.51930672       0.82779290 </v>
    <v>       0.48676414       0.33998671       0.66071589 </v>
    <v>       0.75069298       0.16170796       0.17419381 </v>
    <v>       0.52522784       0.99079518       0.00407188 </v>
    <v>       0.26195980       0.84448371       0.49279064 </v>
    <v>       0.74216920       0.83992702       0.49221069 </v>
    <v>       0.24357256       0.50627769       0.17799186 </v>
    <v>       0.74293041       0.49130918       0.50299800 </v>
    <v>       0.75380594       0.84042498       0.17108689 </v>
    <v>       0.98046320       0.00272094       0.00015337 </v>
    <v>       0.75854936       0.49841967       0.81967266 </v>
    <v>       0.26466559       0.16437941       0.49340419 </v>
    <v>       0.27767894       0.15165424       0.82992239 </v>
    <v>       0.50655498       0.99122060       0.65825792 </v>
    <v>       0.49769954       0.33238724       0.33873927 </v>
    <v>       0.73713495       0.16818566       0.49443430 </v>
    <v>       0.48116989       0.34355577       0.99944195 </v>
    <v>       0.00162776       0.66767248       0.34659223 </v>
    <v>       0.24133194       0.83563014       0.83725925 </v>
    <v>       0.75693129       0.49117113       0.17651786 </v>
    <v>       0.01431231       0.33065189       0.99152492 </v>
    <v>       0.50784184       0.66407678       0.99802610 </v>
    <v>       0.25010537       0.15674284       0.17168459 </v>
   </varray>
  </structure>
  <varray name="forces" >
   <v>      -0.00396620       0.02507636       0.00002484 </v>
   <v>       0.00564853       0.00910345      -0.00199681 </v>
   <v>       0.00276916      -0.00338402      -0.07132673 </v>
   <v>      -0.01165138      -0.00586055      -0.00200846 </v>
   <v>       0.01053528      -0.00455363       0.00687652 </v>
   <v>       0.00159295      -0.00576039      -0.00509721 </v>
   <v>      -0.00597848      -0.00035411       0.01657555 </v>
   <v>       0.00039833       0.01005417       0.01585314 </v>
   <v>       0.00648463       0.00124687      -0.01066264 </v>
   <v>       0.03514935       0.01844256      -0.02763569 </v>
   <v>      -0.01151225       0.01885792      -0.02152453 </v>
   <v>       0.00795788      -0.00318875      -0.00194540 </v>
   <v>      -0.00302795      -0.00842031       0.00502660 </v>
   <v>       0.00529767      -0.01711582       0.02003570 </v>
   <v>      -0.00440050       0.01758274       0.00321285 </v>
   <v>      -0.00477670      -0.00191475      -0.01781169 </v>
   <v>      -0.00562034      -0.00201898       0.00882842 </v>
   <v>      -0.00737925       0.00909135      -0.00917143 </v>
   <v>       0.00176743       0.01765343      -0.01913869 </v>
   <v>      -0.00738985      -0.01915081      -0.00662143 </v>
   <v>      -0.00175196      -0.01711107      -0.00847722 </v>
   <v>       0.00611787      -0.12287727      -0.00660222 </v>
   <v>       0.00602477      -0.00377681       0.01085744 </v>
   <v>      -0.00697794      -0.01125130       0.01201384 </v>
   <v>       0.00276172      -0.01072326      -0.02099218 </v>
   <v>       0.00222643       0.00059210       0.02555140 </v>
   <v>      -0.00825304      -0.00981721       0.00109324 </v>
   <v>      -0.00552529       0.00367242      -0.00584503 </v>
   <v>      -0.00233287       0.01866599       0.11525210 </v>
   <v>      -0.00661042       0.00919788      -0.00345160 </v>
   <v>       0.00787037      -0.00495390       0.01202602 </v>
   <v>      -0.00765697       0.00412908       0.00092762 </v>
   <v>       0.00542547       0.09526292       0.00240336 </v>
   <v>      -0.01388514      -0.00610024       0.00440338 </v>
   <v>      -0.00059713      -0.00464477      -0.01504442 </v>
   <v>       0.01126584       0.00434868      -0.00560864 </v>
  </varray>
  <varray name="stress" >
   <v>       0.08741759      -0.09875344       0.02737207 </v>
   <v>      -0.09875344       0.38520313       0.40665370 </v>
   <v>       0.02737204       0.40665363       0.12716284 </v>
  </varray>
  <energy>
   <i name="e_fr_energy">   -372.64089078 </i>
   <i name="e_wo_entrp">   -372.64520886 </i>
   <i name="e_0_energy">      0.01295426 </i>
  </energy>
  <time name="totalsc">    5.54    5.90</time>
 </calculation>
 <calculation>
  <scstep>
   <time name="dav">    1.03    1.04</time>
   <time name="total">    1.17    1.34</time>
   <energy>
    <i name="alphaZ">   1734.91132885 </i>
    <i name="ewald"> -22052.12612656 </i>
    <i name="hartreedc">  -6895.79304441 </i>
    <i name="XCdc">   -158.53098109 </i>
    <i name="pawpsdc">  36633.76830145 </i>
    <i name="pawaedc"> -35009.71496481 </i>
    <i name="eentropy">      0.01275320 </i>
    <i name="bandstr">  -2798.53960929 </i>
    <i name="atom">  28173.36956058 </i>
    <i name="e_fr_energy">   -372.64278208 </i>
    <i name="e_wo_entrp">   -372.65553528 </i>
    <i name="e_0_energy">   -372.64703314 </i>
   </energy>
  </scstep>
  <scstep>
   <time name="diag">    0.08    0.08</time>
   <time name="diis">    0.88    0.90</time>
   <time name="orth">    0.03    0.03</time>
   <time name="total">    1.08    1.11</time>
   <energy>
    <i name="e_fr_energy">   -372.64343404 </i>
    <i name="e_wo_entrp">   -372.65602831 </i>
    <i name="e_0_energy">   -372.64763213 </i>
   </energy>
  </scstep>
  <scstep>
   <time name="diag">    0.10    0.13</time>
   <time name="diis">    0.89    0.90</time>
   <time name="orth">    0.01    0.01</time>
   <time name="total">    1.07    1.16</time>
   <energy>
    <i name="e_fr_energy">   -372.64330331 </i>
    <i name="e_wo_entrp">   -372.65604449 </i>
    <i name="e_0_energy">   -372.64755037 </i>
   </energy>
  </scstep>
  <scstep>
   <time name="diag">    0.08    0.08</time>
   <time name="diis">    0.82    0.83</time>
   <time name="orth">    0.01    0.01</time>
   <time name="total">    0.99    1.01</time>
   <energy>
    <i name="e_fr_energy">   -372.64323046 </i>
    <i name="e_wo_entrp">   -372.65593049 </i>
    <i name="e_0_energy">   -372.64746380 </i>
   </energy>
  </scstep>
  <scstep>
   <time name="diag">    0.08    0.08</time>
   <time name="diis">    0.80    0.81</time>
   <time name="orth">    0.01    0.01</time>
   <time name="total">    0.98    1.01</time>
   <energy>
    <i name="e_fr_energy">   -372.64321305 </i>
    <i name="e_wo_entrp">   -372.65593281 </i>
    <i name="e_0_energy">   -372.64745297 </i>
   </energy>
  </scstep>
  <scstep>
   <time name="diag">    0.12    0.13</time>
   <time name="diis">    0.67    0.68</time>
   <time name="orth">    0.01    0.01</time>
   <time name="total">    0.85    0.88</time>
   <energy>
    <i name="alphaZ">   1734.91132885 </i>
    <i name="ewald"> -22052.12612656 </i>
    <i name="hartreedc">  -6897.37169318 </i>
    <i name="XCdc">   -158.46202938 </i>
    <i name="pawpsdc">  36619.10472685 </i>
    <i name="pawaedc"> -34995.01834737 </i>
    <i name="eentropy">      0.01271179 </i>
    <i name="bandstr">  -2797.06333870 </i>
    <i name="atom">  28173.36956058 </i>
    <i name="e_fr_energy">   -372.64320711 </i>
    <i name="e_wo_entrp">   -372.65591890 </i>
    <i name="e_0_energy">   -372.64744437 </i>
   </energy>
  </scstep>
  <structure>
   <crystal>
    <varray name="basis" >
     <v>       6.81425535      -0.03145307      -0.02186442 </v>
     <v>      -0.04578374      10.08826950       0.00279346 </v>
     <v>      -0.03257505       0.00246775      10.17881944 </v>
    </varray>
    <i name="volume">    699.71133068 </i>
    <varray name="rec_basis" >
     <v>       0.14675576       0.00066589       0.00046950 </v>
     <v>       0.00045748       0.09912711      -0.00002257 </v>
     <v>       0.00031511      -0.00002577       0.09824423 </v>
    </varray>
   </crystal>
   <varray name="positions" >
    <v>       0.24933613       0.83467299       0.16753055 </v>
    <v>       0.01153332       0.32853692       0.66415209 </v>
    <v>       0.72046733       0.17141751       0.82947179 </v>
    <v>       0.50331130       0.67084391       0.66278338 </v>
    <v>       0.99815066       0.00887832       0.66112573 </v>
    <v>       0.98922059       0.66501974       0.99812290 </v>
    <v>       0.49847314       0.66349444       0.34246914 </v>
    <v>       0.76138299       0.83386383       0.83681814 </v>
    <v>       0.25481491       0.49421712       0.49756661 </v>
    <v>       0.51017052       0.00152457       0.33468253 </v>
    <v>       0.99418545       0.99934824       0.33827168 </v>
    <v>       0.99366202       0.66446872       0.66173403 </v>
    <v>       0.00294995       0.33128188       0.34533616 </v>
    <v>       0.22941533       0.51922487       0.82788859 </v>
    <v>       0.48673455       0.34007285       0.66073355 </v>
    <v>       0.75065994       0.16170783       0.17410323 </v>
    <v>       0.52515837       0.99078973       0.00410754 </v>
    <v>       0.26190518       0.84451583       0.49275654 </v>
    <v>       0.74217880       0.84000508       0.49212575 </v>
    <v>       0.24352625       0.50619275       0.17796146 </v>
    <v>       0.74292564       0.49123174       0.50295600 </v>
    <v>       0.75384475       0.83983398       0.17105360 </v>
    <v>       0.98052678       0.00270277       0.00020250 </v>
    <v>       0.75849644       0.49836769       0.81972862 </v>
    <v>       0.26468538       0.16432663       0.49330577 </v>
    <v>       0.27770275       0.15166097       0.83003756 </v>
    <v>       0.50650694       0.99118040       0.65826367 </v>
    <v>       0.49764716       0.33240894       0.33871310 </v>
    <v>       0.73713180       0.16827161       0.49498417 </v>
    <v>       0.48111256       0.34360308       0.99942680 </v>
    <v>       0.00166906       0.66764694       0.34663793 </v>
    <v>       0.24127776       0.83564857       0.83726299 </v>
    <v>       0.75698015       0.49160649       0.17652942 </v>
    <v>       0.01422624       0.33062757       0.99153967 </v>
    <v>       0.50785035       0.66405513       0.99796342 </v>
    <v>       0.25017850       0.15676336       0.17165638 </v>
   </varray>
  </structure>
  <varray name="forces" >
   <v>      -0.00132228       0.01678741       0.00114301 </v>
   <v>       0.01157633       0.00848863       0.00130641 </v>
   <v>       0.00125438      -0.00316940      -0.05579390 </v>
   <v>      -0.00609531      -0.00278063      -0.00254536 </v>
   <v>       0.01397749      -0.00425422       0.00656132 </v>
   <v>       0.00388567      -0.00427634      -0.00650961 </v>
   <v>      -0.00557710       0.00254860       0.01328261 </v>
   <v>      -0.00032358       0.00710879       0.01644415 </v>
   <v>       0.00335724      -0.00040640      -0.01059670 </v>
   <v>       0.03238881       0.01424935      -0.01969802 </v>
   <v>      -0.01485827       0.01386831      -0.02004348 </v>
   <v>       0.00381714      -0.00273551      -0.00138713 </v>
   <v>      -0.00418057      -0.00944665       0.00407928 </v>
   <v>       0.00226361      -0.01399850       0.01742446 </v>
   <v>      -0.00646728       0.01448780       0.00068732 </v>
   <v>      -0.00346342      -0.00622851      -0.01224999 </v>
   <v>       0.00895745      -0.00475861       0.01036935 </v>
   <v>      -0.00336071       0.01397100      -0.01334877 </v>
   <v>       0.00168177       0.01645453      -0.01693993 </v>
   <v>      -0.00684184      -0.02077232      -0.00599133 </v>
   <v>      -0.00354565      -0.01636636      -0.00669264 </v>
   <v>       0.00401486      -0.08273443      -0.00578359 </v>
   <v>      -0.00447095      -0.00281002       0.00917753 </v>
   <v>      -0.00334599      -0.00834587       0.01049958 </v>
   <v>       0.00199694      -0.00652761      -0.01638698 </v>
   <v>      -0.00316660      -0.00379072       0.02411721 </v>
   <v>      -0.01003888      -0.01098200      -0.00128695 </v>
   <v>       0.00163024       0.00048934      -0.00559713 </v>
   <v>      -0.00757948       0.01586486       0.07744065 </v>
   <v>       0.00153549       0.00416076      -0.00167647 </v>
   <v>       0.01323745      -0.00290664       0.01651543 </v>
   <v>      -0.00566067       0.00402607       0.00158293 </v>
   <v>      -0.00075208       0.08183955       0.00258722 </v>
   <v>      -0.01631054      -0.00672565       0.00800790 </v>
   <v>      -0.00829988      -0.00428487      -0.01643701 </v>
   <v>       0.01008619       0.00395625      -0.00226138 </v>
  </varray>
  <varray name="stress" >
   <v>      -0.48260315       0.00503192       0.14804485 </v>
   <v>       0.00503192      -0.48946869       0.09983384 </v>
   <v>       0.14804483       0.09983381      -0.51936256 </v>
  </varray>
  <energy>
   <i name="e_fr_energy">   -372.64320711 </i>
   <i name="e_wo_entrp">   -372.64744437 </i>
   <i name="e_0_energy">      0.01271179 </i>
  </energy>
  <time name="totalsc">    7.94    8.41</time>
 </calculation>
 <calculation>
  <scstep>
   <time name="dav">    1.01    1.02</time>
   <time name="total">    1.16    1.29</time>
   <energy>
    <i name="alphaZ">   1733.78844811 </i>
    <i name="ewald"> -22046.00474739 </i>
    <i name="hartreedc">  -6897.22375792 </i>
    <i name="XCdc">   -158.67070213 </i>
    <i name="pawpsdc">  36619.36670784 </i>
    <i name="pawaedc"> -34995.29060271 </i>
    <i name="eentropy">      0.01225368 </i>
    <i name="bandstr">  -2801.99099156 </i>
    <i name="atom">  28173.36956058 </i>
    <i name="e_fr_energy">   -372.64383149 </i>
    <i name="e_wo_entrp">   -372.65608517 </i>
    <i name="e_0_energy">   -372.64791605 </i>
   </energy>
  </scstep>
  <scstep>
   <time name="diag">    0.08    0.08</time>
   <time name="diis">    0.82    0.82</time>
   <time name="orth">    0.01    0.01</time>
   <time name="total">    0.98    1.02</time>
   <energy>
    <i name="e_fr_energy">   -372.64642968 </i>
    <i name="e_wo_entrp">   -372.65836841 </i>
    <i name="e_0_energy">   -372.65040926 </i>
   </energy>
  </scstep>
  <scstep>
   <time name="diag">    0.08    0.08</time>
   <time name="diis">    0.84    0.85</time>
   <time name="orth">    0.01    0.01</time>
   <time name="total">    1.03    1.06</time>
   <energy>
    <i name="e_fr_energy">   -372.64584342 </i>
    <i name="e_wo_entrp">   -372.65809698 </i>
    <i name="e_0_energy">   -372.64992794 </i>
   </energy>
  </scstep>
  <scstep>
   <time name="diag">    0.12    0.12</time>
   <time name="diis">    0.92    0.93</time>
   <time name="orth">    0.01    0.01</time>
   <time name="total">    1.14    1.17</time>
   <energy>
    <i name="e_fr_energy">   -372.64557435 </i>
    <i name="e_wo_entrp">   -372.65773832 </i>
    <i name="e_0_energy">   -372.64962900 </i>
   </energy>
  </scstep>
  <scstep>
   <time name="diag">    0.09    0.09</time>
   <time name="diis">    0.90    0.91</time>
   <time name="orth">    0.01    0.01</time>
   <time name="total">    1.10    1.16</time>
   <energy>
    <i name="e_fr_energy">   -372.64551136 </i>
    <i name="e_wo_entrp">   -372.65771926 </i>
    <i name="e_0_energy">   -372.64958066 </i>
   </energy>
  </scstep>
  <scstep>
   <time name="diag">    0.09    0.09</time>
   <time name="diis">    0.83    0.84</time>
   <time name="orth">    0.01    0.01</time>
   <time name="total">    1.01    1.04</time>
   <energy>
    <i name="e_fr_energy">   -372.64549438 </i>
    <i name="e_wo_entrp">   -372.65768745 </i>
    <i name="e_0_energy">   -372.64955874 </i>
   </energy>
  </scstep>
  <scstep>
   <time name="diag">    0.09    0.09</time>
   <time name="diis">    0.72    0.73</time>
   <time name="orth">    0.01    0.01</time>
   <time name="total">    0.89    0.91</time>
   <energy>
    <i name="e_fr_energy">   -372.64548884 </i>
    <i name="e_wo_entrp">   -372.65769436 </i>
    <i name="e_0_energy">   -372.64955735 </i>
   </energy>
  </scstep>
  <scstep>
   <time name="diag">    0.08    0.08</time>
   <time name="diis">    0.47    0.47</time>
   <time name="orth">    0.01    0.01</time>
   <time name="total">    0.60    0.64</time>
   <energy>
    <i name="alphaZ">   1733.78844811 </i>
    <i name="ewald"> -22046.00474739 </i>
    <i name="hartreedc">  -6900.27237559 </i>
    <i name="XCdc">   -158.53827413 </i>
    <i name="pawpsdc">  36591.36202622 </i>
    <i name="pawaedc"> -34967.31230338 </i>
    <i name="eentropy">      0.01220303 </i>
    <i name="bandstr">  -2799.05002423 </i>
    <i name="atom">  28173.36956058 </i>
    <i name="e_fr_energy">   -372.64548678 </i>
    <i name="e_wo_entrp">   -372.65768980 </i>
    <i name="e_0_energy">   -372.64955445 </i>
   </energy>
  </scstep>
  <structure>
   <crystal>
    <varray name="basis" >
     <v>       6.81492041      -0.03215908      -0.02194772 </v>
     <v>      -0.04680291      10.09243148       0.00633268 </v>
     <v>      -0.03268188       0.00604217      10.18023106 </v>
    </varray>
    <i name="volume">    700.16449576 </i>
    <varray name="rec_basis" >
     <v>       0.14674158       0.00068021       0.00047068 </v>
     <v>       0.00046740       0.09908635      -0.00005731 </v>
     <v>       0.00031607      -0.00006017       0.09823065 </v>
    </varray>
   </crystal>
   <varray name="positions" >
    <v>       0.24927334       0.83491293       0.16752234 </v>
    <v>       0.01157281       0.32862230       0.66412671 </v>
    <v>       0.72050983       0.17138541       0.82882202 </v>
    <v>       0.50314526       0.67077928       0.66276896 </v>
    <v>       0.99827165       0.00883831       0.66118382 </v>
    <v>       0.98924698       0.66495787       0.99807027 </v>
    <v>       0.49838335       0.66348756       0.34263734 </v>
    <v>       0.76139797       0.83397301       0.83695932 </v>
    <v>       0.25490926       0.49422633       0.49747004 </v>
    <v>       0.51065579       0.00170245       0.33441931 </v>
    <v>       0.99404515       0.99953160       0.33808067 </v>
    <v>       0.99378503       0.66443381       0.66171457 </v>
    <v>       0.00290338       0.33120370       0.34537991 </v>
    <v>       0.22950280       0.51906117       0.82808000 </v>
    <v>       0.48667538       0.34024508       0.66076883 </v>
    <v>       0.75059385       0.16170760       0.17392210 </v>
    <v>       0.52501942       0.99077882       0.00417884 </v>
    <v>       0.26179596       0.84458006       0.49268835 </v>
    <v>       0.74219801       0.84016120       0.49195587 </v>
    <v>       0.24343362       0.50602293       0.17790068 </v>
    <v>       0.74291608       0.49107690       0.50287204 </v>
    <v>       0.75392229       0.83865224       0.17098723 </v>
    <v>       0.98065395       0.00266643       0.00030074 </v>
    <v>       0.75839061       0.49826372       0.81984057 </v>
    <v>       0.26472493       0.16422114       0.49310896 </v>
    <v>       0.27775037       0.15167439       0.83026788 </v>
    <v>       0.50641085       0.99110001       0.65827520 </v>
    <v>       0.49754242       0.33245235       0.33866074 </v>
    <v>       0.73712552       0.16844327       0.49608382 </v>
    <v>       0.48099792       0.34369769       0.99939649 </v>
    <v>       0.00175164       0.66759583       0.34672934 </v>
    <v>       0.24116941       0.83568542       0.83727047 </v>
    <v>       0.75707795       0.49247704       0.17655239 </v>
    <v>       0.01405411       0.33057892       0.99156917 </v>
    <v>       0.50786738       0.66401185       0.99783806 </v>
    <v>       0.25032474       0.15680440       0.17159994 </v>
   </varray>
  </structure>
  <varray name="forces" >
   <v>       0.00446612       0.00014383       0.00428153 </v>
   <v>       0.02335002       0.00782607       0.00732108 </v>
   <v>      -0.00165533      -0.00201643      -0.02845784 </v>
   <v>       0.00502700       0.00467393      -0.00526303 </v>
   <v>       0.02103490      -0.00551955       0.00705641 </v>
   <v>       0.00738946       0.00041519      -0.00898345 </v>
   <v>      -0.00349291       0.00759043       0.00540612 </v>
   <v>      -0.00330454      -0.00109755       0.01343045 </v>
   <v>      -0.00241748      -0.00331072      -0.00651130 </v>
   <v>       0.02388990       0.00386699       0.00014019 </v>
   <v>      -0.02155187       0.00053854      -0.01247049 </v>
   <v>      -0.00606270      -0.00075945       0.00006160 </v>
   <v>      -0.00523588      -0.00831063       0.00311218 </v>
   <v>      -0.00585807      -0.00424589       0.00660348 </v>
   <v>      -0.00818620       0.00639909      -0.00721039 </v>
   <v>       0.00004531      -0.01546665       0.00259286 </v>
   <v>       0.03739439      -0.00905130       0.00995603 </v>
   <v>       0.00458858       0.02199041      -0.01841075 </v>
   <v>       0.00188812       0.01290375      -0.01005747 </v>
   <v>      -0.00603172      -0.02302333      -0.00354052 </v>
   <v>      -0.00759899      -0.01292797      -0.00128780 </v>
   <v>      -0.00005349      -0.00628909      -0.00286520 </v>
   <v>      -0.02497418      -0.00039534       0.00268861 </v>
   <v>       0.00338532      -0.00350433       0.00514734 </v>
   <v>       0.00079339       0.00198131      -0.00373732 </v>
   <v>      -0.01412806      -0.01114099       0.01833920 </v>
   <v>      -0.01350541      -0.01342668      -0.00444849 </v>
   <v>       0.01518533      -0.00437868      -0.00388080 </v>
   <v>      -0.01805586       0.01078827       0.00722050 </v>
   <v>       0.01831120      -0.00656043      -0.00113614 </v>
   <v>       0.02398992       0.00048106       0.02832199 </v>
   <v>      -0.00087758       0.00395351      -0.00104971 </v>
   <v>      -0.01243846       0.05487657       0.00319206 </v>
   <v>      -0.02167094      -0.00823313       0.01339561 </v>
   <v>      -0.02145571      -0.00285943      -0.02228602 </v>
   <v>       0.00781640       0.00408859       0.00332951 </v>
  </varray>
  <varray name="stress" >
   <v>      -1.34456402       0.15605811       0.37499940 </v>
   <v>       0.15605815      -1.82739310      -0.26082954 </v>
   <v>       0.37499944      -0.26082961      -1.58671181 </v>
  </varray>
  <energy>
   <i name="e_fr_energy">   -372.64548678 </i>
   <i name="e_wo_entrp">   -372.64955445 </i>
   <i name="e_0_energy">      0.01220303 </i>
  </energy>
  <time name="totalsc">    9.60   10.08</time>
 </calculation>
 <calculation>
  <scstep>
   <time name="dav">    1.11    1.12</time>
   <time name="total">    1.26    1.38</time>
   <energy>
    <i name="alphaZ">   1736.00689719 </i>
    <i name="ewald"> -22055.05905145 </i>
    <i name="hartreedc">  -6903.52338266 </i>
    <i name="XCdc">   -158.12965720 </i>
    <i name="pawpsdc">  36591.48705169 </i>
    <i name="pawaedc"> -34967.47211082 </i>
    <i name="eentropy">      0.01221509 </i>
    <i name="bandstr">  -2789.34138099 </i>
    <i name="atom">  28173.36956058 </i>
    <i name="e_fr_energy">   -372.64985858 </i>
    <i name="e_wo_entrp">   -372.66207367 </i>
    <i name="e_0_energy">   -372.65393028 </i>
   </energy>
  </scstep>
  <scstep>
   <time name="diag">    0.08    0.08</time>
   <time name="diis">    0.78    0.79</time>
   <time name="orth">    0.01    0.01</time>
   <time name="total">    0.95    0.98</time>
   <energy>
    <i name="e_fr_energy">   -372.64794091 </i>
    <i name="e_wo_entrp">   -372.65997522 </i>
    <i name="e_0_energy">   -372.65195235 </i>
   </energy>
  </scstep>
  <scstep>
   <time name="diag">    0.08    0.08</time>
   <time name="diis">    0.90    0.91</time>
   <time name="orth">    0.01    0.01</time>
   <time name="total">    1.09    1.13</time>
   <energy>
    <i name="e_fr_energy">   -372.64707538 </i>
    <i name="e_wo_entrp">   -372.65926109 </i>
    <i name="e_0_energy">   -372.65113729 </i>
   </energy>
  </scstep>
  <scstep>
   <time name="diag">    0.08    0.08</time>
   <time name="diis">    0.90    0.91</time>
   <time name="orth">    0.01    0.01</time>
   <time name="total">    1.06    1.12</time>
   <energy>
    <i name="e_fr_energy">   -372.64655511 </i>
    <i name="e_wo_entrp">   -372.65866465 </i>
    <i name="e_0_energy">   -372.65059162 </i>
   </energy>
  </scstep>
  <scstep>
   <time name="diag">    0.08    0.08</time>
   <time name="diis">    0.82    0.83</time>
   <time name="orth">    0.01    0.01</time>
   <time name="total">    0.99    1.01</time>
   <energy>
    <i name="e_fr_energy">   -372.64647812 </i>
    <i name="e_wo_entrp">   -372.65855759 </i>
    <i name="e_0_energy">   -372.65050461 </i>
   </energy>
  </scstep>
  <scstep>
   <time name="diag">    0.08    0.08</time>
   <time name="diis">    0.74    0.75</time>
   <time name="orth">    0.01    0.01</time>
   <time name="total">    0.91    0.96</time>
   <energy>
    <i name="e_fr_energy">   -372.64649806 </i>
    <i name="e_wo_entrp">   -372.65860852 </i>
    <i name="e_0_energy">   -372.65053488 </i>
   </energy>
  </scstep>
  <scstep>
   <time name="diag">    0.08    0.08</time>
   <time name="diis">    0.58    0.62</time>
   <time name="orth">    0.01    0.01</time>
   <time name="total">    0.77    0.84</time>
   <energy>
    <i name="e_fr_energy">   -372.64651580 </i>
    <i name="e_wo_entrp">   -372.65861814 </i>
    <i name="e_0_energy">   -372.65054992 </i>
   </energy>
  </scstep>
  <scstep>
   <time name="diag">    0.09    0.09</time>
   <time name="diis">    0.46    0.46</time>
   <time name="orth">    0.01    0.01</time>
   <time name="total">    0.63    0.68</time>
   <energy>
    <i name="e_fr_energy">   -372.64652716 </i>
    <i name="e_wo_entrp">   -372.65862971 </i>
    <i name="e_0_energy">   -372.65056135 </i>
   </energy>
  </scstep>
  <scstep>
   <time name="diag">    0.08    0.08</time>
   <time name="diis">    0.41    0.41</time>
   <time name="orth">    0.01    0.01</time>
   <time name="total">    0.54    0.56</time>
   <energy>
    <i name="alphaZ">   1736.00689719 </i>
    <i name="ewald"> -22055.05905145 </i>
    <i name="hartreedc">  -6897.72030445 </i>
    <i name="XCdc">   -158.38090656 </i>
    <i name="pawpsdc">  36648.83450386 </i>
    <i name="pawaedc"> -35024.94286233 </i>
    <i name="eentropy">      0.01210063 </i>
    <i name="bandstr">  -2794.76647413 </i>
    <i name="atom">  28173.36956058 </i>
    <i name="e_fr_energy">   -372.64653666 </i>
    <i name="e_wo_entrp">   -372.65863729 </i>
    <i name="e_0_energy">   -372.65057020 </i>
   </energy>
  </scstep>
  <structure>
   <crystal>
    <varray name="basis" >
     <v>       6.81232908      -0.03197538      -0.02119125 </v>
     <v>      -0.04653416      10.08783137       0.00630434 </v>
     <v>      -0.03155391       0.00601802      10.17571784 </v>
    </varray>
    <i name="volume">    699.26975318 </i>
    <varray name="rec_basis" >
     <v>       0.14679727       0.00067688       0.00045480 </v>
     <v>       0.00046512       0.09913151      -0.00005719 </v>
     <v>       0.00030542      -0.00006001       0.09827415 </v>
    </varray>
   </crystal>
   <varray name="positions" >
    <v>       0.24927594       0.83496508       0.16753091 </v>
    <v>       0.01166567       0.32866001       0.66413906 </v>
    <v>       0.72051267       0.17137365       0.82861319 </v>
    <v>       0.50312756       0.67077677       0.66275320 </v>
    <v>       0.99837352       0.00881648       0.66121355 </v>
    <v>       0.98927919       0.66494563       0.99803731 </v>
    <v>       0.49835158       0.66350448       0.34268663 </v>
    <v>       0.76138944       0.83399383       0.83702214 </v>
    <v>       0.25492078       0.49422025       0.49743348 </v>
    <v>       0.51084664       0.00175053       0.33436303 </v>
    <v>       0.99393710       0.99957224       0.33800920 </v>
    <v>       0.99378972       0.66442437       0.66171048 </v>
    <v>       0.00287436       0.33116655       0.34539684 </v>
    <v>       0.22950057       0.51901544       0.82813720 </v>
    <v>       0.48663315       0.34029771       0.66075897 </v>
    <v>       0.75057952       0.16166993       0.17388929 </v>
    <v>       0.52512413       0.99075485       0.00421854 </v>
    <v>       0.26178909       0.84464750       0.49262923 </v>
    <v>       0.74220906       0.84022632       0.49189494 </v>
    <v>       0.24339147       0.50593023       0.17787902 </v>
    <v>       0.74288640       0.49101197       0.50285079 </v>
    <v>       0.75393865       0.83838204       0.17096609 </v>
    <v>       0.98059144       0.00265733       0.00032823 </v>
    <v>       0.75837997       0.49823279       0.81987717 </v>
    <v>       0.26473631       0.16420324       0.49305750 </v>
    <v>       0.27770977       0.15164997       0.83036171 </v>
    <v>       0.50634118       0.99104986       0.65826688 </v>
    <v>       0.49757441       0.33245124       0.33864020 </v>
    <v>       0.73705938       0.16850625       0.49633833 </v>
    <v>       0.48103903       0.34370235       0.99938735 </v>
    <v>       0.00185622       0.66758621       0.34681755 </v>
    <v>       0.24114293       0.83570298       0.83726954 </v>
    <v>       0.75705522       0.49279817       0.17656480 </v>
    <v>       0.01393891       0.33054813       0.99160769 </v>
    <v>       0.50779344       0.66399535       0.99775711 </v>
    <v>       0.25038457       0.15682329       0.17159585 </v>
   </varray>
  </structure>
  <varray name="forces" >
   <v>       0.00513284      -0.00427143       0.00371175 </v>
   <v>       0.02102141       0.00466993       0.00919251 </v>
   <v>       0.00201025      -0.00057009      -0.02116002 </v>
   <v>       0.00532619       0.00673906      -0.00362604 </v>
   <v>       0.01937535      -0.00645289       0.00629478 </v>
   <v>       0.00993424       0.00149484      -0.00715668 </v>
   <v>      -0.00332820       0.00846228      -0.00023921 </v>
   <v>      -0.00531843      -0.00614965       0.00588269 </v>
   <v>      -0.00403854       0.00096485      -0.00323072 </v>
   <v>       0.01537194       0.00151679      -0.00312082 </v>
   <v>      -0.01624906       0.00363205      -0.01278662 </v>
   <v>      -0.00634967       0.00395559      -0.00109935 </v>
   <v>      -0.00605561      -0.00864863      -0.00393123 </v>
   <v>      -0.00261825      -0.00587394       0.00647683 </v>
   <v>      -0.01014465       0.00389576      -0.00267820 </v>
   <v>       0.00110945      -0.01018056       0.00423947 </v>
   <v>       0.03114398      -0.00728862       0.00771480 </v>
   <v>       0.00231080       0.01645179      -0.01598438 </v>
   <v>       0.00733685       0.00838362      -0.00387050 </v>
   <v>      -0.00553075      -0.02301543      -0.00603126 </v>
   <v>      -0.00226910      -0.00951962      -0.00000534 </v>
   <v>       0.00037701      -0.00082720      -0.00060434 </v>
   <v>      -0.01939746       0.00260277       0.00205322 </v>
   <v>       0.00044889      -0.00258194       0.00641811 </v>
   <v>      -0.00208145       0.00194138       0.00037381 </v>
   <v>      -0.01830538      -0.00948894       0.01747375 </v>
   <v>      -0.01307316      -0.01082120      -0.00093031 </v>
   <v>       0.01444776      -0.00393730      -0.00880811 </v>
   <v>      -0.01118014       0.00956500      -0.00111724 </v>
   <v>       0.02218073      -0.00910713       0.00160617 </v>
   <v>       0.02332003       0.00039280       0.02737376 </v>
   <v>       0.00162257       0.00310602      -0.00071179 </v>
   <v>      -0.01349803       0.04690807       0.00137356 </v>
   <v>      -0.02334323      -0.00916641       0.01623849 </v>
   <v>      -0.02510246      -0.00319309      -0.02063165 </v>
   <v>       0.00541330       0.00641148       0.00130010 </v>
  </varray>
  <varray name="stress" >
   <v>       0.38449936       0.14149839       0.32740447 </v>
   <v>       0.14149844      -0.09509169      -0.23156776 </v>
   <v>       0.32740445      -0.23156769       0.14727362 </v>
  </varray>
  <energy>
   <i name="e_fr_energy">   -372.64653666 </i>
   <i name="e_wo_entrp">   -372.65057020 </i>
   <i name="e_0_energy">      0.01210063 </i>
  </energy>
  <time name="totalsc">    9.96   10.54</time>
 </calculation>
 <calculation>
  <scstep>
   <time name="dav">    1.11    1.12</time>
   <time name="total">    1.29    1.41</time>
   <energy>
    <i name="alphaZ">   1737.04963771 </i>
    <i name="ewald"> -22059.30974059 </i>
    <i name="hartreedc">  -6899.28664276 </i>
    <i name="XCdc">   -158.18742832 </i>
    <i name="pawpsdc">  36648.92416032 </i>
    <i name="pawaedc"> -35024.98844047 </i>
    <i name="eentropy">      0.01211111 </i>
    <i name="bandstr">  -2790.23051690 </i>
    <i name="atom">  28173.36956058 </i>
    <i name="e_fr_energy">   -372.64729933 </i>
    <i name="e_wo_entrp">   -372.65941044 </i>
    <i name="e_0_energy">   -372.65133637 </i>
   </energy>
  </scstep>
  <scstep>
   <time name="diag">    0.08    0.08</time>
   <time name="diis">    0.77    0.77</time>
   <time name="orth">    0.01    0.01</time>
   <time name="total">    0.93    0.96</time>
   <energy>
    <i name="e_fr_energy">   -372.64687237 </i>
    <i name="e_wo_entrp">   -372.65889215 </i>
    <i name="e_0_energy">   -372.65087896 </i>
   </energy>
  </scstep>
  <scstep>
   <time name="diag">    0.08    0.08</time>
   <time name="diis">    0.89    0.90</time>
   <time name="orth">    0.02    0.02</time>
   <time name="total">    1.09    1.13</time>
   <energy>
    <i name="e_fr_energy">   -372.64668803 </i>
    <i name="e_wo_entrp">   -372.65878535 </i>
    <i name="e_0_energy">   -372.65072047 </i>
   </energy>
  </scstep>
  <scstep>
   <time name="diag">    0.08    0.09</time>
   <time name="diis">    0.83    0.83</time>
   <time name="orth">    0.01    0.01</time>
   <time name="total">    0.99    1.05</time>
   <energy>
    <i name="e_fr_energy">   -372.64658926 </i>
    <i name="e_wo_entrp">   -372.65864546 </i>
    <i name="e_0_energy">   -372.65060799 </i>
   </energy>
  </scstep>
  <scstep>
   <time name="diag">    0.08    0.08</time>
   <time name="diis">    0.65    0.65</time>
   <time name="orth">    0.01    0.01</time>
   <time name="total">    0.81    0.84</time>
   <energy>
    <i name="e_fr_energy">   -372.64657925 </i>
    <i name="e_wo_entrp">   -372.65862417 </i>
    <i name="e_0_energy">   -372.65059422 </i>
   </energy>
  </scstep>
  <scstep>
   <time name="diag">    0.08    0.08</time>
   <time name="diis">    0.42    0.42</time>
   <time name="orth">    0.01    0.01</time>
   <time name="total">    0.55    0.65</time>
   <energy>
    <i name="alphaZ">   1737.04963771 </i>
    <i name="ewald"> -22059.30974059 </i>
    <i name="hartreedc">  -6896.55774775 </i>
    <i name="XCdc">   -158.30612613 </i>
    <i name="pawpsdc">  36680.22497662 </i>
    <i name="pawaedc"> -35056.31095792 </i>
    <i name="eentropy">      0.01205684 </i>
    <i name="bandstr">  -2792.81824844 </i>
    <i name="atom">  28173.36956058 </i>
    <i name="e_fr_energy">   -372.64658908 </i>
    <i name="e_wo_entrp">   -372.65864592 </i>
    <i name="e_0_energy">   -372.65060803 </i>
   </energy>
  </scstep>
  <structure>
   <crystal>
    <varray name="basis" >
     <v>       6.81111262      -0.03188915      -0.02083614 </v>
     <v>      -0.04640800      10.08567192       0.00629103 </v>
     <v>      -0.03102441       0.00600668      10.17359918 </v>
    </varray>
    <i name="volume">    698.84998573 </i>
    <varray name="rec_basis" >
     <v>       0.14682342       0.00067531       0.00044734 </v>
     <v>       0.00046405       0.09915273      -0.00005713 </v>
     <v>       0.00030042      -0.00005993       0.09829458 </v>
    </varray>
   </crystal>
   <varray name="positions" >
    <v>       0.24927716       0.83498957       0.16753493 </v>
    <v>       0.01170928       0.32867772       0.66414485 </v>
    <v>       0.72051402       0.17136813       0.82851511 </v>
    <v>       0.50311924       0.67077559       0.66274579 </v>
    <v>       0.99842136       0.00880622       0.66122751 </v>
    <v>       0.98929433       0.66493989       0.99802183 </v>
    <v>       0.49833665       0.66351243       0.34270978 </v>
    <v>       0.76138543       0.83400360       0.83705165 </v>
    <v>       0.25492620       0.49421740       0.49741631 </v>
    <v>       0.51093627       0.00177311       0.33433659 </v>
    <v>       0.99388637       0.99959133       0.33797564 </v>
    <v>       0.99379192       0.66441994       0.66170856 </v>
    <v>       0.00286073       0.33114910       0.34540479 </v>
    <v>       0.22949952       0.51899397       0.82816406 </v>
    <v>       0.48661332       0.34032242       0.66075434 </v>
    <v>       0.75057280       0.16165224       0.17387389 </v>
    <v>       0.52517330       0.99074360       0.00423718 </v>
    <v>       0.26178586       0.84467917       0.49260147 </v>
    <v>       0.74221426       0.84025690       0.49186633 </v>
    <v>       0.24337168       0.50588669       0.17786885 </v>
    <v>       0.74287247       0.49098147       0.50284081 </v>
    <v>       0.75394634       0.83825515       0.17095617 </v>
    <v>       0.98056208       0.00265306       0.00034115 </v>
    <v>       0.75837497       0.49821826       0.81989437 </v>
    <v>       0.26474166       0.16419483       0.49303333 </v>
    <v>       0.27769070       0.15163850       0.83040578 </v>
    <v>       0.50630846       0.99102630       0.65826297 </v>
    <v>       0.49758943       0.33245072       0.33863055 </v>
    <v>       0.73702830       0.16853582       0.49645786 </v>
    <v>       0.48105834       0.34370454       0.99938306 </v>
    <v>       0.00190532       0.66758169       0.34685898 </v>
    <v>       0.24113049       0.83571122       0.83726910 </v>
    <v>       0.75704454       0.49294899       0.17657063 </v>
    <v>       0.01388481       0.33053366       0.99162579 </v>
    <v>       0.50775873       0.66398760       0.99771909 </v>
    <v>       0.25041266       0.15683216       0.17159392 </v>
   </varray>
  </structure>
  <varray name="forces" >
   <v>       0.00584576      -0.00714231       0.00418424 </v>
   <v>       0.02007858       0.00314726       0.01042047 </v>
   <v>       0.00313731       0.00112461      -0.01830493 </v>
   <v>       0.00576470       0.00753397      -0.00278957 </v>
   <v>       0.01845070      -0.00688916       0.00665920 </v>
   <v>       0.01096955       0.00194402      -0.00500461 </v>
   <v>      -0.00319048       0.00834143      -0.00313212 </v>
   <v>      -0.00678160      -0.00890235       0.00144776 </v>
   <v>      -0.00446768       0.00292884      -0.00101491 </v>
   <v>       0.01033743      -0.00010646      -0.00402448 </v>
   <v>      -0.01329060       0.00413224      -0.01205916 </v>
   <v>      -0.00710169       0.00620582      -0.00182415 </v>
   <v>      -0.00633198      -0.00779538      -0.00714713 </v>
   <v>      -0.00094233      -0.00699358       0.00572265 </v>
   <v>      -0.01003957       0.00218614      -0.00104465 </v>
   <v>       0.00138310      -0.00716428       0.00472162 </v>
   <v>       0.02838119      -0.00648618       0.00581255 </v>
   <v>       0.00153764       0.01371741      -0.01537801 </v>
   <v>       0.00970826       0.00570690      -0.00138527 </v>
   <v>      -0.00505136      -0.02252415      -0.00724992 </v>
   <v>       0.00001681      -0.00756052       0.00084468 </v>
   <v>       0.00033661       0.00162865       0.00118288 </v>
   <v>      -0.01699760       0.00407571       0.00116434 </v>
   <v>      -0.00135480      -0.00269628       0.00693318 </v>
   <v>      -0.00318836       0.00190141       0.00294960 </v>
   <v>      -0.02033723      -0.00774380       0.01669656 </v>
   <v>      -0.01278021      -0.00931261       0.00171331 </v>
   <v>       0.01427640      -0.00296741      -0.01166345 </v>
   <v>      -0.00808235       0.00888132      -0.00519095 </v>
   <v>       0.02424015      -0.01050867       0.00339458 </v>
   <v>       0.02308950       0.00047222       0.02631671 </v>
   <v>       0.00295468       0.00293380      -0.00067957 </v>
   <v>      -0.01439119       0.04310479      -0.00014502 </v>
   <v>      -0.02432331      -0.00958260       0.01748489 </v>
   <v>      -0.02648030      -0.00331521      -0.01928169 </v>
   <v>       0.00462427       0.00772446      -0.00032961 </v>
  </varray>
  <varray name="stress" >
   <v>       1.32986431       0.14294126       0.31271058 </v>
   <v>       0.14294129       0.85300630      -0.20657856 </v>
   <v>       0.31271052      -0.20657851       1.07530340 </v>
  </varray>
  <energy>
   <i name="e_fr_energy">   -372.64658908 </i>
   <i name="e_wo_entrp">   -372.65060803 </i>
   <i name="e_0_energy">      0.01205684 </i>
  </energy>
  <time name="totalsc">    7.46    7.97</time>
 </calculation>
 <calculation>
  <scstep>
   <time name="dav">    0.97    1.09</time>
   <time name="total">    1.11    1.40</time>
   <energy>
    <i name="alphaZ">   1737.01967556 </i>
    <i name="ewald"> -22058.82385679 </i>
    <i name="hartreedc">  -6896.95638038 </i>
    <i name="XCdc">   -158.30637856 </i>
    <i name="pawpsdc">  36677.90604089 </i>
    <i name="pawaedc"> -35053.95048365 </i>
    <i name="eentropy">      0.01223932 </i>
    <i name="bandstr">  -2792.91740631 </i>
    <i name="atom">  28173.36956058 </i>
    <i name="e_fr_energy">   -372.64698936 </i>
    <i name="e_wo_entrp">   -372.65922867 </i>
    <i name="e_0_energy">   -372.65106913 </i>
   </energy>
  </scstep>
  <scstep>
   <time name="diag">    0.08    0.08</time>
   <time name="diis">    0.85    0.85</time>
   <time name="orth">    0.01    0.01</time>
   <time name="total">    1.02    1.09</time>
   <energy>
    <i name="e_fr_energy">   -372.64740338 </i>
    <i name="e_wo_entrp">   -372.65947961 </i>
    <i name="e_0_energy">   -372.65142879 </i>
   </energy>
  </scstep>
  <scstep>
   <time name="diag">    0.08    0.08</time>
   <time name="diis">    0.83    0.83</time>
   <time name="orth">    0.01    0.01</time>
   <time name="total">    0.99    1.04</time>
   <energy>
    <i name="e_fr_energy">   -372.64739755 </i>
    <i name="e_wo_entrp">   -372.65958981 </i>
    <i name="e_0_energy">   -372.65146164 </i>
[...]
       <r>    7.3260    1.0000 </r>
       <r>    7.3548    1.0000 </r>
       <r>    7.4269    1.0000 </r>
       <r>    7.4618    1.0000 </r>
       <r>    7.5135    1.0001 </r>
       <r>    7.5250    1.0002 </r>
       <r>    7.5628    1.0007 </r>
       <r>    7.6109    1.0027 </r>
       <r>    7.6334    1.0048 </r>
       <r>    7.6717    1.0110 </r>
       <r>    7.6988    1.0179 </r>
       <r>    7.7429    1.0310 </r>
       <r>    7.7586    1.0343 </r>
       <r>    7.7721    1.0355 </r>
       <r>    7.8100    1.0222 </r>
       <r>    7.8259    1.0054 </r>
       <r>    7.8522    0.9573 </r>
       <r>    7.8973    0.8050 </r>
       <r>    7.9138    0.7281 </r>
       <r>    7.9719    0.4114 </r>
       <r>    8.0083    0.2240 </r>
       <r>    8.0320    0.1265 </r>
       <r>    8.0609    0.0405 </r>
       <r>    8.1023   -0.0223 </r>
       <r>    8.1430   -0.0354 </r>
       <r>    8.2100   -0.0189 </r>
       <r>    8.2217   -0.0156 </r>
       <r>    8.2518   -0.0088 </r>
       <r>    8.3111   -0.0021 </r>
       <r>    8.3766   -0.0003 </r>
       <r>    8.3829   -0.0002 </r>
       <r>    8.4137   -0.0001 </r>
       <r>    8.4671   -0.0000 </r>
       <r>    8.5299   -0.0000 </r>
       <r>    8.6015   -0.0000 </r>
       <r>    8.7877   -0.0000 </r>
       <r>    8.8217   -0.0000 </r>
       <r>    8.9997   -0.0000 </r>
       <r>    9.0564   -0.0000 </r>
       <r>    9.1787   -0.0000 </r>
       <r>    9.8644   -0.0000 </r>
       <r>    9.9195   -0.0000 </r>
       <r>    9.9547   -0.0000 </r>
       <r>   10.0142   -0.0000 </r>
       <r>   10.0631   -0.0000 </r>
       <r>   10.1232   -0.0000 </r>
       <r>   10.1644   -0.0000 </r>
       <r>   10.2887   -0.0000 </r>
       <r>   10.3831   -0.0000 </r>
      </set>
     </set>
    </set>
   </array>
  </eigenvalues>
  <separator name="orbital magnetization" >
   <v name="MAGDIPOLOUT">      0.00000000      0.00000000      0.00000000</v>
  </separator>
  <dos>
   <i name="efermi">      7.95606910 </i>
   <total>
    <array>
     <dimension dim="1">gridpoints</dimension>
     <dimension dim="2">spin</dimension>
     <field>energy</field>
     <field>total</field>
     <field>integrated</field>
     <set>
      <set comment="spin 1">
       <r>   -49.1230     0.0000     0.0000 </r>
       <r>   -48.9151     0.0000     0.0000 </r>
       <r>   -48.7073     0.0000     0.0000 </r>
       <r>   -48.4994     0.0000     0.0000 </r>
       <r>   -48.2916     0.0000     0.0000 </r>
       <r>   -48.0837     0.0000     0.0000 </r>
       <r>   -47.8759     0.0000     0.0000 </r>
       <r>   -47.6680    -0.0000    -0.0000 </r>
       <r>   -47.4602    -0.0000    -0.0000 </r>
       <r>   -47.2523    -0.0000    -0.0000 </r>
       <r>   -47.0445    -0.0000    -0.0000 </r>
       <r>   -46.8366    -0.0000    -0.0000 </r>
       <r>   -46.6288    -0.0643    -0.0134 </r>
       <r>   -46.4209    -1.9170    -0.4118 </r>
       <r>   -46.2131    42.5178     8.4255 </r>
       <r>   -46.0052    65.3150    22.0011 </r>
       <r>   -45.7974     0.2666    22.0565 </r>
       <r>   -45.5895    -0.2716    22.0001 </r>
       <r>   -45.3817    -0.0004    22.0000 </r>
       <r>   -45.1738    -0.0000    22.0000 </r>
       <r>   -44.9660    -0.0000    22.0000 </r>
       <r>   -44.7582     0.0000    22.0000 </r>
       <r>   -44.5503     0.0000    22.0000 </r>
       <r>   -44.3425     0.0000    22.0000 </r>
       <r>   -44.1346     0.0000    22.0000 </r>
       <r>   -43.9268     0.0000    22.0000 </r>
       <r>   -43.7189     0.0000    22.0000 </r>
       <r>   -43.5111     0.0000    22.0000 </r>
       <r>   -43.3032     0.0000    22.0000 </r>
       <r>   -43.0954     0.0000    22.0000 </r>
       <r>   -42.8875     0.0000    22.0000 </r>
       <r>   -42.6797     0.0000    22.0000 </r>
       <r>   -42.4718     0.0000    22.0000 </r>
       <r>   -42.2640     0.0000    22.0000 </r>
       <r>   -42.0561     0.0000    22.0000 </r>
       <r>   -41.8483     0.0000    22.0000 </r>
       <r>   -41.6404     0.0000    22.0000 </r>
       <r>   -41.4326    -0.0000    22.0000 </r>
       <r>   -41.2247    -0.0000    22.0000 </r>
       <r>   -41.0169    -0.0000    22.0000 </r>
       <r>   -40.8090    -0.0000    22.0000 </r>
       <r>   -40.6012    -0.0033    21.9993 </r>
       <r>   -40.3933    -0.6700    21.8600 </r>
       <r>   -40.1855     8.2884    23.5828 </r>
       <r>   -39.9776    51.4131    34.2689 </r>
       <r>   -39.7698     9.0390    36.1477 </r>
       <r>   -39.5619    -0.7063    36.0009 </r>
       <r>   -39.3541    -0.0042    36.0000 </r>
       <r>   -39.1462    -0.0000    36.0000 </r>
       <r>   -38.9384    -0.0000    36.0000 </r>
       <r>   -38.7305     0.0000    36.0000 </r>
       <r>   -38.5227     0.0000    36.0000 </r>
       <r>   -38.3148     0.0000    36.0000 </r>
       <r>   -38.1070     0.0000    36.0000 </r>
       <r>   -37.8991     0.0000    36.0000 </r>
       <r>   -37.6913     0.0000    36.0000 </r>
       <r>   -37.4834     0.0000    36.0000 </r>
       <r>   -37.2756     0.0000    36.0000 </r>
       <r>   -37.0677     0.0000    36.0000 </r>
       <r>   -36.8599     0.0000    36.0000 </r>
       <r>   -36.6520     0.0000    36.0000 </r>
       <r>   -36.4442     0.0000    36.0000 </r>
       <r>   -36.2363     0.0000    36.0000 </r>
       <r>   -36.0285     0.0000    36.0000 </r>
       <r>   -35.8207     0.0000    36.0000 </r>
       <r>   -35.6128     0.0000    36.0000 </r>
       <r>   -35.4050     0.0000    36.0000 </r>
       <r>   -35.1971     0.0000    36.0000 </r>
       <r>   -34.9893     0.0000    36.0000 </r>
       <r>   -34.7814     0.0000    36.0000 </r>
       <r>   -34.5736     0.0000    36.0000 </r>
       <r>   -34.3657     0.0000    36.0000 </r>
       <r>   -34.1579     0.0000    36.0000 </r>
       <r>   -33.9500     0.0000    36.0000 </r>
       <r>   -33.7422     0.0000    36.0000 </r>
       <r>   -33.5343     0.0000    36.0000 </r>
       <r>   -33.3265     0.0000    36.0000 </r>
       <r>   -33.1186     0.0000    36.0000 </r>
       <r>   -32.9108     0.0000    36.0000 </r>
       <r>   -32.7029     0.0000    36.0000 </r>
       <r>   -32.4951     0.0000    36.0000 </r>
       <r>   -32.2872     0.0000    36.0000 </r>
       <r>   -32.0794     0.0000    36.0000 </r>
       <r>   -31.8715     0.0000    36.0000 </r>
       <r>   -31.6637     0.0000    36.0000 </r>
       <r>   -31.4558     0.0000    36.0000 </r>
       <r>   -31.2480     0.0000    36.0000 </r>
       <r>   -31.0401     0.0000    36.0000 </r>
       <r>   -30.8323     0.0000    36.0000 </r>
       <r>   -30.6244     0.0000    36.0000 </r>
       <r>   -30.4166     0.0000    36.0000 </r>
       <r>   -30.2087     0.0000    36.0000 </r>
       <r>   -30.0009     0.0000    36.0000 </r>
       <r>   -29.7930     0.0000    36.0000 </r>
       <r>   -29.5852     0.0000    36.0000 </r>
       <r>   -29.3773     0.0000    36.0000 </r>
       <r>   -29.1695     0.0000    36.0000 </r>
       <r>   -28.9616     0.0000    36.0000 </r>
       <r>   -28.7538     0.0000    36.0000 </r>
       <r>   -28.5459     0.0000    36.0000 </r>
       <r>   -28.3381     0.0000    36.0000 </r>
       <r>   -28.1302     0.0000    36.0000 </r>
       <r>   -27.9224     0.0000    36.0000 </r>
       <r>   -27.7145     0.0000    36.0000 </r>
       <r>   -27.5067     0.0000    36.0000 </r>
       <r>   -27.2989     0.0000    36.0000 </r>
       <r>   -27.0910     0.0000    36.0000 </r>
       <r>   -26.8832     0.0000    36.0000 </r>
       <r>   -26.6753     0.0000    36.0000 </r>
       <r>   -26.4675     0.0000    36.0000 </r>
       <r>   -26.2596     0.0000    36.0000 </r>
       <r>   -26.0518     0.0000    36.0000 </r>
       <r>   -25.8439     0.0000    36.0000 </r>
       <r>   -25.6361     0.0000    36.0000 </r>
       <r>   -25.4282     0.0000    36.0000 </r>
       <r>   -25.2204     0.0000    36.0000 </r>
       <r>   -25.0125     0.0000    36.0000 </r>
       <r>   -24.8047     0.0000    36.0000 </r>
       <r>   -24.5968     0.0000    36.0000 </r>
       <r>   -24.3890     0.0000    36.0000 </r>
       <r>   -24.1811     0.0000    36.0000 </r>
       <r>   -23.9733    -0.0000    36.0000 </r>
       <r>   -23.7654    -0.0000    36.0000 </r>
       <r>   -23.5576    -0.0000    36.0000 </r>
       <r>   -23.3497    -0.0000    36.0000 </r>
       <r>   -23.1419    -0.0023    35.9995 </r>
       <r>   -22.9340    -0.6920    35.8557 </r>
       <r>   -22.7262     8.0426    37.5273 </r>
       <r>   -22.5183    53.4901    48.6452 </r>
       <r>   -22.3105    97.2751    68.8637 </r>
       <r>   -22.1026   100.2749    89.7057 </r>
       <r>   -21.8948    58.1991   101.8023 </r>
       <r>   -21.6869     1.2659   102.0655 </r>
       <r>   -21.4791    -0.3146   102.0001 </r>
       <r>   -21.2712    -0.0003   102.0000 </r>
       <r>   -21.0634    -0.0000   102.0000 </r>
       <r>   -20.8555    -0.0000   102.0000 </r>
       <r>   -20.6477     0.0000   102.0000 </r>
       <r>   -20.4398     0.0000   102.0000 </r>
       <r>   -20.2320     0.0000   102.0000 </r>
       <r>   -20.0241    -0.0000   102.0000 </r>
       <r>   -19.8163    -0.0000   102.0000 </r>
       <r>   -19.6084    -0.0000   102.0000 </r>
       <r>   -19.4006    -0.0000   102.0000 </r>
       <r>   -19.1927    -0.0000   102.0000 </r>
       <r>   -18.9849    -0.0345   101.9928 </r>
       <r>   -18.7770    -0.3522   101.9196 </r>
       <r>   -18.5692    12.5712   104.5325 </r>
       <r>   -18.3614    30.4695   110.8656 </r>
       <r>   -18.1535    70.0367   125.4226 </r>
       <r>   -17.9457    70.5374   140.0838 </r>
       <r>   -17.7378    19.6032   144.1583 </r>
       <r>   -17.5300    -0.7112   144.0104 </r>
       <r>   -17.3221    -0.0502   144.0000 </r>
       <r>   -17.1143    -0.0000   144.0000 </r>
       <r>   -16.9064    -0.0000   144.0000 </r>
       <r>   -16.6986     0.0000   144.0000 </r>
       <r>   -16.4907     0.0000   144.0000 </r>
       <r>   -16.2829     0.0000   144.0000 </r>
       <r>   -16.0750     0.0000   144.0000 </r>
       <r>   -15.8672     0.0000   144.0000 </r>
       <r>   -15.6593     0.0000   144.0000 </r>
       <r>   -15.4515     0.0000   144.0000 </r>
       <r>   -15.2436     0.0000   144.0000 </r>
       <r>   -15.0358     0.0000   144.0000 </r>
       <r>   -14.8279     0.0000   144.0000 </r>
       <r>   -14.6201     0.0000   144.0000 </r>
       <r>   -14.4122     0.0000   144.0000 </r>
       <r>   -14.2044     0.0000   144.0000 </r>
       <r>   -13.9965     0.0000   144.0000 </r>
       <r>   -13.7887     0.0000   144.0000 </r>
       <r>   -13.5808     0.0000   144.0000 </r>
       <r>   -13.3730     0.0000   144.0000 </r>
       <r>   -13.1651     0.0000   144.0000 </r>
       <r>   -12.9573     0.0000   144.0000 </r>
       <r>   -12.7494     0.0000   144.0000 </r>
       <r>   -12.5416     0.0000   144.0000 </r>
       <r>   -12.3337     0.0000   144.0000 </r>
       <r>   -12.1259     0.0000   144.0000 </r>
       <r>   -11.9180     0.0000   144.0000 </r>
       <r>   -11.7102     0.0000   144.0000 </r>
       <r>   -11.5023     0.0000   144.0000 </r>
       <r>   -11.2945     0.0000   144.0000 </r>
       <r>   -11.0866     0.0000   144.0000 </r>
       <r>   -10.8788     0.0000   144.0000 </r>
       <r>   -10.6709     0.0000   144.0000 </r>
       <r>   -10.4631     0.0000   144.0000 </r>
       <r>   -10.2552     0.0000   144.0000 </r>
       <r>   -10.0474     0.0000   144.0000 </r>
       <r>    -9.8396     0.0000   144.0000 </r>
       <r>    -9.6317     0.0000   144.0000 </r>
       <r>    -9.4239     0.0000   144.0000 </r>
       <r>    -9.2160     0.0000   144.0000 </r>
       <r>    -9.0082     0.0000   144.0000 </r>
       <r>    -8.8003     0.0000   144.0000 </r>
       <r>    -8.5925     0.0000   144.0000 </r>
       <r>    -8.3846     0.0000   144.0000 </r>
       <r>    -8.1768     0.0000   144.0000 </r>
       <r>    -7.9689     0.0000   144.0000 </r>
       <r>    -7.7611     0.0000   144.0000 </r>
       <r>    -7.5532     0.0000   144.0000 </r>
       <r>    -7.3454     0.0000   144.0000 </r>
       <r>    -7.1375     0.0000   144.0000 </r>
       <r>    -6.9297     0.0000   144.0000 </r>
       <r>    -6.7218     0.0000   144.0000 </r>
       <r>    -6.5140     0.0000   144.0000 </r>
       <r>    -6.3061     0.0000   144.0000 </r>
       <r>    -6.0983     0.0000   144.0000 </r>
       <r>    -5.8904     0.0000   144.0000 </r>
       <r>    -5.6826     0.0000   144.0000 </r>
       <r>    -5.4747     0.0000   144.0000 </r>
       <r>    -5.2669     0.0000   144.0000 </r>
       <r>    -5.0590     0.0000   144.0000 </r>
       <r>    -4.8512     0.0000   144.0000 </r>
       <r>    -4.6433     0.0000   144.0000 </r>
       <r>    -4.4355     0.0000   144.0000 </r>
       <r>    -4.2276     0.0000   144.0000 </r>
       <r>    -4.0198     0.0000   144.0000 </r>
       <r>    -3.8119     0.0000   144.0000 </r>
       <r>    -3.6041     0.0000   144.0000 </r>
       <r>    -3.3962     0.0000   144.0000 </r>
       <r>    -3.1884     0.0000   144.0000 </r>
       <r>    -2.9805     0.0000   144.0000 </r>
       <r>    -2.7727     0.0000   144.0000 </r>
       <r>    -2.5648     0.0000   144.0000 </r>
       <r>    -2.3570     0.0000   144.0000 </r>
       <r>    -2.1491     0.0000   144.0000 </r>
       <r>    -1.9413     0.0000   144.0000 </r>
       <r>    -1.7334     0.0000   144.0000 </r>
       <r>    -1.5256     0.0000   144.0000 </r>
       <r>    -1.3177     0.0000   144.0000 </r>
       <r>    -1.1099     0.0000   144.0000 </r>
       <r>    -0.9021     0.0000   144.0000 </r>
       <r>    -0.6942     0.0000   144.0000 </r>
       <r>    -0.4864     0.0000   144.0000 </r>
       <r>    -0.2785    -0.0000   144.0000 </r>
       <r>    -0.0707    -0.0000   144.0000 </r>
       <r>     0.1372    -0.0000   144.0000 </r>
       <r>     0.3450    -0.0000   144.0000 </r>
       <r>     0.5529    -0.0000   144.0000 </r>
       <r>     0.7607    -0.0008   143.9998 </r>
       <r>     0.9686    -0.0095   143.9979 </r>
       <r>     1.1764     0.2598   144.0519 </r>
       <r>     1.3843     1.1797   144.2971 </r>
       <r>     1.5921     1.6244   144.6347 </r>
       <r>     1.8000     1.7212   144.9925 </r>
       <r>     2.0078     3.3294   145.6845 </r>
       <r>     2.2157     3.5606   146.4245 </r>
       <r>     2.4235     1.8352   146.8060 </r>
       <r>     2.6314     3.9757   147.6323 </r>
       <r>     2.8392     4.2843   148.5228 </r>
       <r>     3.0471     3.7723   149.3069 </r>
       <r>     3.2549     7.3532   150.8352 </r>
       <r>     3.4628     8.3301   152.5666 </r>
       <r>     3.6706     7.2847   154.0808 </r>
       <r>     3.8785     8.2332   155.7920 </r>
       <r>     4.0863    11.2928   158.1392 </r>
       <r>     4.2942    17.4256   161.7611 </r>
       <r>     4.5020    21.3790   166.2047 </r>
       <r>     4.7099    24.0155   171.1963 </r>
       <r>     4.9177    30.5584   177.5478 </r>
       <r>     5.1256    34.2284   184.6622 </r>
       <r>     5.3334    39.5682   192.8864 </r>
       <r>     5.5413    39.9329   201.1864 </r>
       <r>     5.7491    38.2361   209.1337 </r>
       <r>     5.9570    33.1257   216.0188 </r>
       <r>     6.1648    32.0174   222.6736 </r>
       <r>     6.3727    12.5807   225.2885 </r>
       <r>     6.5805    43.4491   234.3193 </r>
       <r>     6.7884    70.0345   248.8759 </r>
       <r>     6.9962    58.4753   261.0300 </r>
       <r>     7.2041    52.1798   271.8755 </r>
       <r>     7.4119    47.5450   281.7577 </r>
       <r>     7.6198    56.3637   293.4728 </r>
       <r>     7.8276    57.6019   305.4453 </r>
       <r>     8.0354    49.7085   315.7771 </r>
       <r>     8.2433    48.2326   325.8022 </r>
       <r>     8.4511    45.6439   335.2892 </r>
       <r>     8.6590    32.0009   341.9406 </r>
       <r>     8.8668    28.5679   347.8784 </r>
       <r>     9.0747    17.0967   351.4319 </r>
       <r>     9.2825    14.2126   354.3860 </r>
       <r>     9.4904    11.4535   356.7666 </r>
       <r>     9.6982    20.4536   361.0178 </r>
       <r>     9.9061    28.8119   367.0063 </r>
       <r>    10.1139    24.5875   372.1168 </r>
       <r>    10.3218    14.0307   375.0331 </r>
       <r>    10.5296     4.9118   376.0540 </r>
       <r>    10.7375    -0.2520   376.0016 </r>
       <r>    10.9453    -0.0078   376.0000 </r>
       <r>    11.1532    -0.0000   376.0000 </r>
       <r>    11.3610    -0.0000   376.0000 </r>
       <r>    11.5689     0.0000   376.0000 </r>
       <r>    11.7767     0.0000   376.0000 </r>
       <r>    11.9846     0.0000   376.0000 </r>
       <r>    12.1924     0.0000   376.0000 </r>
       <r>    12.4003     0.0000   376.0000 </r>
       <r>    12.6081     0.0000   376.0000 </r>
       <r>    12.8160     0.0000   376.0000 </r>
       <r>    13.0238     0.0000   376.0000 </r>
       <r>    13.2317     0.0000   376.0000 </r>
      </set>
     </set>
    </array>
   </total>
  </dos>
 </calculation>
 <structure name="finalpos" >
  <crystal>
   <varray name="basis" >
    <v>       6.81485735      -0.03007037      -0.01535691 </v>
    <v>      -0.04373642      10.08628389       0.00533015 </v>
    <v>      -0.02285334       0.00506637      10.17615436 </v>
   </varray>
   <i name="volume">    699.45700808 </i>
   <varray name="rec_basis" >
    <v>       0.14674176       0.00063613       0.00032923 </v>
    <v>       0.00043737       0.09914646      -0.00004838 </v>
    <v>       0.00022122      -0.00005097       0.09826947 </v>
   </varray>
  </crystal>
  <varray name="positions" >
   <v>       0.24948706       0.83493655       0.16756795 </v>
   <v>       0.01252678       0.32862384       0.66460789 </v>
   <v>       0.72030422       0.17120470       0.82738157 </v>
   <v>       0.50350258       0.67101447       0.66259852 </v>
   <v>       0.99931207       0.00868403       0.66110177 </v>
   <v>       0.98999991       0.66473998       0.99764513 </v>
   <v>       0.49828684       0.66383480       0.34289501 </v>
   <v>       0.76111165       0.83364583       0.83669506 </v>
   <v>       0.25528438       0.49415673       0.49744462 </v>
   <v>       0.51145740       0.00183250       0.33405422 </v>
   <v>       0.99384581       0.99995547       0.33769179 </v>
   <v>       0.99320437       0.66466572       0.66176695 </v>
   <v>       0.00241701       0.33121440       0.34496442 </v>
   <v>       0.22912000       0.51857263       0.82843742 </v>
   <v>       0.48575277       0.34028659       0.66074111 </v>
   <v>       0.75055149       0.16142426       0.17430358 </v>
   <v>       0.52649867       0.99050437       0.00428048 </v>
   <v>       0.26227743       0.84513493       0.49195130 </v>
   <v>       0.74277010       0.84085575       0.49187613 </v>
   <v>       0.24322157       0.50477418       0.17768948 </v>
   <v>       0.74297235       0.49055525       0.50293012 </v>
   <v>       0.75418991       0.83737516       0.17099507 </v>
   <v>       0.97955945       0.00276208       0.00057516 </v>
   <v>       0.75816125       0.49811124       0.82006585 </v>
   <v>       0.26481585       0.16426016       0.49275485 </v>
   <v>       0.27687279       0.15116916       0.83140541 </v>
   <v>       0.50563679       0.99085372       0.65816090 </v>
   <v>       0.49814400       0.33251358       0.33832185 </v>
   <v>       0.73709770       0.16890778       0.49668552 </v>
   <v>       0.48221470       0.34334498       0.99960079 </v>
   <v>       0.00329958       0.66746951       0.34795024 </v>
   <v>       0.24107047       0.83594966       0.83743332 </v>
   <v>       0.75616125       0.49554211       0.17672439 </v>
   <v>       0.01205897       0.33030048       0.99240619 </v>
   <v>       0.50631119       0.66350942       0.99696529 </v>
   <v>       0.25050064       0.15732698       0.17133363 </v>
  </varray>
 </structure>
</modeling>
