       N       E                     dE             d eps       ncg     rms          rms(c)
DAV:   1     0.213024148989E+04    0.21302E+04   -0.11997E+05  5768   0.107E+03
DAV:   2    -0.649835103297E+02   -0.21952E+04   -0.21267E+04  6020   0.407E+02
DAV:   3    -0.334985974144E+03   -0.27000E+03   -0.25723E+03  8920   0.977E+01
DAV:   4    -0.367458667005E+03   -0.32473E+02   -0.31026E+02  8904   0.314E+01
DAV:   5    -0.370735028370E+03   -0.32764E+01   -0.32108E+01  8440   0.988E+00    0.600E+01
RMM:   6    -0.360364972966E+03    0.10370E+02   -0.26479E+01  7294   0.107E+01    0.281E+01
RMM:   7    -0.360657954156E+03   -0.29298E+00   -0.22648E+01  7635   0.820E+00    0.110E+01
RMM:   8    -0.356421845688E+03    0.42361E+01   -0.62944E+00  7939   0.396E+00    0.462E+00
RMM:   9    -0.356122880224E+03    0.29897E+00   -0.22185E+00  7873   0.191E+00    0.308E+00
RMM:  10    -0.356070400519E+03    0.52480E-01   -0.51437E-01  7896   0.120E+00    0.157E+00
RMM:  11    -0.356024320501E+03    0.46080E-01   -0.14103E-01  7783   0.630E-01    0.744E-01
RMM:  12    -0.356024214308E+03    0.10619E-03   -0.57899E-02  7922   0.339E-01    0.448E-01
RMM:  13    -0.356021923025E+03    0.22913E-02   -0.18146E-02  7956   0.183E-01    0.248E-01
RMM:  14    -0.356022345871E+03   -0.42285E-03   -0.89024E-03  7960   0.110E-01    0.127E-01
RMM:  15    -0.356022493628E+03   -0.14776E-03   -0.38108E-03  8093   0.687E-02    0.526E-02
RMM:  16    -0.356022573629E+03   -0.80001E-04   -0.16677E-03  7082   0.389E-02    0.284E-02
RMM:  17    -0.356022612815E+03   -0.39186E-04   -0.70113E-04  6129   0.259E-02    0.148E-02
RMM:  18    -0.356022640143E+03   -0.27328E-04   -0.35552E-04  5934   0.188E-02    0.103E-02
RMM:  19    -0.356022647022E+03   -0.68787E-05   -0.12006E-04  4782   0.134E-02    0.572E-03
RMM:  20    -0.356022652785E+03   -0.57628E-05   -0.95060E-05  4645   0.117E-02
   1 F= -.35602265E+03 E0= -.35603104E+03  d E =-.356023E+03
       N       E                     dE             d eps       ncg     rms          rms(c)
DAV:   1    -0.356102731221E+03   -0.80084E-01   -0.29365E+00  7040   0.566E+00    0.188E+00
RMM:   2    -0.356080677240E+03    0.22054E-01   -0.33652E-01  7791   0.151E+00    0.701E-01
RMM:   3    -0.356065152431E+03    0.15525E-01   -0.57480E-02  8025   0.438E-01    0.452E-01
RMM:   4    -0.356060406048E+03    0.47464E-02   -0.16754E-02  8028   0.260E-01    0.262E-01
RMM:   5    -0.356059310327E+03    0.10957E-02   -0.50070E-03  7952   0.150E-01    0.194E-01
RMM:   6    -0.356059524249E+03   -0.21392E-03   -0.22029E-03  8447   0.738E-02    0.128E-01
RMM:   7    -0.356059660163E+03   -0.13591E-03   -0.91230E-04  7979   0.556E-02    0.676E-02
RMM:   8    -0.356059732410E+03   -0.72247E-04   -0.47415E-04  7177   0.320E-02    0.486E-02
RMM:   9    -0.356059797992E+03   -0.65582E-04   -0.18697E-04  6265   0.242E-02    0.363E-02
RMM:  10    -0.356059871402E+03   -0.73410E-04   -0.13466E-04  5451   0.193E-02    0.170E-02
RMM:  11    -0.356059898771E+03   -0.27369E-04   -0.79306E-05  4904   0.159E-02    0.589E-03
RMM:  12    -0.356059902799E+03   -0.40289E-05   -0.23197E-05  3944   0.133E-02
   2 F= -.35605990E+03 E0= -.35606797E+03  d E =-.372500E-01
       N       E                     dE             d eps       ncg     rms          rms(c)
DAV:   1    -0.356289079915E+03   -0.22918E+00   -0.13454E+01  6640   0.121E+01    0.407E+00
RMM:   2    -0.356187280586E+03    0.10180E+00   -0.15333E+00  7742   0.325E+00    0.150E+00
RMM:   3    -0.356115806746E+03    0.71474E-01   -0.25792E-01  7985   0.932E-01    0.978E-01
RMM:   4    -0.356093785162E+03    0.22022E-01   -0.77877E-02  8027   0.560E-01    0.563E-01
RMM:   5    -0.356088816416E+03    0.49687E-02   -0.22570E-02  7887   0.329E-01    0.421E-01
RMM:   6    -0.356089706877E+03   -0.89046E-03   -0.10598E-02  8638   0.161E-01    0.273E-01
RMM:   7    -0.356090225715E+03   -0.51884E-03   -0.40776E-03  8792   0.121E-01    0.142E-01
RMM:   8    -0.356090554553E+03   -0.32884E-03   -0.23137E-03  9002   0.669E-02    0.108E-01
RMM:   9    -0.356090800151E+03   -0.24560E-03   -0.72386E-04  8115   0.478E-02    0.789E-02
RMM:  10    -0.356091079890E+03   -0.27974E-03   -0.58414E-04  7664   0.366E-02    0.372E-02
RMM:  11    -0.356091175175E+03   -0.95285E-04   -0.33663E-04  6333   0.276E-02    0.154E-02
RMM:  12    -0.356091190961E+03   -0.15786E-04   -0.12260E-04  5893   0.192E-02    0.986E-03
RMM:  13    -0.356091195195E+03   -0.42337E-05   -0.38549E-05  4894   0.141E-02
   3 F= -.35609120E+03 E0= -.35609849E+03  d E =-.685424E-01
       N       E                     dE             d eps       ncg     rms          rms(c)
DAV:   1    -0.356118157661E+03   -0.26967E-01   -0.30530E+00  5408   0.493E+00    0.741E-01
RMM:   2    -0.356129343375E+03   -0.11186E-01   -0.16234E-01  7418   0.105E+00    0.450E-01
RMM:   3    -0.356121743778E+03    0.75996E-02   -0.20633E-02  7701   0.331E-01    0.243E-01
RMM:   4    -0.356120973076E+03    0.77070E-03   -0.47234E-03  8023   0.111E-01    0.162E-01
RMM:   5    -0.356120643496E+03    0.32958E-03   -0.17036E-03  8032   0.779E-02    0.971E-02
RMM:   6    -0.356120602807E+03    0.40689E-04   -0.77900E-04  8201   0.498E-02    0.603E-02
RMM:   7    -0.356120588940E+03    0.13867E-04   -0.32174E-04  7471   0.294E-02    0.353E-02
RMM:   8    -0.356120585202E+03    0.37378E-05   -0.12737E-04  6238   0.183E-02    0.225E-02
RMM:   9    -0.356120585591E+03   -0.38882E-06   -0.70791E-05  4971   0.152E-02
   4 F= -.35612059E+03 E0= -.35612769E+03  d E =-.293904E-01
       N       E                     dE             d eps       ncg     rms          rms(c)
DAV:   1    -0.356132366879E+03   -0.11782E-01   -0.27490E+01  5264   0.148E+01    0.217E+00
RMM:   2    -0.356225358131E+03   -0.92991E-01   -0.14416E+00  7296   0.317E+00    0.124E+00
RMM:   3    -0.356170071760E+03    0.55286E-01   -0.18481E-01  7824   0.100E+00    0.733E-01
RMM:   4    -0.356162742727E+03    0.73290E-02   -0.40390E-02  8027   0.333E-01    0.486E-01
RMM:   5    -0.356160051164E+03    0.26916E-02   -0.15418E-02  7955   0.236E-01    0.302E-01
RMM:   6    -0.356159719910E+03    0.33125E-03   -0.70104E-03  8200   0.151E-01    0.185E-01
RMM:   7    -0.356159687722E+03    0.32188E-04   -0.29741E-03  8889   0.881E-02    0.109E-01
RMM:   8    -0.356159731831E+03   -0.44109E-04   -0.13715E-03  8756   0.508E-02    0.714E-02
RMM:   9    -0.356159773597E+03   -0.41766E-04   -0.52553E-04  7569   0.358E-02    0.456E-02
RMM:  10    -0.356159800885E+03   -0.27288E-04   -0.28971E-04  6953   0.259E-02    0.283E-02
RMM:  11    -0.356159803380E+03   -0.24950E-05   -0.13915E-04  6030   0.202E-02    0.109E-02
RMM:  12    -0.356159802034E+03    0.13461E-05   -0.57526E-05  5134   0.152E-02
   5 F= -.35615980E+03 E0= -.35616624E+03  d E =-.686068E-01
       N       E                     dE             d eps       ncg     rms          rms(c)
DAV:   1    -0.356159830516E+03   -0.27136E-04   -0.45982E-02  5824   0.604E-01    0.892E-02
RMM:   2    -0.356159992790E+03   -0.16227E-03   -0.24178E-03  7423   0.128E-01    0.501E-02
RMM:   3    -0.356159892836E+03    0.99954E-04   -0.30515E-04  7168   0.398E-02    0.271E-02
RMM:   4    -0.356159883469E+03    0.93674E-05   -0.80577E-05  6126   0.155E-02
   6 F= -.35615988E+03 E0= -.35616630E+03  d E =-.686883E-01
       N       E                     dE             d eps       ncg     rms          rms(c)
DAV:   1    -0.356165258192E+03   -0.53654E-02   -0.42966E-01  5464   0.203E+00    0.409E-01
RMM:   2    -0.356165718795E+03   -0.46060E-03   -0.30859E-02  6884   0.472E-01    0.167E-01
RMM:   3    -0.356164932441E+03    0.78635E-03   -0.35484E-03  7666   0.143E-01    0.117E-01
RMM:   4    -0.356164673991E+03    0.25845E-03   -0.10013E-03  7790   0.592E-02    0.741E-02
RMM:   5    -0.356164602083E+03    0.71908E-04   -0.39695E-04  7893   0.361E-02    0.515E-02
RMM:   6    -0.356164590788E+03    0.11295E-04   -0.17128E-04  6891   0.231E-02    0.309E-02
RMM:   7    -0.356164583048E+03    0.77390E-05   -0.80415E-05  5706   0.159E-02
   7 F= -.35616458E+03 E0= -.35617105E+03  d E =-.469958E-02
       N       E                     dE             d eps       ncg     rms          rms(c)
DAV:   1    -0.356176171076E+03   -0.11580E-01   -0.38700E+00  5272   0.611E+00    0.122E+00
RMM:   2    -0.356180594452E+03   -0.44234E-02   -0.27632E-01  6882   0.141E+00    0.501E-01
RMM:   3    -0.356173713199E+03    0.68813E-02   -0.32504E-02  7754   0.429E-01    0.351E-01
RMM:   4    -0.356171442562E+03    0.22706E-02   -0.91101E-03  7799   0.178E-01    0.220E-01
RMM:   5    -0.356170835600E+03    0.60696E-03   -0.35534E-03  8019   0.106E-01    0.153E-01
RMM:   6    -0.356170793095E+03    0.42505E-04   -0.15407E-03  8150   0.677E-02    0.910E-02
RMM:   7    -0.356170777223E+03    0.15871E-04   -0.75618E-04  8220   0.436E-02    0.468E-02
RMM:   8    -0.356170782494E+03   -0.52706E-05   -0.30143E-04  6972   0.260E-02    0.326E-02
RMM:   9    -0.356170790603E+03   -0.81088E-05   -0.14566E-04  5560   0.205E-02    0.254E-02
RMM:  10    -0.356170794398E+03   -0.37948E-05   -0.73488E-05  5290   0.157E-02
   8 F= -.35617079E+03 E0= -.35617746E+03  d E =-.109109E-01
       N       E                     dE             d eps       ncg     rms          rms(c)
DAV:   1    -0.356175521165E+03   -0.47306E-02   -0.36581E-01  5656   0.192E+00    0.455E-01
RMM:   2    -0.356175386022E+03    0.13514E-03   -0.29983E-02  7067   0.471E-01    0.176E-01
RMM:   3    -0.356174555717E+03    0.83031E-03   -0.41475E-03  7784   0.143E-01    0.127E-01
RMM:   4    -0.356174212539E+03    0.34318E-03   -0.11293E-03  7900   0.645E-02    0.746E-02
RMM:   5    -0.356174156194E+03    0.56345E-04   -0.40119E-04  7873   0.388E-02    0.543E-02
RMM:   6    -0.356174163370E+03   -0.71761E-05   -0.17911E-04  7081   0.230E-02    0.314E-02
RMM:   7    -0.356174173336E+03   -0.99666E-05   -0.77012E-05  5623   0.168E-02
   9 F= -.35617417E+03 E0= -.35618080E+03  d E =-.337894E-02
       N       E                     dE             d eps       ncg     rms          rms(c)
DAV:   1    -0.356189791619E+03   -0.15628E-01   -0.32807E+00  5388   0.575E+00    0.136E+00
RMM:   2    -0.356188458821E+03    0.13328E-02   -0.26691E-01  6847   0.140E+00    0.520E-01
RMM:   3    -0.356180861815E+03    0.75970E-02   -0.34774E-02  7742   0.426E-01    0.365E-01
RMM:   4    -0.356177915844E+03    0.29460E-02   -0.95021E-03  7921   0.188E-01    0.217E-01
RMM:   5    -0.356177459264E+03    0.45658E-03   -0.33180E-03  7982   0.113E-01    0.161E-01
RMM:   6    -0.356177509572E+03   -0.50308E-04   -0.15215E-03  8248   0.665E-02    0.957E-02
RMM:   7    -0.356177575011E+03   -0.65440E-04   -0.72918E-04  8010   0.483E-02    0.472E-02
RMM:   8    -0.356177632918E+03   -0.57907E-04   -0.32631E-04  6929   0.273E-02    0.346E-02
RMM:   9    -0.356177659972E+03   -0.27054E-04   -0.13502E-04  5482   0.214E-02    0.288E-02
RMM:  10    -0.356177690931E+03   -0.30959E-04   -0.72760E-05  5211   0.152E-02    0.163E-02
RMM:  11    -0.356177715779E+03   -0.24848E-04   -0.42688E-05  4492   0.139E-02    0.648E-03
RMM:  12    -0.356177718468E+03   -0.26893E-05   -0.23253E-05  3941   0.129E-02
  10 F= -.35617772E+03 E0= -.35618423E+03  d E =-.692407E-02
       N       E                     dE             d eps       ncg     rms          rms(c)
DAV:   1    -0.356178112200E+03   -0.39642E-03   -0.67752E-02  5744   0.827E-01    0.197E-01
RMM:   2    -0.356178105258E+03    0.69418E-05   -0.55456E-03  6928   0.204E-01    0.767E-02
RMM:   3    -0.356177945382E+03    0.15988E-03   -0.74397E-04  7682   0.624E-02    0.555E-02
RMM:   4    -0.356177874602E+03    0.70780E-04   -0.19451E-04  7502   0.279E-02    0.327E-02
RMM:   5    -0.356177858332E+03    0.16270E-04   -0.60450E-05  5657   0.169E-02    0.236E-02
RMM:   6    -0.356177851052E+03    0.72797E-05   -0.23947E-05  3281   0.109E-02
  11 F= -.35617785E+03 E0= -.35618438E+03  d E =-.705665E-02
       N       E                     dE             d eps       ncg     rms          rms(c)
DAV:   1    -0.356178699439E+03   -0.84111E-03   -0.13400E-01  5344   0.107E+00    0.677E-02
RMM:   2    -0.356179221997E+03   -0.52256E-03   -0.55369E-03  5884   0.212E-01    0.451E-02
RMM:   3    -0.356179146183E+03    0.75814E-04   -0.52953E-04  7259   0.675E-02    0.326E-02
RMM:   4    -0.356179143490E+03    0.26933E-05   -0.11124E-04  5833   0.151E-02    0.235E-02
RMM:   5    -0.356179141145E+03    0.23446E-05   -0.28742E-05  3739   0.104E-02
  12 F= -.35617914E+03 E0= -.35618565E+03  d E =-.129009E-02
       N       E                     dE             d eps       ncg     rms          rms(c)
DAV:   1    -0.356178239428E+03    0.90406E-03   -0.12035E+00  5264   0.320E+00    0.207E-01
RMM:   2    -0.356183000658E+03   -0.47612E-02   -0.50242E-02  6085   0.635E-01    0.141E-01
RMM:   3    -0.356182316920E+03    0.68374E-03   -0.52331E-03  7693   0.202E-01    0.103E-01
RMM:   4    -0.356182312566E+03    0.43546E-05   -0.11356E-03  8819   0.441E-02    0.738E-02
RMM:   5    -0.356182306677E+03    0.58891E-05   -0.36075E-04  7554   0.315E-02    0.510E-02
RMM:   6    -0.356182285122E+03    0.21555E-04   -0.17665E-04  7240   0.304E-02    0.158E-02
RMM:   7    -0.356182281743E+03    0.33789E-05   -0.50180E-05  4300   0.126E-02
  13 F= -.35618228E+03 E0= -.35618874E+03  d E =-.443069E-02
       N       E                     dE             d eps       ncg     rms          rms(c)
DAV:   1    -0.356168868944E+03    0.13416E-01   -0.48270E+00  5264   0.642E+00    0.425E-01
RMM:   2    -0.356188022192E+03   -0.19153E-01   -0.20266E-01  6066   0.128E+00    0.280E-01
RMM:   3    -0.356185366906E+03    0.26553E-02   -0.21011E-02  7734   0.403E-01    0.211E-01
RMM:   4    -0.356185324828E+03    0.42078E-04   -0.44482E-03  9280   0.883E-02    0.152E-01
RMM:   5    -0.356185302303E+03    0.22526E-04   -0.13961E-03  8430   0.604E-02    0.108E-01
RMM:   6    -0.356185218043E+03    0.84260E-04   -0.73585E-04  7957   0.628E-02    0.325E-02
RMM:   7    -0.356185211696E+03    0.63464E-05   -0.26980E-04  7690   0.232E-02    0.220E-02
RMM:   8    -0.356185207747E+03    0.39487E-05   -0.76552E-05  4773   0.145E-02
  14 F= -.35618521E+03 E0= -.35619157E+03  d E =-.735670E-02
       N       E                     dE             d eps       ncg     rms          rms(c)
DAV:   1    -0.356185669837E+03   -0.45814E-03   -0.16625E-01  5568   0.119E+00    0.834E-02
RMM:   2    -0.356186239139E+03   -0.56930E-03   -0.66608E-03  6632   0.238E-01    0.501E-02
RMM:   3    -0.356186177067E+03    0.62072E-04   -0.73064E-04  7499   0.694E-02    0.377E-02
RMM:   4    -0.356186172503E+03    0.45634E-05   -0.18340E-04  6426   0.187E-02    0.251E-02
RMM:   5    -0.356186169683E+03    0.28200E-05   -0.57997E-05  4944   0.122E-02
  15 F= -.35618617E+03 E0= -.35619252E+03  d E =-.961936E-03
       N       E                     dE             d eps       ncg     rms          rms(c)
DAV:   1    -0.356183039822E+03    0.31327E-02   -0.14895E+00  5264   0.356E+00    0.250E-01
RMM:   2    -0.356188114626E+03   -0.50748E-02   -0.59064E-02  6628   0.712E-01    0.149E-01
RMM:   3    -0.356187579774E+03    0.53485E-03   -0.65222E-03  7788   0.207E-01    0.114E-01
RMM:   4    -0.356187517648E+03    0.62126E-04   -0.13885E-03  8995   0.535E-02    0.755E-02
RMM:   5    -0.356187503892E+03    0.13756E-04   -0.55589E-04  8220   0.382E-02    0.455E-02
RMM:   6    -0.356187494232E+03    0.96600E-05   -0.22438E-04  7501   0.293E-02    0.169E-02
RMM:   7    -0.356187491052E+03    0.31800E-05   -0.62770E-05  4688   0.134E-02
  16 F= -.35618749E+03 E0= -.35619382E+03  d E =-.228330E-02
       N       E                     dE             d eps       ncg     rms          rms(c)
DAV:   1    -0.356187674629E+03   -0.18040E-03   -0.35035E-01  5288   0.176E+00    0.223E-01
RMM:   2    -0.356188592791E+03   -0.91816E-03   -0.16693E-02  7696   0.361E-01    0.115E-01
RMM:   3    -0.356188277381E+03    0.31541E-03   -0.18974E-03  7758   0.978E-02    0.772E-02
RMM:   4    -0.356188193651E+03    0.83730E-04   -0.49742E-04  7982   0.389E-02    0.464E-02
RMM:   5    -0.356188176468E+03    0.17183E-04   -0.21623E-04  7419   0.265E-02    0.284E-02
RMM:   6    -0.356188178421E+03   -0.19528E-05   -0.86502E-05  5696   0.162E-02
  17 F= -.35618818E+03 E0= -.35619455E+03  d E =-.687369E-03
       N       E                     dE             d eps       ncg     rms          rms(c)
DAV:   1    -0.356187680404E+03    0.49606E-03   -0.51220E-01  5280   0.212E+00    0.267E-01
RMM:   2    -0.356189016238E+03   -0.13358E-02   -0.24172E-02  7697   0.435E-01    0.138E-01
RMM:   3    -0.356188556428E+03    0.45981E-03   -0.27236E-03  7740   0.117E-01    0.929E-02
RMM:   4    -0.356188440114E+03    0.11631E-03   -0.72851E-04  8037   0.469E-02    0.565E-02
RMM:   5    -0.356188418258E+03    0.21856E-04   -0.32662E-04  7962   0.326E-02    0.349E-02
RMM:   6    -0.356188422937E+03   -0.46793E-05   -0.12969E-04  6310   0.201E-02    0.218E-02
RMM:   7    -0.356188428191E+03   -0.52544E-05   -0.51392E-05  4388   0.140E-02
  18 F= -.35618843E+03 E0= -.35619486E+03  d E =-.937139E-03
       N       E                     dE             d eps       ncg     rms          rms(c)
DAV:   1    -0.356188874723E+03   -0.45179E-03   -0.90796E-02  5776   0.925E-01    0.183E-01
RMM:   2    -0.356188942348E+03   -0.67625E-04   -0.58431E-03  7094   0.210E-01    0.747E-02
RMM:   3    -0.356188814624E+03    0.12772E-03   -0.78502E-04  7752   0.668E-02    0.533E-02
RMM:   4    -0.356188760931E+03    0.53694E-04   -0.23991E-04  7823   0.278E-02    0.314E-02
RMM:   5    -0.356188748245E+03    0.12685E-04   -0.83535E-05  6315   0.172E-02    0.223E-02
RMM:   6    -0.356188742404E+03    0.58409E-05   -0.29922E-05  3596   0.107E-02
  19 F= -.35618874E+03 E0= -.35619523E+03  d E =-.314213E-03
       N       E                     dE             d eps       ncg     rms          rms(c)
DAV:   1    -0.356189183619E+03   -0.43537E-03   -0.20446E-01  5408   0.139E+00    0.264E-01
RMM:   2    -0.356189352806E+03   -0.16919E-03   -0.13044E-02  6760   0.311E-01    0.107E-01
RMM:   3    -0.356189022407E+03    0.33040E-03   -0.15641E-03  7725   0.964E-02    0.745E-02
RMM:   4    -0.356188912230E+03    0.11018E-03   -0.45965E-04  7787   0.386E-02    0.452E-02
RMM:   5    -0.356188886261E+03    0.25970E-04   -0.16403E-04  7100   0.245E-02    0.327E-02
RMM:   6    -0.356188879964E+03    0.62964E-05   -0.70595E-05  5295   0.145E-02
  20 F= -.35618888E+03 E0= -.35619546E+03  d E =-.451773E-03
       N       E                     dE             d eps       ncg     rms          rms(c)
DAV:   1    -0.356188973204E+03   -0.86943E-04   -0.84331E-03  5616   0.275E-01    0.357E-02
RMM:   2    -0.356188983937E+03   -0.10734E-04   -0.41571E-04  7488   0.574E-02    0.178E-02
RMM:   3    -0.356188978006E+03    0.59308E-05   -0.54208E-05  5070   0.166E-02
  21 F= -.35618898E+03 E0= -.35619557E+03  d E =-.980421E-04
       N       E                     dE             d eps       ncg     rms          rms(c)
DAV:   1    -0.356189159058E+03   -0.17512E-03   -0.75644E-02  5320   0.821E-01    0.112E-01
RMM:   2    -0.356189264117E+03   -0.10506E-03   -0.37181E-03  7700   0.170E-01    0.579E-02
RMM:   3    -0.356189213486E+03    0.50631E-04   -0.51918E-04  7708   0.471E-02    0.416E-02
RMM:   4    -0.356189177293E+03    0.36193E-04   -0.16592E-04  6870   0.229E-02    0.217E-02
RMM:   5    -0.356189171642E+03    0.56509E-05   -0.75860E-05  5618   0.140E-02
  22 F= -.35618917E+03 E0= -.35619579E+03  d E =-.291678E-03
       N       E                     dE             d eps       ncg     rms          rms(c)
DAV:   1    -0.356188999621E+03    0.17767E-03   -0.30322E-01  5272   0.165E+00    0.222E-01
RMM:   2    -0.356189479285E+03   -0.47966E-03   -0.14741E-02  7731   0.341E-01    0.116E-01
RMM:   3    -0.356189272154E+03    0.20713E-03   -0.20201E-03  7761   0.946E-02    0.835E-02
RMM:   4    -0.356189127132E+03    0.14502E-03   -0.62995E-04  7833   0.453E-02    0.425E-02
RMM:   5    -0.356189111192E+03    0.15940E-04   -0.28525E-04  7358   0.283E-02    0.252E-02
RMM:   6    -0.356189105568E+03    0.56239E-05   -0.78581E-05  4931   0.158E-02
  23 F= -.35618911E+03 E0= -.35619580E+03  d E =-.225603E-03
       N       E                     dE             d eps       ncg     rms          rms(c)
DAV:   1    -0.356189214759E+03   -0.10357E-03   -0.11019E-01  5296   0.992E-01    0.136E-01
RMM:   2    -0.356189360911E+03   -0.14615E-03   -0.51929E-03  7732   0.205E-01    0.695E-02
RMM:   3    -0.356189278219E+03    0.82692E-04   -0.62806E-04  7766   0.553E-02    0.505E-02
RMM:   4    -0.356189218108E+03    0.60111E-04   -0.17515E-04  7547   0.261E-02    0.250E-02
RMM:   5    -0.356189210216E+03    0.78917E-05   -0.72128E-05  6359   0.158E-02
  24 F= -.35618921E+03 E0= -.35619587E+03  d E =-.330252E-03
       N       E                     dE             d eps       ncg     rms          rms(c)
DAV:   1    -0.356189441161E+03   -0.22305E-03   -0.17426E-02  6104   0.429E-01    0.117E-01
RMM:   2    -0.356189376316E+03    0.64844E-04   -0.15117E-03  7256   0.106E-01    0.444E-02
RMM:   3    -0.356189312404E+03    0.63913E-04   -0.24606E-04  7435   0.325E-02    0.304E-02
RMM:   4    -0.356189291989E+03    0.20415E-04   -0.63485E-05  5022   0.175E-02    0.174E-02
RMM:   5    -0.356189289976E+03    0.20129E-05   -0.15247E-05  2935   0.128E-02
  25 F= -.35618929E+03 E0= -.35619593E+03  d E =-.797599E-04
       N       E                     dE             d eps       ncg     rms          rms(c)
DAV:   1    -0.356189939636E+03   -0.64765E-03   -0.79948E-02  6040   0.919E-01    0.255E-01
RMM:   2    -0.356189627365E+03    0.31227E-03   -0.70558E-03  7448   0.229E-01    0.931E-02
RMM:   3    -0.356189357619E+03    0.26975E-03   -0.11518E-03  7915   0.686E-02    0.643E-02
RMM:   4    -0.356189268082E+03    0.89537E-04   -0.33347E-04  7720   0.365E-02    0.368E-02
RMM:   5    -0.356189258171E+03    0.99109E-05   -0.10197E-04  6367   0.225E-02    0.277E-02
RMM:   6    -0.356189270670E+03   -0.12499E-04   -0.45583E-05  4228   0.126E-02    0.201E-02
RMM:   7    -0.356189280626E+03   -0.99561E-05   -0.19656E-05  3261   0.121E-02
  26 F= -.35618928E+03 E0= -.35619590E+03  d E =-.704103E-04
       N       E                     dE             d eps       ncg     rms          rms(c)
DAV:   1    -0.356189464432E+03   -0.19376E-03   -0.14544E-02  6096   0.391E-01    0.114E-01
RMM:   2    -0.356189426818E+03    0.37615E-04   -0.13422E-03  7607   0.985E-02    0.439E-02
RMM:   3    -0.356189374811E+03    0.52006E-04   -0.24411E-04  7275   0.309E-02    0.312E-02
RMM:   4    -0.356189351637E+03    0.23174E-04   -0.59525E-05  5668   0.178E-02    0.177E-02
RMM:   5    -0.356189345081E+03    0.65563E-05   -0.16923E-05  2895   0.119E-02
  27 F= -.35618935E+03 E0= -.35619597E+03  d E =-.134865E-03
       N       E                     dE             d eps       ncg     rms          rms(c)
DAV:   1    -0.356189385440E+03   -0.33802E-04   -0.48798E-03  5976   0.229E-01    0.604E-02
RMM:   2    -0.356189374150E+03    0.11290E-04   -0.43114E-04  7424   0.565E-02    0.230E-02
RMM:   3    -0.356189352791E+03    0.21359E-04   -0.57775E-05  5873   0.163E-02    0.166E-02
RMM:   4    -0.356189345009E+03    0.77823E-05   -0.13576E-05  2766   0.115E-02
  28 F= -.35618935E+03 E0= -.35619598E+03  d E =-.134793E-03
       N       E                     dE             d eps       ncg     rms          rms(c)
DAV:   1    -0.356189373264E+03   -0.20473E-04   -0.61846E-03  5344   0.232E-01    0.244E-02
RMM:   2    -0.356189384994E+03   -0.11729E-04   -0.25976E-04  7114   0.467E-02    0.129E-02
RMM:   3    -0.356189380337E+03    0.46571E-05   -0.21551E-05  3238   0.140E-02
  29 F= -.35618938E+03 E0= -.35619602E+03  d E =-.353278E-04
       N       E                     dE             d eps       ncg     rms          rms(c)
DAV:   1    -0.356189366605E+03    0.18389E-04   -0.55666E-02  5296   0.693E-01    0.742E-02
RMM:   2    -0.356189486115E+03   -0.11951E-03   -0.23659E-03  7610   0.141E-01    0.412E-02
RMM:   3    -0.356189466155E+03    0.19960E-04   -0.31914E-04  7360   0.389E-02    0.307E-02
RMM:   4    -0.356189447659E+03    0.18496E-04   -0.94290E-05  6332   0.172E-02    0.151E-02
RMM:   5    -0.356189445507E+03    0.21520E-05   -0.36873E-05  3903   0.108E-02
  30 F= -.35618945E+03 E0= -.35619608E+03  d E =-.100498E-03
