 vasp.5.4.1 05Feb16 (build Jan 29 2020 16:04:39) complex                        
  
 executed on           IFC91_ompi date 2020.06.15  10:54:26
 running on  160 total cores
 distrk:  each k-point on   20 cores,    8 groups
 distr:  one band on NCORES_PER_BAND=   5 cores,    4 groups


--------------------------------------------------------------------------------------------------------


 INCAR:
 POTCAR:    PAW_PBE Ta 17Jan2003                  
 POTCAR:    PAW_PBE Hf 20Jan2003                  
 POTCAR:    PAW_PBE Nb_sv 25May2007               
 POTCAR:    PAW_PBE Zr_sv 04Jan2005               

 ----------------------------------------------------------------------------- 
|                                                                             |
|           W    W    AA    RRRRR   N    N  II  N    N   GGGG   !!!           |
|           W    W   A  A   R    R  NN   N  II  NN   N  G    G  !!!           |
|           W    W  A    A  R    R  N N  N  II  N N  N  G       !!!           |
|           W WW W  AAAAAA  RRRRR   N  N N  II  N  N N  G  GGG   !            |
|           WW  WW  A    A  R   R   N   NN  II  N   NN  G    G                |
|           W    W  A    A  R    R  N    N  II  N    N   GGGG   !!!           |
|                                                                             |
|      For optimal performance we recommend to set                            |
|        NCORE= 4 - approx SQRT( number of cores)                             |
|      NCORE specifies how many cores store one orbital (NPAR=cpu/NCORE).     |
|      This setting can  greatly improve the performance of VASP for DFT.     |
|      The default, NPAR=number of cores might be grossly inefficient         |
|      on modern multi-core architectures or massively parallel machines.     |
|      Do your own testing !!!!                                               |
|      Unfortunately you need to use the default for GW and RPA calculations. |
|      (for HF NCORE is supported but not extensively tested yet)             |
|                                                                             |
 ----------------------------------------------------------------------------- 


 ----------------------------------------------------------------------------- 
|                                                                             |
|           W    W    AA    RRRRR   N    N  II  N    N   GGGG   !!!           |
|           W    W   A  A   R    R  NN   N  II  NN   N  G    G  !!!           |
|           W    W  A    A  R    R  N N  N  II  N N  N  G       !!!           |
|           W WW W  AAAAAA  RRRRR   N  N N  II  N  N N  G  GGG   !            |
|           WW  WW  A    A  R   R   N   NN  II  N   NN  G    G                |
|           W    W  A    A  R    R  N    N  II  N    N   GGGG   !!!           |
|                                                                             |
|      You have enabled k-point parallelism (KPAR>1).                         |
|      This developmental code was originally  written by Paul Kent at ORNL,  |
|      and carefully double checked in Vienna.                                |
|      GW as well as linear response parallelism added by Martijn Marsman     |
|      and Georg Kresse.                                                      |
|      Carefully verify results versus KPAR=1.                                |
|      Report problems to Paul Kent and Vienna.                               |
|                                                                             |
 ----------------------------------------------------------------------------- 

 POTCAR:    PAW_PBE Ta 17Jan2003                  
   VRHFIN =Ta:  6s5d                                                            
   LEXCH  = PE                                                                  
   EATOM  =   130.6506 eV,    9.6025 Ry                                         
                                                                                
   TITEL  = PAW_PBE Ta 17Jan2003                                                
   LULTRA =        F    use ultrasoft PP ?                                      
   IUNSCR =        1    unscreen: 0-lin 1-nonlin 2-no                           
   RPACOR =    2.330    partial core radius                                     
   POMASS =  180.948; ZVAL   =    5.000    mass and valenz                      
   RCORE  =    2.900    outmost cutoff radius                                   
   RWIGS  =    2.840; RWIGS  =    1.503    wigner-seitz radius (au A)           
   ENMAX  =  223.667; ENMIN  =  167.750 eV                                      
   RCLOC  =    2.205    cutoff for local pot                                    
   LCOR   =        T    correct aug charges                                     
   LPAW   =        T    paw PP                                                  
   EAUG   =  332.075                                                            
   DEXC   =    0.000                                                            
   RMAX   =    2.970    core radius for proj-oper                               
   RAUG   =    1.300    factor for augmentation sphere                          
   RDEP   =    3.060    radius for radial grids                                 
   RDEPT  =    2.354    core radius for aug-charge                              
                                                                                
   Atomic configuration                                                         
   16 entries                                                                   
     n  l   j            E        occ.                                          
     1  0  0.50    -67341.2807   2.0000                                         
     2  0  0.50    -11566.9376   2.0000                                         
     2  1  1.50    -10134.1182   6.0000                                         
     3  0  0.50     -2648.5620   2.0000                                         
     3  1  1.50     -2222.6012   6.0000                                         
     3  2  2.50     -1726.3120  10.0000                                         
     4  0  0.50      -538.6961   2.0000                                         
     4  1  1.50      -399.0129   6.0000                                         
     4  2  2.50      -220.3959  10.0000                                         
     4  3  3.50       -23.0374  14.0000                                         
     5  0  0.50       -71.2901   2.0000                                         
     5  1  1.50       -37.8225   6.0000                                         
     5  2  2.50        -2.6455   4.0000                                         
     6  0  0.50        -4.9623   1.0000                                         
     6  1  1.50        -1.3606   0.0000                                         
     5  3  2.50        -1.3606   0.0000                                         
   Description                                                                  
     l       E           TYP  RCUT    TYP  RCUT                                 
     2     -2.6455043     23  2.500                                             
     2     -0.6258895     23  2.500                                             
     0     -4.9622780     23  2.500                                             
     0      4.7531321     23  2.500                                             
     1     -1.3605826     23  2.900                                             
     1     27.2116520     23  2.900                                             
  local pseudopotential read in
  partial core-charges read in
  partial kinetic energy density read in
  atomic valenz-charges read in
  non local Contribution for L=           2  read in
    real space projection operators read in
  non local Contribution for L=           2  read in
    real space projection operators read in
  non local Contribution for L=           0  read in
    real space projection operators read in
  non local Contribution for L=           0  read in
    real space projection operators read in
  non local Contribution for L=           1  read in
    real space projection operators read in
  non local Contribution for L=           1  read in
    real space projection operators read in
    PAW grid and wavefunctions read in
 
   number of l-projection  operators is LMAX  =           6
   number of lm-projection operators is LMMAX =          18
 
 POTCAR:    PAW_PBE Hf 20Jan2003                  
   VRHFIN =Hf: 6s5d                                                             
   LEXCH  = PE                                                                  
   EATOM  =    75.9011 eV,    5.5786 Ry                                         
                                                                                
   TITEL  = PAW_PBE Hf 20Jan2003                                                
   LULTRA =        F    use ultrasoft PP ?                                      
   IUNSCR =        1    unscreen: 0-lin 1-nonlin 2-no                           
   RPACOR =    2.500    partial core radius                                     
   POMASS =  178.490; ZVAL   =    4.000    mass and valenz                      
   RCORE  =    3.000    outmost cutoff radius                                   
   RWIGS  =    3.050; RWIGS  =    1.614    wigner-seitz radius (au A)           
   ENMAX  =  220.334; ENMIN  =  165.250 eV                                      
   RCLOC  =    2.212    cutoff for local pot                                    
   LCOR   =        T    correct aug charges                                     
   LPAW   =        T    paw PP                                                  
   EAUG   =  335.116                                                            
   DEXC   =    0.000                                                            
   RMAX   =    3.077    core radius for proj-oper                               
   RAUG   =    1.300    factor for augmentation sphere                          
   RDEP   =    3.047    radius for radial grids                                 
   RDEPT  =    2.344    core radius for aug-charge                              
                                                                                
   Atomic configuration                                                         
   16 entries                                                                   
     n  l   j            E        occ.                                          
     1  0  0.50    -65259.4397   2.0000                                         
     2  0  0.50    -11157.9882   2.0000                                         
     2  1  1.50     -9795.2113   6.0000                                         
     3  0  0.50     -2541.4058   2.0000                                         
     3  1  1.50     -2134.4770   6.0000                                         
     3  2  2.50     -1653.5418  10.0000                                         
     4  0  0.50      -510.9575   2.0000                                         
     4  1  1.50      -377.5023   6.0000                                         
     4  2  2.50      -205.2085  10.0000                                         
     4  3  3.50       -15.4905  14.0000                                         
     5  0  0.50       -65.6020   2.0000                                         
     5  1  1.50       -34.2798   6.0000                                         
     5  2  2.50        -1.9877   3.0000                                         
     6  0  0.50        -4.7357   1.0000                                         
     6  1  1.50        -1.3606   0.0000                                         
     5  3  2.50        -1.3606   0.0000                                         
   Description                                                                  
     l       E           TYP  RCUT    TYP  RCUT                                 
     2     -1.9876627     23  2.500                                             
     2      0.0744703     23  2.500                                             
     0     -4.7356889     23  2.600                                             
     0      3.2364747     23  2.600                                             
     1     -1.3605826     23  3.000                                             
     1     27.2116520     23  3.000                                             
  local pseudopotential read in
  partial core-charges read in
  partial kinetic energy density read in
  atomic valenz-charges read in
  non local Contribution for L=           2  read in
    real space projection operators read in
  non local Contribution for L=           2  read in
    real space projection operators read in
  non local Contribution for L=           0  read in
    real space projection operators read in
  non local Contribution for L=           0  read in
    real space projection operators read in
  non local Contribution for L=           1  read in
    real space projection operators read in
  non local Contribution for L=           1  read in
    real space projection operators read in
    PAW grid and wavefunctions read in
 
   number of l-projection  operators is LMAX  =           6
   number of lm-projection operators is LMMAX =          18
 
 POTCAR:    PAW_PBE Nb_sv 25May2007               
   VRHFIN =Nb: 4p5s4d                                                           
   LEXCH  = PE                                                                  
   EATOM  =  1555.1913 eV,  114.3033 Ry                                         
                                                                                
   TITEL  = PAW_PBE Nb_sv 25May2007                                             
   LULTRA =        F    use ultrasoft PP ?                                      
   IUNSCR =        1    unscreen: 0-lin 1-nonlin 2-no                           
   RPACOR =    1.800    partial core radius                                     
   POMASS =   92.910; ZVAL   =   13.000    mass and valenz                      
   RCORE  =    2.400    outmost cutoff radius                                   
   RWIGS  =    2.400; RWIGS  =    1.270    wigner-seitz radius (au A)           
   ENMAX  =  293.235; ENMIN  =  219.927 eV                                      
   ICORE  =        3    local potential                                         
   LCOR   =        T    correct aug charges                                     
   LPAW   =        T    paw PP                                                  
   EAUG   =  455.659                                                            
   DEXC   =    0.000                                                            
   RMAX   =    2.456    core radius for proj-oper                               
   RAUG   =    1.300    factor for augmentation sphere                          
   RDEP   =    2.451    radius for radial grids                                 
   RDEPT  =    1.956    core radius for aug-charge                              
                                                                                
   Atomic configuration                                                         
   11 entries                                                                   
     n  l   j            E        occ.                                          
     1  0  0.50    -18805.2457   2.0000                                         
     2  0  0.50     -2630.2869   2.0000                                         
     2  1  1.50     -2348.4046   6.0000                                         
     3  0  0.50      -438.8757   2.0000                                         
     3  1  1.50      -346.7588   6.0000                                         
     3  2  2.50      -196.2560  10.0000                                         
     4  0  0.50       -58.3859   2.0000                                         
     5  0  0.50        -3.9816   1.0000                                         
     4  1  1.50       -34.5141   6.0000                                         
     4  2  2.50        -3.0408   4.0000                                         
     4  3  2.50        -1.3606   0.0000                                         
   Description                                                                  
     l       E           TYP  RCUT    TYP  RCUT                                 
     0    -58.3859094     23  2.200                                             
     0     -3.9816262     23  2.200                                             
     1    -34.5140738     23  2.200                                             
     1     13.6058260     23  2.200                                             
     2     -3.0408010     23  2.200                                             
     2     -0.1283038     23  2.200                                             
     3     -1.3605826     23  2.400                                             
  local pseudopotential read in
  partial core-charges read in
  partial kinetic energy density read in
  atomic valenz-charges read in
  non local Contribution for L=           0  read in
    real space projection operators read in
  non local Contribution for L=           0  read in
    real space projection operators read in
  non local Contribution for L=           1  read in
    real space projection operators read in
  non local Contribution for L=           1  read in
    real space projection operators read in
  non local Contribution for L=           2  read in
    real space projection operators read in
  non local Contribution for L=           2  read in
    real space projection operators read in
    PAW grid and wavefunctions read in
 
   number of l-projection  operators is LMAX  =           6
   number of lm-projection operators is LMMAX =          18
 
 POTCAR:    PAW_PBE Zr_sv 04Jan2005               
   VRHFIN =Zr: 4s4p5s4d                                                         
   LEXCH  = PE                                                                  
   EATOM  =  1284.2219 eV,   94.3876 Ry                                         
                                                                                
   TITEL  = PAW_PBE Zr_sv 04Jan2005                                             
   LULTRA =        F    use ultrasoft PP ?                                      
   IUNSCR =        1    unscreen: 0-lin 1-nonlin 2-no                           
   RPACOR =    2.200    partial core radius                                     
   POMASS =   91.224; ZVAL   =   12.000    mass and valenz                      
   RCORE  =    2.500    outmost cutoff radius                                   
   RWIGS  =    3.070; RWIGS  =    1.625    wigner-seitz radius (au A)           
   ENMAX  =  229.898; ENMIN  =  172.424 eV                                      
   ICORE  =        3    local potential                                         
   LCOR   =        T    correct aug charges                                     
   LPAW   =        T    paw PP                                                  
   EAUG   =  461.257                                                            
   DEXC   =    0.000                                                            
   RMAX   =    2.561    core radius for proj-oper                               
   RAUG   =    1.300    factor for augmentation sphere                          
   RDEP   =    2.597    radius for radial grids                                 
   RDEPT  =    2.007    core radius for aug-charge                              
                                                                                
   Atomic configuration                                                         
   11 entries                                                                   
     n  l   j            E        occ.                                          
     1  0  0.50    -17820.0161   2.0000                                         
     2  0  0.50     -2467.0882   2.0000                                         
     2  1  1.50     -2199.6095   6.0000                                         
     3  0  0.50      -402.4863   2.0000                                         
     3  1  1.50      -315.3675   6.0000                                         
     3  2  2.50      -172.4472  10.0000                                         
     4  0  0.50       -52.4146   2.0000                                         
     5  0  0.50        -3.8421   1.0000                                         
     4  1  1.50       -30.5054   6.0000                                         
     4  2  2.50        -2.3341   3.0000                                         
     4  3  2.50        -1.3606   0.0000                                         
   Description                                                                  
     l       E           TYP  RCUT    TYP  RCUT                                 
     0    -52.4145962     23  2.200                                             
     0     -3.8421270     23  2.500                                             
     1    -30.5053914     23  2.200                                             
     1     20.4087390     23  2.200                                             
     2     -2.3340816     23  2.500                                             
     2     -0.6120942     23  2.500                                             
     3     -4.0817478     23  2.500                                             
  local pseudopotential read in
  partial core-charges read in
  partial kinetic energy density read in
  atomic valenz-charges read in
  non local Contribution for L=           0  read in
    real space projection operators read in
  non local Contribution for L=           0  read in
    real space projection operators read in
  non local Contribution for L=           1  read in
    real space projection operators read in
  non local Contribution for L=           1  read in
    real space projection operators read in
  non local Contribution for L=           2  read in
    real space projection operators read in
  non local Contribution for L=           2  read in
    real space projection operators read in
    PAW grid and wavefunctions read in
 
   number of l-projection  operators is LMAX  =           6
   number of lm-projection operators is LMMAX =          18
 
 Optimization of the real space projectors (new method)

 maximal supplied QI-value         = 12.85
 optimisation between [QCUT,QGAM] = [  8.87, 17.73] = [ 22.01, 88.06] Ry 
 Optimized for a Real-space Cutoff    1.90 Angstroem

   l    n(q)    QCUT    max X(q) W(low)/X(q) W(high)/X(q)  e(spline) 
   2      9     8.867    62.315    0.23E-03    0.62E-04    0.11E-05
   2      9     8.867    52.185    0.23E-03    0.62E-04    0.11E-05
   0     10     8.867   103.837    0.15E-04    0.23E-04    0.98E-07
   0     10     8.867    59.728    0.12E-04    0.21E-04    0.89E-07
   1     10     8.867    13.958    0.50E-04    0.22E-04    0.14E-06
   1     10     8.867     8.441    0.36E-04    0.19E-04    0.98E-07
 Optimization of the real space projectors (new method)

 maximal supplied QI-value         = 12.47
 optimisation between [QCUT,QGAM] = [  8.86, 17.71] = [ 21.96, 87.83] Ry 
 Optimized for a Real-space Cutoff    1.90 Angstroem

   l    n(q)    QCUT    max X(q) W(low)/X(q) W(high)/X(q)  e(spline) 
   2      9     8.855    48.111    0.22E-03    0.80E-04    0.10E-05
   2      9     8.855    40.545    0.21E-03    0.76E-04    0.95E-06
   0     10     8.855   121.658    0.27E-04    0.12E-04    0.11E-06
   0     10     8.855    71.177    0.22E-04    0.11E-04    0.99E-07
   1     10     8.855    14.183    0.65E-04    0.10E-03    0.98E-07
   1     10     8.855     8.257    0.43E-04    0.73E-04    0.72E-07
 Optimization of the real space projectors (new method)

 maximal supplied QI-value         = 15.68
 optimisation between [QCUT,QGAM] = [  8.78, 17.72] = [ 21.60, 87.97] Ry 
 Optimized for a Real-space Cutoff    1.96 Angstroem

   l    n(q)    QCUT    max X(q) W(low)/X(q) W(high)/X(q)  e(spline) 
   0     10     8.783    10.201    0.29E-04    0.25E-05    0.69E-07
   0     10     8.783     8.174    0.45E-04    0.57E-05    0.14E-06
   1     10     8.783     3.488    0.76E-05    0.24E-04    0.95E-07
   1     10     8.783     4.917    0.78E-04    0.14E-03    0.46E-06
   2      9     8.783   153.744    0.22E-03    0.34E-04    0.15E-05
   2      9     8.783   126.342    0.22E-03    0.35E-04    0.15E-05
 Optimization of the real space projectors (new method)

 maximal supplied QI-value         = 15.12
 optimisation between [QCUT,QGAM] = [  8.77, 17.69] = [ 21.53, 87.61] Ry 
 Optimized for a Real-space Cutoff    1.74 Angstroem

   l    n(q)    QCUT    max X(q) W(low)/X(q) W(high)/X(q)  e(spline) 
   0      9     8.768    12.107    0.28E-04    0.53E-06    0.29E-07
   0      9     8.768     9.948    0.36E-04    0.50E-05    0.64E-07
   1      9     8.768     3.563    0.14E-04    0.16E-04    0.88E-07
   1      9     8.768     4.524    0.21E-03    0.33E-03    0.19E-06
   2      8     8.768    87.261    0.19E-03    0.25E-03    0.24E-06
   2      8     8.768    70.950    0.19E-03    0.24E-03    0.24E-06
  PAW_PBE Ta 17Jan2003                  :
 energy of atom  1       EATOM= -130.6506
 kinetic energy error for atom=    0.0121 (will be added to EATOM!!)
  PAW_PBE Hf 20Jan2003                  :
 energy of atom  2       EATOM=  -75.9011
 kinetic energy error for atom=    0.0071 (will be added to EATOM!!)
  PAW_PBE Nb_sv 25May2007               :
 energy of atom  3       EATOM=-1555.1913
 kinetic energy error for atom=    0.0655 (will be added to EATOM!!)
  PAW_PBE Zr_sv 04Jan2005               :
 energy of atom  4       EATOM=-1284.2219
 kinetic energy error for atom=    0.0483 (will be added to EATOM!!)
 
 
 POSCAR: generated by pypospack                  
  positions in direct lattice
  No initial velocities read in
 exchange correlation table for  LEXCH =        8
   RHO(1)=    0.500       N(1)  =     2000
   RHO(2)=  100.500       N(2)  =     4000
 


--------------------------------------------------------------------------------------------------------


 ion  position               nearest neighbor table
   1  0.521  0.988  0.998-  24 2.81   7 2.85  20 2.89  12 2.90  15 2.95  32 2.97  16 3.02  36 3.09
                             8 3.14  35 3.28  13 3.46  22 3.61
   2  0.245  0.839  0.496-  27 2.80  26 2.84  13 2.86  28 2.89  10 2.89  23 2.93  29 2.97  21 2.99
                            11 3.22   3 3.32  16 3.34  32 3.43   3 3.50
   3  0.758  0.839  0.497-  27 2.78  26 2.83  13 2.87  10 2.88  29 2.90  28 2.90  21 2.93  23 2.95
                            18 3.30   7 3.31   2 3.32   6 3.44   2 3.50
   4  0.243  0.509  0.178-  30 2.84  10 2.86  23 2.88  14 2.93  34 2.98   5 3.00  35 3.03  22 3.04
                            25 3.22  16 3.23  33 3.36  33 3.46  36 3.52
   5  0.982  0.668  0.003-  31 2.79   9 2.89   7 2.89  24 2.90  16 2.97  33 2.98   4 3.00  32 3.01
                            35 3.22   8 3.26  34 3.37  10 3.44  35 3.60
   6  0.754  0.499  0.493-  30 2.84  10 2.85  14 2.85  23 2.87  29 2.88  21 2.97  17 3.03  19 3.04
                            33 3.22  18 3.36   9 3.41   3 3.44
   7  0.752  0.834  0.173-   8 2.84   1 2.85  27 2.85   5 2.89  26 2.90  10 2.92  23 2.98  35 2.98
                             3 3.31  15 3.34  16 3.39  16 3.42  33 3.46
   8  0.983  0.991  0.001-  24 2.78   7 2.84  32 2.94  15 2.95  20 2.96  12 2.98  16 3.00  36 3.07
                             1 3.14   5 3.26  34 3.50
   9  0.767  0.498  0.826-  29 2.84   5 2.89  19 2.91  34 2.93  17 2.96  35 2.99  22 3.00  21 3.01
                            31 3.11  20 3.38   6 3.41  33 3.60
  10  0.997  0.668  0.339-  25 2.82   6 2.85   4 2.86   3 2.88   2 2.89   7 2.92  16 2.93  33 2.94
                            27 3.27  29 3.28  30 3.29   5 3.44
  11  0.256  0.158  0.495-  14 2.83  26 2.86  28 2.87  27 2.91  30 2.91  13 2.92  19 2.97  17 2.99
                             2 3.22  36 3.30  18 3.37  12 3.45  18 3.45
  12  0.262  0.140  0.832-  28 2.81  13 2.84   1 2.90  22 2.96   8 2.98  34 3.03  17 3.03  32 3.07
                            19 3.07  20 3.29  11 3.45  36 3.49  20 3.54
  13  0.501  0.990  0.660-  12 2.84   2 2.86   3 2.87  24 2.91  11 2.92  32 2.93  18 2.96  20 2.96
                            21 3.23  26 3.28   1 3.46  17 3.56
  14  0.481  0.341  0.349-  25 2.77  11 2.83   6 2.85   4 2.93  33 2.96  18 2.97  36 2.98  15 3.14
                            30 3.14  23 3.27  17 3.27  22 3.72
  15  0.749  0.165  0.172-   1 2.95   8 2.95  26 2.95  27 2.97  30 3.12  14 3.14  34 3.16  22 3.23
                            33 3.30  18 3.32   7 3.34  36 3.36  36 3.46  20 3.49
  16  0.249  0.829  0.170-  27 2.92  10 2.93  26 2.95  23 2.96   5 2.97   8 3.00   1 3.02  35 3.03
                             4 3.23   2 3.34  36 3.36   7 3.39   7 3.42  32 3.47
  17  0.482  0.343  0.669-  25 2.95   9 2.96  11 2.99   6 3.03  12 3.03  20 3.04  31 3.08  18 3.11
                            19 3.15  22 3.24  14 3.27  21 3.32  13 3.56  19 3.67
  18  0.750  0.166  0.497-  26 2.90  28 2.93  27 2.96  13 2.96  14 2.97  30 2.99  19 3.03  17 3.11
                             3 3.30  15 3.32   6 3.36  11 3.37  20 3.41  11 3.45
  19  0.020  0.333  0.665-   9 2.91  25 2.92  31 2.93  11 2.97  18 3.03   6 3.04  20 3.05  12 3.07
                            17 3.15  30 3.27  34 3.32  28 3.33  29 3.36  17 3.67
  20  0.743  0.164  0.831-   1 2.89  13 2.96   8 2.96  28 2.97  22 3.03  17 3.04  34 3.05  19 3.05
                            12 3.29  24 3.29   9 3.38  18 3.41  15 3.49  12 3.54
  21  0.508  0.671  0.661-   3 2.93  24 2.95   6 2.97  25 2.97  31 2.98   2 2.99   9 3.01  32 3.03
                            13 3.23  23 3.25  29 3.29  17 3.32  35 3.43
  22  0.475  0.343  0.985-  12 2.96   9 3.00  31 3.00  20 3.03   4 3.04  36 3.05  34 3.07  33 3.10
                            15 3.23  17 3.24  35 3.24   1 3.61  14 3.72  34 3.75
  23  0.498  0.665  0.343-  25 2.80   6 2.87   4 2.88   2 2.93   3 2.95  16 2.96  33 2.98   7 2.98
                            21 3.25  14 3.27
  24  0.758  0.838  0.830-   8 2.78   1 2.81   5 2.90  13 2.91  28 2.92  29 2.94  21 2.95  35 2.97
                            20 3.29  32 3.30
  25  0.243  0.508  0.493-  30 2.71  14 2.77  23 2.80  10 2.82  29 2.91  19 2.92  17 2.95  21 2.97
                             4 3.22
  26  0.503  0.993  0.340-   3 2.83   2 2.84  11 2.86   7 2.90  18 2.90  36 2.94  16 2.95  15 2.95
                            13 3.28
  27  1.000  0.991  0.336-   3 2.78   2 2.80   7 2.85  11 2.91  16 2.92  18 2.96  36 2.96  15 2.97
                            10 3.27
  28  0.005  0.004  0.662-  12 2.81  11 2.87   2 2.89   3 2.90  32 2.91  24 2.92  18 2.93  20 2.97
                            19 3.33
  29  0.991  0.666  0.660-  31 2.73   9 2.84   6 2.88   3 2.90  25 2.91  24 2.94   2 2.97  32 2.99
                            10 3.28  21 3.29  19 3.36
  30  0.020  0.343  0.346-  25 2.71   6 2.84   4 2.84  11 2.91  33 2.94  18 2.99  36 3.03  15 3.12
                            14 3.14  19 3.27  10 3.29
  31  0.221  0.529  0.831-  29 2.73   5 2.79  34 2.87  35 2.92  19 2.93  21 2.98  22 3.00  17 3.08
                            32 3.10   9 3.11
  32  0.242  0.836  0.831-  28 2.91  13 2.93   8 2.94   1 2.97  29 2.99   5 3.01  21 3.03  35 3.04
                            12 3.07  31 3.10  24 3.30   2 3.43  16 3.47
  33  0.750  0.492  0.178-  30 2.94  10 2.94  14 2.96   5 2.98  23 2.98  35 3.03  22 3.10  34 3.11
                             6 3.22  15 3.30   4 3.36   7 3.46   4 3.46   9 3.60
  34  0.025  0.336  0.990-  31 2.87   9 2.93   4 2.98  36 3.02  12 3.03  20 3.05  22 3.07  33 3.11
                            15 3.16  19 3.32   5 3.37   8 3.50  22 3.75
  35  0.510  0.664  0.996-  31 2.92  24 2.97   7 2.98   9 2.99  16 3.03  33 3.03   4 3.03  32 3.04
                             5 3.22  22 3.24   1 3.28  21 3.43   5 3.60
  36  0.256  0.161  0.172-  26 2.94  27 2.96  14 2.98  34 3.02  30 3.03  22 3.05   8 3.07   1 3.09
                            11 3.30  16 3.36  15 3.36  15 3.46  12 3.49   4 3.52
 
  LATTYP: Found a triclinic cell.
 ALAT       =     6.8146889403
 B/A-ratio  =     1.7929793666
 C/A-ratio  =     1.5011027686
 COS(alpha) =     0.0006165412
 COS(beta)  =     0.0021082936
 COS(gamma) =     0.5625777792
  
  Lattice vectors:
  
 A1 = (   6.8146549988,  -0.0202375737,  -0.0072829326)
 A2 = (   6.8438815070, -10.1220242482,  -0.0039208117)
 A3 = (   0.0106450535,   0.0035466884, -10.2295422819)


Analysis of symmetry for initial positions (statically):
=====================================================================
 Subroutine PRICEL returns:
 Original cell was already a primitive cell.
 

 Routine SETGRP: Setting up the symmetry group for a 
 triclinic supercell.


 Subroutine GETGRP returns: Found  1 space group operations
 (whereof  1 operations were pure point group operations)
 out of a pool of  2 trial point group operations.


The static configuration has the point symmetry C_1 .


Analysis of symmetry for dynamics (positions and initial velocities):
=====================================================================
 Subroutine PRICEL returns:
 Original cell was already a primitive cell.
 

 Routine SETGRP: Setting up the symmetry group for a 
 triclinic supercell.


 Subroutine GETGRP returns: Found  1 space group operations
 (whereof  1 operations were pure point group operations)
 out of a pool of  2 trial point group operations.


The dynamic configuration has the point symmetry C_1 .


 Subroutine INISYM returns: Found  1 space group operations
 (whereof  1 operations are pure point group operations),
 and found     1 'primitive' translations

 
 
 KPOINTS: k-points                                

Automatic generation of k-mesh.
Space group operators:
 irot       det(A)        alpha          n_x          n_y          n_z        tau_x        tau_y        tau_z
    1     1.000000     0.000000     1.000000     0.000000     0.000000     0.000000     0.000000     0.000000
 
 Subroutine IBZKPT returns following result:
 ===========================================
 
 Found     14 irreducible k-points:
 
 Following reciprocal coordinates:
            Coordinates               Weight
  0.000000  0.000000  0.000000      1.000000
  0.333333  0.000000 -0.000000      2.000000
 -0.000000  0.333333 -0.000000      2.000000
  0.333333  0.333333 -0.000000      2.000000
 -0.333333  0.333333  0.000000      2.000000
  0.000000  0.000000  0.333333      2.000000
  0.333333  0.000000  0.333333      2.000000
 -0.333333 -0.000000  0.333333      2.000000
 -0.000000  0.333333  0.333333      2.000000
  0.333333  0.333333  0.333333      2.000000
 -0.333333  0.333333  0.333333      2.000000
  0.000000 -0.333333  0.333333      2.000000
  0.333333 -0.333333  0.333333      2.000000
 -0.333333 -0.333333  0.333333      2.000000
 
 Following cartesian coordinates:
            Coordinates               Weight
  0.000000  0.000000  0.000000      1.000000
  0.244002  0.000706  0.000254      2.000000
  0.000489  0.164603  0.000058      2.000000
  0.244490  0.165309  0.000312      2.000000
 -0.243513  0.163897 -0.000197      2.000000
  0.000174  0.000055  0.162546      2.000000
  0.244175  0.000761  0.162800      2.000000
 -0.243828 -0.000651  0.162292      2.000000
  0.000663  0.164658  0.162604      2.000000
  0.244664  0.165364  0.162858      2.000000
 -0.243339  0.163952  0.162350      2.000000
 -0.000315 -0.164548  0.162489      2.000000
  0.243687 -0.163842  0.162743      2.000000
 -0.244317 -0.165254  0.162234      2.000000
 


--------------------------------------------------------------------------------------------------------




 Dimension of arrays:
   k-points           NKPTS =     14   k-points in BZ     NKDIM =     14   number of bands    NBANDS=    168
   number of dos      NEDOS =    301   number of ions     NIONS =     36
   non local maximal  LDIM  =      6   non local SUM 2l+1 LMDIM =     18
   total plane-waves  NPLWV = 144000
   max r-space proj   IRMAX =   6504   max aug-charges    IRDMAX=  14118
   dimension x,y,z NGX =    40 NGY =   60 NGZ =   60
   dimension x,y,z NGXF=    80 NGYF=  120 NGZF=  120
   support grid    NGXF=    80 NGYF=  120 NGZF=  120
   ions per type =              15   7   9   5
 NGX,Y,Z   is equivalent  to a cutoff of   9.76,  9.87,  9.75 a.u.
 NGXF,Y,Z  is equivalent  to a cutoff of  19.52, 19.75, 19.50 a.u.


 I would recommend the setting:
   dimension x,y,z NGX =    38 NGY =   57 NGZ =   58
 SYSTEM =  automatically generated by mexm         
 POSCAR =  generated by pypospack                  

 Startparameter for this run:
   NWRITE =      2    write-flag & timer
   PREC   = accura    normal or accurate (medium, high low for compatibility)
   ISTART =      0    job   : 0-new  1-cont  2-samecut
   ICHARG =      2    charge: 1-file 2-atom 10-const
   ISPIN  =      1    spin polarized calculation?
   LNONCOLLINEAR =      F non collinear calculations
   LSORBIT =      F    spin-orbit coupling
   INIWAV =      1    electr: 0-lowe 1-rand  2-diag
   LASPH  =      F    aspherical Exc in radial PAW
   METAGGA=      F    non-selfconsistent MetaGGA calc.

 Electronic Relaxation 1
   ENCUT  =  300.0 eV  22.05 Ry    4.70 a.u.   9.62 14.27 14.45*2*pi/ulx,y,z
   ENINI  =  300.0     initial cutoff
   ENAUG  =  461.3 eV  augmentation charge cutoff
   NELM   =     70;   NELMIN=  2; NELMDL= -5     # of ELM steps 
   EDIFF  = 0.1E-04   stopping-criterion for ELM
   LREAL  =      T    real-space projection
   NLSPLINE    = F    spline interpolate recip. space projectors
   LCOMPAT=      F    compatible to vasp.4.4
   GGA_COMPAT  = T    GGA compatible to vasp.4.4-vasp.4.6
   LMAXPAW     = -100 max onsite density
   LMAXMIX     =    2 max onsite mixed and CHGCAR
   VOSKOWN=      0    Vosko Wilk Nusair interpolation
   ROPT   =   -0.00025  -0.00025  -0.00025  -0.00025
 Ionic relaxation
   EDIFFG = -.1E-01   stopping-criterion for IOM
   NSW    =    300    number of steps for IOM
   NBLOCK =      1;   KBLOCK =    300    inner block; outer block 
   IBRION =      2    ionic relax: 0-MD 1-quasi-New 2-CG
   NFREE  =      1    steps in history (QN), initial steepest desc. (CG)
   ISIF   =      3    stress and relaxation
   IWAVPR =     11    prediction:  0-non 1-charg 2-wave 3-comb
   ISYM   =      1    0-nonsym 1-usesym 2-fastsym
   LCORR  =      T    Harris-Foulkes like correction to forces

   POTIM  = 0.1500    time-step for ionic-motion
   TEIN   =    0.0    initial temperature
   TEBEG  =    0.0;   TEEND  =   0.0 temperature during run
   SMASS  =  -3.00    Nose mass-parameter (am)
   estimated Nose-frequenzy (Omega)   =  0.10E-29 period in steps =****** mass=  -0.106E-26a.u.
   SCALEE = 1.0000    scale energy and forces
   NPACO  =    256;   APACO  = 16.0  distance and # of slots for P.C.
   PSTRESS=    0.0 pullay stress

  Mass of Ions in am
   POMASS = 180.95178.49 92.91 91.22
  Ionic Valenz
   ZVAL   =   5.00  4.00 13.00 12.00
  Atomic Wigner-Seitz radii
   RWIGS  =  -1.00 -1.00 -1.00 -1.00
  virtual crystal weights 
   VCA    =   1.00  1.00  1.00  1.00
   NELECT =     280.0000    total number of electrons
   NUPDOWN=      -1.0000    fix difference up-down

 DOS related values:
   EMIN   =  10.00;   EMAX   =-10.00  energy-range for DOS
   EFERMI =   0.00
   ISMEAR =     1;   SIGMA  =   0.15  broadening in eV -4-tet -1-fermi 0-gaus

 Electronic relaxation 2 (details)
   IALGO  =     68    algorithm
   LDIAG  =      T    sub-space diagonalisation (order eigenvalues)
   LSUBROT=      F    optimize rotation matrix (better conditioning)
   TURBO    =      0    0=normal 1=particle mesh
   IRESTART =      0    0=no restart 2=restart with 2 vectors
   NREBOOT  =      0    no. of reboots
   NMIN     =      0    reboot dimension
   EREF     =   0.00    reference energy to select bands
   IMIX   =      4    mixing-type and parameters
     AMIX     =   0.40;   BMIX     =  1.00
     AMIX_MAG =   1.60;   BMIX_MAG =  1.00
     AMIN     =   0.10
     WC   =   100.;   INIMIX=   1;  MIXPRE=   1;  MAXMIX= -45

 Intra band minimization:
   WEIMIN = 0.0010     energy-eigenvalue tresh-hold
   EBREAK =  0.15E-07  absolut break condition
   DEPER  =   0.30     relativ break condition  

   TIME   =   0.40     timestep for ELM

  volume/ion in A,a.u.               =      19.56       132.00
  Fermi-wavevector in a.u.,A,eV,Ry     =   1.203824  2.274897 19.717443  1.449191
  Thomas-Fermi vector in A             =   2.339566
 
 Write flags
   LWAVE  =      F    write WAVECAR
   LCHARG =      F    write CHGCAR
   LVTOT  =      F    write LOCPOT, total local potential
   LVHAR  =      F    write LOCPOT, Hartree potential only
   LELF   =      F    write electronic localiz. function (ELF)
   LORBIT =      0    0 simple, 1 ext, 2 COOP (PROOUT)


 Dipole corrections
   LMONO  =      F    monopole corrections only (constant potential shift)
   LDIPOL =      F    correct potential (dipole corrections)
   IDIPOL =      0    1-x, 2-y, 3-z, 4-all directions 
   EPSILON=  1.0000000 bulk dielectric constant

 Exchange correlation treatment:
   GGA     =    --    GGA type
   LEXCH   =     8    internal setting for exchange type
   VOSKOWN=      0    Vosko Wilk Nusair interpolation
   LHFCALC =     F    Hartree Fock is set to
   LHFONE  =     F    Hartree Fock one center treatment
   AEXX    =    0.0000 exact exchange contribution

 Linear response parameters
   LEPSILON=     F    determine dielectric tensor
   LRPA    =     F    only Hartree local field effects (RPA)
   LNABLA  =     F    use nabla operator in PAW spheres
   LVEL    =     F    velocity operator in full k-point grid
   LINTERFAST=   F  fast interpolation
   KINTER  =     0    interpolate to denser k-point grid
   CSHIFT  =0.1000    complex shift for real part using Kramers Kronig
   OMEGAMAX=  -1.0    maximum frequency
   DEG_THRESHOLD= 0.2000000E-02 threshold for treating states as degnerate
   RTIME   =    0.100 relaxation time in fs

 Orbital magnetization related:
   ORBITALMAG=     F  switch on orbital magnetization
   LCHIMAG   =     F  perturbation theory with respect to B field
   DQ        =  0.001000  dq finite difference perturbation B field



--------------------------------------------------------------------------------------------------------


 conjugate gradient relaxation of ions
 charge density and potential will be updated during run
 non-spin polarized calculation
 RMM-DIIS sequential band-by-band and
  variant of blocked Davidson during initial phase
 perform sub-space diagonalisation
    before iterative eigenvector-optimisation
 modified Broyden-mixing scheme, WC =      100.0
 initial mixing is a Kerker type mixing with AMIX =  0.4000 and BMIX =      1.0000
 Hartree-type preconditioning will be used
 using additional bands           28
 real space projection scheme for non local part
 use partial core corrections
 calculate Harris-corrections to forces 
   (improved forces if not selfconsistent)
 use gradient corrections 
 use of overlap-Matrix (Vanderbilt PP)
 Methfessel and Paxton  Order N= 1 SIGMA  =   0.15


--------------------------------------------------------------------------------------------------------


  energy-cutoff  :      300.00
  volume of cell :      704.20
      direct lattice vectors                 reciprocal lattice vectors
     6.814654999 -0.020237574 -0.007282933     0.146743996  0.000424611  0.000152852
    -0.029226508 10.101786675 -0.003362121     0.000294019  0.098993252  0.000034628
    -0.010645054 -0.003546688 10.229542282     0.000104571  0.000032838  0.097756205

  length of vectors
     6.814688940 10.101829513 10.229548435     0.146744690  0.098993694  0.097756266


 
 k-points in units of 2pi/SCALE and weight: k-points                                
   0.00000000  0.00000000  0.00000000       0.037
   0.24400151  0.00070603  0.00025416       0.074
   0.00048889  0.16460301  0.00005758       0.074
   0.24449040  0.16530904  0.00031174       0.074
  -0.24351263  0.16389698 -0.00019658       0.074
   0.00017388  0.00005460  0.16254608       0.074
   0.24417539  0.00076063  0.16280024       0.074
  -0.24382764 -0.00065143  0.16229193       0.074
   0.00066276  0.16465761  0.16260366       0.074
   0.24466428  0.16536364  0.16285782       0.074
  -0.24333875  0.16395158  0.16234951       0.074
  -0.00031501 -0.16454841  0.16248851       0.074
   0.24368651 -0.16384238  0.16274266       0.074
  -0.24431652 -0.16525444  0.16223435       0.074
 
 k-points in reciprocal lattice and weights: k-points                                
   0.00000000  0.00000000  0.00000000       0.037
   0.33333333  0.00000000 -0.00000000       0.074
  -0.00000000  0.33333333 -0.00000000       0.074
   0.33333333  0.33333333 -0.00000000       0.074
  -0.33333333  0.33333333  0.00000000       0.074
   0.00000000  0.00000000  0.33333333       0.074
   0.33333333  0.00000000  0.33333333       0.074
  -0.33333333 -0.00000000  0.33333333       0.074
  -0.00000000  0.33333333  0.33333333       0.074
   0.33333333  0.33333333  0.33333333       0.074
  -0.33333333  0.33333333  0.33333333       0.074
   0.00000000 -0.33333333  0.33333333       0.074
   0.33333333 -0.33333333  0.33333333       0.074
  -0.33333333 -0.33333333  0.33333333       0.074
 
 position of ions in fractional coordinates (direct lattice) 
   0.52112100  0.98805200  0.99837400
   0.24460400  0.83880100  0.49620200
   0.75809500  0.83925100  0.49653500
   0.24289600  0.50899400  0.17784600
   0.98199400  0.66808800  0.00265700
   0.75405000  0.49893600  0.49281400
   0.75154300  0.83405700  0.17294600
   0.98257000  0.99072000  0.00141900
   0.76678800  0.49778200  0.82600300
   0.99651800  0.66779000  0.33906400
   0.25596000  0.15750700  0.49539100
   0.26183900  0.14004500  0.83192000
   0.50139800  0.99029600  0.66046000
   0.48070300  0.34131500  0.34909000
   0.74908400  0.16459900  0.17248600
   0.24900700  0.82880800  0.17025100
   0.48182200  0.34261400  0.66856900
   0.74988800  0.16586600  0.49715200
   0.02029300  0.33340100  0.66546000
   0.74344400  0.16399000  0.83086300
   0.50779800  0.67093100  0.66063900
   0.47500900  0.34339800  0.98508500
   0.49824900  0.66450400  0.34261300
   0.75816000  0.83811600  0.82988000
   0.24349900  0.50800400  0.49309800
   0.50309000  0.99315600  0.33989800
   0.99993200  0.99140600  0.33627000
   0.00536100  0.00377100  0.66249400
   0.99083700  0.66552000  0.65988100
   0.01966100  0.34310000  0.34609100
   0.22116100  0.52896500  0.83079900
   0.24204600  0.83591500  0.83150000
   0.74999700  0.49157500  0.17764200
   0.02525200  0.33625200  0.99020300
   0.50988000  0.66354400  0.99591900
   0.25645200  0.16094400  0.17248700
 
 position of ions in cartesian coordinates  (Angst):
   3.51175477  9.96700338 10.20579181
   1.63709455  8.46667870  5.07131775
   5.13634186  8.46083151  5.07098296
   1.63848314  5.13620242  1.81580288
   6.67239616  6.72899986  0.01778191
   5.11876241  5.02313704  5.03409247
   5.09528867  8.40964310  1.76088078
   6.66690517  9.98815223  0.00402881
   5.20205440  5.01004007  8.44237454
   6.76779985  6.72450246  3.45896676
   1.73440225  1.58416511  5.06522948
   1.77139359  1.40645517  8.50778301
   3.38088086  9.99126941  6.74922235
   3.26213357  3.43692494  3.56638245
   5.09810225  1.64697259  1.75844390
   1.67086130  8.36679849  1.73698975
   3.26632034  3.44889143  6.83449387
   5.10008811  1.65860379  5.07961836
   0.12146179  3.36517492  6.80608248
   5.05267693  1.63859968  8.49338238
   3.43382667  6.76498216  6.75208057
   3.21649985  3.45582652 10.07235465
   3.37232677  6.70137916  3.49891131
   5.13326951  8.44818240  8.48095307
   1.63926544  5.12507134  5.04068548
   3.39574007 10.02126321  3.46999788
   6.78163665  9.99354308  3.42927252
   0.02937087  0.03563568  6.77695866
   6.72573702  6.70054854  6.74082683
   0.12027116  3.46429764  3.53905578
   1.48283221  5.33606924  8.49530435
   1.61617775  8.43638751  8.50129116
   5.09471278  4.94997762  1.81008144
   0.15171543  3.39272299 10.12800903
   3.44466161  6.68912899 10.18185118
   1.74109194  1.62002023  1.76205422
 


--------------------------------------------------------------------------------------------------------


 k-point  1 :   0.0000 0.0000 0.0000  plane waves:    8335
 k-point  2 :   0.3333 0.0000-0.0000  plane waves:    8302
 k-point  3 :  -0.0000 0.3333-0.0000  plane waves:    8320
 k-point  4 :   0.3333 0.3333-0.0000  plane waves:    8319
 k-point  5 :  -0.3333 0.3333 0.0000  plane waves:    8315
 k-point  6 :   0.0000 0.0000 0.3333  plane waves:    8301
 k-point  7 :   0.3333 0.0000 0.3333  plane waves:    8312
 k-point  8 :  -0.3333-0.0000 0.3333  plane waves:    8311
 k-point  9 :  -0.0000 0.3333 0.3333  plane waves:    8312
 k-point 10 :   0.3333 0.3333 0.3333  plane waves:    8299
 k-point 11 :  -0.3333 0.3333 0.3333  plane waves:    8297
 k-point 12 :   0.0000-0.3333 0.3333  plane waves:    8315
 k-point 13 :   0.3333-0.3333 0.3333  plane waves:    8298
 k-point 14 :  -0.3333-0.3333 0.3333  plane waves:    8306

 maximum and minimum number of plane-waves per node :      1693     1636

 maximum number of plane-waves:      8335
 maximum index in each direction: 
   IXMAX=    9   IYMAX=   14   IZMAX=   14
   IXMIN=   -9   IYMIN=  -14   IZMIN=  -14

 NGX is ok and might be reduce to  38
 NGY is ok and might be reduce to  58
 NGZ is ok and might be reduce to  58

 real space projection operators:
  total allocation   :      28739.95 KBytes
  max/ min on nodes  :       5773.78       5720.62


 parallel 3D FFT for wavefunctions:
    minimum data exchange during FFTs selected (reduces bandwidth)
 parallel 3D FFT for charge:
    minimum data exchange during FFTs selected (reduces bandwidth)


 total amount of memory used by VASP on root node    66634. kBytes
========================================================================

   base      :      30000. kBytes
   nonlr-proj:      11026. kBytes
   fftplans  :       2814. kBytes
   grid      :       5360. kBytes
   one-center:        124. kBytes
   wavefun   :      17310. kBytes
 
     INWAV:  cpu time    0.0000: real time    0.0000
 Broyden mixing: mesh for mixing (old mesh)
   NGX = 19   NGY = 29   NGZ = 29
  (NGX  = 80   NGY  =120   NGZ  =120)
  gives a total of  15979 points

 initial charge density was supplied:
 charge density of overlapping atoms calculated
 number of electron     280.0000000 magnetization 
 keeping initial charge density in first step


--------------------------------------------------------------------------------------------------------


 Maximum index for non-local projection operator         1269
 Maximum index for augmentation-charges          692 (set IRDMAX)


--------------------------------------------------------------------------------------------------------


 First call to EWALD:  gamma=   0.199
 Maximum number of real-space cells 3x 2x 2
 Maximum number of reciprocal cells 2x 3x 3

 FEWALD executed in parallel
    FEWALD:  cpu time    0.1189: real time    0.1196


----------------------------------------- Iteration    1(   1)  ---------------------------------------


    POTLOK:  cpu time    0.0536: real time    0.0776
    SETDIJ:  cpu time    0.1900: real time    0.1905
     EDDAV:  cpu time    0.9702: real time    0.9746
       DOS:  cpu time    0.0022: real time    0.0023
    --------------------------------------------
      LOOP:  cpu time    1.2217: real time    1.4273

 eigenvalue-minimisations  :  5216
 total energy-change (2. order) : 0.1629233E+04  (-0.1041113E+05)
 number of electron     280.0000000 magnetization 
 augmentation part      280.0000000 magnetization 

 Free energy of the ion-electron system (eV)
  ---------------------------------------------------
  alpha Z        PSCENC =      1521.66091802
  Ewald energy   TEWEN  =    -18037.16107648
  -Hartree energ DENC   =     -6035.41371504
  -exchange      EXHF   =         0.00000000
  -V(xc)+E(xc)   XCENC  =      -610.63616650
  PAW double counting   =     19828.46816637   -18038.75523802
  entropy T*S    EENTRO =        -0.00581942
  eigenvalues    EBANDS =        93.24034800
  atomic energy  EATOM  =     22907.83598784
  Solvation  Ediel_sol  =         0.00000000
  ---------------------------------------------------
  free energy    TOTEN  =      1629.23340477 eV

  energy without entropy =     1629.23922418  energy(sigma->0) =     1629.23534457


--------------------------------------------------------------------------------------------------------




----------------------------------------- Iteration    1(   2)  ---------------------------------------


     EDDAV:  cpu time    1.0593: real time    1.2160
       DOS:  cpu time    0.0020: real time    0.0020
    --------------------------------------------
      LOOP:  cpu time    1.0619: real time    1.2970

 eigenvalue-minimisations  :  5496
 total energy-change (2. order) :-0.1770321E+04  (-0.1710907E+04)
 number of electron     280.0000000 magnetization 
 augmentation part      280.0000000 magnetization 

 Free energy of the ion-electron system (eV)
  ---------------------------------------------------
  alpha Z        PSCENC =      1521.66091802
  Ewald energy   TEWEN  =    -18037.16107648
  -Hartree energ DENC   =     -6035.41371504
  -exchange      EXHF   =         0.00000000
  -V(xc)+E(xc)   XCENC  =      -610.63616650
  PAW double counting   =     19828.46816637   -18038.75523802
  entropy T*S    EENTRO =        -0.00056939
  eigenvalues    EBANDS =     -1677.08546601
  atomic energy  EATOM  =     22907.83598784
  Solvation  Ediel_sol  =         0.00000000
  ---------------------------------------------------
  free energy    TOTEN  =      -141.08715922 eV

  energy without entropy =     -141.08658984  energy(sigma->0) =     -141.08696943


--------------------------------------------------------------------------------------------------------




----------------------------------------- Iteration    1(   3)  ---------------------------------------


     EDDAV:  cpu time    1.3568: real time    1.3716
       DOS:  cpu time    0.0012: real time    0.0012
    --------------------------------------------
      LOOP:  cpu time    1.3584: real time    1.3896

 eigenvalue-minimisations  :  8016
 total energy-change (2. order) :-0.2251375E+03  (-0.2139113E+03)
 number of electron     280.0000000 magnetization 
 augmentation part      280.0000000 magnetization 

 Free energy of the ion-electron system (eV)
  ---------------------------------------------------
  alpha Z        PSCENC =      1521.66091802
  Ewald energy   TEWEN  =    -18037.16107648
  -Hartree energ DENC   =     -6035.41371504
  -exchange      EXHF   =         0.00000000
  -V(xc)+E(xc)   XCENC  =      -610.63616650
  PAW double counting   =     19828.46816637   -18038.75523802
  entropy T*S    EENTRO =        -0.00277484
  eigenvalues    EBANDS =     -1902.22077983
  atomic energy  EATOM  =     22907.83598784
  Solvation  Ediel_sol  =         0.00000000
  ---------------------------------------------------
  free energy    TOTEN  =      -366.22467849 eV

  energy without entropy =     -366.22190365  energy(sigma->0) =     -366.22375354


--------------------------------------------------------------------------------------------------------




----------------------------------------- Iteration    1(   4)  ---------------------------------------


     EDDAV:  cpu time    1.2950: real time    1.3002
       DOS:  cpu time    0.0021: real time    0.0022
    --------------------------------------------
      LOOP:  cpu time    1.2978: real time    1.3189

 eigenvalue-minimisations  :  7896
 total energy-change (2. order) :-0.2601131E+02  (-0.2451678E+02)
 number of electron     280.0000000 magnetization 
 augmentation part      280.0000000 magnetization 

 Free energy of the ion-electron system (eV)
  ---------------------------------------------------
  alpha Z        PSCENC =      1521.66091802
  Ewald energy   TEWEN  =    -18037.16107648
  -Hartree energ DENC   =     -6035.41371504
  -exchange      EXHF   =         0.00000000
  -V(xc)+E(xc)   XCENC  =      -610.63616650
  PAW double counting   =     19828.46816637   -18038.75523802
  entropy T*S    EENTRO =        -0.00302350
  eigenvalues    EBANDS =     -1928.23183769
  atomic energy  EATOM  =     22907.83598784
  Solvation  Ediel_sol  =         0.00000000
  ---------------------------------------------------
  free energy    TOTEN  =      -392.23598501 eV

  energy without entropy =     -392.23296151  energy(sigma->0) =     -392.23497718


--------------------------------------------------------------------------------------------------------




----------------------------------------- Iteration    1(   5)  ---------------------------------------


     EDDAV:  cpu time    1.3720: real time    1.3773
       DOS:  cpu time    0.0015: real time    0.0015
    CHARGE:  cpu time    0.0457: real time    0.0459
    MIXING:  cpu time    0.0016: real time    0.0016
    --------------------------------------------
      LOOP:  cpu time    1.4213: real time    1.4441

 eigenvalue-minimisations  :  7544
 total energy-change (2. order) :-0.2488747E+01  (-0.2429106E+01)
 number of electron     280.0000000 magnetization 
 augmentation part       18.3529503 magnetization 

 Broyden mixing:
  rms(total) = 0.66928E+01    rms(broyden)= 0.66923E+01
  rms(prec ) = 0.69951E+01
  weight for this iteration     100.00

 Free energy of the ion-electron system (eV)
  ---------------------------------------------------
  alpha Z        PSCENC =      1521.66091802
  Ewald energy   TEWEN  =    -18037.16107648
  -Hartree energ DENC   =     -6035.41371504
  -exchange      EXHF   =         0.00000000
  -V(xc)+E(xc)   XCENC  =      -610.63616650
  PAW double counting   =     19828.46816637   -18038.75523802
  entropy T*S    EENTRO =        -0.00216884
  eigenvalues    EBANDS =     -1930.72143903
  atomic energy  EATOM  =     22907.83598784
  Solvation  Ediel_sol  =         0.00000000
  ---------------------------------------------------
  free energy    TOTEN  =      -394.72473169 eV

  energy without entropy =     -394.72256285  energy(sigma->0) =     -394.72400874


--------------------------------------------------------------------------------------------------------




----------------------------------------- Iteration    1(   6)  ---------------------------------------


    POTLOK:  cpu time    0.0298: real time    0.0299
    SETDIJ:  cpu time    0.0289: real time    0.0290
    EDDIAG:  cpu time    0.0790: real time    0.0793
  RMM-DIIS:  cpu time    0.7957: real time    0.7991
    ORTHCH:  cpu time    0.0106: real time    0.0107
       DOS:  cpu time    0.0023: real time    0.0023
    CHARGE:  cpu time    0.0297: real time    0.0298
    MIXING:  cpu time    0.0015: real time    0.0022
    --------------------------------------------
      LOOP:  cpu time    0.9781: real time    1.0016

 eigenvalue-minimisations  :  6888
 total energy-change (2. order) : 0.1047612E+02  (-0.2676931E+01)
 number of electron     280.0000000 magnetization 
 augmentation part       19.1283093 magnetization 

 Broyden mixing:
  rms(total) = 0.32390E+01    rms(broyden)= 0.32389E+01
  rms(prec ) = 0.36457E+01
  weight for this iteration     100.00

 eigenvalues of (default mixing * dielectric matrix)
  average eigenvalue GAMMA=   1.8404
  1.8404

 Free energy of the ion-electron system (eV)
  ---------------------------------------------------
  alpha Z        PSCENC =      1521.66091802
  Ewald energy   TEWEN  =    -18037.16107648
  -Hartree energ DENC   =     -5887.03728367
  -exchange      EXHF   =         0.00000000
  -V(xc)+E(xc)   XCENC  =      -611.92120466
  PAW double counting   =     24978.30267243   -23196.45783056
  entropy T*S    EENTRO =         0.01529750
  eigenvalues    EBANDS =     -2059.48609654
  atomic energy  EATOM  =     22907.83598784
  Solvation  Ediel_sol  =         0.00000000
  ---------------------------------------------------
  free energy    TOTEN  =      -384.24861611 eV

  energy without entropy =     -384.26391362  energy(sigma->0) =     -384.25371528


--------------------------------------------------------------------------------------------------------




----------------------------------------- Iteration    1(   7)  ---------------------------------------


    POTLOK:  cpu time    0.0293: real time    0.0294
    SETDIJ:  cpu time    0.0339: real time    0.0341
    EDDIAG:  cpu time    0.0773: real time    0.0775
  RMM-DIIS:  cpu time    0.7626: real time    0.7657
    ORTHCH:  cpu time    0.0106: real time    0.0107
       DOS:  cpu time    0.0011: real time    0.0011
    CHARGE:  cpu time    0.0286: real time    0.0288
    MIXING:  cpu time    0.0012: real time    0.0013
    --------------------------------------------
      LOOP:  cpu time    0.9454: real time    0.9670

 eigenvalue-minimisations  :  7224
 total energy-change (2. order) :-0.3301637E+01  (-0.3201400E+01)
 number of electron     279.9999999 magnetization 
 augmentation part       19.6457785 magnetization 

 Broyden mixing:
  rms(total) = 0.14236E+01    rms(broyden)= 0.14233E+01
  rms(prec ) = 0.41006E+01
  weight for this iteration     100.00

 eigenvalues of (default mixing * dielectric matrix)
  average eigenvalue GAMMA=   1.1544
  1.8526  0.4561

 Free energy of the ion-electron system (eV)
  ---------------------------------------------------
  alpha Z        PSCENC =      1521.66091802
  Ewald energy   TEWEN  =    -18037.16107648
  -Hartree energ DENC   =     -5818.53539039
  -exchange      EXHF   =         0.00000000
  -V(xc)+E(xc)   XCENC  =      -609.66926757
  PAW double counting   =     29543.28483405   -27757.67191909
  entropy T*S    EENTRO =        -0.01722321
  eigenvalues    EBANDS =     -2137.27711598
  atomic energy  EATOM  =     22907.83598784
  Solvation  Ediel_sol  =         0.00000000
  ---------------------------------------------------
  free energy    TOTEN  =      -387.55025281 eV

  energy without entropy =     -387.53302960  energy(sigma->0) =     -387.54451174


--------------------------------------------------------------------------------------------------------




----------------------------------------- Iteration    1(   8)  ---------------------------------------


    POTLOK:  cpu time    0.0294: real time    0.0295
    SETDIJ:  cpu time    0.0039: real time    0.0039
    EDDIAG:  cpu time    0.0704: real time    0.0707
  RMM-DIIS:  cpu time    0.7325: real time    0.7354
    ORTHCH:  cpu time    0.0107: real time    0.0107
       DOS:  cpu time    0.0011: real time    0.0011
    CHARGE:  cpu time    0.0285: real time    0.0286
    MIXING:  cpu time    0.0012: real time    0.0012
    --------------------------------------------
      LOOP:  cpu time    0.8782: real time    0.8977

 eigenvalue-minimisations  :  6877
 total energy-change (2. order) : 0.8525051E+01  (-0.9859768E+00)
 number of electron     280.0000000 magnetization 
 augmentation part       19.5600384 magnetization 

 Broyden mixing:
  rms(total) = 0.38308E+00    rms(broyden)= 0.38261E+00
  rms(prec ) = 0.58306E+00
  weight for this iteration     100.00

 eigenvalues of (default mixing * dielectric matrix)
  average eigenvalue GAMMA=   1.1613
  1.8773  1.2219  0.3846

 Free energy of the ion-electron system (eV)
  ---------------------------------------------------
  alpha Z        PSCENC =      1521.66091802
  Ewald energy   TEWEN  =    -18037.16107648
  -Hartree energ DENC   =     -5811.12186054
  -exchange      EXHF   =         0.00000000
  -V(xc)+E(xc)   XCENC  =      -608.56590028
  PAW double counting   =     31078.22832364   -29290.38884342
  entropy T*S    EENTRO =         0.00714513
  eigenvalues    EBANDS =     -2139.51989568
  atomic energy  EATOM  =     22907.83598784
  Solvation  Ediel_sol  =         0.00000000
  ---------------------------------------------------
  free energy    TOTEN  =      -379.02520176 eV

  energy without entropy =     -379.03234689  energy(sigma->0) =     -379.02758347


--------------------------------------------------------------------------------------------------------




----------------------------------------- Iteration    1(   9)  ---------------------------------------


    POTLOK:  cpu time    0.0293: real time    0.0294
    SETDIJ:  cpu time    0.0038: real time    0.0038
    EDDIAG:  cpu time    0.0718: real time    0.0721
  RMM-DIIS:  cpu time    0.8621: real time    0.8653
    ORTHCH:  cpu time    0.0110: real time    0.0111
       DOS:  cpu time    0.0011: real time    0.0011
    CHARGE:  cpu time    0.0285: real time    0.0286
    MIXING:  cpu time    0.0013: real time    0.0013
    --------------------------------------------
      LOOP:  cpu time    1.0096: real time    1.0295

 eigenvalue-minimisations  :  7351
 total energy-change (2. order) : 0.1372409E+00  (-0.2605624E+00)
 number of electron     280.0000000 magnetization 
 augmentation part       19.4662436 magnetization 

 Broyden mixing:
  rms(total) = 0.27643E+00    rms(broyden)= 0.27633E+00
  rms(prec ) = 0.45832E+00
  weight for this iteration     100.00

 eigenvalues of (default mixing * dielectric matrix)
  average eigenvalue GAMMA=   1.1062
  1.7842  1.7842  0.4573  0.3990

 Free energy of the ion-electron system (eV)
  ---------------------------------------------------
  alpha Z        PSCENC =      1521.66091802
  Ewald energy   TEWEN  =    -18037.16107648
  -Hartree energ DENC   =     -5805.81892850
  -exchange      EXHF   =         0.00000000
  -V(xc)+E(xc)   XCENC  =      -608.34789013
  PAW double counting   =     31321.63293085   -29530.41779066
  entropy T*S    EENTRO =         0.00526703
  eigenvalues    EBANDS =     -2148.27737884
  atomic energy  EATOM  =     22907.83598784
  Solvation  Ediel_sol  =         0.00000000
  ---------------------------------------------------
  free energy    TOTEN  =      -378.88796087 eV

  energy without entropy =     -378.89322790  energy(sigma->0) =     -378.88971655


--------------------------------------------------------------------------------------------------------




----------------------------------------- Iteration    1(  10)  ---------------------------------------


    POTLOK:  cpu time    0.0295: real time    0.0296
    SETDIJ:  cpu time    0.0186: real time    0.0186
    EDDIAG:  cpu time    0.0713: real time    0.0715
  RMM-DIIS:  cpu time    0.8388: real time    0.8417
    ORTHCH:  cpu time    0.0172: real time    0.0173
       DOS:  cpu time    0.0077: real time    0.0077
    CHARGE:  cpu time    0.0523: real time    0.0524
    MIXING:  cpu time    0.0027: real time    0.0027
    --------------------------------------------
      LOOP:  cpu time    1.0387: real time    1.0589

 eigenvalue-minimisations  :  7461
 total energy-change (2. order) : 0.7021567E-01  (-0.4854620E-01)
 number of electron     280.0000000 magnetization 
 augmentation part       19.3853624 magnetization 

 Broyden mixing:
  rms(total) = 0.15248E+00    rms(broyden)= 0.15244E+00
  rms(prec ) = 0.27265E+00
  weight for this iteration     100.00

 eigenvalues of (default mixing * dielectric matrix)
  average eigenvalue GAMMA=   1.0768
  1.9111  1.9111  0.7137  0.4242  0.4242

 Free energy of the ion-electron system (eV)
  ---------------------------------------------------
  alpha Z        PSCENC =      1521.66091802
  Ewald energy   TEWEN  =    -18037.16107648
  -Hartree energ DENC   =     -5814.32625336
  -exchange      EXHF   =         0.00000000
  -V(xc)+E(xc)   XCENC  =      -607.59789690
  PAW double counting   =     31572.90706942   -29776.65428516
  entropy T*S    EENTRO =         0.00659678
  eigenvalues    EBANDS =     -2145.48880535
  atomic energy  EATOM  =     22907.83598784
  Solvation  Ediel_sol  =         0.00000000
  ---------------------------------------------------
  free energy    TOTEN  =      -378.81774520 eV

  energy without entropy =     -378.82434198  energy(sigma->0) =     -378.81994413


--------------------------------------------------------------------------------------------------------




----------------------------------------- Iteration    1(  11)  ---------------------------------------


    POTLOK:  cpu time    0.0299: real time    0.0344
    SETDIJ:  cpu time    0.0128: real time    0.0129
    EDDIAG:  cpu time    0.0902: real time    0.0907
  RMM-DIIS:  cpu time    0.8297: real time    0.8536
    ORTHCH:  cpu time    0.0107: real time    0.0108
       DOS:  cpu time    0.0071: real time    0.0072
    CHARGE:  cpu time    0.0296: real time    0.0297
    MIXING:  cpu time    0.0014: real time    0.0014
    --------------------------------------------
      LOOP:  cpu time    1.0122: real time    1.0696

 eigenvalue-minimisations  :  7312
 total energy-change (2. order) : 0.3272130E-01  (-0.1572850E-01)
 number of electron     280.0000000 magnetization 
 augmentation part       19.3535194 magnetization 

 Broyden mixing:
  rms(total) = 0.79282E-01    rms(broyden)= 0.79225E-01
  rms(prec ) = 0.14266E+00
  weight for this iteration     100.00

 eigenvalues of (default mixing * dielectric matrix)
  average eigenvalue GAMMA=   1.0662
  2.1310  1.8512  1.1435  0.4641  0.4316  0.3759

 Free energy of the ion-electron system (eV)
  ---------------------------------------------------
  alpha Z        PSCENC =      1521.66091802
  Ewald energy   TEWEN  =    -18037.16107648
  -Hartree energ DENC   =     -5821.47309436
  -exchange      EXHF   =         0.00000000
  -V(xc)+E(xc)   XCENC  =      -607.13274855
  PAW double counting   =     31723.78242450   -29924.70598036
  entropy T*S    EENTRO =         0.00284739
  eigenvalues    EBANDS =     -2141.59430189
  atomic energy  EATOM  =     22907.83598784
  Solvation  Ediel_sol  =         0.00000000
  ---------------------------------------------------
  free energy    TOTEN  =      -378.78502390 eV

  energy without entropy =     -378.78787129  energy(sigma->0) =     -378.78597303


--------------------------------------------------------------------------------------------------------




----------------------------------------- Iteration    1(  12)  ---------------------------------------


    POTLOK:  cpu time    0.0289: real time    0.0291
    SETDIJ:  cpu time    0.0039: real time    0.0039
    EDDIAG:  cpu time    0.0980: real time    0.0985
  RMM-DIIS:  cpu time    0.7781: real time    0.7816
    ORTHCH:  cpu time    0.0106: real time    0.0107
       DOS:  cpu time    0.0010: real time    0.0011
    CHARGE:  cpu time    0.0286: real time    0.0287
    MIXING:  cpu time    0.0014: real time    0.0014
    --------------------------------------------
      LOOP:  cpu time    0.9513: real time    0.9771

 eigenvalue-minimisations  :  7451
 total energy-change (2. order) : 0.2637352E-02  (-0.6395435E-02)
 number of electron     280.0000000 magnetization 
 augmentation part       19.3524345 magnetization 

 Broyden mixing:
  rms(total) = 0.43883E-01    rms(broyden)= 0.43869E-01
  rms(prec ) = 0.71575E-01
  weight for this iteration     100.00

 eigenvalues of (default mixing * dielectric matrix)
  average eigenvalue GAMMA=   1.0502
  2.2298  1.9093  1.3539  0.5584  0.5584  0.3883  0.3533

 Free energy of the ion-electron system (eV)
  ---------------------------------------------------
  alpha Z        PSCENC =      1521.66091802
  Ewald energy   TEWEN  =    -18037.16107648
  -Hartree energ DENC   =     -5824.43187998
  -exchange      EXHF   =         0.00000000
  -V(xc)+E(xc)   XCENC  =      -606.90471986
  PAW double counting   =     31864.90037728   -30063.74535121
  entropy T*S    EENTRO =         0.00321623
  eigenvalues    EBANDS =     -2140.93985839
  atomic energy  EATOM  =     22907.83598784
  Solvation  Ediel_sol  =         0.00000000
  ---------------------------------------------------
  free energy    TOTEN  =      -378.78238655 eV

  energy without entropy =     -378.78560277  energy(sigma->0) =     -378.78345862


--------------------------------------------------------------------------------------------------------




----------------------------------------- Iteration    1(  13)  ---------------------------------------


    POTLOK:  cpu time    0.0294: real time    0.0296
    SETDIJ:  cpu time    0.0038: real time    0.0038
    EDDIAG:  cpu time    0.0698: real time    0.0701
  RMM-DIIS:  cpu time    0.8131: real time    0.8157
    ORTHCH:  cpu time    0.0107: real time    0.0107
       DOS:  cpu time    0.0010: real time    0.0010
    CHARGE:  cpu time    0.0327: real time    0.0328
    MIXING:  cpu time    0.0015: real time    0.0015
    --------------------------------------------
      LOOP:  cpu time    0.9626: real time    0.9826

 eigenvalue-minimisations  :  7425
 total energy-change (2. order) : 0.1676809E-02  (-0.1999873E-02)
 number of electron     280.0000000 magnetization 
 augmentation part       19.3517650 magnetization 

 Broyden mixing:
  rms(total) = 0.24050E-01    rms(broyden)= 0.24039E-01
  rms(prec ) = 0.40013E-01
  weight for this iteration     100.00

 eigenvalues of (default mixing * dielectric matrix)
  average eigenvalue GAMMA=   1.0468
  2.2835  1.9849  1.4376  0.9108  0.5666  0.4587  0.3892  0.3428

 Free energy of the ion-electron system (eV)
  ---------------------------------------------------
  alpha Z        PSCENC =      1521.66091802
  Ewald energy   TEWEN  =    -18037.16107648
  -Hartree energ DENC   =     -5825.07434242
  -exchange      EXHF   =         0.00000000
  -V(xc)+E(xc)   XCENC  =      -606.86192827
  PAW double counting   =     31940.66385113   -30138.46877952
  entropy T*S    EENTRO =         0.00346050
  eigenvalues    EBANDS =     -2141.37880055
  atomic energy  EATOM  =     22907.83598784
  Solvation  Ediel_sol  =         0.00000000
  ---------------------------------------------------
  free energy    TOTEN  =      -378.78070974 eV

  energy without entropy =     -378.78417024  energy(sigma->0) =     -378.78186324


--------------------------------------------------------------------------------------------------------




----------------------------------------- Iteration    1(  14)  ---------------------------------------


    POTLOK:  cpu time    0.0291: real time    0.0293
    SETDIJ:  cpu time    0.0062: real time    0.0062
    EDDIAG:  cpu time    0.0761: real time    0.0766
  RMM-DIIS:  cpu time    0.8592: real time    0.8643
    ORTHCH:  cpu time    0.0106: real time    0.0107
       DOS:  cpu time    0.0102: real time    0.0103
    CHARGE:  cpu time    0.0451: real time    0.0461
    MIXING:  cpu time    0.0016: real time    0.0016
    --------------------------------------------
      LOOP:  cpu time    1.0388: real time    1.0809

 eigenvalue-minimisations  :  7567
 total energy-change (2. order) : 0.1344086E-03  (-0.8747131E-03)
 number of electron     280.0000000 magnetization 
 augmentation part       19.3518600 magnetization 

 Broyden mixing:
  rms(total) = 0.14473E-01    rms(broyden)= 0.14468E-01
  rms(prec ) = 0.24900E-01
  weight for this iteration     100.00

 eigenvalues of (default mixing * dielectric matrix)
  average eigenvalue GAMMA=   1.0333
  2.4323  2.0026  1.3947  1.1809  0.5734  0.5734  0.4017  0.4017  0.3389

 Free energy of the ion-electron system (eV)
  ---------------------------------------------------
  alpha Z        PSCENC =      1521.66091802
  Ewald energy   TEWEN  =    -18037.16107648
  -Hartree energ DENC   =     -5824.82672715
  -exchange      EXHF   =         0.00000000
  -V(xc)+E(xc)   XCENC  =      -606.87844397
  PAW double counting   =     31970.98703529   -30168.38176667
  entropy T*S    EENTRO =         0.00355734
  eigenvalues    EBANDS =     -2142.02005955
  atomic energy  EATOM  =     22907.83598784
  Solvation  Ediel_sol  =         0.00000000
  ---------------------------------------------------
  free energy    TOTEN  =      -378.78057533 eV

  energy without entropy =     -378.78413267  energy(sigma->0) =     -378.78176111


--------------------------------------------------------------------------------------------------------




----------------------------------------- Iteration    1(  15)  ---------------------------------------


    POTLOK:  cpu time    0.0286: real time    0.0288
    SETDIJ:  cpu time    0.0151: real time    0.0151
    EDDIAG:  cpu time    0.0730: real time    0.0735
  RMM-DIIS:  cpu time    0.7522: real time    0.8735
    ORTHCH:  cpu time    0.0123: real time    0.0129
       DOS:  cpu time    0.0009: real time    0.0009
    CHARGE:  cpu time    0.0276: real time    0.0300
    MIXING:  cpu time    0.0020: real time    0.0020
    --------------------------------------------
      LOOP:  cpu time    0.9124: real time    1.0816

 eigenvalue-minimisations  :  7561
 total energy-change (2. order) :-0.9986971E-04  (-0.3980935E-03)
 number of electron     280.0000000 magnetization 
 augmentation part       19.3507638 magnetization 

 Broyden mixing:
  rms(total) = 0.82336E-02    rms(broyden)= 0.82306E-02
  rms(prec ) = 0.15195E-01
  weight for this iteration     100.00

 eigenvalues of (default mixing * dielectric matrix)
  average eigenvalue GAMMA=   1.0330
  2.5190  1.9847  1.4058  1.4058  0.7537  0.6659  0.4347  0.4347  0.3848  0.3409

 Free energy of the ion-electron system (eV)
  ---------------------------------------------------
  alpha Z        PSCENC =      1521.66091802
  Ewald energy   TEWEN  =    -18037.16107648
  -Hartree energ DENC   =     -5824.99611973
  -exchange      EXHF   =         0.00000000
  -V(xc)+E(xc)   XCENC  =      -606.87675448
  PAW double counting   =     31992.77183390   -30189.85298371
  entropy T*S    EENTRO =         0.00354790
  eigenvalues    EBANDS =     -2142.16602845
  atomic energy  EATOM  =     22907.83598784
  Solvation  Ediel_sol  =         0.00000000
  ---------------------------------------------------
  free energy    TOTEN  =      -378.78067520 eV

  energy without entropy =     -378.78422309  energy(sigma->0) =     -378.78185783


--------------------------------------------------------------------------------------------------------




----------------------------------------- Iteration    1(  16)  ---------------------------------------


    POTLOK:  cpu time    0.0294: real time    0.0298
    SETDIJ:  cpu time    0.0038: real time    0.0038
    EDDIAG:  cpu time    0.0703: real time    0.0706
  RMM-DIIS:  cpu time    0.7345: real time    0.7369
    ORTHCH:  cpu time    0.0109: real time    0.0109
       DOS:  cpu time    0.0028: real time    0.0028
    CHARGE:  cpu time    0.0296: real time    0.0296
    MIXING:  cpu time    0.0017: real time    0.0017
    --------------------------------------------
      LOOP:  cpu time    0.8836: real time    0.9281

 eigenvalue-minimisations  :  6918
 total energy-change (2. order) :-0.3001248E-04  (-0.1615917E-03)
 number of electron     280.0000000 magnetization 
 augmentation part       19.3504702 magnetization 

 Broyden mixing:
  rms(total) = 0.50922E-02    rms(broyden)= 0.50909E-02
  rms(prec ) = 0.82196E-02
  weight for this iteration     100.00

 eigenvalues of (default mixing * dielectric matrix)
  average eigenvalue GAMMA=   1.0241
  2.6059  1.9629  1.5943  1.5121  0.9167  0.6592  0.4708  0.4708  0.3823  0.3595
  0.3308

 Free energy of the ion-electron system (eV)
  ---------------------------------------------------
  alpha Z        PSCENC =      1521.66091802
  Ewald energy   TEWEN  =    -18037.16107648
  -Hartree energ DENC   =     -5825.23509593
  -exchange      EXHF   =         0.00000000
  -V(xc)+E(xc)   XCENC  =      -606.87026350
  PAW double counting   =     32002.43344793   -30199.38389730
  entropy T*S    EENTRO =         0.00360052
  eigenvalues    EBANDS =     -2142.06432632
[...]
     78       4.6523      2.00000
     79       4.7108      2.00000
     80       4.7338      2.00000
     81       4.7724      2.00000
     82       4.8854      2.00000
     83       4.9077      2.00000
     84       4.9526      2.00000
     85       4.9786      2.00000
     86       5.0730      2.00000
     87       5.0905      2.00000
     88       5.1246      2.00000
     89       5.1460      2.00000
     90       5.1886      2.00000
     91       5.3118      2.00000
     92       5.3449      2.00000
     93       5.4045      2.00000
     94       5.4804      2.00000
     95       5.5367      2.00000
     96       5.5703      2.00000
     97       5.5860      2.00000
     98       5.8466      2.00000
     99       5.8944      2.00000
    100       5.9482      2.00000
    101       5.9752      2.00000
    102       5.9902      2.00000
    103       6.0135      2.00000
    104       6.0433      2.00000
    105       6.0876      2.00000
    106       6.1136      2.00000
    107       6.1416      2.00000
    108       6.1644      2.00000
    109       6.2145      2.00000
    110       6.2535      2.00000
    111       6.2836      2.00000
    112       6.3235      2.00000
    113       6.3495      2.00000
    114       6.3566      2.00000
    115       6.3790      2.00000
    116       6.4416      2.00000
    117       6.4712      2.00000
    118       6.5087      2.00000
    119       6.5470      2.00000
    120       6.6546      2.00000
    121       6.6929      2.00000
    122       6.7104      2.00000
    123       6.7628      2.00000
    124       6.7760      2.00000
    125       6.8243      2.00000
    126       6.8836      2.00000
    127       6.9030      2.00001
    128       6.9500      2.00006
    129       7.0093      2.00056
    130       7.0829      2.00529
    131       7.0954      2.00733
    132       7.1136      2.01140
    133       7.1412      2.02076
    134       7.1693      2.03460
    135       7.1823      2.04223
    136       7.2310      2.06858
    137       7.2424      2.07083
    138       7.2828      2.04406
    139       7.3067      1.98657
    140       7.3575      1.71165
    141       7.3748      1.56648
    142       7.4117      1.18981
    143       7.4497      0.76497
    144       7.4770      0.48459
    145       7.5030      0.26428
    146       7.5342      0.07777
    147       7.5945     -0.06582
    148       7.6189     -0.07037
    149       7.6628     -0.04975
    150       7.6805     -0.03894
    151       7.7071     -0.02470
    152       7.7740     -0.00534
    153       7.8190     -0.00145
    154       7.8681     -0.00027
    155       7.9017     -0.00008
    156       7.9319     -0.00002
    157       8.0025     -0.00000
    158       8.0433     -0.00000
    159       8.1993     -0.00000
    160       8.2447     -0.00000
    161       8.4727     -0.00000
    162       8.5961     -0.00000
    163       8.6732     -0.00000
    164       9.3626     -0.00000
    165       9.4245     -0.00000
    166       9.4729     -0.00000
    167       9.5337     -0.00000
    168       9.5639     -0.00000


--------------------------------------------------------------------------------------------------------


 soft charge-density along one line, spin component           1
         0         1         2         3         4         5         6         7         8         9
 total charge-density along one line
 
 pseudopotential strength for first ion, spin component:           1
 -6.393   0.003   0.000  -0.000  -0.000  -7.594   0.004   0.001
  0.003  -6.387  -0.000  -0.003   0.000   0.004  -7.586  -0.000
  0.000  -0.000  -6.394   0.000   0.000   0.001  -0.000  -7.595
 -0.000  -0.003   0.000  -6.386   0.001  -0.001  -0.003   0.000
 -0.000   0.000   0.000   0.001  -6.396  -0.001   0.000   0.000
 -7.594   0.004   0.001  -0.001  -0.001  -8.999   0.005   0.001
  0.004  -7.586  -0.000  -0.003   0.000   0.005  -8.989  -0.001
  0.001  -0.000  -7.595   0.000   0.000   0.001  -0.001  -8.999
 -0.001  -0.003   0.000  -7.585   0.001  -0.001  -0.004   0.000
 -0.001   0.000   0.000   0.001  -7.597  -0.001   0.000   0.000
  0.001   0.000  -0.002  -0.001   0.000   0.001   0.000  -0.003
  0.002   0.000  -0.004  -0.002   0.001   0.002   0.000  -0.005
 -0.004  -0.003   0.000  -0.003   0.001  -0.005  -0.004   0.000
 -0.003   0.001  -0.003  -0.004   0.001  -0.003   0.001  -0.004
  0.001  -0.003   0.006  -0.002  -0.009   0.001  -0.003   0.007
  0.003   0.004  -0.000   0.004  -0.000   0.004   0.005  -0.000
  0.004  -0.001   0.004   0.003  -0.001   0.005  -0.002   0.005
 -0.002   0.004  -0.006   0.002   0.011  -0.002   0.005  -0.008
 total augmentation occupancy for first ion, spin component:           1
  4.796   0.244  -0.056  -0.064  -0.025  -2.494  -0.134   0.018   0.034   0.007  -0.047   0.023   0.054   0.046  -0.012   0.003
  0.244   5.087  -0.036  -0.192   0.050  -0.135  -2.610   0.019   0.107  -0.033  -0.062   0.010   0.032   0.037   0.037   0.003
 -0.056  -0.036   4.806   0.019  -0.023   0.018   0.018  -2.657  -0.027   0.026   0.043  -0.027   0.006   0.028  -0.066  -0.000
 -0.064  -0.192   0.019   5.286   0.062   0.034   0.107  -0.027  -2.737  -0.058   0.152  -0.040   0.052   0.060  -0.010   0.003
 -0.025   0.050  -0.023   0.062   4.866   0.006  -0.033   0.026  -0.058  -2.661   0.036  -0.006  -0.013  -0.013   0.132  -0.001
 -2.494  -0.135   0.018   0.034   0.006   1.318   0.073  -0.003  -0.017  -0.000   0.030  -0.012  -0.033  -0.023   0.003  -0.002
 -0.134  -2.610   0.018   0.107  -0.033   0.073   1.362  -0.010  -0.060   0.021   0.042  -0.006  -0.014  -0.018  -0.019  -0.001
  0.018   0.019  -2.657  -0.027   0.026  -0.003  -0.010   1.481   0.024  -0.022  -0.030   0.015  -0.001  -0.011   0.038   0.000
  0.034   0.107  -0.027  -2.737  -0.058  -0.017  -0.060   0.024   1.442   0.043  -0.097   0.022  -0.025  -0.035   0.004  -0.001
  0.007  -0.033   0.026  -0.058  -2.661  -0.000   0.021  -0.022   0.043   1.469  -0.030   0.005   0.010   0.006  -0.073   0.001
 -0.047  -0.062   0.043   0.152   0.036   0.030   0.042  -0.030  -0.097  -0.030   2.235  -0.237   0.007   0.005   0.048  -0.000
  0.023   0.010  -0.027  -0.040  -0.006  -0.012  -0.006   0.015   0.022   0.005  -0.237   0.027  -0.001   0.001   0.000   0.000
  0.054   0.032   0.006   0.052  -0.013  -0.033  -0.014  -0.001  -0.025   0.010   0.007  -0.001   0.293  -0.002  -0.007   0.007
  0.046   0.037   0.028   0.060  -0.013  -0.023  -0.018  -0.011  -0.035   0.006   0.005   0.001  -0.002   0.300   0.013   0.000
 -0.012   0.037  -0.066  -0.010   0.132   0.003  -0.019   0.038   0.004  -0.073   0.048   0.000  -0.007   0.013   0.304  -0.000
  0.003   0.003  -0.000   0.003  -0.001  -0.002  -0.001   0.000  -0.001   0.001  -0.000   0.000   0.007   0.000  -0.000   0.000
  0.002  -0.000   0.002   0.004  -0.001  -0.001   0.000  -0.001  -0.002   0.000   0.001  -0.000   0.000   0.008   0.000   0.000
 -0.001   0.003  -0.005   0.001   0.009   0.000  -0.001   0.003  -0.001  -0.005   0.002  -0.000  -0.000   0.000   0.008  -0.000


------------------------ aborting loop because EDIFF is reached ----------------------------------------


    CHARGE:  cpu time    0.0274: real time    0.0276
    FORLOC:  cpu time    0.0135: real time    0.0136
    FORNL :  cpu time    0.3090: real time    0.3110
    STRESS:  cpu time    0.9103: real time    0.9166
    FORCOR:  cpu time    0.0426: real time    0.0428
    FORHAR:  cpu time    0.0181: real time    0.0182
    MIXING:  cpu time    0.0013: real time    0.0013
    OFIELD:  cpu time    0.0000: real time    0.0000

  FORCE on cell =-STRESS in cart. coord.  units (eV):
  Direction    XX          YY          ZZ          XY          YZ          ZX
  --------------------------------------------------------------------------------------
  Alpha Z  1534.75579  1534.75579  1534.75579
  Ewald   -5800.69333 -6287.56253 -6027.65881  -104.13482  -402.39689    -7.12290
  Hartree  2142.77162  1691.44756  1950.87445   -99.56073  -331.86801   -23.72844
  E(xc)   -1236.12206 -1236.42276 -1236.15584    -0.16364    -0.78860     0.47201
  Local   -1159.65962  -224.47845  -743.83611   203.98137   736.00515    30.90313
  n-local  -288.85184  -291.60483  -291.59819    -1.44414     3.15414    -2.57275
  augment   231.15909   231.53078   231.55380     0.15102    -0.64137     0.39229
  Kinetic  4576.68447  4582.36729  4582.10437     1.16712    -3.46409     1.63977
  Fock        0.00000     0.00000     0.00000     0.00000     0.00000     0.00000
  -------------------------------------------------------------------------------------
  Total       0.04412     0.03285     0.03946    -0.00382     0.00033    -0.01689
  in kB       0.10124     0.07539     0.09054    -0.00876     0.00075    -0.03875
  external pressure =        0.09 kB  Pullay stress =        0.00 kB


 VOLUME and BASIS-vectors are now :
 -----------------------------------------------------------------------------
  energy-cutoff  :      300.00
  volume of cell :      698.19
      direct lattice vectors                 reciprocal lattice vectors
     6.799394492 -0.018925369 -0.002769590     0.147073049  0.000397642  0.000056408
    -0.027267502 10.085918441 -0.004839344     0.000275990  0.099148905  0.000049366
    -0.003891150 -0.005058261 10.180998110     0.000040140  0.000047237  0.098222236

  length of vectors
     6.799421394 10.085956461 10.181000110     0.147073598  0.099149301  0.098222255


 FORCES acting on ions
    electron-ion (+dipol)            ewald-force                    non-local-force                 convergence-correction
 -----------------------------------------------------------------------------------------------
   -.491E+01 -.836E+02 0.201E+02   0.576E+01 0.836E+02 -.198E+02   -.855E+00 -.880E-05 -.295E+00   0.194E-02 0.724E-03 -.471E-02
   -.365E+02 -.187E+02 -.667E+01   0.362E+02 0.191E+02 0.637E+01   0.226E+00 -.325E+00 0.287E+00   0.115E-02 -.101E-01 0.640E-02
   0.388E+02 -.177E+01 -.110E+02   -.385E+02 0.218E+01 0.107E+02   -.242E+00 -.408E+00 0.263E+00   -.103E-02 -.896E-02 0.643E-02
   -.132E+02 -.241E+01 0.498E+02   0.130E+02 0.267E+01 -.489E+02   0.222E+00 -.258E+00 -.812E+00   0.538E-03 0.358E-02 -.107E-01
   -.213E+00 -.157E+02 -.785E+02   -.179E+00 0.156E+02 0.785E+02   0.395E+00 0.152E+00 0.430E-01   -.190E-02 -.103E-01 -.847E-02
   0.448E+02 0.768E+02 -.816E+02   -.446E+02 -.769E+02 0.809E+02   -.219E+00 0.452E-01 0.709E+00   -.678E-03 0.124E-01 0.593E-02
   -.271E+02 -.131E+02 0.443E+02   0.273E+02 0.133E+02 -.440E+02   -.278E+00 -.249E+00 -.261E+00   -.213E-02 -.879E-02 -.796E-03
   0.930E+01 -.510E+02 -.352E+01   -.103E+02 0.509E+02 0.384E+01   0.989E+00 0.262E-01 -.313E+00   -.132E-02 0.492E-03 -.758E-02
   0.740E+02 0.127E+03 0.331E+02   -.733E+02 -.127E+03 -.330E+02   -.731E+00 -.386E+00 -.799E-01   0.168E-02 0.348E-02 0.633E-02
   0.136E+02 -.437E+02 0.465E+02   -.136E+02 0.437E+02 -.461E+02   -.400E-01 -.705E-01 -.495E+00   0.539E-04 0.791E-03 0.288E-02
   -.591E+02 -.535E+02 -.111E+03   0.593E+02 0.531E+02 0.110E+03   -.109E+00 0.427E+00 0.546E+00   0.946E-04 -.549E-02 0.648E-02
   -.608E+02 -.721E+02 0.933E+01   0.611E+02 0.712E+02 -.922E+01   -.335E+00 0.933E+00 -.115E+00   -.321E-02 0.543E-02 0.360E-02
   -.105E+02 -.114E+03 -.497E+01   0.104E+02 0.114E+03 0.448E+01   0.742E-01 0.360E+00 0.497E+00   0.352E-03 -.100E-01 0.228E-02
   -.469E+02 0.512E+02 -.357E+02   0.465E+02 -.511E+02 0.362E+02   0.379E+00 -.162E+00 -.465E+00   0.160E-02 0.919E-02 -.657E-02
   0.427E+02 -.162E+02 0.815E+02   -.430E+02 0.157E+02 -.812E+02   0.271E+00 0.440E+00 -.291E+00   0.155E-03 0.602E-02 -.104E-01
   0.232E+02 0.595E+00 0.376E+02   -.234E+02 -.400E+00 -.373E+02   0.270E+00 -.191E+00 -.363E+00   0.116E-02 -.706E-02 -.642E-03
   -.516E+02 0.715E+02 -.294E+02   0.515E+02 -.713E+02 0.292E+02   0.172E+00 -.253E+00 0.172E+00   0.669E-03 0.779E-02 0.105E-01
   0.462E+02 -.577E+02 -.807E+02   -.463E+02 0.572E+02 0.804E+02   0.138E+00 0.498E+00 0.348E+00   0.399E-03 -.291E-02 0.484E-02
   0.417E+02 0.754E+02 -.281E+02   -.414E+02 -.751E+02 0.280E+02   -.308E+00 -.270E+00 0.108E+00   -.902E-03 0.699E-02 0.113E-01
   0.446E+02 -.574E+02 0.118E+02   -.449E+02 0.566E+02 -.120E+02   0.303E+00 0.780E+00 0.226E+00   0.240E-02 0.485E-02 0.327E-02
   -.330E+02 0.270E+02 0.136E+02   0.334E+02 -.269E+02 -.139E+02   -.426E+00 -.507E-01 0.293E+00   0.735E-04 -.379E-03 0.300E-02
   -.357E+02 0.580E+02 0.543E+02   0.355E+02 -.579E+02 -.546E+02   0.161E+00 -.798E-01 0.330E+00   0.177E-02 0.679E-02 -.443E-02
   -.440E+02 -.613E+02 0.141E+02   0.439E+02 0.610E+02 -.133E+02   0.774E-01 0.328E+00 -.764E+00   -.263E-02 0.309E-02 0.981E-02
   0.126E+03 -.154E+03 -.780E+02   -.126E+03 0.155E+03 0.781E+02   -.372E+00 -.850E+00 -.120E+00   0.852E-02 -.261E-01 -.135E-01
   -.998E+02 0.160E+03 -.134E+03   0.995E+02 -.160E+03 0.132E+03   0.280E+00 -.244E+00 0.118E+01   0.529E-02 0.365E-01 0.208E-01
   -.503E+02 -.665E+02 -.417E+02   0.507E+02 0.665E+02 0.421E+02   -.401E+00 0.754E-01 -.364E+00   0.113E-02 -.294E-01 0.533E-02
   0.508E+02 0.285E+02 0.298E+02   -.513E+02 -.290E+02 -.296E+02   0.483E+00 0.593E+00 -.280E+00   -.312E-02 -.228E-01 0.554E-02
   0.277E+02 -.335E+03 -.954E+01   -.275E+02 0.335E+03 0.904E+01   -.159E+00 -.113E+00 0.493E+00   -.137E-02 -.250E-01 0.969E-02
   0.141E+03 0.910E+02 0.104E+03   -.141E+03 -.915E+02 -.105E+03   0.507E+00 0.526E+00 0.415E+00   -.343E-02 0.493E-02 0.137E-01
   0.100E+03 0.103E+03 -.989E+02   -.998E+02 -.102E+03 0.996E+02   -.579E+00 -.710E+00 -.736E+00   -.286E-02 0.194E-01 -.189E-01
   -.126E+03 0.292E+03 -.918E+00   0.125E+03 -.291E+03 0.772E+00   0.147E+01 -.912E+00 0.146E+00   -.730E-02 0.296E-02 0.165E-02
   -.113E+03 -.187E+03 -.108E+03   0.113E+03 0.187E+03 0.108E+03   0.426E+00 -.454E+00 -.528E-01   -.853E-02 -.210E-01 -.133E-01
   0.421E+02 0.666E+02 0.871E+02   -.417E+02 -.665E+02 -.860E+02   -.360E+00 -.146E+00 -.104E+01   -.133E-02 0.887E-02 -.322E-01
   0.769E+02 0.153E+03 0.159E+03   -.765E+02 -.153E+03 -.160E+03   -.403E+00 -.243E+00 0.540E+00   -.704E-02 0.252E-01 -.159E-01
   -.172E+02 0.371E+02 -.589E+02   0.180E+02 -.373E+02 0.585E+02   -.771E+00 0.246E+00 0.447E+00   0.749E-02 -.248E-01 -.143E-01
   -.113E+03 -.131E+02 0.204E+03   0.114E+03 0.125E+02 -.204E+03   -.297E+00 0.601E+00 -.604E+00   -.404E-03 0.144E-01 -.275E-01
 -----------------------------------------------------------------------------------------------
   0.509E-01 0.373E+00 0.458E+00   0.568E-13 0.258E-12 -.313E-12   -.405E-01 -.344E+00 -.412E+00   -.127E-01 -.293E-01 -.500E-01
 
 
 POSITION                                       TOTAL-FORCE (eV/Angst)
 -----------------------------------------------------------------------------------
      3.52339     10.05173      0.03195        -0.003132      0.003087      0.002174
      1.64080      8.44649      5.04744        -0.000238      0.001903     -0.001498
      5.12883      8.43688      5.04911         0.000549     -0.000205     -0.001096
      1.63450      5.12188      1.80850         0.002380     -0.000402     -0.000277
      6.64760      6.72820      0.01277         0.001049      0.000149     -0.001312
      5.10395      5.00977      5.01904         0.000446      0.000590     -0.001825
      5.07459      8.42430      1.75659        -0.000308      0.000866     -0.001525
      6.63765     10.05431      0.05338         0.002243      0.002379      0.001606
      5.21374      4.99631      8.36875         0.000581     -0.004635      0.001434
      6.76051      6.72632      3.45623        -0.000577      0.001770      0.001909
      1.73377      1.57884      5.02398         0.000747     -0.001462     -0.000500
      1.76619      1.41426      8.45392        -0.005316      0.001638     -0.002635
      3.38451      9.94176      6.71504        -0.000078      0.001012      0.001729
      3.32268      3.37352      3.46697         0.002864     -0.002908     -0.001393
      5.07544      1.61872      1.76717         0.000895      0.005278      0.001304
      1.67403      8.35640      1.71700         0.000058     -0.003216     -0.000927
      3.23463      3.46527      6.81624        -0.000187      0.001428      0.000080
      5.09762      1.67128      5.05694         0.002521     -0.000018      0.003299
      0.15303      3.37063      6.76017         0.001551      0.002684     -0.001713
      5.04815      1.63371      8.42018         0.003694      0.000829     -0.001476
      3.41293      6.74892      6.73548        -0.002666      0.000597     -0.000081
      3.27487      3.38425     10.10149         0.000844     -0.003975      0.001168
      3.36395      6.69734      3.49731        -0.001763      0.003715      0.003731
      5.13124      8.44369      8.45038        -0.001051      0.001404      0.001568
      1.64816      5.10899      4.98193         0.000273      0.000213     -0.000339
      3.41337     10.04767      3.41021         0.000390      0.002325     -0.004297
      6.74818     10.01751      3.38102        -0.000811      0.000021     -0.001300
      0.03008      0.01069      6.74151        -0.001851     -0.002146      0.000835
      6.74209      6.69617      6.71721         0.002181      0.000726     -0.000044
      0.06406      3.40755      3.47150        -0.002950     -0.001459     -0.002738
      1.47824      5.30084      8.50812        -0.001134     -0.003368      0.002277
      1.62411      8.44406      8.50365         0.001158      0.000925      0.000647
      5.09688      4.95715      1.80971        -0.001217     -0.001762     -0.000750
      0.10362      3.33589     10.12394        -0.002117     -0.003026      0.003811
      3.45985      6.64737     10.10428         0.003998     -0.001691     -0.003419
      1.72616      1.60867      1.77087        -0.003026     -0.003266      0.001573
 -----------------------------------------------------------------------------------
    total drift:                               -0.002315      0.000588     -0.003726


--------------------------------------------------------------------------------------------------------



  FREE ENERGIE OF THE ION-ELECTRON SYSTEM (eV)
  ---------------------------------------------------
  free  energy   TOTEN  =      -378.99368371 eV

  energy  without entropy=     -379.00658240  energy(sigma->0) =     -378.99798327
 
 d Force = 0.6998034E-04[ 0.418E-04, 0.981E-04]  d Energy = 0.1186113E-03-0.486E-04
 d Force = 0.2992423E-01[ 0.291E-01, 0.308E-01]  d Ewald  =-0.3725634E+00 0.402E+00


--------------------------------------------------------------------------------------------------------


    POTLOK:  cpu time    0.0363: real time    0.0365


--------------------------------------------------------------------------------------------------------




--------------------------------------------------------------------------------------------------------


  
 reached required accuracy - stopping structural energy minimisation
     LOOP+:  cpu time    5.7232: real time    6.0365
    4ORBIT:  cpu time    0.0000: real time    0.0000

 total amount of memory used by VASP on root node    66634. kBytes
========================================================================

   base      :      30000. kBytes
   nonlr-proj:      11026. kBytes
   fftplans  :       2814. kBytes
   grid      :       5360. kBytes
   one-center:        124. kBytes
   wavefun   :      17310. kBytes
 
  
  
 General timing and accounting informations for this job:
 ========================================================
  
                  Total CPU time used (sec):      262.174
                            User time (sec):      261.260
                          System time (sec):        0.914
                         Elapsed time (sec):      281.507
  
                   Maximum memory used (kb):      284036.
                   Average memory used (kb):           0.
  
                          Minor page faults:       100590
                          Major page faults:           46
                 Voluntary context switches:         9762
