<?xml version="1.0" encoding="ISO-8859-1"?>
<modeling>
 <generator>
  <i name="program" type="string">vasp </i>
  <i name="version" type="string">5.4.1  </i>
  <i name="subversion" type="string">05Feb16 (build Jan 29 2020 16:04:39) complex                          parallel </i>
  <i name="platform" type="string">IFC91_ompi </i>
  <i name="date" type="string">2020 06 15 </i>
  <i name="time" type="string">04:45:56 </i>
 </generator>
 <incar>
  <i type="string" name="SYSTEM"> automatically generated by mexm</i>
  <i type="int" name="ISTART">     0</i>
  <i type="string" name="PREC">accurate               ! avoid wrap aro</i>
  <i type="string" name="ALGO"> Fast                   ! blocked Davids</i>
  <i type="int" name="ISPIN">     1</i>
  <i type="int" name="ICHARG">     2</i>
  <i type="int" name="NELM">    70</i>
  <i type="int" name="IBRION">     2</i>
  <i name="EDIFF">      0.00001000</i>
  <i name="EDIFFG">     -0.01000000</i>
  <i type="int" name="NSW">   300</i>
  <i type="int" name="ISIF">     3</i>
  <i type="int" name="ISYM">     1</i>
  <i name="ENCUT">    300.00000000</i>
  <i name="POTIM">      0.15000000</i>
  <i type="string" name="LREAL"> Auto                  ! unpublished met</i>
  <i type="int" name="ISMEAR">     1</i>
  <i name="SIGMA">      0.15000000</i>
  <i type="logical" name="LWAVE"> F  </i>
  <i type="logical" name="LCHARG"> F  </i>
  <i type="logical" name="LVTOT"> F  </i>
  <v type="int" name="KPOINT_BSE">    -1     0     0     0</v>
  <i type="int" name="NELM">    70</i>
 </incar>
 <kpoints>
  <generation param="Gamma">
   <v type="int" name="divisions">       3        3        3 </v>
   <v name="usershift">      0.00000000       0.00000000       0.00000000 </v>
   <v name="genvec1">      0.33333333      -0.00000000       0.00000000 </v>
   <v name="genvec2">      0.00000000       0.33333333       0.00000000 </v>
   <v name="genvec3">      0.00000000       0.00000000       0.33333333 </v>
   <v name="shift">      0.00000000       0.00000000       0.00000000 </v>
  </generation>
  <varray name="kpointlist" >
   <v>       0.00000000       0.00000000       0.00000000 </v>
   <v>       0.33333333       0.00000000       0.00000000 </v>
   <v>      -0.00000000       0.33333333       0.00000000 </v>
   <v>       0.33333333       0.33333333      -0.00000000 </v>
   <v>      -0.33333333       0.33333333       0.00000000 </v>
   <v>       0.00000000       0.00000000       0.33333333 </v>
   <v>       0.33333333       0.00000000       0.33333333 </v>
   <v>      -0.33333333      -0.00000000       0.33333333 </v>
   <v>       0.00000000       0.33333333       0.33333333 </v>
   <v>       0.33333333       0.33333333       0.33333333 </v>
   <v>      -0.33333333       0.33333333       0.33333333 </v>
   <v>       0.00000000      -0.33333333       0.33333333 </v>
   <v>       0.33333333      -0.33333333       0.33333333 </v>
   <v>      -0.33333333      -0.33333333       0.33333333 </v>
  </varray>
  <varray name="weights" >
   <v>       0.03703704 </v>
   <v>       0.07407407 </v>
   <v>       0.07407407 </v>
   <v>       0.07407407 </v>
   <v>       0.07407407 </v>
   <v>       0.07407407 </v>
   <v>       0.07407407 </v>
   <v>       0.07407407 </v>
   <v>       0.07407407 </v>
   <v>       0.07407407 </v>
   <v>       0.07407407 </v>
   <v>       0.07407407 </v>
   <v>       0.07407407 </v>
   <v>       0.07407407 </v>
  </varray>
 </kpoints>
 <parameters>
  <separator name="general" >
   <i type="string" name="SYSTEM">automatically generated by mexm</i>
   <i type="logical" name="LCOMPAT"> F  </i>
  </separator>
  <separator name="electronic" >
   <i type="string" name="PREC">accura</i>
   <i name="ENMAX">    300.00000000</i>
   <i name="ENAUG">    461.25700000</i>
   <i name="EDIFF">      0.00001000</i>
   <i type="int" name="IALGO">    68</i>
   <i type="int" name="IWAVPR">    11</i>
   <i type="int" name="NBANDS">   176</i>
   <i name="NELECT">    293.00000000</i>
   <i type="int" name="TURBO">     0</i>
   <i type="int" name="IRESTART">     0</i>
   <i type="int" name="NREBOOT">     0</i>
   <i type="int" name="NMIN">     0</i>
   <i name="EREF">      0.00000000</i>
   <separator name="electronic smearing" >
    <i type="int" name="ISMEAR">     1</i>
    <i name="SIGMA">      0.15000000</i>
    <i name="KSPACING">      0.50000000</i>
    <i type="logical" name="KGAMMA"> T  </i>
   </separator>
   <separator name="electronic projectors" >
    <i type="logical" name="LREAL"> T  </i>
    <v name="ROPT">     -0.00025000     -0.00025000     -0.00025000     -0.00025000</v>
    <i type="int" name="LMAXPAW">  -100</i>
    <i type="int" name="LMAXMIX">     2</i>
    <i type="logical" name="NLSPLINE"> F  </i>
   </separator>
   <separator name="electronic startup" >
    <i type="int" name="ISTART">     0</i>
    <i type="int" name="ICHARG">     2</i>
    <i type="int" name="INIWAV">     1</i>
   </separator>
   <separator name="electronic spin" >
    <i type="int" name="ISPIN">     1</i>
    <i type="logical" name="LNONCOLLINEAR"> F  </i>
    <v name="MAGMOM">      1.00000000      1.00000000      1.00000000      1.00000000      1.00000000      1.00000000      1.00000000      1.00000000      1.00000000      1.00000000      1.00000000      1.00000000      1.00000000      1.00000000      1.00000000      1.00000000      1.00000000      1.00000000      1.00000000      1.00000000
      1.00000000      1.00000000      1.00000000      1.00000000      1.00000000      1.00000000      1.00000000      1.00000000      1.00000000      1.00000000      1.00000000      1.00000000      1.00000000      1.00000000      1.00000000      1.00000000</v>
    <i name="NUPDOWN">     -1.00000000</i>
    <i type="logical" name="LSORBIT"> F  </i>
    <v name="SAXIS">      0.00000000      0.00000000      1.00000000</v>
    <i type="logical" name="LSPIRAL"> F  </i>
    <v name="QSPIRAL">      0.00000000      0.00000000      0.00000000</v>
    <i type="logical" name="LZEROZ"> F  </i>
   </separator>
   <separator name="electronic exchange-correlation" >
    <i type="logical" name="LASPH"> F  </i>
    <i type="logical" name="LMETAGGA"> F  </i>
   </separator>
   <separator name="electronic convergence" >
    <i type="int" name="NELM">    70</i>
    <i type="int" name="NELMDL">    -5</i>
    <i type="int" name="NELMIN">     2</i>
    <i name="ENINI">    300.00000000</i>
    <separator name="electronic convergence detail" >
     <i type="logical" name="LDIAG"> T  </i>
     <i type="logical" name="LSUBROT"> F  </i>
     <i name="WEIMIN">      0.00100000</i>
     <i name="EBREAK">      0.00000001</i>
     <i name="DEPER">      0.30000000</i>
     <i type="int" name="NRMM">     4</i>
     <i name="TIME">      0.40000000</i>
    </separator>
   </separator>
   <separator name="electronic mixer" >
    <i name="AMIX">      0.40000000</i>
    <i name="BMIX">      1.00000000</i>
    <i name="AMIN">      0.10000000</i>
    <i name="AMIX_MAG">      1.60000000</i>
    <i name="BMIX_MAG">      1.00000000</i>
    <separator name="electronic mixer details" >
     <i type="int" name="IMIX">     4</i>
     <i type="logical" name="MIXFIRST"> F  </i>
     <i type="int" name="MAXMIX">   -45</i>
     <i name="WC">    100.00000000</i>
     <i type="int" name="INIMIX">     1</i>
     <i type="int" name="MIXPRE">     1</i>
     <i type="int" name="MREMOVE">     5</i>
    </separator>
   </separator>
   <separator name="electronic dipolcorrection" >
    <i type="logical" name="LDIPOL"> F  </i>
    <i type="logical" name="LMONO"> F  </i>
    <i type="int" name="IDIPOL">     0</i>
    <i name="EPSILON">      1.00000000</i>
    <v name="DIPOL">   -100.00000000   -100.00000000   -100.00000000</v>
    <i name="EFIELD">      0.00000000</i>
   </separator>
  </separator>
  <separator name="grids" >
   <i type="int" name="NGX">    40</i>
   <i type="int" name="NGY">    60</i>
   <i type="int" name="NGZ">    60</i>
   <i type="int" name="NGXF">    80</i>
   <i type="int" name="NGYF">   120</i>
   <i type="int" name="NGZF">   120</i>
   <i type="logical" name="ADDGRID"> F  </i>
  </separator>
  <separator name="ionic" >
   <i type="int" name="NSW">   300</i>
   <i type="int" name="IBRION">     2</i>
   <i type="int" name="ISIF">     3</i>
   <i name="PSTRESS">      0.00000000</i>
   <i name="EDIFFG">     -0.01000000</i>
   <i type="int" name="NFREE">     1</i>
   <i name="POTIM">      0.15000000</i>
   <i name="SMASS">     -3.00000000</i>
   <i name="SCALEE">      1.00000000</i>
  </separator>
  <separator name="ionic md" >
   <i name="TEBEG">      0.00010000</i>
   <i name="TEEND">      0.00010000</i>
   <i type="int" name="NBLOCK">     1</i>
   <i type="int" name="KBLOCK">   300</i>
   <i type="int" name="NPACO">   256</i>
   <i name="APACO">     16.00000000</i>
  </separator>
  <separator name="symmetry" >
   <i type="int" name="ISYM">     1</i>
   <i name="SYMPREC">      0.00001000</i>
  </separator>
  <separator name="dos" >
   <i type="logical" name="LORBIT"> F  </i>
   <v name="RWIGS">     -1.00000000     -1.00000000     -1.00000000     -1.00000000</v>
   <i type="int" name="NEDOS">   301</i>
   <i name="EMIN">     10.00000000</i>
   <i name="EMAX">    -10.00000000</i>
   <i name="EFERMI">      0.00000000</i>
  </separator>
  <separator name="writing" >
   <i type="int" name="NWRITE">     2</i>
   <i type="logical" name="LWAVE"> F  </i>
   <i type="logical" name="LCHARG"> F  </i>
   <i type="logical" name="LPARD"> F  </i>
   <i type="logical" name="LVTOT"> F  </i>
   <i type="logical" name="LVHAR"> F  </i>
   <i type="logical" name="LELF"> F  </i>
   <i type="logical" name="LOPTICS"> F  </i>
   <v name="STM">      0.00000000      0.00000000      0.00000000      0.00000000      0.00000000      0.00000000      0.00000000</v>
  </separator>
  <separator name="performance" >
   <i type="int" name="NPAR">     4</i>
   <i type="int" name="NSIM">     4</i>
   <i type="int" name="NBLK">    -1</i>
   <i type="logical" name="LPLANE"> T  </i>
   <i type="logical" name="LSCALAPACK"> T  </i>
   <i type="logical" name="LSCAAWARE"> F  </i>
   <i type="logical" name="LSCALU"> F  </i>
   <i type="logical" name="LASYNC"> F  </i>
   <i type="logical" name="LORBITALREAL"> F  </i>
  </separator>
  <separator name="miscellaneous" >
   <i type="int" name="IDIOT">     3</i>
   <i type="logical" name="LMUSIC"> F  </i>
   <v name="POMASS">    180.94800000     91.22400000     92.91000000    178.49000000</v>
   <v name="DARWINR">      0.00000000      0.00000000      0.00000000      0.00000000</v>
   <v name="DARWINV">      1.00000000      1.00000000      1.00000000      1.00000000</v>
   <i type="logical" name="LCORR"> T  </i>
  </separator>
  <i type="logical" name="GGA_COMPAT"> T  </i>
  <i type="logical" name="LBERRY"> F  </i>
  <i type="int" name="ICORELEVEL">     0</i>
  <i type="logical" name="LDAU"> F  </i>
  <i type="int" name="I_CONSTRAINED_M">     0</i>
  <separator name="electronic exchange-correlation" >
   <i type="string" name="GGA">--</i>
   <i type="int" name="VOSKOWN">     0</i>
   <i type="logical" name="LHFCALC"> F  </i>
   <i type="string" name="PRECFOCK"></i>
   <i type="logical" name="LSYMGRAD"> F  </i>
   <i type="logical" name="LHFONE"> F  </i>
   <i type="logical" name="LRHFCALC"> F  </i>
   <i type="logical" name="LTHOMAS"> F  </i>
   <i type="logical" name="LMODELHF"> F  </i>
   <i name="ENCUT4O">     -1.00000000</i>
   <i type="int" name="EXXOEP">     0</i>
   <i type="int" name="FOURORBIT">     0</i>
   <i name="AEXX">      0.00000000</i>
   <i name="HFALPHA">      0.00000000</i>
   <i name="MCALPHA">      0.00000000</i>
   <i name="ALDAX">      1.00000000</i>
   <i name="AGGAX">      1.00000000</i>
   <i name="ALDAC">      1.00000000</i>
   <i name="AGGAC">      1.00000000</i>
   <i type="int" name="NKREDX">     1</i>
   <i type="int" name="NKREDY">     1</i>
   <i type="int" name="NKREDZ">     1</i>
   <i type="logical" name="SHIFTRED"> F  </i>
   <i type="logical" name="ODDONLY"> F  </i>
   <i type="logical" name="EVENONLY"> F  </i>
   <i type="int" name="LMAXFOCK">     0</i>
   <i type="int" name="NMAXFOCKAE">     0</i>
   <i type="logical" name="LFOCKAEDFT"> F  </i>
   <i name="HFSCREEN">      0.00000000</i>
   <i name="HFSCREENC">      0.00000000</i>
   <i type="int" name="NBANDSGWLOW">     0</i>
  </separator>
  <separator name="vdW DFT" >
   <i type="logical" name="LUSE_VDW"> F  </i>
   <i name="Zab_VDW">     -0.84910000</i>
   <i name="PARAM1">      0.12340000</i>
   <i name="PARAM2">      1.00000000</i>
   <i name="PARAM3">      0.00000000</i>
  </separator>
  <separator name="model GW" >
   <i type="int" name="MODEL_GW">     0</i>
   <i name="MODEL_EPS0">     11.79287905</i>
   <i name="MODEL_ALPHA">      1.00000000</i>
  </separator>
  <separator name="linear response parameters" >
   <i type="logical" name="LEPSILON"> F  </i>
   <i type="logical" name="LRPA"> F  </i>
   <i type="logical" name="LNABLA"> F  </i>
   <i type="logical" name="LVEL"> F  </i>
   <i type="int" name="KINTER">     0</i>
   <i name="CSHIFT">      0.10000000</i>
   <i name="OMEGAMAX">     -1.00000000</i>
   <i name="DEG_THRESHOLD">      0.00200000</i>
  </separator>
  <separator name="orbital magnetization" >
   <i type="logical" name="NUCIND"> F  </i>
   <v name="MAGPOS">      0.00000000      0.00000000      0.00000000</v>
   <i type="logical" name="LNICSALL"> T  </i>
   <i type="logical" name="ORBITALMAG"> F  </i>
   <i type="logical" name="LMAGBLOCH"> F  </i>
   <i type="logical" name="LCHIMAG"> F  </i>
   <i type="logical" name="LGAUGE"> T  </i>
   <i type="int" name="MAGATOM">     0</i>
   <v name="MAGDIPOL">      0.00000000      0.00000000      0.00000000</v>
   <v name="AVECCONST">      0.00000000      0.00000000      0.00000000</v>
  </separator>
  <separator name="response functions" >
   <i type="logical" name="LADDER"> F  </i>
   <i type="logical" name="LFXC"> F  </i>
   <i type="logical" name="LHARTREE"> T  </i>
   <i type="int" name="IBSE">     0</i>
   <v type="int" name="KPOINT">    -1     0     0     0</v>
   <i type="logical" name="LTCTE"> F  </i>
   <i type="logical" name="LTETE"> F  </i>
   <i type="logical" name="LTRIPLET"> F  </i>
   <i type="logical" name="LFXCEPS"> F  </i>
   <i type="logical" name="LFXHEG"> F  </i>
   <i type="int" name="NATURALO">     0</i>
   <i type="logical" name="L2ORDER"> F  </i>
   <i type="logical" name="LUSEW"> F  </i>
   <i name="ENCUTGW">     -2.00000000</i>
   <i name="ENCUTGWSOFT">     -2.00000000</i>
   <i name="ENCUTLF">     -1.00000000</i>
   <i type="int" name="LMAXMP2">    -1</i>
   <i name="SCISSOR">      0.00000000</i>
   <i type="int" name="NOMEGA">     0</i>
   <i type="int" name="NOMEGAR">     0</i>
   <i type="int" name="NBANDSGW">    -1</i>
   <i type="int" name="NBANDSO">    -1</i>
   <i type="int" name="NBANDSV">    -1</i>
   <i type="int" name="NELM">    70</i>
   <i type="int" name="NELMHF">     1</i>
   <i type="int" name="DIM">     3</i>
   <i type="int" name="ANTIRES">     0</i>
   <i name="OMEGAMAX">    -30.00000000</i>
   <i name="OMEGAMIN">    -30.00000000</i>
   <i name="OMEGATL">   -200.00000000</i>
   <i type="int" name="OMEGAGRID">     0</i>
   <i name="CSHIFT">     -0.10000000</i>
   <i type="logical" name="SELFENERGY"> F  </i>
   <i type="logical" name="LSPECTRAL"> F  </i>
   <i type="logical" name="LSPECTRALGW"> F  </i>
   <i type="logical" name="LSINGLES"> F  </i>
   <i type="logical" name="LFERMIGW"> F  </i>
   <i type="logical" name="ODDONLYGW"> F  </i>
   <i type="logical" name="EVENONLYGW"> F  </i>
   <i type="int" name="NKREDLFX">     1</i>
   <i type="int" name="NKREDLFY">     1</i>
   <i type="int" name="NKREDLFZ">     1</i>
   <i type="int" name="MAXMEM">  1800</i>
   <i type="int" name="TELESCOPE">     0</i>
   <i type="int" name="TAUPAR">     1</i>
   <i type="int" name="OMEGAPAR">    -1</i>
   <i name="LAMBDA">      1.00000000</i>
  </separator>
  <separator name="External order field" >
   <i name="OFIELD_KAPPA">      0.00000000</i>
   <v name="OFIELD_K">      0.00000000      0.00000000      0.00000000</v>
   <i name="OFIELD_Q6_NEAR">      0.00000000</i>
   <i name="OFIELD_Q6_FAR">      0.00000000</i>
   <i name="OFIELD_A">      0.00000000</i>
  </separator>
 </parameters>
 <atominfo>
  <atoms>      36 </atoms>
  <types>       4 </types>
  <array name="atoms" >
   <dimension dim="1">ion</dimension>
   <field type="string">element</field>
   <field type="int">atomtype</field>
   <set>
    <rc><c>Ta</c><c>   1</c></rc>
    <rc><c>Ta</c><c>   1</c></rc>
    <rc><c>Ta</c><c>   1</c></rc>
    <rc><c>Ta</c><c>   1</c></rc>
    <rc><c>Ta</c><c>   1</c></rc>
    <rc><c>Ta</c><c>   1</c></rc>
    <rc><c>Ta</c><c>   1</c></rc>
    <rc><c>Ta</c><c>   1</c></rc>
    <rc><c>Ta</c><c>   1</c></rc>
    <rc><c>Ta</c><c>   1</c></rc>
    <rc><c>Ta</c><c>   1</c></rc>
    <rc><c>Ta</c><c>   1</c></rc>
    <rc><c>Zr</c><c>   2</c></rc>
    <rc><c>Zr</c><c>   2</c></rc>
    <rc><c>Zr</c><c>   2</c></rc>
    <rc><c>Zr</c><c>   2</c></rc>
    <rc><c>Zr</c><c>   2</c></rc>
    <rc><c>Zr</c><c>   2</c></rc>
    <rc><c>Zr</c><c>   2</c></rc>
    <rc><c>Nb</c><c>   3</c></rc>
    <rc><c>Nb</c><c>   3</c></rc>
    <rc><c>Nb</c><c>   3</c></rc>
    <rc><c>Nb</c><c>   3</c></rc>
    <rc><c>Nb</c><c>   3</c></rc>
    <rc><c>Nb</c><c>   3</c></rc>
    <rc><c>Nb</c><c>   3</c></rc>
    <rc><c>Nb</c><c>   3</c></rc>
    <rc><c>Nb</c><c>   3</c></rc>
    <rc><c>Hf</c><c>   4</c></rc>
    <rc><c>Hf</c><c>   4</c></rc>
    <rc><c>Hf</c><c>   4</c></rc>
    <rc><c>Hf</c><c>   4</c></rc>
    <rc><c>Hf</c><c>   4</c></rc>
    <rc><c>Hf</c><c>   4</c></rc>
    <rc><c>Hf</c><c>   4</c></rc>
    <rc><c>Hf</c><c>   4</c></rc>
   </set>
  </array>
  <array name="atomtypes" >
   <dimension dim="1">type</dimension>
   <field type="int">atomspertype</field>
   <field type="string">element</field>
   <field>mass</field>
   <field>valence</field>
   <field type="string">pseudopotential</field>
   <set>
    <rc><c>  12</c><c>Ta</c><c>    180.94800000</c><c>      5.00000000</c><c>  PAW_PBE Ta 17Jan2003                  </c></rc>
    <rc><c>   7</c><c>Zr</c><c>     91.22400000</c><c>     12.00000000</c><c>  PAW_PBE Zr_sv 04Jan2005               </c></rc>
    <rc><c>   9</c><c>Nb</c><c>     92.91000000</c><c>     13.00000000</c><c>  PAW_PBE Nb_sv 25May2007               </c></rc>
    <rc><c>   8</c><c>Hf</c><c>    178.49000000</c><c>      4.00000000</c><c>  PAW_PBE Hf 20Jan2003                  </c></rc>
   </set>
  </array>
 </atominfo>
 <structure name="initialpos" >
  <crystal>
   <varray name="basis" >
    <v>       6.80233886       0.00573157      -0.00014965 </v>
    <v>       0.00871458      10.20446106      -0.00896898 </v>
    <v>      -0.00009478      -0.00879938      10.19350174 </v>
   </varray>
   <i name="volume">    707.57274312 </i>
   <varray name="rec_basis" >
    <v>       0.14700837      -0.00012554       0.00000126 </v>
    <v>      -0.00008257       0.09799650       0.00008459 </v>
    <v>       0.00000209       0.00008622       0.09810179 </v>
   </varray>
  </crystal>
  <varray name="positions" >
   <v>       0.75567300       0.83709800       0.50313300 </v>
   <v>       0.23903800       0.48985000       0.17960800 </v>
   <v>       0.24600100       0.50779400       0.49683900 </v>
   <v>       0.24292400       0.52662900       0.82598000 </v>
   <v>       0.00843900       0.67071000       0.00162200 </v>
   <v>       0.22770400       0.83820900       0.17488500 </v>
   <v>       0.75340200       0.50199800       0.49711500 </v>
   <v>       0.77243000       0.83641800       0.17232100 </v>
   <v>       0.99510900       0.98763200       0.01055200 </v>
   <v>       0.75344000       0.16770300       0.17892300 </v>
   <v>       0.24420400       0.83105400       0.82470700 </v>
   <v>       0.75992500       0.52355200       0.82722400 </v>
   <v>       0.76409700       0.48779200       0.17601600 </v>
   <v>       0.50292500       0.66942200       0.32949200 </v>
   <v>       0.24411500       0.14137000       0.82989100 </v>
   <v>       0.00583300       0.34103000       0.98549000 </v>
   <v>       0.50321100       0.99402500       0.01481900 </v>
   <v>       0.49706500       0.34233800       0.67288800 </v>
   <v>       0.49480000       0.66538900       0.00605100 </v>
   <v>       0.50292000       0.99449000       0.32666000 </v>
   <v>       0.99504300       0.99778000       0.33087600 </v>
   <v>       0.25318900       0.16117400       0.49181800 </v>
   <v>       0.00402600       0.00027800       0.65654200 </v>
   <v>       0.99776600       0.66755800       0.33332800 </v>
   <v>       0.00046700       0.66263000       0.66357000 </v>
   <v>       0.49619200       0.99229500       0.65483900 </v>
   <v>       0.00553100       0.33557000       0.34893100 </v>
   <v>       0.49317800       0.33749400       0.34301700 </v>
   <v>       0.74400700       0.16263800       0.49245100 </v>
   <v>       0.75437700       0.83141700       0.82401200 </v>
   <v>       0.49730100       0.34060300       0.99334000 </v>
   <v>       0.24255600       0.17278100       0.17588900 </v>
   <v>       0.00439400       0.33892300       0.66466700 </v>
   <v>       0.24357900       0.83329700       0.50120300 </v>
   <v>       0.75505600       0.14757700       0.82841000 </v>
   <v>       0.50008000       0.66348400       0.66288600 </v>
  </varray>
 </structure>
 <calculation>
  <scstep>
   <time name="dav">    1.03    1.04</time>
   <time name="total">    1.18    1.47</time>
   <energy>
    <i name="alphaZ">   1572.80425566 </i>
    <i name="ewald"> -19809.55285015 </i>
    <i name="hartreedc">  -6385.29908022 </i>
    <i name="XCdc">   -362.67440678 </i>
    <i name="pawpsdc">  21392.32830167 </i>
    <i name="pawaedc"> -19729.12139590 </i>
    <i name="eentropy">      0.00113092 </i>
    <i name="bandstr">     -2.03057852 </i>
    <i name="atom">  25160.16158175 </i>
    <i name="e_fr_energy">   1836.61695843 </i>
    <i name="e_wo_entrp">   1836.61582751 </i>
    <i name="e_0_energy">   1836.61658146 </i>
   </energy>
  </scstep>
  <scstep>
   <time name="dav">    1.10    1.22</time>
   <time name="total">    1.11    1.37</time>
   <energy>
    <i name="e_fr_energy">   -105.20165841 </i>
    <i name="e_wo_entrp">   -105.20362558 </i>
    <i name="e_0_energy">   -105.20231413 </i>
   </energy>
  </scstep>
  <scstep>
   <time name="dav">    1.42    1.43</time>
   <time name="total">    1.42    1.46</time>
   <energy>
    <i name="e_fr_energy">   -353.26052415 </i>
    <i name="e_wo_entrp">   -353.26974272 </i>
    <i name="e_0_energy">   -353.26359701 </i>
   </energy>
  </scstep>
  <scstep>
   <time name="dav">    1.33    1.48</time>
   <time name="total">    1.33    1.51</time>
   <energy>
    <i name="e_fr_energy">   -382.25849969 </i>
    <i name="e_wo_entrp">   -382.27826464 </i>
    <i name="e_0_energy">   -382.26508801 </i>
   </energy>
  </scstep>
  <scstep>
   <time name="dav">    1.38    1.38</time>
   <time name="total">    1.42    1.45</time>
   <energy>
    <i name="e_fr_energy">   -385.15688026 </i>
    <i name="e_wo_entrp">   -385.17555827 </i>
    <i name="e_0_energy">   -385.16310626 </i>
   </energy>
  </scstep>
  <scstep>
   <time name="diag">    0.08    0.08</time>
   <time name="diis">    0.69    0.82</time>
   <time name="orth">    0.01    0.01</time>
   <time name="total">    0.85    1.01</time>
   <energy>
    <i name="e_fr_energy">   -375.36088013 </i>
    <i name="e_wo_entrp">   -375.38609020 </i>
    <i name="e_0_energy">   -375.36928349 </i>
   </energy>
  </scstep>
  <scstep>
   <time name="diag">    0.07    0.07</time>
   <time name="diis">    0.79    0.80</time>
   <time name="orth">    0.01    0.01</time>
   <time name="total">    0.94    0.98</time>
   <energy>
    <i name="e_fr_energy">   -380.72538031 </i>
    <i name="e_wo_entrp">   -380.71677885 </i>
    <i name="e_0_energy">   -380.72251316 </i>
   </energy>
  </scstep>
  <scstep>
   <time name="diag">    0.08    0.08</time>
   <time name="diis">    0.74    0.74</time>
   <time name="orth">    0.01    0.01</time>
   <time name="total">    0.89    0.93</time>
   <energy>
    <i name="e_fr_energy">   -370.48961270 </i>
    <i name="e_wo_entrp">   -370.50415079 </i>
    <i name="e_0_energy">   -370.49445873 </i>
   </energy>
  </scstep>
  <scstep>
   <time name="diag">    0.13    0.13</time>
   <time name="diis">    0.81    0.81</time>
   <time name="orth">    0.01    0.01</time>
   <time name="total">    1.03    1.07</time>
   <energy>
    <i name="e_fr_energy">   -369.91690629 </i>
    <i name="e_wo_entrp">   -369.93968641 </i>
    <i name="e_0_energy">   -369.92449967 </i>
   </energy>
  </scstep>
  <scstep>
   <time name="diag">    0.07    0.08</time>
   <time name="diis">    0.83    0.84</time>
   <time name="orth">    0.01    0.01</time>
   <time name="total">    1.00    1.04</time>
   <energy>
    <i name="e_fr_energy">   -369.93746116 </i>
    <i name="e_wo_entrp">   -369.95981285 </i>
    <i name="e_0_energy">   -369.94491172 </i>
   </energy>
  </scstep>
  <scstep>
   <time name="diag">    0.08    0.17</time>
   <time name="diis">    0.83    0.84</time>
   <time name="orth">    0.01    0.01</time>
   <time name="total">    1.00    1.16</time>
   <energy>
    <i name="e_fr_energy">   -369.88811499 </i>
    <i name="e_wo_entrp">   -369.90906294 </i>
    <i name="e_0_energy">   -369.89509764 </i>
   </energy>
  </scstep>
  <scstep>
   <time name="diag">    0.07    0.07</time>
   <time name="diis">    0.79    0.79</time>
   <time name="orth">    0.01    0.01</time>
   <time name="total">    0.94    0.98</time>
   <energy>
    <i name="e_fr_energy">   -369.87453330 </i>
    <i name="e_wo_entrp">   -369.89490696 </i>
    <i name="e_0_energy">   -369.88132452 </i>
   </energy>
  </scstep>
  <scstep>
   <time name="diag">    0.07    0.07</time>
   <time name="diis">    0.83    0.83</time>
   <time name="orth">    0.01    0.01</time>
   <time name="total">    0.98    1.01</time>
   <energy>
    <i name="e_fr_energy">   -369.87251639 </i>
    <i name="e_wo_entrp">   -369.89309217 </i>
    <i name="e_0_energy">   -369.87937498 </i>
   </energy>
  </scstep>
  <scstep>
   <time name="diag">    0.11    0.14</time>
   <time name="diis">    0.79    0.80</time>
   <time name="orth">    0.01    0.01</time>
   <time name="total">    0.98    1.07</time>
   <energy>
    <i name="e_fr_energy">   -369.87181166 </i>
    <i name="e_wo_entrp">   -369.89186984 </i>
    <i name="e_0_energy">   -369.87849772 </i>
   </energy>
  </scstep>
  <scstep>
   <time name="diag">    0.08    0.08</time>
   <time name="diis">    0.79    0.79</time>
   <time name="orth">    0.01    0.01</time>
   <time name="total">    0.95    0.98</time>
   <energy>
    <i name="e_fr_energy">   -369.87161981 </i>
    <i name="e_wo_entrp">   -369.89200424 </i>
    <i name="e_0_energy">   -369.87841462 </i>
   </energy>
  </scstep>
  <scstep>
   <time name="diag">    0.08    0.08</time>
   <time name="diis">    0.83    0.84</time>
   <time name="orth">    0.01    0.01</time>
   <time name="total">    1.01    1.05</time>
   <energy>
    <i name="e_fr_energy">   -369.87174031 </i>
    <i name="e_wo_entrp">   -369.89219979 </i>
    <i name="e_0_energy">   -369.87856014 </i>
   </energy>
  </scstep>
  <scstep>
   <time name="diag">    0.08    0.09</time>
   <time name="diis">    0.73    0.73</time>
   <time name="orth">    0.01    0.01</time>
   <time name="total">    0.89    0.92</time>
   <energy>
    <i name="e_fr_energy">   -369.87169909 </i>
    <i name="e_wo_entrp">   -369.89211706 </i>
    <i name="e_0_energy">   -369.87850508 </i>
   </energy>
  </scstep>
  <scstep>
   <time name="diag">    0.08    0.08</time>
   <time name="diis">    0.70    0.70</time>
   <time name="orth">    0.02    0.02</time>
   <time name="total">    0.89    0.92</time>
   <energy>
    <i name="e_fr_energy">   -369.87169646 </i>
    <i name="e_wo_entrp">   -369.89207917 </i>
    <i name="e_0_energy">   -369.87849070 </i>
   </energy>
  </scstep>
  <scstep>
   <time name="diag">    0.11    0.11</time>
   <time name="diis">    0.57    0.58</time>
   <time name="orth">    0.01    0.01</time>
   <time name="total">    0.77    0.81</time>
   <energy>
    <i name="e_fr_energy">   -369.87170763 </i>
    <i name="e_wo_entrp">   -369.89208957 </i>
    <i name="e_0_energy">   -369.87850161 </i>
   </energy>
  </scstep>
  <scstep>
   <time name="diag">    0.08    0.08</time>
   <time name="diis">    0.44    0.44</time>
   <time name="orth">    0.01    0.01</time>
   <time name="total">    0.56    0.60</time>
   <energy>
    <i name="alphaZ">   1572.80425566 </i>
    <i name="ewald"> -19809.55285015 </i>
    <i name="hartreedc">  -6155.21811465 </i>
    <i name="XCdc">   -361.79184993 </i>
    <i name="pawpsdc">  34261.55334507 </i>
    <i name="pawaedc"> -32580.31706473 </i>
    <i name="eentropy">      0.02036965 </i>
    <i name="bandstr">  -2457.53138184 </i>
    <i name="atom">  25160.16158175 </i>
    <i name="e_fr_energy">   -369.87170918 </i>
    <i name="e_wo_entrp">   -369.89207883 </i>
    <i name="e_0_energy">   -369.87849907 </i>
   </energy>
  </scstep>
  <structure>
   <crystal>
    <varray name="basis" >
     <v>       6.80233886       0.00573157      -0.00014965 </v>
     <v>       0.00871458      10.20446106      -0.00896898 </v>
     <v>      -0.00009478      -0.00879938      10.19350174 </v>
    </varray>
    <i name="volume">    707.57274312 </i>
    <varray name="rec_basis" >
     <v>       0.14700837      -0.00012554       0.00000126 </v>
     <v>      -0.00008257       0.09799650       0.00008459 </v>
     <v>       0.00000209       0.00008622       0.09810179 </v>
    </varray>
   </crystal>
   <varray name="positions" >
    <v>       0.75567300       0.83709800       0.50313300 </v>
    <v>       0.23903800       0.48985000       0.17960800 </v>
    <v>       0.24600100       0.50779400       0.49683900 </v>
    <v>       0.24292400       0.52662900       0.82598000 </v>
    <v>       0.00843900       0.67071000       0.00162200 </v>
    <v>       0.22770400       0.83820900       0.17488500 </v>
    <v>       0.75340200       0.50199800       0.49711500 </v>
    <v>       0.77243000       0.83641800       0.17232100 </v>
    <v>       0.99510900       0.98763200       0.01055200 </v>
    <v>       0.75344000       0.16770300       0.17892300 </v>
    <v>       0.24420400       0.83105400       0.82470700 </v>
    <v>       0.75992500       0.52355200       0.82722400 </v>
    <v>       0.76409700       0.48779200       0.17601600 </v>
    <v>       0.50292500       0.66942200       0.32949200 </v>
    <v>       0.24411500       0.14137000       0.82989100 </v>
    <v>       0.00583300       0.34103000       0.98549000 </v>
    <v>       0.50321100       0.99402500       0.01481900 </v>
    <v>       0.49706500       0.34233800       0.67288800 </v>
    <v>       0.49480000       0.66538900       0.00605100 </v>
    <v>       0.50292000       0.99449000       0.32666000 </v>
    <v>       0.99504300       0.99778000       0.33087600 </v>
    <v>       0.25318900       0.16117400       0.49181800 </v>
    <v>       0.00402600       0.00027800       0.65654200 </v>
    <v>       0.99776600       0.66755800       0.33332800 </v>
    <v>       0.00046700       0.66263000       0.66357000 </v>
    <v>       0.49619200       0.99229500       0.65483900 </v>
    <v>       0.00553100       0.33557000       0.34893100 </v>
    <v>       0.49317800       0.33749400       0.34301700 </v>
    <v>       0.74400700       0.16263800       0.49245100 </v>
    <v>       0.75437700       0.83141700       0.82401200 </v>
    <v>       0.49730100       0.34060300       0.99334000 </v>
    <v>       0.24255600       0.17278100       0.17588900 </v>
    <v>       0.00439400       0.33892300       0.66466700 </v>
    <v>       0.24357900       0.83329700       0.50120300 </v>
    <v>       0.75505600       0.14757700       0.82841000 </v>
    <v>       0.50008000       0.66348400       0.66288600 </v>
   </varray>
  </structure>
  <varray name="forces" >
   <v>       0.32176015       0.34548052      -0.20270284 </v>
   <v>      -0.01004968      -0.00303650       0.00625971 </v>
   <v>      -0.33515016      -0.23068280      -0.37826321 </v>
   <v>      -0.51730238      -0.14890243       0.40823326 </v>
   <v>      -0.01109266      -0.05930309       0.01787838 </v>
   <v>      -0.00275356       0.00101032      -0.00495577 </v>
   <v>       0.28166555      -0.28058592      -0.30747588 </v>
   <v>       0.01154490       0.02523740      -0.02119592 </v>
   <v>       0.00992757      -0.01133953       0.02488338 </v>
   <v>      -0.00715272      -0.01414927      -0.00861207 </v>
   <v>      -0.28233299       0.21682529       0.22034610 </v>
   <v>       0.53363560      -0.23859753       0.41470663 </v>
   <v>       0.00387679       0.00024101       0.02693149 </v>
   <v>       0.01041969      -0.03081158       0.09397242 </v>
   <v>      -0.03165349      -0.01223744       0.00773468 </v>
   <v>      -0.01732923       0.02517029      -0.00615210 </v>
   <v>       0.00570112      -0.00300036       0.00112042 </v>
   <v>       0.01429618       0.12290896       0.00814847 </v>
   <v>      -0.01106620      -0.00759690      -0.06693756 </v>
   <v>       0.00322394      -0.02433602      -0.02769040 </v>
   <v>      -0.01705423      -0.00521696      -0.00661288 </v>
   <v>      -0.02236045       0.01356649       0.00348424 </v>
   <v>      -0.00742685       0.00425794      -0.01513393 </v>
   <v>      -0.01191987      -0.01937618      -0.01615464 </v>
   <v>      -0.00216595       0.00925043      -0.01667070 </v>
   <v>       0.02771400      -0.24526089       0.06435960 </v>
   <v>       0.00066938       0.02181092       0.03223833 </v>
   <v>       0.00778713      -0.00310317      -0.01168325 </v>
   <v>       0.01496079       0.02202645       0.00885819 </v>
   <v>       0.28608509       0.20641269       0.17787981 </v>
   <v>       0.00658868       0.00872642      -0.01660866 </v>
   <v>      -0.01187644      -0.00223691      -0.01486141 </v>
   <v>      -0.00794058      -0.00603600      -0.00487853 </v>
   <v>      -0.29003596       0.24431379      -0.17895083 </v>
   <v>       0.00519071       0.01050350      -0.00247115 </v>
   <v>       0.05161613       0.06806704      -0.20902338 </v>
  </varray>
  <varray name="stress" >
   <v>      11.78209736       0.34085652       0.17731675 </v>
   <v>       0.34085651       5.13256192       0.04003457 </v>
   <v>       0.17731673       0.04003459       7.91756954 </v>
  </varray>
  <energy>
   <i name="e_fr_energy">   -369.87170918 </i>
   <i name="e_wo_entrp">   -369.87849907 </i>
   <i name="e_0_energy">      0.02036965 </i>
  </energy>
  <time name="totalsc">   21.92   23.65</time>
 </calculation>
 <calculation>
  <scstep>
   <time name="dav">    1.14    1.14</time>
   <time name="total">    1.29    1.44</time>
   <energy>
    <i name="alphaZ">   1565.89087204 </i>
    <i name="ewald"> -19779.34486595 </i>
    <i name="hartreedc">  -6147.24748702 </i>
    <i name="XCdc">   -363.03195959 </i>
    <i name="pawpsdc">  34261.61394321 </i>
    <i name="pawaedc"> -32580.37567395 </i>
    <i name="eentropy">      0.02104060 </i>
    <i name="bandstr">  -2487.64650352 </i>
    <i name="atom">  25160.16158175 </i>
    <i name="e_fr_energy">   -369.95905242 </i>
    <i name="e_wo_entrp">   -369.98009302 </i>
    <i name="e_0_energy">   -369.96606595 </i>
   </energy>
  </scstep>
  <scstep>
   <time name="diag">    0.08    0.08</time>
   <time name="diis">    0.80    0.82</time>
   <time name="orth">    0.01    0.01</time>
   <time name="total">    0.97    1.01</time>
   <energy>
    <i name="e_fr_energy">   -369.93775035 </i>
    <i name="e_wo_entrp">   -369.95785531 </i>
    <i name="e_0_energy">   -369.94445201 </i>
   </energy>
  </scstep>
  <scstep>
   <time name="diag">    0.08    0.08</time>
   <time name="diis">    0.81    0.82</time>
   <time name="orth">    0.01    0.01</time>
   <time name="total">    0.97    1.01</time>
   <energy>
    <i name="e_fr_energy">   -369.92528728 </i>
    <i name="e_wo_entrp">   -369.94556642 </i>
    <i name="e_0_energy">   -369.93204699 </i>
   </energy>
  </scstep>
  <scstep>
   <time name="diag">    0.08    0.08</time>
   <time name="diis">    0.79    0.80</time>
   <time name="orth">    0.01    0.01</time>
   <time name="total">    0.95    0.99</time>
   <energy>
    <i name="e_fr_energy">   -369.91776836 </i>
    <i name="e_wo_entrp">   -369.93882101 </i>
    <i name="e_0_energy">   -369.92478591 </i>
   </energy>
  </scstep>
  <scstep>
   <time name="diag">    0.08    0.08</time>
   <time name="diis">    0.80    0.80</time>
   <time name="orth">    0.01    0.01</time>
   <time name="total">    0.95    0.99</time>
   <energy>
    <i name="e_fr_energy">   -369.91680100 </i>
    <i name="e_wo_entrp">   -369.93721076 </i>
    <i name="e_0_energy">   -369.92360426 </i>
   </energy>
  </scstep>
  <scstep>
   <time name="diag">    0.07    0.08</time>
   <time name="diis">    0.83    0.83</time>
   <time name="orth">    0.01    0.01</time>
   <time name="total">    0.98    1.01</time>
   <energy>
    <i name="e_fr_energy">   -369.91682612 </i>
    <i name="e_wo_entrp">   -369.93753463 </i>
    <i name="e_0_energy">   -369.92372896 </i>
   </energy>
  </scstep>
  <scstep>
   <time name="diag">    0.13    0.13</time>
   <time name="diis">    0.79    0.79</time>
   <time name="orth">    0.01    0.01</time>
   <time name="total">    0.99    1.03</time>
   <energy>
    <i name="e_fr_energy">   -369.91684597 </i>
    <i name="e_wo_entrp">   -369.93753705 </i>
    <i name="e_0_energy">   -369.92374300 </i>
   </energy>
  </scstep>
  <scstep>
   <time name="diag">    0.07    0.07</time>
   <time name="diis">    0.72    0.72</time>
   <time name="orth">    0.01    0.01</time>
   <time name="total">    0.87    0.91</time>
   <energy>
    <i name="e_fr_energy">   -369.91687418 </i>
    <i name="e_wo_entrp">   -369.93753903 </i>
    <i name="e_0_energy">   -369.92376246 </i>
   </energy>
  </scstep>
  <scstep>
   <time name="diag">    0.07    0.07</time>
   <time name="diis">    0.69    0.69</time>
   <time name="orth">    0.01    0.01</time>
   <time name="total">    0.84    0.87</time>
   <energy>
    <i name="e_fr_energy">   -369.91690173 </i>
    <i name="e_wo_entrp">   -369.93756508 </i>
    <i name="e_0_energy">   -369.92378952 </i>
   </energy>
  </scstep>
  <scstep>
   <time name="diag">    0.07    0.08</time>
   <time name="diis">    0.55    0.55</time>
   <time name="orth">    0.01    0.01</time>
   <time name="total">    0.70    0.73</time>
   <energy>
    <i name="e_fr_energy">   -369.91691828 </i>
    <i name="e_wo_entrp">   -369.93756499 </i>
    <i name="e_0_energy">   -369.92380051 </i>
   </energy>
  </scstep>
  <scstep>
   <time name="diag">    0.07    0.07</time>
   <time name="diis">    0.46    0.46</time>
   <time name="orth">    0.01    0.01</time>
   <time name="total">    0.58    0.61</time>
   <energy>
    <i name="alphaZ">   1565.89087204 </i>
    <i name="ewald"> -19779.34486595 </i>
    <i name="hartreedc">  -6164.99613122 </i>
    <i name="XCdc">   -362.28398483 </i>
    <i name="pawpsdc">  34061.11882126 </i>
    <i name="pawaedc"> -32379.97206095 </i>
    <i name="eentropy">      0.02066433 </i>
    <i name="bandstr">  -2470.51181427 </i>
    <i name="atom">  25160.16158175 </i>
    <i name="e_fr_energy">   -369.91691783 </i>
    <i name="e_wo_entrp">   -369.93758216 </i>
    <i name="e_0_energy">   -369.92380594 </i>
   </energy>
  </scstep>
  <structure>
   <crystal>
    <varray name="basis" >
     <v>       6.81656876       0.00614845       0.00006433 </v>
     <v>       0.00935007      10.21376049      -0.00890878 </v>
     <v>       0.00022540      -0.00873495      10.20783100 </v>
    </varray>
    <i name="volume">    710.69666568 </i>
    <varray name="rec_basis" >
     <v>       0.14670149      -0.00013430      -0.00000335 </v>
     <v>      -0.00008831       0.09790729       0.00008378 </v>
     <v>      -0.00000100       0.00008545       0.09796408 </v>
    </varray>
   </crystal>
   <varray name="positions" >
    <v>       0.75635695       0.83758736       0.50284564 </v>
    <v>       0.23901662       0.48984571       0.17961688 </v>
    <v>       0.24528834       0.50746676       0.49630164 </v>
    <v>       0.24182365       0.52641893       0.82655941 </v>
    <v>       0.00841551       0.67062593       0.00164731 </v>
    <v>       0.22769814       0.83821043       0.17487796 </v>
    <v>       0.75400178       0.50159934       0.49667810 </v>
    <v>       0.77245452       0.83645375       0.17229094 </v>
    <v>       0.99513014       0.98761594       0.01058732 </v>
    <v>       0.75342481       0.16768293       0.17891075 </v>
    <v>       0.24360291       0.83136213       0.82502011 </v>
    <v>       0.76106082       0.52321347       0.82781252 </v>
    <v>       0.76410525       0.48779237       0.17605424 </v>
    <v>       0.50294723       0.66937840       0.32962538 </v>
    <v>       0.24404768       0.14135269       0.82990197 </v>
    <v>       0.00579608       0.34106571       0.98548130 </v>
    <v>       0.50322314       0.99402074       0.01482059 </v>
    <v>       0.49709519       0.34251231       0.67289972 </v>
    <v>       0.49477647       0.66537816       0.00595595 </v>
    <v>       0.50292690       0.99445545       0.32662065 </v>
    <v>       0.99500672       0.99777261       0.33086660 </v>
    <v>       0.25314140       0.16119327       0.49182296 </v>
    <v>       0.00401019       0.00028403       0.65652052 </v>
    <v>       0.99774067       0.66753051       0.33330504 </v>
    <v>       0.00046237       0.66264310       0.66354634 </v>
    <v>       0.49625141       0.99194720       0.65493007 </v>
    <v>       0.00553239       0.33560097       0.34897680 </v>
    <v>       0.49319457       0.33748958       0.34300041 </v>
    <v>       0.74403879       0.16266923       0.49246360 </v>
    <v>       0.75498531       0.83170963       0.82426482 </v>
    <v>       0.49731500       0.34061535       0.99331643 </v>
    <v>       0.24253074       0.17277782       0.17586790 </v>
    <v>       0.00437712       0.33891444       0.66466007 </v>
    <v>       0.24296147       0.83364363       0.50094922 </v>
    <v>       0.75506702       0.14759189       0.82840650 </v>
    <v>       0.50018969       0.66358022       0.66258931 </v>
   </varray>
  </structure>
  <varray name="forces" >
   <v>       0.28953498       0.31090549      -0.17099038 </v>
   <v>      -0.00627640      -0.00646198       0.01017749 </v>
   <v>      -0.30666460      -0.19635876      -0.34659633 </v>
   <v>      -0.46954634      -0.09456070       0.35257588 </v>
   <v>      -0.00359831      -0.04373438       0.02408362 </v>
   <v>      -0.02060323       0.00175295       0.00021230 </v>
   <v>       0.26137797      -0.25895672      -0.28756320 </v>
   <v>       0.02798403       0.02355707      -0.01952199 </v>
   <v>       0.00724957      -0.00959994       0.04373360 </v>
   <v>      -0.00961138      -0.02678572       0.00433519 </v>
   <v>      -0.24444440       0.17422566       0.17823310 </v>
   <v>       0.48149779      -0.18036067       0.36127155 </v>
   <v>      -0.00090828       0.00107297       0.02761974 </v>
   <v>       0.00930054      -0.03228458       0.09931240 </v>
   <v>      -0.02687729      -0.01722859       0.00314807 </v>
   <v>      -0.01293407       0.01369297       0.00849375 </v>
   <v>       0.00647661      -0.00334647       0.00971554 </v>
   <v>       0.01142155       0.13166003       0.00861405 </v>
   <v>      -0.01847256      -0.00999003      -0.07405756 </v>
   <v>       0.01117014      -0.01329465      -0.03717853 </v>
   <v>      -0.02188299       0.00366629      -0.03023810 </v>
   <v>      -0.01064342       0.00969270       0.00543635 </v>
   <v>      -0.00453257       0.01679460      -0.01111497 </v>
   <v>      -0.01129824      -0.01728165      -0.02375630 </v>
   <v>      -0.00062974      -0.00190788      -0.00056351 </v>
   <v>       0.02671658      -0.24887193       0.06320752 </v>
   <v>       0.00579190       0.01666699       0.01624034 </v>
   <v>       0.00044483      -0.00444983      -0.01578488 </v>
   <v>       0.00323563       0.01557804       0.01228235 </v>
   <v>       0.25917702       0.17249403       0.14792740 </v>
   <v>       0.00512129       0.01308447      -0.01336424 </v>
   <v>      -0.01105825      -0.00335041      -0.00503684 </v>
   <v>      -0.00431739      -0.01254351      -0.00983614 </v>
   <v>      -0.26765325       0.21692531      -0.15742541 </v>
   <v>       0.00131904       0.00215453      -0.01076477 </v>
   <v>       0.04413323       0.05744431      -0.16282706 </v>
  </varray>
  <varray name="stress" >
   <v>       5.14454794       0.25211506       0.20438063 </v>
   <v>       0.25211501      -0.83276616       0.19245402 </v>
   <v>       0.20438067       0.19245399       1.73968444 </v>
  </varray>
  <energy>
   <i name="e_fr_energy">   -369.91691783 </i>
   <i name="e_wo_entrp">   -369.92380594 </i>
   <i name="e_0_energy">      0.02066433 </i>
  </energy>
  <time name="totalsc">   11.82   12.45</time>
 </calculation>
 <calculation>
  <scstep>
   <time name="dav">    1.14    1.15</time>
   <time name="total">    1.27    1.41</time>
   <energy>
    <i name="alphaZ">   1545.39880975 </i>
    <i name="ewald"> -19688.87764864 </i>
    <i name="hartreedc">  -6141.25323424 </i>
    <i name="XCdc">   -365.99698429 </i>
    <i name="pawpsdc">  34060.36739562 </i>
    <i name="pawaedc"> -32379.33823605 </i>
    <i name="eentropy">      0.02024443 </i>
    <i name="bandstr">  -2560.81701300 </i>
    <i name="atom">  25160.16158175 </i>
    <i name="e_fr_energy">   -370.33508468 </i>
    <i name="e_wo_entrp">   -370.35532911 </i>
    <i name="e_0_energy">   -370.34183282 </i>
   </energy>
  </scstep>
  <scstep>
   <time name="diag">    0.10    0.11</time>
   <time name="diis">    0.78    0.79</time>
   <time name="orth">    0.01    0.01</time>
   <time name="total">    0.96    1.05</time>
   <energy>
    <i name="e_fr_energy">   -370.15071499 </i>
    <i name="e_wo_entrp">   -370.16997401 </i>
    <i name="e_0_energy">   -370.15713467 </i>
   </energy>
  </scstep>
  <scstep>
   <time name="diag">    0.08    0.08</time>
   <time name="diis">    0.80    0.81</time>
   <time name="orth">    0.01    0.01</time>
   <time name="total">    0.96    0.99</time>
   <energy>
    <i name="e_fr_energy">   -370.02586409 </i>
    <i name="e_wo_entrp">   -370.04510200 </i>
    <i name="e_0_energy">   -370.03227673 </i>
   </energy>
  </scstep>
  <scstep>
   <time name="diag">    0.09    0.09</time>
   <time name="diis">    0.88    0.89</time>
   <time name="orth">    0.01    0.01</time>
   <time name="total">    1.05    1.08</time>
   <energy>
    <i name="e_fr_energy">   -369.96242385 </i>
    <i name="e_wo_entrp">   -369.98427165 </i>
    <i name="e_0_energy">   -369.96970645 </i>
   </energy>
  </scstep>
  <scstep>
   <time name="diag">    0.08    0.08</time>
   <time name="diis">    0.81    0.82</time>
   <time name="orth">    0.01    0.01</time>
   <time name="total">    0.97    1.00</time>
   <energy>
    <i name="e_fr_energy">   -369.95282721 </i>
    <i name="e_wo_entrp">   -369.97284940 </i>
    <i name="e_0_energy">   -369.95950127 </i>
   </energy>
  </scstep>
  <scstep>
   <time name="diag">    0.07    0.07</time>
   <time name="diis">    0.84    0.84</time>
   <time name="orth">    0.01    0.01</time>
   <time name="total">    0.99    1.02</time>
   <energy>
    <i name="e_fr_energy">   -369.95333318 </i>
    <i name="e_wo_entrp">   -369.97411953 </i>
    <i name="e_0_energy">   -369.96026196 </i>
   </energy>
  </scstep>
  <scstep>
   <time name="diag">    0.11    0.11</time>
   <time name="diis">    0.89    0.89</time>
   <time name="orth">    0.01    0.01</time>
   <time name="total">    1.09    1.15</time>
   <energy>
    <i name="e_fr_energy">   -369.95377226 </i>
    <i name="e_wo_entrp">   -369.97456134 </i>
    <i name="e_0_energy">   -369.96070195 </i>
   </energy>
  </scstep>
  <scstep>
   <time name="diag">    0.08    0.08</time>
   <time name="diis">    0.88    0.88</time>
   <time name="orth">    0.01    0.01</time>
   <time name="total">    1.07    1.11</time>
   <energy>
    <i name="e_fr_energy">   -369.95418158 </i>
    <i name="e_wo_entrp">   -369.97489085 </i>
    <i name="e_0_energy">   -369.96108467 </i>
   </energy>
  </scstep>
  <scstep>
   <time name="diag">    0.08    0.09</time>
   <time name="diis">    0.72    0.87</time>
   <time name="orth">    0.01    0.01</time>
   <time name="total">    0.88    1.06</time>
   <energy>
    <i name="e_fr_energy">   -369.95455725 </i>
    <i name="e_wo_entrp">   -369.97526970 </i>
    <i name="e_0_energy">   -369.96146140 </i>
   </energy>
  </scstep>
  <scstep>
   <time name="diag">    0.08    0.08</time>
   <time name="diis">    0.77    0.77</time>
   <time name="orth">    0.01    0.01</time>
   <time name="total">    0.93    0.97</time>
   <energy>
    <i name="e_fr_energy">   -369.95481885 </i>
    <i name="e_wo_entrp">   -369.97549761 </i>
    <i name="e_0_energy">   -369.96171177 </i>
   </energy>
  </scstep>
  <scstep>
   <time name="diag">    0.08    0.08</time>
   <time name="diis">    0.68    0.69</time>
   <time name="orth">    0.01    0.01</time>
   <time name="total">    0.85    0.90</time>
   <energy>
    <i name="e_fr_energy">   -369.95485881 </i>
    <i name="e_wo_entrp">   -369.97557578 </i>
    <i name="e_0_energy">   -369.96176447 </i>
   </energy>
  </scstep>
  <scstep>
   <time name="diag">    0.08    0.08</time>
   <time name="diis">    0.74    0.74</time>
   <time name="orth">    0.01    0.01</time>
   <time name="total">    0.90    0.93</time>
   <energy>
    <i name="e_fr_energy">   -369.95490671 </i>
    <i name="e_wo_entrp">   -369.97563193 </i>
    <i name="e_0_energy">   -369.96181512 </i>
   </energy>
  </scstep>
  <scstep>
   <time name="diag">    0.08    0.08</time>
   <time name="diis">    0.68    0.69</time>
   <time name="orth">    0.01    0.01</time>
   <time name="total">    0.84    0.88</time>
   <energy>
    <i name="e_fr_energy">   -369.95489777 </i>
    <i name="e_wo_entrp">   -369.97564868 </i>
    <i name="e_0_energy">   -369.96181474 </i>
   </energy>
  </scstep>
  <scstep>
   <time name="diag">    0.08    0.08</time>
   <time name="diis">    0.55    0.55</time>
   <time name="orth">    0.01    0.01</time>
   <time name="total">    0.68    0.71</time>
   <energy>
    <i name="alphaZ">   1545.39880975 </i>
    <i name="ewald"> -19688.87764864 </i>
    <i name="hartreedc">  -6193.68203349 </i>
    <i name="XCdc">   -363.78774791 </i>
    <i name="pawpsdc">  33475.74415055 </i>
    <i name="pawaedc"> -31795.80559021 </i>
    <i name="eentropy">      0.02072721 </i>
    <i name="bandstr">  -2509.12714390 </i>
    <i name="atom">  25160.16158175 </i>
    <i name="e_fr_energy">   -369.95489490 </i>
    <i name="e_wo_entrp">   -369.97562211 </i>
    <i name="e_0_energy">   -369.96180397 </i>
   </energy>
  </scstep>
  <structure>
   <crystal>
    <varray name="basis" >
     <v>       6.85925845       0.00739910       0.00070627 </v>
     <v>       0.01125657      10.24165878      -0.00872818 </v>
     <v>       0.00118594      -0.00854166      10.25081878 </v>
    </varray>
    <i name="volume">    720.12053753 </i>
    <varray name="rec_basis" >
     <v>       0.14578853      -0.00016025      -0.00001700 </v>
     <v>      -0.00010533       0.09764062       0.00008137 </v>
     <v>      -0.00001013       0.00008315       0.09755325 </v>
    </varray>
   </crystal>
   <varray name="positions" >
    <v>       0.75840443       0.83905402       0.50198472 </v>
    <v>       0.23895263       0.48983287       0.17964350 </v>
    <v>       0.24315499       0.50648605       0.49469188 </v>
    <v>       0.23852948       0.52578942       0.82829528 </v>
    <v>       0.00834520       0.67037394       0.00172313 </v>
    <v>       0.22768060       0.83821472       0.17485689 </v>
    <v>       0.75579754       0.50040437       0.49536922 </v>
    <v>       0.77252791       0.83656092       0.17220088 </v>
    <v>       0.99519344       0.98756778       0.01069311 </v>
    <v>       0.75337933       0.16762278       0.17887407 </v>
    <v>       0.24180328       0.83228573       0.82595816 </v>
    <v>       0.76446116       0.52219866       0.82957554 </v>
    <v>       0.76412994       0.48779348       0.17616879 </v>
    <v>       0.50301376       0.66924773       0.33002498 </v>
    <v>       0.24384613       0.14130082       0.82993482 </v>
    <v>       0.00568556       0.34117275       0.98545522 </v>
    <v>       0.50325947       0.99400797       0.01482534 </v>
    <v>       0.49718554       0.34303477       0.67293484 </v>
    <v>       0.49470604       0.66534566       0.00567121 </v>
    <v>       0.50294758       0.99435188       0.32650278 </v>
    <v>       0.99489813       0.99775048       0.33083846 </v>
    <v>       0.25299890       0.16125104       0.49183783 </v>
    <v>       0.00396286       0.00030210       0.65645616 </v>
    <v>       0.99766487       0.66744813       0.33323625 </v>
    <v>       0.00044853       0.66268237       0.66347547 </v>
    <v>       0.49642936       0.99090473       0.65520291 </v>
    <v>       0.00553652       0.33569381       0.34911400 </v>
    <v>       0.49324419       0.33747631       0.34295070 </v>
    <v>       0.74413395       0.16276284       0.49250136 </v>
    <v>       0.75680631       0.83258663       0.82502218 </v>
    <v>       0.49735692       0.34065236       0.99324582 </v>
    <v>       0.24245510       0.17276831       0.17580468 </v>
    <v>       0.00432657       0.33888880       0.66463929 </v>
    <v>       0.24111267       0.83468267       0.50018898 </v>
    <v>       0.75510003       0.14763651       0.82839603 </v>
    <v>       0.50051810       0.66386861       0.66170049 </v>
   </varray>
  </structure>
  <varray name="forces" >
   <v>       0.19693485       0.20979218      -0.08241405 </v>
   <v>       0.00836880      -0.01190012       0.02047081 </v>
   <v>      -0.22738857      -0.09993247      -0.25862931 </v>
   <v>      -0.33440657       0.05228337       0.19527604 </v>
   <v>       0.01811755       0.00329371       0.04428996 </v>
   <v>      -0.06802037       0.00229095       0.01495254 </v>
   <v>       0.20348113      -0.19505824      -0.22987398 </v>
   <v>       0.07147198       0.01669613      -0.01280398 </v>
   <v>      -0.00168342      -0.00539134       0.10120704 </v>
   <v>      -0.01586129      -0.06488607       0.04165861 </v>
   <v>      -0.13982137       0.05649241       0.05917613 </v>
   <v>       0.33264052      -0.01990460       0.20943843 </v>
   <v>      -0.01782907       0.00505904       0.02776584 </v>
   <v>       0.00469194      -0.03561963       0.11436180 </v>
   <v>      -0.01292018      -0.03214648      -0.01403668 </v>
   <v>       0.00023400      -0.02526827       0.05565334 </v>
   <v>       0.00868164      -0.00425656       0.03600511 </v>
   <v>       0.00273034       0.15201171       0.00781678 </v>
   <v>      -0.03975484      -0.01470607      -0.09085144 </v>
   <v>       0.03460397       0.01684249      -0.06364795 </v>
   <v>      -0.03461662       0.03137968      -0.10279437 </v>
   <v>       0.02147055       0.00120420       0.01304718 </v>
   <v>       0.00195647       0.05170991      -0.00097927 </v>
   <v>      -0.00736225      -0.01030671      -0.04102291 </v>
   <v>       0.00278807      -0.03077284       0.04498906 </v>
   <v>       0.02430781      -0.26370653       0.05758555 </v>
   <v>       0.01941323      -0.00084442      -0.03037763 </v>
   <v>      -0.02070717      -0.00623994      -0.02778578 </v>
   <v>      -0.02970063      -0.00360914       0.02240162 </v>
   <v>       0.18568968       0.08021246       0.06279584 </v>
   <v>       0.00117518       0.02805056      -0.00471676 </v>
   <v>      -0.00900249      -0.00750254       0.02508552 </v>
   <v>       0.00531992      -0.02850693      -0.02472420 </v>
   <v>      -0.20317467       0.13869268      -0.09845827 </v>
   <v>      -0.00796572      -0.02159868      -0.03363854 </v>
   <v>       0.02613758       0.03614610      -0.03722207 </v>
  </varray>
  <varray name="stress" >
   <v>     -14.67660725      -0.04555069       0.24716218 </v>
   <v>      -0.04555073     -18.49674284       0.61754761 </v>
   <v>       0.24716220       0.61754758     -16.64682086 </v>
  </varray>
  <energy>
   <i name="e_fr_energy">   -369.95489490 </i>
   <i name="e_wo_entrp">   -369.96180397 </i>
   <i name="e_0_energy">      0.02072721 </i>
  </energy>
  <time name="totalsc">   15.04   15.99</time>
 </calculation>
 <calculation>
  <scstep>
   <time name="dav">    0.98    0.99</time>
   <time name="total">    1.10    1.24</time>
   <energy>
    <i name="alphaZ">   1550.10719337 </i>
    <i name="ewald"> -19709.78380347 </i>
    <i name="hartreedc">  -6199.13146867 </i>
    <i name="XCdc">   -362.93111359 </i>
    <i name="pawpsdc">  33475.63650096 </i>
    <i name="pawaedc"> -31795.72785321 </i>
    <i name="eentropy">      0.02063294 </i>
    <i name="bandstr">  -2488.33091623 </i>
    <i name="atom">  25160.16158175 </i>
    <i name="e_fr_energy">   -369.97924614 </i>
    <i name="e_wo_entrp">   -369.99987908 </i>
    <i name="e_0_energy">   -369.98612379 </i>
   </energy>
  </scstep>
  <scstep>
   <time name="diag">    0.07    0.08</time>
   <time name="diis">    0.78    0.78</time>
   <time name="orth">    0.01    0.01</time>
   <time name="total">    0.93    0.96</time>
   <energy>
    <i name="e_fr_energy">   -369.96878003 </i>
    <i name="e_wo_entrp">   -369.98982217 </i>
    <i name="e_0_energy">   -369.97579408 </i>
   </energy>
  </scstep>
  <scstep>
   <time name="diag">    0.08    0.08</time>
   <time name="diis">    0.89    0.89</time>
   <time name="orth">    0.01    0.01</time>
   <time name="total">    1.08    1.12</time>
   <energy>
    <i name="e_fr_energy">   -369.96268824 </i>
    <i name="e_wo_entrp">   -369.98371879 </i>
    <i name="e_0_energy">   -369.96969842 </i>
   </energy>
  </scstep>
  <scstep>
   <time name="diag">    0.15    0.19</time>
   <time name="diis">    0.79    0.80</time>
   <time name="orth">    0.01    0.01</time>
   <time name="total">    1.01    1.09</time>
   <energy>
    <i name="e_fr_energy">   -369.95913334 </i>
    <i name="e_wo_entrp">   -369.97971584 </i>
    <i name="e_0_energy">   -369.96599417 </i>
   </energy>
  </scstep>
  <scstep>
   <time name="diag">    0.08    0.08</time>
   <time name="diis">    0.79    0.79</time>
   <time name="orth">    0.01    0.01</time>
   <time name="total">    0.94    0.97</time>
   <energy>
    <i name="e_fr_energy">   -369.95869313 </i>
    <i name="e_wo_entrp">   -369.97969491 </i>
    <i name="e_0_energy">   -369.96569372 </i>
   </energy>
  </scstep>
  <scstep>
   <time name="diag">    0.08    0.08</time>
   <time name="diis">    0.78    0.79</time>
   <time name="orth">    0.01    0.01</time>
   <time name="total">    0.94    0.98</time>
   <energy>
    <i name="e_fr_energy">   -369.95874979 </i>
    <i name="e_wo_entrp">   -369.97955014 </i>
    <i name="e_0_energy">   -369.96568324 </i>
   </energy>
  </scstep>
  <scstep>
   <time name="diag">    0.08    0.08</time>
   <time name="diis">    0.70    0.71</time>
   <time name="orth">    0.01    0.01</time>
   <time name="total">    0.85    0.89</time>
   <energy>
    <i name="e_fr_energy">   -369.95880468 </i>
    <i name="e_wo_entrp">   -369.97961509 </i>
    <i name="e_0_energy">   -369.96574148 </i>
   </energy>
  </scstep>
  <scstep>
   <time name="diag">    0.07    0.07</time>
   <time name="diis">    0.68    0.68</time>
   <time name="orth">    0.01    0.01</time>
   <time name="total">    0.85    0.89</time>
   <energy>
    <i name="e_fr_energy">   -369.95883959 </i>
    <i name="e_wo_entrp">   -369.97966884 </i>
    <i name="e_0_energy">   -369.96578267 </i>
   </energy>
  </scstep>
  <scstep>
   <time name="diag">    0.13    0.13</time>
   <time name="diis">    0.63    0.63</time>
   <time name="orth">    0.01    0.01</time>
   <time name="total">    0.84    0.88</time>
   <energy>
    <i name="e_fr_energy">   -369.95887333 </i>
    <i name="e_wo_entrp">   -369.97970603 </i>
    <i name="e_0_energy">   -369.96581756 </i>
   </energy>
  </scstep>
  <scstep>
   <time name="diag">    0.08    0.08</time>
   <time name="diis">    0.51    0.51</time>
   <time name="orth">    0.01    0.01</time>
   <time name="total">    0.66    0.70</time>
   <energy>
    <i name="e_fr_energy">   -369.95890213 </i>
    <i name="e_wo_entrp">   -369.97974393 </i>
    <i name="e_0_energy">   -369.96584940 </i>
   </energy>
  </scstep>
  <scstep>
   <time name="diag">    0.08    0.08</time>
   <time name="diis">    0.40    0.40</time>
   <time name="orth">    0.01    0.01</time>
   <time name="total">    0.52    0.55</time>
   <energy>
    <i name="alphaZ">   1550.10719337 </i>
    <i name="ewald"> -19709.78380347 </i>
    <i name="hartreedc">  -6186.67609354 </i>
    <i name="XCdc">   -363.45524633 </i>
    <i name="pawpsdc">  33604.68318524 </i>
    <i name="pawaedc"> -31924.80447832 </i>
    <i name="eentropy">      0.02083340 </i>
    <i name="bandstr">  -2500.21208158 </i>
    <i name="atom">  25160.16158175 </i>
    <i name="e_fr_energy">   -369.95890947 </i>
    <i name="e_wo_entrp">   -369.97974287 </i>
    <i name="e_0_energy">   -369.96585394 </i>
   </energy>
  </scstep>
  <structure>
   <crystal>
    <varray name="basis" >
     <v>       6.84938145       0.00710974       0.00055775 </v>
     <v>       0.01081547      10.23520403      -0.00876997 </v>
     <v>       0.00096370      -0.00858638      10.24087282 </v>
    </varray>
    <i name="volume">    717.93320251 </i>
    <varray name="rec_basis" >
     <v>       0.14599875      -0.00015429      -0.00001387 </v>
     <v>      -0.00010142       0.09770219       0.00008193 </v>
     <v>      -0.00000804       0.00008368       0.09764800 </v>
    </varray>
   </crystal>
   <varray name="positions" >
    <v>       0.75793373       0.83871565       0.50218311 </v>
    <v>       0.23896734       0.48983583       0.17963737 </v>
    <v>       0.24364539       0.50671227       0.49506273 </v>
    <v>       0.23928692       0.52593459       0.82789529 </v>
    <v>       0.00836135       0.67043208       0.00170566 </v>
    <v>       0.22768463       0.83821373       0.17486175 </v>
    <v>       0.75538453       0.50068014       0.49567080 </v>
    <v>       0.77251104       0.83653619       0.17222163 </v>
    <v>       0.99517889       0.98757890       0.01066874 </v>
    <v>       0.75338978       0.16763666       0.17888252 </v>
    <v>       0.24221716       0.83207258       0.82574201 </v>
    <v>       0.76367932       0.52243292       0.82916939 </v>
    <v>       0.76412426       0.48779322       0.17614240 </v>
    <v>       0.50299847       0.66927788       0.32993291 </v>
    <v>       0.24389247       0.14131278       0.82992725 </v>
    <v>       0.00571098       0.34114805       0.98546123 </v>
    <v>       0.50325111       0.99401091       0.01482425 </v>
    <v>       0.49716480       0.34291422       0.67292675 </v>
    <v>       0.49472222       0.66535316       0.00573681 </v>
    <v>       0.50294282       0.99437578       0.32652994 </v>
    <v>       0.99492310       0.99775558       0.33084494 </v>
    <v>       0.25303167       0.16123771       0.49183441 </v>
    <v>       0.00397374       0.00029793       0.65647099 </v>
    <v>       0.99768229       0.66746714       0.33325210 </v>
    <v>       0.00045171       0.66267331       0.66349180 </v>
    <v>       0.49638839       0.99114527       0.65514005 </v>
    <v>       0.00553558       0.33567239       0.34908239 </v>
    <v>       0.49323278       0.33747937       0.34296216 </v>
    <v>       0.74411208       0.16274125       0.49249267 </v>
    <v>       0.75638769       0.83238433       0.82484771 </v>
    <v>       0.49734728       0.34064382       0.99326209 </v>
    <v>       0.24247249       0.17277050       0.17581924 </v>
    <v>       0.00433819       0.33889471       0.66464408 </v>
    <v>       0.24153780       0.83444287       0.50036412 </v>
    <v>       0.75509244       0.14762621       0.82839845 </v>
    <v>       0.50044258       0.66380208       0.66190528 </v>
   </varray>
  </structure>
  <varray name="forces" >
   <v>       0.21802718       0.23312474      -0.10270428 </v>
   <v>       0.00541568      -0.01039333       0.01790027 </v>
   <v>      -0.24528570      -0.12173267      -0.27844855 </v>
   <v>      -0.36504092       0.02039100       0.23069189 </v>
   <v>       0.01320148      -0.00752650       0.03928966 </v>
   <v>      -0.05718493       0.00175592       0.01173917 </v>
   <v>       0.21643115      -0.20958437      -0.24291710 </v>
   <v>       0.06150803       0.01817482      -0.01431767 </v>
   <v>       0.00035860      -0.00704551       0.08872327 </v>
   <v>      -0.01464189      -0.05624924       0.03335802 </v>
   <v>      -0.16313850       0.08202975       0.08595705 </v>
   <v>       0.36658931      -0.05524651       0.24347068 </v>
   <v>      -0.01427305       0.00406946       0.02805643 </v>
   <v>       0.00609278      -0.03495036       0.11230332 </v>
   <v>      -0.01591767      -0.02878972      -0.01044753 </v>
   <v>      -0.00284348      -0.01637601       0.04469420 </v>
   <v>       0.00814256      -0.00370639       0.03018214 </v>
   <v>       0.00417592       0.14928004       0.00836131 </v>
   <v>      -0.03483022      -0.01391160      -0.08862334 </v>
   <v>       0.02911869       0.01036656      -0.05769653 </v>
   <v>      -0.03168734       0.02518636      -0.08618199 </v>
   <v>       0.01429408       0.00272671       0.01121178 </v>
   <v>       0.00158640       0.04454186      -0.00347572 </v>
   <v>      -0.00876052      -0.01179537      -0.03738505 </v>
   <v>       0.00213191      -0.02479714       0.03428192 </v>
   <v>       0.02425091      -0.26180706       0.05967236 </v>
   <v>       0.01665081       0.00313357      -0.01918663 </v>
   <v>      -0.01604141      -0.00633310      -0.02493007 </v>
   <v>      -0.02213369       0.00108225       0.01965492 </v>
   <v>       0.20223254       0.09982408       0.08179923 </v>
   <v>       0.00181968       0.02508215      -0.00631332 </v>
   <v>      -0.00940477      -0.00644404       0.01821961 </v>
   <v>       0.00330664      -0.02435819      -0.02131327 </v>
   <v>      -0.21808408       0.15630825      -0.11184012 </v>
   <v>      -0.00578900      -0.01553306      -0.02838045 </v>
   <v>       0.02972283       0.03950266      -0.06540561 </v>
  </varray>
  <varray name="stress" >
   <v>     -10.49136189       0.02110736       0.23823409 </v>
   <v>       0.02110734     -14.76971787       0.52148131 </v>
   <v>       0.23823410       0.52148124     -12.73811926 </v>
  </varray>
  <energy>
   <i name="e_fr_energy">   -369.95890947 </i>
   <i name="e_wo_entrp">   -369.96585394 </i>
   <i name="e_0_energy">      0.02083340 </i>
  </energy>
  <time name="totalsc">   11.29   11.95</time>
 </calculation>
 <calculation>
  <scstep>
   <time name="dav">    0.99    1.00</time>
   <time name="total">    1.09    1.25</time>
   <energy>
    <i name="alphaZ">   1552.35607871 </i>
    <i name="ewald"> -19718.02106116 </i>
    <i name="hartreedc">  -6190.84693806 </i>
    <i name="XCdc">   -363.02322777 </i>
    <i name="pawpsdc">  33605.09995630 </i>
    <i name="pawaedc"> -31925.15865671 </i>
    <i name="eentropy">      0.02035380 </i>
    <i name="bandstr">  -2490.58464237 </i>
    <i name="atom">  25160.16158175 </i>
    <i name="e_fr_energy">   -369.99655550 </i>
    <i name="e_wo_entrp">   -370.01690931 </i>
    <i name="e_0_energy">   -370.00334010 </i>
   </energy>
  </scstep>
  <scstep>
   <time name="diag">    0.08    0.08</time>
   <time name="diis">    0.79    0.80</time>
   <time name="orth">    0.01    0.01</time>
   <time name="total">    0.95    0.98</time>
   <energy>
    <i name="e_fr_energy">   -369.99617707 </i>
    <i name="e_wo_entrp">   -370.01571024 </i>
    <i name="e_0_energy">   -370.00268813 </i>
   </energy>
  </scstep>
  <scstep>
   <time name="diag">    0.08    0.08</time>
   <time name="diis">    0.86    0.87</time>
   <time name="orth">    0.01    0.01</time>
   <time name="total">    1.02    1.05</time>
   <energy>
    <i name="e_fr_energy">   -369.99409917 </i>
    <i name="e_wo_entrp">   -370.01443371 </i>
    <i name="e_0_energy">   -370.00087735 </i>
   </energy>
  </scstep>
  <scstep>
   <time name="diag">    0.07    0.07</time>
   <time name="diis">    0.89    0.91</time>
   <time name="orth">    0.01    0.01</time>
   <time name="total">    1.05    1.10</time>
   <energy>
    <i name="e_fr_energy">   -369.99312886 </i>
    <i name="e_wo_entrp">   -370.01318734 </i>
    <i name="e_0_energy">   -369.99981502 </i>
   </energy>
  </scstep>
  <scstep>
   <time name="diag">    0.07    0.08</time>
   <time name="diis">    0.79    0.80</time>
   <time name="orth">    0.01    0.01</time>
   <time name="total">    0.94    0.98</time>
   <energy>
    <i name="e_fr_energy">   -369.99292806 </i>
    <i name="e_wo_entrp">   -370.01292837 </i>
    <i name="e_0_energy">   -369.99959483 </i>
   </energy>
  </scstep>
  <scstep>
   <time name="diag">    0.07    0.08</time>
   <time name="diis">    0.81    0.81</time>
   <time name="orth">    0.01    0.01</time>
   <time name="total">    0.99    1.02</time>
   <energy>
    <i name="e_fr_energy">   -369.99294669 </i>
    <i name="e_wo_entrp">   -370.01297546 </i>
    <i name="e_0_energy">   -369.99962295 </i>
   </energy>
  </scstep>
  <scstep>
   <time name="diag">    0.09    0.09</time>
   <time name="diis">    0.65    0.65</time>
   <time name="orth">    0.01    0.01</time>
   <time name="total">    0.81    0.85</time>
   <energy>
    <i name="e_fr_energy">   -369.99294936 </i>
    <i name="e_wo_entrp">   -370.01296935 </i>
    <i name="e_0_energy">   -369.99962269 </i>
   </energy>
  </scstep>
  <scstep>
   <time name="diag">    0.08    0.08</time>
   <time name="diis">    0.63    0.63</time>
   <time name="orth">    0.01    0.01</time>
   <time name="total">    0.78    0.82</time>
   <energy>
    <i name="e_fr_energy">   -369.99296461 </i>
    <i name="e_wo_entrp">   -370.01295755 </i>
    <i name="e_0_energy">   -369.99962892 </i>
   </energy>
  </scstep>
  <scstep>
   <time name="diag">    0.08    0.08</time>
   <time name="diis">    0.47    0.48</time>
   <time name="orth">    0.01    0.01</time>
   <time name="total">    0.60    0.63</time>
   <energy>
    <i name="alphaZ">   1552.35607871 </i>
    <i name="ewald"> -19718.02106116 </i>
    <i name="hartreedc">  -6185.32231731 </i>
    <i name="XCdc">   -363.25771784 </i>
    <i name="pawpsdc">  33669.64419735 </i>
    <i name="pawaedc"> -31989.60260839 </i>
    <i name="eentropy">      0.02001573 </i>
    <i name="bandstr">  -2495.97114310 </i>
    <i name="atom">  25160.16158175 </i>
    <i name="e_fr_energy">   -369.99297426 </i>
    <i name="e_wo_entrp">   -370.01298999 </i>
    <i name="e_0_energy">   -369.99964617 </i>
   </energy>
  </scstep>
  <structure>
   <crystal>
    <varray name="basis" >
     <v>       6.85095936       0.00741802       0.00091202 </v>
     <v>       0.01129024      10.22352063      -0.00806240 </v>
     <v>       0.00149294      -0.00787385      10.23536527 </v>
    </varray>
    <i name="volume">    716.89313865 </i>
    <varray name="rec_basis" >
     <v>       0.14596514      -0.00016121      -0.00002141 </v>
     <v>      -0.00010592       0.09781384       0.00007526 </v>
     <v>      -0.00001309       0.00007706       0.09770053 </v>
    </varray>
   </crystal>
   <varray name="positions" >
    <v>       0.75873424       0.83928973       0.50187900 </v>
    <v>       0.23895979       0.48982283       0.17966083 </v>
    <v>       0.24278534       0.50636088       0.49441123 </v>
    <v>       0.23797791       0.52580377       0.82853141 </v>
    <v>       0.00836341       0.67036449       0.00176134 </v>
    <v>       0.22759876       0.83821650       0.17486792 </v>
    <v>       0.75612342       0.50019292       0.49512513 </v>
    <v>       0.77261640       0.83657918       0.17218639 </v>
    <v>       0.99519453       0.98756069       0.01077881 </v>
    <v>       0.75335808       0.16756852       0.17890556 </v>
    <v>       0.24155369       0.83237266       0.82604885 </v>
    <v>       0.76501591       0.52213658       0.82982403 </v>
    <v>       0.76410977       0.48779741       0.17619663 </v>
    <v>       0.50302311       0.66921323       0.33013584 </v>
    <v>       0.24382159       0.14127284       0.82992512 </v>
    <v>       0.00568050       0.34115811       0.98549766 </v>
    <v>       0.50327143       0.99400433       0.01485421 </v>
    <v>       0.49719211       0.34318214       0.67294327 </v>
    <v>       0.49465568       0.66533204       0.00558397 </v>
    <v>       0.50298935       0.99436078       0.32644661 </v>
    <v>       0.99485185       0.99777431       0.33075591 </v>
    <v>       0.25301800       0.16125416       0.49184868 </v>
    <v>       0.00396463       0.00034483       0.65645230 </v>
    <v>       0.99765168       0.66743610       0.33319991 </v>
    <v>       0.00045148       0.66265905       0.66350755 </v>
    <v>       0.49646600       0.99064516       0.65526217 </v>
    <v>       0.00556033       0.33569760       0.34909692 </v>
    <v>       0.49322175       0.33747014       0.34292644 </v>
    <v>       0.74410322       0.16276476       0.49252048 </v>
    <v>       0.75711167       0.83268981       0.82510725 </v>
    <v>       0.49735987       0.34067666       0.99323917 </v>
    <v>       0.24244099       0.17276209       0.17582150 </v>
    <v>       0.00433087       0.33886527       0.66461873 </v>
    <v>       0.24078407       0.83484152       0.50007540 </v>
    <v>       0.75509209       0.14762205       0.82836882 </v>
    <v>       0.50056350       0.66390888       0.66162999 </v>
   </varray>
  </structure>
  <varray name="forces" >
   <v>       0.17609180       0.17825704      -0.07819287 </v>
   <v>       0.02302117      -0.00036724       0.00283632 </v>
   <v>      -0.20335661      -0.09246631      -0.23527070 </v>
   <v>      -0.29447502       0.03572737       0.18508154 </v>
   <v>       0.00919492       0.00514611       0.05698926 </v>
   <v>      -0.03317593      -0.00970557       0.00965277 </v>
   <v>       0.18121688      -0.17994601      -0.20950762 </v>
   <v>       0.03504805       0.00131556      -0.01490602 </v>
   <v>       0.00053642       0.02277172       0.08453816 </v>
   <v>      -0.01860897      -0.05392821       0.02459378 </v>
   <v>      -0.11216374       0.04889285       0.05502887 </v>
   <v>       0.29207236      -0.02828503       0.19728179 </v>
   <v>      -0.03226752       0.01100121       0.01317478 </v>
   <v>       0.00492183      -0.03301078       0.11016771 </v>
   <v>      -0.00147134      -0.01780745      -0.01161034 </v>
   <v>      -0.00159487      -0.04563120       0.06053711 </v>
   <v>       0.00352016       0.00162018       0.01956097 </v>
   <v>       0.00305123       0.13641682       0.01444631 </v>
   <v>      -0.02975750      -0.01090486      -0.08242230 </v>
   <v>       0.02642993       0.02028103      -0.05607120 </v>
   <v>      -0.02629878       0.04567723      -0.09074639 </v>
   <v>       0.02865386       0.00628603       0.02443315 </v>
   <v>      -0.00064164       0.06449346       0.00555240 </v>
   <v>      -0.00873969      -0.01194750      -0.03837471 </v>
   <v>      -0.00107195      -0.01593299       0.03544589 </v>
   <v>       0.02743329      -0.25036186       0.06318985 </v>
   <v>       0.01092586      -0.01567656      -0.04492458 </v>
   <v>      -0.01463431      -0.01723027      -0.03172984 </v>
   <v>      -0.03409757       0.00258340       0.03641247 </v>
   <v>       0.16201330       0.07275619       0.06090511 </v>
   <v>       0.00295890       0.02080235      -0.00560093 </v>
   <v>      -0.00453813      -0.00685745       0.01326696 </v>
   <v>       0.00567149      -0.04335867      -0.01827843 </v>
   <v>      -0.18408809       0.12245795      -0.09422583 </v>
   <v>      -0.01838206      -0.00619909      -0.02834915 </v>
   <v>       0.02660228       0.04313054      -0.03288429 </v>
  </varray>
  <varray name="stress" >
   <v>      -8.50637207      -0.06544724       0.22510451 </v>
   <v>      -0.06544724     -11.89619483       0.59796997 </v>
   <v>       0.22510447       0.59797000     -10.26850755 </v>
  </varray>
  <energy>
   <i name="e_fr_energy">   -369.99297426 </i>
   <i name="e_wo_entrp">   -369.99964617 </i>
   <i name="e_0_energy">      0.02001573 </i>
  </energy>
  <time name="totalsc">    9.80   10.38</time>
 </calculation>
 <calculation>
  <scstep>
   <time name="dav">    0.94    0.95</time>
   <time name="total">    1.07    1.22</time>
   <energy>
    <i name="alphaZ">   1559.13795015 </i>
    <i name="ewald"> -19742.30363266 </i>
    <i name="hartreedc">  -6197.97664909 </i>
    <i name="XCdc">   -361.97083504 </i>
    <i name="pawpsdc">  33669.81102009 </i>
    <i name="pawaedc"> -31989.72699360 </i>
    <i name="eentropy">      0.01742887 </i>
    <i name="bandstr">  -2467.23365550 </i>
    <i name="atom">  25160.16158175 </i>
    <i name="e_fr_energy">   -370.08378502 </i>
    <i name="e_wo_entrp">   -370.10121389 </i>
    <i name="e_0_energy">   -370.08959465 </i>
   </energy>
  </scstep>
  <scstep>
   <time name="diag">    0.08    0.09</time>
   <time name="diis">    0.77    0.78</time>
   <time name="orth">    0.01    0.01</time>
   <time name="total">    0.92    0.99</time>
   <energy>
    <i name="e_fr_energy">   -370.08271821 </i>
    <i name="e_wo_entrp">   -370.09821054 </i>
    <i name="e_0_energy">   -370.08788232 </i>
   </energy>
  </scstep>
  <scstep>
   <time name="diag">    0.08    0.08</time>
   <time name="diis">    0.79    0.79</time>
   <time name="orth">    0.01    0.01</time>
   <time name="total">    0.95    0.99</time>
   <energy>
    <i name="e_fr_energy">   -370.06249977 </i>
    <i name="e_wo_entrp">   -370.08000374 </i>
    <i name="e_0_energy">   -370.06833443 </i>
   </energy>
  </scstep>
  <scstep>
   <time name="diag">    0.07    0.08</time>
   <time name="diis">    0.81    0.82</time>
   <time name="orth">    0.01    0.01</time>
   <time name="total">    0.97    1.02</time>
   <energy>
    <i name="e_fr_energy">   -370.05385665 </i>
    <i name="e_wo_entrp">   -370.07068683 </i>
    <i name="e_0_energy">   -370.05946671 </i>
   </energy>
  </scstep>
  <scstep>
   <time name="diag">    0.08    0.08</time>
   <time name="diis">    0.82    0.82</time>
   <time name="orth">    0.01    0.01</time>
   <time name="total">    0.98    1.01</time>
   <energy>
    <i name="e_fr_energy">   -370.05205160 </i>
    <i name="e_wo_entrp">   -370.06884247 </i>
    <i name="e_0_energy">   -370.05764856 </i>
   </energy>
  </scstep>
  <scstep>
   <time name="diag">    0.08    0.08</time>
   <time name="diis">    0.88    0.88</time>
   <time name="orth">    0.01    0.01</time>
   <time name="total">    1.04    1.07</time>
   <energy>
    <i name="e_fr_energy">   -370.05213850 </i>
    <i name="e_wo_entrp">   -370.06893857 </i>
    <i name="e_0_energy">   -370.05773852 </i>
   </energy>
  </scstep>
  <scstep>
   <time name="diag">    0.07    0.07</time>
   <time name="diis">    0.81    0.82</time>
   <time name="orth">    0.01    0.01</time>
   <time name="total">    0.96    1.00</time>
   <energy>
    <i name="e_fr_energy">   -370.05210917 </i>
    <i name="e_wo_entrp">   -370.06890266 </i>
    <i name="e_0_energy">   -370.05770700 </i>
   </energy>
  </scstep>
  <scstep>
[...]
       <r>    6.7963    1.0000 </r>
       <r>    6.8767    1.0000 </r>
       <r>    6.9264    1.0000 </r>
       <r>    6.9591    1.0000 </r>
       <r>    6.9917    1.0000 </r>
       <r>    7.0374    1.0000 </r>
       <r>    7.0858    1.0000 </r>
       <r>    7.1026    1.0001 </r>
       <r>    7.1551    1.0004 </r>
       <r>    7.2151    1.0024 </r>
       <r>    7.2330    1.0038 </r>
       <r>    7.2760    1.0101 </r>
       <r>    7.2992    1.0156 </r>
       <r>    7.3413    1.0281 </r>
       <r>    7.3555    1.0320 </r>
       <r>    7.4066    1.0299 </r>
       <r>    7.4293    1.0119 </r>
       <r>    7.4517    0.9771 </r>
       <r>    7.4747    0.9201 </r>
       <r>    7.4928    0.8586 </r>
       <r>    7.5558    0.5500 </r>
       <r>    7.5940    0.3383 </r>
       <r>    7.6135    0.2404 </r>
       <r>    7.6538    0.0829 </r>
       <r>    7.6859    0.0081 </r>
       <r>    7.7272   -0.0317 </r>
       <r>    7.7422   -0.0352 </r>
       <r>    7.8081   -0.0220 </r>
       <r>    7.8328   -0.0149 </r>
       <r>    7.8635   -0.0082 </r>
       <r>    7.9081   -0.0028 </r>
       <r>    7.9246   -0.0018 </r>
       <r>    7.9641   -0.0005 </r>
       <r>    8.0021   -0.0001 </r>
       <r>    8.0614   -0.0000 </r>
       <r>    8.1027   -0.0000 </r>
       <r>    8.1825   -0.0000 </r>
       <r>    8.2333   -0.0000 </r>
       <r>    8.2999   -0.0000 </r>
       <r>    8.3704   -0.0000 </r>
       <r>    8.3908   -0.0000 </r>
       <r>    8.6483   -0.0000 </r>
       <r>    8.7842   -0.0000 </r>
       <r>    8.8654   -0.0000 </r>
       <r>    9.4796   -0.0000 </r>
       <r>    9.5092   -0.0000 </r>
       <r>    9.5868   -0.0000 </r>
       <r>    9.6261   -0.0000 </r>
       <r>    9.7491   -0.0000 </r>
      </set>
     </set>
    </set>
   </array>
  </eigenvalues>
  <separator name="orbital magnetization" >
   <v name="MAGDIPOLOUT">      0.00000000      0.00000000      0.00000000</v>
  </separator>
  <dos>
   <i name="efermi">      7.56473561 </i>
   <total>
    <array>
     <dimension dim="1">gridpoints</dimension>
     <dimension dim="2">spin</dimension>
     <field>energy</field>
     <field>total</field>
     <field>integrated</field>
     <set>
      <set comment="spin 1">
       <r>   -49.5513     0.0000     0.0000 </r>
       <r>   -49.3442     0.0000     0.0000 </r>
       <r>   -49.1371     0.0000     0.0000 </r>
       <r>   -48.9300     0.0000     0.0000 </r>
       <r>   -48.7230     0.0000     0.0000 </r>
       <r>   -48.5159     0.0000     0.0000 </r>
       <r>   -48.3088     0.0000     0.0000 </r>
       <r>   -48.1017    -0.0000    -0.0000 </r>
       <r>   -47.8946    -0.0000    -0.0000 </r>
       <r>   -47.6876    -0.0000    -0.0000 </r>
       <r>   -47.4805    -0.0000    -0.0000 </r>
       <r>   -47.2734    -0.0000    -0.0000 </r>
       <r>   -47.0663    -0.0403    -0.0083 </r>
       <r>   -46.8592    -0.5598    -0.1243 </r>
       <r>   -46.6522    15.3868     3.0620 </r>
       <r>   -46.4451    54.6073    14.3701 </r>
       <r>   -46.2380    18.8041    18.2641 </r>
       <r>   -46.0309    -1.2646    18.0023 </r>
       <r>   -45.8238    -0.0109    18.0000 </r>
       <r>   -45.6167    -0.0000    18.0000 </r>
       <r>   -45.4097    -0.0000    18.0000 </r>
       <r>   -45.2026     0.0000    18.0000 </r>
       <r>   -44.9955     0.0000    18.0000 </r>
       <r>   -44.7884     0.0000    18.0000 </r>
       <r>   -44.5813     0.0000    18.0000 </r>
       <r>   -44.3743     0.0000    18.0000 </r>
       <r>   -44.1672     0.0000    18.0000 </r>
       <r>   -43.9601     0.0000    18.0000 </r>
       <r>   -43.7530     0.0000    18.0000 </r>
       <r>   -43.5459     0.0000    18.0000 </r>
       <r>   -43.3389     0.0000    18.0000 </r>
       <r>   -43.1318     0.0000    18.0000 </r>
       <r>   -42.9247     0.0000    18.0000 </r>
       <r>   -42.7176     0.0000    18.0000 </r>
       <r>   -42.5105     0.0000    18.0000 </r>
       <r>   -42.3035     0.0000    18.0000 </r>
       <r>   -42.0964     0.0000    18.0000 </r>
       <r>   -41.8893    -0.0000    18.0000 </r>
       <r>   -41.6822    -0.0000    18.0000 </r>
       <r>   -41.4751    -0.0000    18.0000 </r>
       <r>   -41.2681    -0.0000    18.0000 </r>
       <r>   -41.0610    -0.0059    17.9988 </r>
       <r>   -40.8539    -0.6838    17.8572 </r>
       <r>   -40.6468     8.7230    19.6636 </r>
       <r>   -40.4397    54.2982    30.9077 </r>
       <r>   -40.2327     5.8253    32.1140 </r>
       <r>   -40.0256    -0.5492    32.0002 </r>
       <r>   -39.8185    -0.0012    32.0000 </r>
       <r>   -39.6114    -0.0000    32.0000 </r>
       <r>   -39.4043    -0.0000    32.0000 </r>
       <r>   -39.1973     0.0000    32.0000 </r>
       <r>   -38.9902     0.0000    32.0000 </r>
       <r>   -38.7831     0.0000    32.0000 </r>
       <r>   -38.5760     0.0000    32.0000 </r>
       <r>   -38.3689     0.0000    32.0000 </r>
       <r>   -38.1618     0.0000    32.0000 </r>
       <r>   -37.9548     0.0000    32.0000 </r>
       <r>   -37.7477     0.0000    32.0000 </r>
       <r>   -37.5406     0.0000    32.0000 </r>
       <r>   -37.3335     0.0000    32.0000 </r>
       <r>   -37.1264     0.0000    32.0000 </r>
       <r>   -36.9194     0.0000    32.0000 </r>
       <r>   -36.7123     0.0000    32.0000 </r>
       <r>   -36.5052     0.0000    32.0000 </r>
       <r>   -36.2981     0.0000    32.0000 </r>
       <r>   -36.0910     0.0000    32.0000 </r>
       <r>   -35.8840     0.0000    32.0000 </r>
       <r>   -35.6769     0.0000    32.0000 </r>
       <r>   -35.4698     0.0000    32.0000 </r>
       <r>   -35.2627     0.0000    32.0000 </r>
       <r>   -35.0556     0.0000    32.0000 </r>
       <r>   -34.8486     0.0000    32.0000 </r>
       <r>   -34.6415     0.0000    32.0000 </r>
       <r>   -34.4344     0.0000    32.0000 </r>
       <r>   -34.2273     0.0000    32.0000 </r>
       <r>   -34.0202     0.0000    32.0000 </r>
       <r>   -33.8132     0.0000    32.0000 </r>
       <r>   -33.6061     0.0000    32.0000 </r>
       <r>   -33.3990     0.0000    32.0000 </r>
       <r>   -33.1919     0.0000    32.0000 </r>
       <r>   -32.9848     0.0000    32.0000 </r>
       <r>   -32.7778     0.0000    32.0000 </r>
       <r>   -32.5707     0.0000    32.0000 </r>
       <r>   -32.3636     0.0000    32.0000 </r>
       <r>   -32.1565     0.0000    32.0000 </r>
       <r>   -31.9494     0.0000    32.0000 </r>
       <r>   -31.7423     0.0000    32.0000 </r>
       <r>   -31.5353     0.0000    32.0000 </r>
       <r>   -31.3282     0.0000    32.0000 </r>
       <r>   -31.1211     0.0000    32.0000 </r>
       <r>   -30.9140     0.0000    32.0000 </r>
       <r>   -30.7069     0.0000    32.0000 </r>
       <r>   -30.4999     0.0000    32.0000 </r>
       <r>   -30.2928     0.0000    32.0000 </r>
       <r>   -30.0857     0.0000    32.0000 </r>
       <r>   -29.8786     0.0000    32.0000 </r>
       <r>   -29.6715     0.0000    32.0000 </r>
       <r>   -29.4645     0.0000    32.0000 </r>
       <r>   -29.2574     0.0000    32.0000 </r>
       <r>   -29.0503     0.0000    32.0000 </r>
       <r>   -28.8432     0.0000    32.0000 </r>
       <r>   -28.6361     0.0000    32.0000 </r>
       <r>   -28.4291     0.0000    32.0000 </r>
       <r>   -28.2220     0.0000    32.0000 </r>
       <r>   -28.0149     0.0000    32.0000 </r>
       <r>   -27.8078     0.0000    32.0000 </r>
       <r>   -27.6007     0.0000    32.0000 </r>
       <r>   -27.3937     0.0000    32.0000 </r>
       <r>   -27.1866     0.0000    32.0000 </r>
       <r>   -26.9795     0.0000    32.0000 </r>
       <r>   -26.7724     0.0000    32.0000 </r>
       <r>   -26.5653     0.0000    32.0000 </r>
       <r>   -26.3583     0.0000    32.0000 </r>
       <r>   -26.1512     0.0000    32.0000 </r>
       <r>   -25.9441     0.0000    32.0000 </r>
       <r>   -25.7370     0.0000    32.0000 </r>
       <r>   -25.5299     0.0000    32.0000 </r>
       <r>   -25.3228     0.0000    32.0000 </r>
       <r>   -25.1158     0.0000    32.0000 </r>
       <r>   -24.9087     0.0000    32.0000 </r>
       <r>   -24.7016     0.0000    32.0000 </r>
       <r>   -24.4945     0.0000    32.0000 </r>
       <r>   -24.2874    -0.0000    32.0000 </r>
       <r>   -24.0804    -0.0000    32.0000 </r>
       <r>   -23.8733    -0.0000    32.0000 </r>
       <r>   -23.6662    -0.0000    32.0000 </r>
       <r>   -23.4591    -0.0132    31.9973 </r>
       <r>   -23.2520    -0.7435    31.8433 </r>
       <r>   -23.0450    12.6956    34.4723 </r>
       <r>   -22.8379    23.0406    39.2436 </r>
       <r>   -22.6308   117.2608    63.5260 </r>
       <r>   -22.4237   100.0516    84.2448 </r>
       <r>   -22.2166     9.1996    86.1498 </r>
       <r>   -22.0096    -0.7030    86.0042 </r>
       <r>   -21.8025    -0.0204    86.0000 </r>
       <r>   -21.5954    -0.0000    86.0000 </r>
       <r>   -21.3883    -0.0000    86.0000 </r>
       <r>   -21.1812     0.0000    86.0000 </r>
       <r>   -20.9742     0.0000    86.0000 </r>
       <r>   -20.7671     0.0000    86.0000 </r>
       <r>   -20.5600     0.0000    86.0000 </r>
       <r>   -20.3529    -0.0000    86.0000 </r>
       <r>   -20.1458    -0.0000    86.0000 </r>
       <r>   -19.9388    -0.0000    86.0000 </r>
       <r>   -19.7317    -0.0000    86.0000 </r>
       <r>   -19.5246    -0.0002    86.0000 </r>
       <r>   -19.3175    -0.1205    85.9750 </r>
       <r>   -19.1104     0.5523    86.0894 </r>
       <r>   -18.9033    18.8898    90.0011 </r>
       <r>   -18.6963    63.9967   103.2536 </r>
       <r>   -18.4892    89.9267   121.8757 </r>
       <r>   -18.2821    27.9122   127.6557 </r>
       <r>   -18.0750     1.9043   128.0501 </r>
       <r>   -17.8679    -0.2412   128.0001 </r>
       <r>   -17.6609    -0.0007   128.0000 </r>
       <r>   -17.4538    -0.0000   128.0000 </r>
       <r>   -17.2467    -0.0000   128.0000 </r>
       <r>   -17.0396     0.0000   128.0000 </r>
       <r>   -16.8325     0.0000   128.0000 </r>
       <r>   -16.6255     0.0000   128.0000 </r>
       <r>   -16.4184     0.0000   128.0000 </r>
       <r>   -16.2113     0.0000   128.0000 </r>
       <r>   -16.0042     0.0000   128.0000 </r>
       <r>   -15.7971     0.0000   128.0000 </r>
       <r>   -15.5901     0.0000   128.0000 </r>
       <r>   -15.3830     0.0000   128.0000 </r>
       <r>   -15.1759     0.0000   128.0000 </r>
       <r>   -14.9688     0.0000   128.0000 </r>
       <r>   -14.7617     0.0000   128.0000 </r>
       <r>   -14.5547     0.0000   128.0000 </r>
       <r>   -14.3476     0.0000   128.0000 </r>
       <r>   -14.1405     0.0000   128.0000 </r>
       <r>   -13.9334     0.0000   128.0000 </r>
       <r>   -13.7263     0.0000   128.0000 </r>
       <r>   -13.5193     0.0000   128.0000 </r>
       <r>   -13.3122     0.0000   128.0000 </r>
       <r>   -13.1051     0.0000   128.0000 </r>
       <r>   -12.8980     0.0000   128.0000 </r>
       <r>   -12.6909     0.0000   128.0000 </r>
       <r>   -12.4838     0.0000   128.0000 </r>
       <r>   -12.2768     0.0000   128.0000 </r>
       <r>   -12.0697     0.0000   128.0000 </r>
       <r>   -11.8626     0.0000   128.0000 </r>
       <r>   -11.6555     0.0000   128.0000 </r>
       <r>   -11.4484     0.0000   128.0000 </r>
       <r>   -11.2414     0.0000   128.0000 </r>
       <r>   -11.0343     0.0000   128.0000 </r>
       <r>   -10.8272     0.0000   128.0000 </r>
       <r>   -10.6201     0.0000   128.0000 </r>
       <r>   -10.4130     0.0000   128.0000 </r>
       <r>   -10.2060     0.0000   128.0000 </r>
       <r>    -9.9989     0.0000   128.0000 </r>
       <r>    -9.7918     0.0000   128.0000 </r>
       <r>    -9.5847     0.0000   128.0000 </r>
       <r>    -9.3776     0.0000   128.0000 </r>
       <r>    -9.1706     0.0000   128.0000 </r>
       <r>    -8.9635     0.0000   128.0000 </r>
       <r>    -8.7564     0.0000   128.0000 </r>
       <r>    -8.5493     0.0000   128.0000 </r>
       <r>    -8.3422     0.0000   128.0000 </r>
       <r>    -8.1352     0.0000   128.0000 </r>
       <r>    -7.9281     0.0000   128.0000 </r>
       <r>    -7.7210     0.0000   128.0000 </r>
       <r>    -7.5139     0.0000   128.0000 </r>
       <r>    -7.3068     0.0000   128.0000 </r>
       <r>    -7.0998     0.0000   128.0000 </r>
       <r>    -6.8927     0.0000   128.0000 </r>
       <r>    -6.6856     0.0000   128.0000 </r>
       <r>    -6.4785     0.0000   128.0000 </r>
       <r>    -6.2714     0.0000   128.0000 </r>
       <r>    -6.0643     0.0000   128.0000 </r>
       <r>    -5.8573     0.0000   128.0000 </r>
       <r>    -5.6502     0.0000   128.0000 </r>
       <r>    -5.4431     0.0000   128.0000 </r>
       <r>    -5.2360     0.0000   128.0000 </r>
       <r>    -5.0289     0.0000   128.0000 </r>
       <r>    -4.8219     0.0000   128.0000 </r>
       <r>    -4.6148     0.0000   128.0000 </r>
       <r>    -4.4077     0.0000   128.0000 </r>
       <r>    -4.2006     0.0000   128.0000 </r>
       <r>    -3.9935     0.0000   128.0000 </r>
       <r>    -3.7865     0.0000   128.0000 </r>
       <r>    -3.5794     0.0000   128.0000 </r>
       <r>    -3.3723     0.0000   128.0000 </r>
       <r>    -3.1652     0.0000   128.0000 </r>
       <r>    -2.9581     0.0000   128.0000 </r>
       <r>    -2.7511     0.0000   128.0000 </r>
       <r>    -2.5440     0.0000   128.0000 </r>
       <r>    -2.3369     0.0000   128.0000 </r>
       <r>    -2.1298     0.0000   128.0000 </r>
       <r>    -1.9227     0.0000   128.0000 </r>
       <r>    -1.7157     0.0000   128.0000 </r>
       <r>    -1.5086     0.0000   128.0000 </r>
       <r>    -1.3015     0.0000   128.0000 </r>
       <r>    -1.0944     0.0000   128.0000 </r>
       <r>    -0.8873     0.0000   128.0000 </r>
       <r>    -0.6803     0.0000   128.0000 </r>
       <r>    -0.4732    -0.0000   128.0000 </r>
       <r>    -0.2661    -0.0000   128.0000 </r>
       <r>    -0.0590    -0.0000   128.0000 </r>
       <r>     0.1481    -0.0000   128.0000 </r>
       <r>     0.3552    -0.0004   127.9999 </r>
       <r>     0.5622    -0.0127   127.9973 </r>
       <r>     0.7693     0.2096   128.0407 </r>
       <r>     0.9764     0.9041   128.2279 </r>
       <r>     1.1835     1.5018   128.5389 </r>
       <r>     1.3906     1.7830   128.9082 </r>
       <r>     1.5976     3.0871   129.5475 </r>
       <r>     1.8047     4.4289   130.4646 </r>
       <r>     2.0118     1.5837   130.7926 </r>
       <r>     2.2189     4.8697   131.8010 </r>
       <r>     2.4260     3.2705   132.4783 </r>
       <r>     2.6330     3.4379   133.1902 </r>
       <r>     2.8401     6.3710   134.5095 </r>
       <r>     3.0472     8.2507   136.2180 </r>
       <r>     3.2543     8.3215   137.9413 </r>
       <r>     3.4614     8.5798   139.7180 </r>
       <r>     3.6684    10.8879   141.9726 </r>
       <r>     3.8755    17.0630   145.5060 </r>
       <r>     4.0826    22.9643   150.2615 </r>
       <r>     4.2897    23.9680   155.2248 </r>
       <r>     4.4968    26.1473   160.6394 </r>
       <r>     4.7038    31.5514   167.1731 </r>
       <r>     4.9109    35.5545   174.5358 </r>
       <r>     5.1180    38.4175   182.4913 </r>
       <r>     5.3251    38.4165   190.4466 </r>
       <r>     5.5322    34.0902   197.5060 </r>
       <r>     5.7392    33.8997   204.5260 </r>
       <r>     5.9463    18.2660   208.3085 </r>
       <r>     6.1534    24.9582   213.4769 </r>
       <r>     6.3605    64.5917   226.8526 </r>
       <r>     6.5676    63.3408   239.9692 </r>
       <r>     6.7747    53.1336   250.9722 </r>
       <r>     6.9817    50.8728   261.5069 </r>
       <r>     7.1888    53.3969   272.5644 </r>
       <r>     7.3959    56.6701   284.2997 </r>
       <r>     7.6030    50.4728   294.7516 </r>
       <r>     7.8101    47.4129   304.5699 </r>
       <r>     8.0171    51.7092   315.2779 </r>
       <r>     8.2242    36.8008   322.8986 </r>
       <r>     8.4313    30.0382   329.1189 </r>
       <r>     8.6384    20.0411   333.2691 </r>
       <r>     8.8455    18.9673   337.1968 </r>
       <r>     9.0525    12.2441   339.7323 </r>
       <r>     9.2596    15.6243   342.9678 </r>
       <r>     9.4667    23.9418   347.9257 </r>
       <r>     9.6738    16.1411   351.2682 </r>
       <r>     9.8809     3.7853   352.0521 </r>
       <r>    10.0879    -0.2471   352.0009 </r>
       <r>    10.2950    -0.0043   352.0000 </r>
       <r>    10.5021    -0.0000   352.0000 </r>
       <r>    10.7092    -0.0000   352.0000 </r>
       <r>    10.9163     0.0000   352.0000 </r>
       <r>    11.1233     0.0000   352.0000 </r>
       <r>    11.3304     0.0000   352.0000 </r>
       <r>    11.5375     0.0000   352.0000 </r>
       <r>    11.7446     0.0000   352.0000 </r>
       <r>    11.9517     0.0000   352.0000 </r>
       <r>    12.1587     0.0000   352.0000 </r>
       <r>    12.3658     0.0000   352.0000 </r>
       <r>    12.5729     0.0000   352.0000 </r>
      </set>
     </set>
    </array>
   </total>
  </dos>
 </calculation>
 <structure name="finalpos" >
  <crystal>
   <varray name="basis" >
    <v>       6.86382619      -0.00499799       0.00970998 </v>
    <v>      -0.00702856      10.15110664       0.01114779 </v>
    <v>       0.01457493       0.01136112      10.22685449 </v>
   </varray>
   <i name="volume">    712.55783356 </i>
   <varray name="rec_basis" >
    <v>       0.14569170       0.00010110      -0.00020775 </v>
    <v>       0.00007189       0.09851160      -0.00010954 </v>
    <v>      -0.00013841      -0.00010748       0.09778209 </v>
   </varray>
  </crystal>
  <varray name="positions" >
   <v>       0.76746595       0.84049669       0.50083623 </v>
   <v>       0.24108936       0.49150601       0.17742632 </v>
   <v>       0.23262548       0.50409389       0.49023905 </v>
   <v>       0.22852497       0.52570844       0.83386894 </v>
   <v>       0.00985953       0.67256016       0.00489083 </v>
   <v>       0.22979705       0.83895401       0.17557827 </v>
   <v>       0.76280841       0.49539419       0.49201571 </v>
   <v>       0.77180033       0.83716210       0.17217222 </v>
   <v>       0.99559839       0.99499237       0.01176107 </v>
   <v>       0.75377587       0.16668498       0.17923011 </v>
   <v>       0.23933906       0.83263526       0.82776323 </v>
   <v>       0.77300426       0.51958578       0.83580811 </v>
   <v>       0.75671206       0.49088971       0.17338372 </v>
   <v>       0.50257494       0.66811379       0.33644578 </v>
   <v>       0.25921231       0.14015428       0.82735503 </v>
   <v>       0.00351415       0.33321202       0.98916653 </v>
   <v>       0.50467249       0.99121949       0.01497448 </v>
   <v>       0.49515602       0.34959052       0.67299449 </v>
   <v>       0.49326655       0.66735442       0.00345205 </v>
   <v>       0.50374593       0.99464337       0.32522762 </v>
   <v>       0.99492386       0.00077060       0.32920281 </v>
   <v>       0.25427714       0.16260336       0.49100630 </v>
   <v>       0.00507538       0.00726508       0.65715225 </v>
   <v>       0.99603437       0.66670019       0.33184175 </v>
   <v>       0.00004374       0.66234396       0.66492749 </v>
   <v>       0.50024747       0.97605913       0.65681947 </v>
   <v>       0.00290504       0.33477670       0.34312994 </v>
   <v>       0.49171318       0.33693878       0.34173067 </v>
   <v>       0.73991412       0.16335758       0.49519139 </v>
   <v>       0.76614641       0.83462060       0.82774966 </v>
   <v>       0.49633522       0.34298179       0.99052963 </v>
   <v>       0.24497712       0.17231711       0.17615493 </v>
   <v>       0.00508327       0.33456852       0.66517741 </v>
   <v>       0.23268902       0.83630243       0.49831793 </v>
   <v>       0.74253399       0.14734990       0.82422903 </v>
   <v>       0.50255455       0.66609481       0.66224455 </v>
  </varray>
 </structure>
</modeling>
