automatically generated by mexm         
           1
     8.268620    0.005301    0.016641
     0.005466    8.086159   -0.000647
     0.017523   -0.000531    8.203046
   Au   Pt
  23   9
Direct configuration=     1
   0.00199000  0.25211900  0.75016200
   0.49798800  0.50192500  0.50242000
   0.00081200  0.99781200  0.49666500
   0.74848000  0.75210000  0.49810900
   0.25266200  0.99793400  0.75042900
   0.74731200  0.24984100  0.00153400
   0.49946000  0.24736100  0.25005400
   0.74717300  0.50211700  0.75106900
   0.00227200  0.50318500  0.00139900
   0.74846500  0.75093600  0.00135700
   0.00315200  0.74928100  0.75146100
   0.00196500  0.50248100  0.49888300
   0.25177100  0.25110800  0.00080100
   0.49862800  0.75112200  0.24866800
   0.25084700  0.50248500  0.24815100
   0.25208100  0.24769300  0.49958200
   0.74685800  0.99765600  0.74916900
   0.74921000  0.50161300  0.24858300
   0.00060500  0.24697100  0.25010200
   0.74796600  0.24649200  0.49844900
   0.00176600  0.99794900  0.00272000
   0.49844500  0.25057300  0.74995200
   0.49831700  0.99747800  0.00140900
   0.49973400  0.99632800  0.49864900
   0.49559100  0.50467300  0.99607400
   0.25110800  0.99622000  0.24870800
   0.25234700  0.74894900  0.00006900
   0.49544700  0.74853200  0.75299700
   0.00328900  0.75396700  0.24687500
   0.74944900  0.99757700  0.25154200
   0.25310600  0.50384300  0.75429800
   0.25170000  0.75167600  0.49965800
automatically generated by mexm         
           1
     8.257447    0.005456    0.015588
     0.005610    8.075156    0.002533
     0.016480    0.002695    8.188827
   Au   Pt
  23   9
Direct configuration=     2
   0.00199504  0.25211659  0.75016185
   0.49778235  0.50213060  0.50239148
   0.00099940  0.99762202  0.49668192
   0.74849329  0.75208271  0.49811692
   0.25263266  0.99776321  0.75023438
   0.74733196  0.24984099  0.00154190
   0.49945222  0.24737133  0.25004410
   0.74719137  0.50212076  0.75104932
   0.00228698  0.50319395  0.00138362
   0.74848812  0.75092634  0.00135144
   0.00331732  0.74929475  0.75124464
   0.00216213  0.50266824  0.49889129
   0.25175991  0.25109980  0.00080344
   0.49847004  0.75111764  0.24887636
   0.25084079  0.50265349  0.24836626
   0.25206009  0.24772661  0.49958767
   0.74687038  0.99765960  0.74915732
   0.74921810  0.50161726  0.24858728
   0.00059683  0.24697283  0.25012315
   0.74799372  0.24652664  0.49844473
   0.00177651  0.99794726  0.00271029
   0.49844138  0.25057216  0.74991889
   0.49829566  0.99745458  0.00140549
   0.49940955  0.99601466  0.49863498
   0.49555513  0.50471230  0.99600524
   0.25110636  0.99580201  0.24910633
   0.25235033  0.74894029  0.00007183
   0.49508532  0.74844091  0.75270903
   0.00355923  0.75401900  0.24718154
   0.74947373  0.99757091  0.25157252
   0.25319305  0.50418265  0.75402646
   0.25180706  0.75183493  0.49961633
automatically generated by mexm         
           1
     8.260874    0.005585    0.013885
     0.005728    8.079044    0.006571
     0.014798    0.006793    8.187965
   Au   Pt
  23   9
Direct configuration=     3
   0.00200176  0.25211338  0.75016164
   0.49750750  0.50240538  0.50235325
   0.00124984  0.99736811  0.49670463
   0.74851105  0.75205961  0.49812752
   0.25259344  0.99753503  0.74997428
   0.74735863  0.24984098  0.00155247
   0.49944183  0.24738513  0.25003086
   0.74721592  0.50212579  0.75102300
   0.00230701  0.50320591  0.00136307
   0.74851901  0.75091343  0.00134400
   0.00353824  0.74931322  0.75095542
   0.00242557  0.50291845  0.49890232
   0.25174508  0.25108884  0.00080669
   0.49825896  0.75111174  0.24915488
   0.25083252  0.50287858  0.24865394
   0.25203215  0.24777152  0.49959524
   0.74688691  0.99766441  0.74914172
   0.74922892  0.50162294  0.24859300
   0.00058590  0.24697527  0.25015143
   0.74803078  0.24657294  0.49843902
   0.00179055  0.99794494  0.00269731
   0.49843655  0.25057105  0.74987464
   0.49826714  0.99742329  0.00140079
   0.49897597  0.99559591  0.49861632
   0.49550719  0.50476485  0.99591331
   0.25110422  0.99524324  0.24963898
   0.25235479  0.74892864  0.00007561
   0.49460194  0.74831930  0.75232407
   0.00392039  0.75408837  0.24759133
   0.74950678  0.99756276  0.25161333
   0.25330933  0.50463667  0.75366335
   0.25195013  0.75204733  0.49956058
automatically generated by mexm         
           1
     8.268112    0.005858    0.010288
     0.005978    8.087257    0.015102
     0.011242    0.015451    8.186144
   Au   Pt
  23   9
Direct configuration=     4
   0.00201354  0.25211018  0.75015304
   0.49718636  0.50270577  0.50226409
   0.00153331  0.99709202  0.49678405
   0.74854737  0.75200908  0.49816397
   0.25249868  0.99730532  0.74967761
   0.74740902  0.24983743  0.00156271
   0.49941155  0.24741524  0.25001253
   0.74726833  0.50213658  0.75097256
   0.00233534  0.50321606  0.00133370
   0.74856513  0.75089162  0.00132852
   0.00378175  0.74935500  0.75058725
   0.00276012  0.50321913  0.49892759
   0.25171634  0.25106318  0.00081708
   0.49806243  0.75106389  0.24947222
   0.25082609  0.50311715  0.24902462
   0.25198599  0.24785604  0.49960793
   0.74690548  0.99765849  0.74911191
   0.74924213  0.50164131  0.24860836
   0.00058730  0.24698707  0.25019446
   0.74807552  0.24664772  0.49844562
   0.00182035  0.99795401  0.00266095
   0.49843557  0.25056365  0.74979335
   0.49822114  0.99737810  0.00138138
   0.49843304  0.99508227  0.49861178
   0.49546446  0.50481843  0.99582117
   0.25111192  0.99455408  0.25033295
   0.25233319  0.74893610  0.00008697
   0.49402744  0.74819457  0.75181471
   0.00436283  0.75413793  0.24813612
   0.74954545  0.99755444  0.25166296
   0.25341335  0.50518962  0.75315727
   0.25211551  0.75230548  0.49948856
automatically generated by mexm         
           1
     8.274096    0.005602    0.009082
     0.005724    8.094316    0.014768
     0.010052    0.015120    8.189560
   Au   Pt
  23   9
Direct configuration=     5
   0.00203841  0.25210344  0.75013487
   0.49650817  0.50334017  0.50207526
   0.00213195  0.99650895  0.49695224
   0.74862408  0.75190234  0.49824106
   0.25229845  0.99682060  0.74905100
   0.74751542  0.24982991  0.00158438
   0.49934760  0.24747883  0.24997376
   0.74737897  0.50215943  0.75086601
   0.00239514  0.50323753  0.00127164
   0.74866252  0.75084558  0.00129586
   0.00429582  0.74944362  0.74980945
   0.00346659  0.50385399  0.49898082
   0.25165564  0.25100900  0.00083903
   0.49764756  0.75096253  0.25014266
   0.25081268  0.50362051  0.24980754
   0.25188851  0.24803450  0.49963463
   0.74694466  0.99764603  0.74904896
   0.74927001  0.50168008  0.24864080
   0.00059026  0.24701193  0.25028535
   0.74817001  0.24680560  0.49845950
   0.00188327  0.99797319  0.00258414
   0.49843347  0.25054812  0.74962163
   0.49812398  0.99728271  0.00134038
   0.49728656  0.99399773  0.49860248
   0.49537418  0.50493168  0.99562642
   0.25112849  0.99309816  0.25179988
   0.25228758  0.74895184  0.00011097
   0.49281407  0.74793178  0.75073841
   0.00529734  0.75424198  0.24928730
   0.74962713  0.99753683  0.25176785
   0.25363277  0.50635776  0.75208752
   0.25246470  0.75285066  0.49933620
automatically generated by mexm         
           1
     8.274678    0.005577    0.008965
     0.005700    8.095003    0.014735
     0.009937    0.015088    8.189892
   Au   Pt
  23   9
Direct configuration=     6
   0.00210802  0.25215531  0.75011008
   0.49662760  0.50319331  0.50199055
   0.00197004  0.99667524  0.49703528
   0.74863048  0.75189522  0.49827976
   0.25222127  0.99701529  0.74920542
   0.74751091  0.24982181  0.00159396
   0.49927511  0.24742576  0.24997177
   0.74736504  0.50221153  0.75084399
   0.00249087  0.50333332  0.00127316
   0.74865660  0.75085331  0.00130250
   0.00420405  0.74946460  0.74988155
   0.00347894  0.50381507  0.49901990
   0.25166138  0.25100488  0.00087282
   0.49789939  0.75086679  0.24991205
   0.25081206  0.50350916  0.24971010
   0.25187695  0.24807860  0.49964076
   0.74685650  0.99757601  0.74898646
   0.74928542  0.50173525  0.24864859
   0.00064747  0.24697034  0.25030583
   0.74811475  0.24675007  0.49844909
   0.00194966  0.99791546  0.00263607
   0.49839863  0.25054166  0.74955667
   0.49806073  0.99719753  0.00133551
   0.49737025  0.99407460  0.49863145
   0.49534547  0.50496917  0.99560215
   0.25117177  0.99316786  0.25179352
   0.25223958  0.74897923  0.00012776
   0.49292093  0.74800228  0.75076943
   0.00526022  0.75417222  0.24929579
   0.74962100  0.99751445  0.25180524
   0.25354609  0.50630929  0.75206362
   0.25241882  0.75280239  0.49934715
automatically generated by mexm         
           1
     8.275841    0.005527    0.008731
     0.005650    8.096375    0.014670
     0.009705    0.015023    8.190556
   Au   Pt
  23   9
Direct configuration=     7
   0.00211478  0.25216035  0.75010768
   0.49663920  0.50317905  0.50198232
   0.00195431  0.99669139  0.49704334
   0.74863110  0.75189453  0.49828352
   0.25221378  0.99703420  0.74922042
   0.74751048  0.24982102  0.00159489
   0.49926807  0.24742061  0.24997157
   0.74736369  0.50221659  0.75084185
   0.00250017  0.50334262  0.00127331
   0.74865603  0.75085406  0.00130315
   0.00419514  0.74946664  0.74988855
   0.00348014  0.50381129  0.49902370
   0.25166194  0.25100448  0.00087610
   0.49792385  0.75085749  0.24988965
   0.25081200  0.50349834  0.24970063
   0.25187583  0.24808288  0.49964136
   0.74684793  0.99756921  0.74898039
   0.74928692  0.50174061  0.24864935
   0.00065302  0.24696630  0.25030782
   0.74810938  0.24674467  0.49844808
   0.00195611  0.99790985  0.00264112
   0.49839524  0.25054103  0.74955035
   0.49805459  0.99718926  0.00133504
   0.49737838  0.99408207  0.49863427
   0.49534268  0.50497281  0.99559980
   0.25117597  0.99317463  0.25179290
   0.25223492  0.74898189  0.00012939
   0.49293130  0.74800912  0.75077244
   0.00525661  0.75416544  0.24929662
   0.74962040  0.99751227  0.25180887
   0.25353767  0.50630458  0.75206130
   0.25241437  0.75279770  0.49934822
automatically generated by mexm         
           1
     8.275042    0.005561    0.008892
     0.005684    8.095432    0.014715
     0.009864    0.015067    8.190100
   Au   Pt
  23   9
Direct configuration=     8
   0.00212830  0.25217043  0.75010286
   0.49666239  0.50315053  0.50196586
   0.00192287  0.99672368  0.49705947
   0.74863235  0.75189315  0.49829104
   0.25219879  0.99707201  0.74925043
   0.74750960  0.24981945  0.00159675
   0.49925399  0.24741030  0.24997118
   0.74736098  0.50222671  0.75083757
   0.00251877  0.50336123  0.00127361
   0.74865488  0.75085556  0.00130444
   0.00417732  0.74947072  0.74990256
   0.00348254  0.50380373  0.49903129
   0.25166305  0.25100368  0.00088266
   0.49797276  0.75083889  0.24984485
   0.25081187  0.50347672  0.24968169
   0.25187359  0.24809145  0.49964255
   0.74683081  0.99755561  0.74896824
   0.74928991  0.50175132  0.24865087
   0.00066414  0.24695823  0.25031180
   0.74809865  0.24673389  0.49844605
   0.00196900  0.99789864  0.00265121
   0.49838847  0.25053978  0.74953773
   0.49804231  0.99717272  0.00133409
   0.49739464  0.99409700  0.49863990
   0.49533711  0.50498009  0.99559508
   0.25118437  0.99318816  0.25179167
   0.25222560  0.74898720  0.00013265
   0.49295206  0.74802282  0.75077847
   0.00524940  0.75415189  0.24929826
   0.74961921  0.99750793  0.25181614
   0.25352083  0.50629517  0.75205665
   0.25240546  0.75278833  0.49935034
automatically generated by mexm         
           1
     8.275086    0.005320    0.007220
     0.005445    8.097251    0.014534
     0.008214    0.014896    8.186075
   Au   Pt
  23   9
Direct configuration=     9
   0.00211901  0.25216351  0.75010617
   0.49664646  0.50317012  0.50197717
   0.00194447  0.99670150  0.49704839
   0.74863149  0.75189410  0.49828588
   0.25220908  0.99704603  0.74922982
   0.74751020  0.24982053  0.00159547
   0.49926367  0.24741738  0.24997145
   0.74736284  0.50221976  0.75084051
   0.00250599  0.50334845  0.00127340
   0.74865567  0.75085453  0.00130355
   0.00418956  0.74946792  0.74989294
   0.00348089  0.50380892  0.49902607
   0.25166229  0.25100423  0.00087815
   0.49793916  0.75085167  0.24987563
   0.25081196  0.50349157  0.24969470
   0.25187513  0.24808557  0.49964173
   0.74684257  0.99756495  0.74897659
   0.74928785  0.50174396  0.24864983
   0.00065650  0.24696378  0.25030906
   0.74810602  0.24674130  0.49844745
   0.00196014  0.99790634  0.00264428
   0.49839312  0.25054064  0.74954640
   0.49805075  0.99718408  0.00133474
   0.49738347  0.99408675  0.49863603
   0.49534094  0.50497509  0.99559832
   0.25117860  0.99317887  0.25179252
   0.25223200  0.74898355  0.00013041
   0.49293780  0.74801341  0.75077433
   0.00525435  0.75416120  0.24929713
   0.74962003  0.99751091  0.25181115
   0.25353240  0.50630163  0.75205984
   0.25241158  0.75279477  0.49934888
automatically generated by mexm         
           1
     8.275189    0.004750    0.003267
     0.004878    8.101552    0.014107
     0.004312    0.014491    8.176558
   Au   Pt
  23   9
Direct configuration=    10
   0.00220127  0.25223953  0.75008703
   0.49676367  0.50301708  0.50186177
   0.00176131  0.99688925  0.49715857
   0.74864098  0.75188030  0.49833281
   0.25210377  0.99727155  0.74940310
   0.74750016  0.24980720  0.00160723
   0.49916957  0.24733385  0.24995674
   0.74733594  0.50228565  0.75081872
   0.00263743  0.50348077  0.00128012
   0.74866221  0.75086983  0.00130645
   0.00409798  0.74950764  0.74995706
   0.00352403  0.50378504  0.49907270
   0.25167460  0.25100282  0.00092638
   0.49823612  0.75072208  0.24960946
   0.25082154  0.50338457  0.24959081
   0.25186620  0.24813841  0.49964830
   0.74671353  0.99748048  0.74890306
   0.74932858  0.50180027  0.24864977
   0.00072712  0.24690172  0.25033225
   0.74803342  0.24667369  0.49842693
   0.00204329  0.99782467  0.00273012
   0.49834248  0.25053942  0.74946165
   0.49796261  0.99706844  0.00132631
   0.49742593  0.99412183  0.49866354
   0.49528456  0.50503155  0.99552467
   0.25124397  0.99317934  0.25186853
   0.25217786  0.74901584  0.00014887
   0.49299137  0.74808462  0.75076604
   0.00526066  0.75408862  0.24937307
   0.74961975  0.99748125  0.25186331
   0.25345351  0.50631445  0.75199072
   0.25239058  0.75277522  0.49935194
automatically generated by mexm         
           1
     8.275171    0.004849    0.003951
     0.004976    8.100809    0.014181
     0.004986    0.014561    8.178203
   Au   Pt
  23   9
Direct configuration=    11
   0.00239578  0.25241928  0.75004179
   0.49704077  0.50265527  0.50158880
   0.00132826  0.99733311  0.49741914
   0.74866345  0.75184768  0.49844383
   0.25185484  0.99780470  0.74981304
   0.74747643  0.24977570  0.00163503
   0.49894704  0.24713637  0.24992188
   0.74727234  0.50244141  0.75076717
   0.00294825  0.50379360  0.00129609
   0.74867768  0.75090603  0.00131330
   0.00388144  0.74960155  0.75010872
   0.00362605  0.50372859  0.49918303
   0.25170374  0.25099949  0.00104047
   0.49893819  0.75041571  0.24897988
   0.25084415  0.50313160  0.24934502
   0.25184511  0.24826335  0.49966384
   0.74640836  0.99728078  0.74872903
   0.74942487  0.50193339  0.24864967
   0.00089410  0.24675501  0.25038712
   0.74786171  0.24651385  0.49837835
   0.00223993  0.99763160  0.00293322
   0.49822268  0.25053652  0.74926110
   0.49775420  0.99679505  0.00130630
   0.49752636  0.99420478  0.49872864
   0.49515122  0.50516503  0.99535040
   0.25139860  0.99318048  0.25204840
   0.25204984  0.74909216  0.00019254
   0.49311803  0.74825299  0.75074645
   0.00527561  0.75391705  0.24955272
   0.74961913  0.99741112  0.25198672
   0.25326693  0.50634474  0.75182714
   0.25234091  0.75272901  0.49935916
automatically generated by mexm         
           1
     8.273998    0.005023    0.003387
     0.005144    8.101767    0.013885
     0.004431    0.014272    8.174070
   Au   Pt
  23   9
Direct configuration=    12
   0.00236217  0.25238823  0.75004960
   0.49699290  0.50271777  0.50163602
   0.00140308  0.99725644  0.49737408
   0.74865956  0.75185331  0.49842462
   0.25189783  0.99771260  0.74974212
   0.74748053  0.24978114  0.00163022
   0.49898550  0.24717049  0.24992793
   0.74728333  0.50241451  0.75077609
   0.00289452  0.50373956  0.00129330
   0.74867501  0.75089977  0.00131211
   0.00391885  0.74958533  0.75008249
   0.00360841  0.50373834  0.49916393
   0.25169870  0.25100006  0.00102072
   0.49881691  0.75046863  0.24908877
   0.25084027  0.50317530  0.24938755
   0.25184875  0.24824177  0.49966115
   0.74646112  0.99731529  0.74875917
   0.74940823  0.50191040  0.24864968
   0.00086524  0.24678035  0.25037761
   0.74789139  0.24654146  0.49838677
   0.00220593  0.99766495  0.00289806
   0.49824340  0.25053702  0.74929581
   0.49779022  0.99684228  0.00130978
   0.49750899  0.99419045  0.49871737
   0.49517428  0.50514197  0.99538056
   0.25137186  0.99318028  0.25201727
   0.25207196  0.74907898  0.00018499
   0.49309614  0.74822390  0.75074983
   0.00527301  0.75394668  0.24952163
   0.74961923  0.99742323  0.25196537
   0.25329919  0.50633951  0.75185546
   0.25234950  0.75273699  0.49935792
automatically generated by mexm         
           1
     8.271425    0.005406    0.002153
     0.005515    8.103866    0.013236
     0.003215    0.013638    8.165008
   Au   Pt
  23   9
Direct configuration=    13
   0.00229643  0.25246536  0.75012385
   0.49699156  0.50273569  0.50153456
   0.00138045  0.99728643  0.49745313
   0.74866930  0.75180856  0.49843535
   0.25183030  0.99774259  0.74974351
   0.74749106  0.24976195  0.00162249
   0.49897275  0.24709685  0.24985758
   0.74727121  0.50238984  0.75080041
   0.00290919  0.50377177  0.00129429
   0.74876389  0.75092876  0.00126738
   0.00390587  0.74967902  0.75005789
   0.00363109  0.50375097  0.49917353
   0.25171744  0.25101313  0.00104112
   0.49885661  0.75037688  0.24910036
   0.25091221  0.50320349  0.24939125
   0.25184473  0.24825935  0.49964516
   0.74638280  0.99733783  0.74881769
   0.74951195  0.50181649  0.24861833
   0.00086053  0.24676266  0.25036449
   0.74786315  0.24656079  0.49835260
   0.00218221  0.99766063  0.00298013
   0.49823724  0.25056932  0.74931589
   0.49776565  0.99683755  0.00129193
   0.49737808  0.99405817  0.49868750
   0.49514201  0.50511873  0.99524313
   0.25143649  0.99300148  0.25221850
   0.25206751  0.74910267  0.00018087
   0.49293541  0.74821206  0.75062983
   0.00536078  0.75396117  0.24971680
   0.74963590  0.99741994  0.25195737
   0.25335182  0.50647766  0.75174759
   0.25244038  0.75282922  0.49933351
automatically generated by mexm         
           1
     8.272336    0.005271    0.002590
     0.005383    8.103122    0.013466
     0.003646    0.013862    8.168218
   Au   Pt
  23   9
Direct configuration=    14
   0.00215231  0.25263446  0.75028672
   0.49698859  0.50277496  0.50131204
   0.00133084  0.99735217  0.49762652
   0.74869068  0.75171046  0.49845887
   0.25168222  0.99780832  0.74974656
   0.74751415  0.24971987  0.00160553
   0.49894479  0.24693543  0.24970326
   0.74724462  0.50233577  0.75085374
   0.00294134  0.50384239  0.00129646
   0.74895876  0.75099230  0.00116927
   0.00387741  0.74988438  0.75000393
   0.00368080  0.50377866  0.49919457
   0.25175855  0.25104179  0.00108585
   0.49894366  0.75017576  0.24912578
   0.25106996  0.50326527  0.24939937
   0.25183592  0.24829789  0.49961007
   0.74621107  0.99738726  0.74894604
   0.74973938  0.50161062  0.24854958
   0.00085020  0.24672388  0.25033569
   0.74780122  0.24660316  0.49827763
   0.00213021  0.99765116  0.00316012
   0.49822374  0.25064013  0.74935993
   0.49771175  0.99682719  0.00125277
   0.49709104  0.99376820  0.49862196
   0.49507122  0.50506778  0.99494169
   0.25157825  0.99260955  0.25265989
   0.25205777  0.74915459  0.00017183
   0.49258299  0.74818609  0.75036660
   0.00555323  0.75399294  0.25014491
   0.74967245  0.99741273  0.25193984
   0.25346721  0.50678047  0.75151101
   0.25263966  0.75303138  0.49927998
automatically generated by mexm         
           1
     8.273203    0.005369    0.002370
     0.005479    8.105289    0.013381
     0.003429    0.013782    8.167603
   Au   Pt
  23   9
Direct configuration=    15
   0.00220339  0.25257455  0.75022895
   0.49698966  0.50276105  0.50139097
   0.00134841  0.99732887  0.49756502
   0.74868310  0.75174521  0.49845053
   0.25173470  0.99778503  0.74974549
   0.74750596  0.24973477  0.00161155
   0.49895471  0.24699261  0.24975801
   0.74725404  0.50235492  0.75083483
   0.00292995  0.50381738  0.00129568
   0.74888970  0.75096980  0.00120405
   0.00388750  0.74981163  0.75002306
   0.00366318  0.50376885  0.49918710
   0.25174398  0.25103164  0.00106998
   0.49891280  0.75024700  0.24911676
   0.25101405  0.50324339  0.24939648
   0.25183905  0.24828424  0.49962252
   0.74627193  0.99736974  0.74890052
   0.74965877  0.50168355  0.24857396
   0.00085386  0.24673761  0.25034591
   0.74782317  0.24658815  0.49830422
   0.00214863  0.99765451  0.00309628
   0.49822852  0.25061505  0.74934431
   0.49773086  0.99683086  0.00126666
   0.49719277  0.99387091  0.49864523
   0.49509633  0.50508584  0.99504862
   0.25152798  0.99274837  0.25250333
   0.25206122  0.74913620  0.00017504
   0.49270791  0.74819529  0.75045999
   0.00548500  0.75398168  0.24999304
   0.74965950  0.99741528  0.25194605
   0.25342633  0.50667322  0.75159491
   0.25256904  0.75295978  0.49929895
automatically generated by mexm         
           1
     8.275804    0.005664    0.001709
     0.005764    8.111790    0.013127
     0.002778    0.013541    8.165757
   Au   Pt
  23   9
Direct configuration=    16
   0.00215845  0.25261906  0.75027692
   0.49699150  0.50277018  0.50133124
   0.00133727  0.99734794  0.49761786
   0.74868832  0.75171987  0.49845651
   0.25169447  0.99780151  0.74974293
   0.74751359  0.24972143  0.00160603
   0.49895614  0.24695403  0.24971721
   0.74724857  0.50233852  0.75084729
   0.00293843  0.50383476  0.00129504
   0.74893755  0.75097947  0.00118041
   0.00388272  0.74986755  0.75000383
   0.00367750  0.50377603  0.49919291
   0.25174738  0.25103667  0.00108033
   0.49893663  0.75018923  0.24912179
   0.25105557  0.50326212  0.24939966
   0.25183313  0.24829552  0.49961364
   0.74622501  0.99739284  0.74893483
   0.74971861  0.50162563  0.24854675
   0.00085550  0.24672983  0.25033931
   0.74780258  0.24659896  0.49828963
   0.00213584  0.99765930  0.00314795
   0.49822467  0.25063181  0.74935358
   0.49771986  0.99682723  0.00125591
   0.49712671  0.99380084  0.49863077
   0.49509074  0.50507290  0.99497590
   0.25155919  0.99264970  0.25260754
   0.25205912  0.74915204  0.00017430
   0.49262040  0.74818961  0.75039360
   0.00553624  0.75399080  0.25010557
   0.74966553  0.99740833  0.25194087
   0.25344778  0.50674900  0.75152882
   0.25261100  0.75300427  0.49928908
automatically generated by mexm         
           1
     8.275916    0.005676    0.001680
     0.005776    8.112072    0.013116
     0.002750    0.013531    8.165677
   Au   Pt
  23   9
Direct configuration=    17
   0.00202368  0.25275253  0.75042082
   0.49699702  0.50279754  0.50115207
   0.00130383  0.99740513  0.49777639
   0.74870397  0.75164390  0.49847445
   0.25157378  0.99785093  0.74973526
   0.74753649  0.24968140  0.00158948
   0.49896044  0.24683831  0.24959479
   0.74723216  0.50228932  0.75088466
   0.00296388  0.50388691  0.00129309
   0.74908106  0.75100846  0.00110950
   0.00386836  0.75003525  0.74994612
   0.00372046  0.50379756  0.49921035
   0.25175758  0.25105177  0.00111139
   0.49900810  0.75001594  0.24913688
   0.25118010  0.50331833  0.24940920
   0.25181540  0.24832935  0.49958702
   0.74608428  0.99746210  0.74903774
   0.74989809  0.50145191  0.24846512
   0.00086040  0.24670650  0.25031951
   0.74774079  0.24663137  0.49824586
   0.00209748  0.99767369  0.00330297
   0.49821312  0.25068206  0.74938140
   0.49768687  0.99681635  0.00122366
   0.49692855  0.99359067  0.49858737
   0.49507400  0.50503411  0.99475775
   0.25165283  0.99235378  0.25292020
   0.25205281  0.74919954  0.00017208
   0.49235792  0.74817259  0.75019443
   0.00568997  0.75401818  0.25044319
   0.74968363  0.99738749  0.25192530
   0.25351211  0.50697630  0.75133051
   0.25273687  0.75313773  0.49925945
automatically generated by mexm         
           1
     8.276064    0.005756    0.001674
     0.005853    8.113288    0.013160
     0.002745    0.013577    8.165058
   Au   Pt
  23   9
Direct configuration=    18
   0.00201783  0.25275832  0.75042707
   0.49699726  0.50279872  0.50114429
   0.00130238  0.99740762  0.49778327
   0.74870465  0.75164061  0.49847523
   0.25156854  0.99785307  0.74973493
   0.74753748  0.24967966  0.00158876
   0.49896062  0.24683329  0.24958947
   0.74723145  0.50228718  0.75088628
   0.00296498  0.50388917  0.00129301
   0.74908729  0.75100972  0.00110642
   0.00386773  0.75004252  0.74994362
   0.00372233  0.50379850  0.49921110
   0.25175802  0.25105242  0.00111274
   0.49901120  0.75000842  0.24913753
   0.25118550  0.50332076  0.24940962
   0.25181463  0.24833082  0.49958586
   0.74607817  0.99746511  0.74904221
   0.74990588  0.50144438  0.24846158
   0.00086061  0.24670549  0.25031865
   0.74773811  0.24663278  0.49824396
   0.00209582  0.99767431  0.00330970
   0.49821262  0.25068424  0.74938261
   0.49768544  0.99681588  0.00122226
   0.49691995  0.99358156  0.49858548
   0.49507327  0.50503243  0.99474827
   0.25165689  0.99234094  0.25293378
   0.25205254  0.74920160  0.00017199
   0.49234653  0.74817185  0.75018579
   0.00569664  0.75401937  0.25045785
   0.74968442  0.99738659  0.25192463
   0.25351490  0.50698615  0.75132190
   0.25274233  0.75314352  0.49925817
automatically generated by mexm         
           1
     8.276505    0.005994    0.001657
     0.006085    8.116935    0.013289
     0.002729    0.013717    8.163201
   Au   Pt
  23   9
Direct configuration=    19
   0.00201079  0.25277174  0.75044199
   0.49701247  0.50278212  0.50112813
   0.00128641  0.99742968  0.49780612
   0.74870330  0.75164044  0.49848000
   0.25155438  0.99787470  0.74974446
   0.74753744  0.24967092  0.00158945
   0.49896993  0.24682229  0.24958186
   0.74722611  0.50229260  0.75088209
   0.00298526  0.50390850  0.00129323
   0.74907929  0.75099343  0.00111275
   0.00386911  0.75005279  0.74993712
   0.00373257  0.50380334  0.49921986
   0.25174320  0.25104901  0.00111423
   0.49904685  0.74998458  0.24909905
   0.25119005  0.50332530  0.24940051
   0.25181085  0.24833830  0.49958918
   0.74604915  0.99747721  0.74903505
   0.74991906  0.50144092  0.24843294
   0.00088001  0.24669803  0.25032505
   0.74771736  0.24661885  0.49824955
   0.00210797  0.99767891  0.00334057
   0.49819807  0.25068221  0.74936551
   0.49767951  0.99679002  0.00122465
   0.49694156  0.99359246  0.49859232
   0.49509562  0.50504632  0.99474649
   0.25165104  0.99234138  0.25292028
   0.25204956  0.74920985  0.00017653
   0.49235684  0.74817866  0.75018768
   0.00570592  0.75401840  0.25047353
   0.74967576  0.99736741  0.25193339
   0.25349039  0.50699105  0.75130459
   0.25272015  0.75312561  0.49926982
automatically generated by mexm         
           1
     8.277389    0.006471    0.001623
     0.006548    8.124229    0.013548
     0.002697    0.013996    8.159487
   Au   Pt
  23   9
Direct configuration=    20
   0.00198967  0.25281198  0.75048677
   0.49705813  0.50273233  0.50107964
   0.00123849  0.99749587  0.49787469
   0.74869925  0.75163992  0.49849432
   0.25151190  0.99793957  0.74977307
   0.74753733  0.24964468  0.00159151
   0.49899785  0.24678928  0.24955901
   0.74721009  0.50230886  0.75086952
   0.00304608  0.50396647  0.00129388
   0.74905527  0.75094457  0.00113174
   0.00387323  0.75008360  0.74991765
   0.00376331  0.50381786  0.49924613
   0.25169871  0.25103878  0.00111871
   0.49915381  0.74991305  0.24898362
   0.25120371  0.50333890  0.24937318
   0.25179951  0.24836075  0.49959913
   0.74596209  0.99751351  0.74901357
   0.74995862  0.50143053  0.24834701
   0.00093823  0.24667563  0.25034427
   0.74765510  0.24657707  0.49826633
   0.00214443  0.99769269  0.00343317
   0.49815444  0.25067611  0.74931422
   0.49766174  0.99671246  0.00123183
   0.49700641  0.99362514  0.49861285
   0.49516267  0.50508799  0.99474115
   0.25163349  0.99234270  0.25287980
   0.25204061  0.74923460  0.00019018
   0.49238779  0.74819908  0.75019338
   0.00573376  0.75401547  0.25052057
   0.74964978  0.99730988  0.25195967
   0.25341688  0.50700575  0.75125265
   0.25265361  0.75307191  0.49930480
automatically generated by mexm         
           1
     8.276884    0.006199    0.001643
     0.006283    8.120061    0.013400
     0.002715    0.013836    8.161609
   Au   Pt
  23   9
Direct configuration=    21
   0.00194744  0.25289243  0.75057634
   0.49714943  0.50263279  0.50098264
   0.00114264  0.99762818  0.49801186
   0.74869116  0.75163889  0.49852296
   0.25142693  0.99806926  0.74983030
   0.74753711  0.24959224  0.00159564
   0.49905370  0.24672331  0.24951330
   0.74717804  0.50234137  0.75084436
   0.00316772  0.50408237  0.00129520
   0.74900725  0.75084690  0.00116973
   0.00388147  0.75014520  0.74987870
   0.00382477  0.50384690  0.49929869
   0.25160975  0.25101833  0.00112766
   0.49936772  0.74977007  0.24875269
   0.25123102  0.50336609  0.24931852
   0.25177684  0.24840561  0.49961904
   0.74578798  0.99758608  0.74897060
   0.75003773  0.50140978  0.24817511
   0.00105465  0.24663085  0.25038273
   0.74753061  0.24649355  0.49829990
   0.00221734  0.99772024  0.00361843
   0.49806716  0.25066391  0.74921160
   0.49762620  0.99655739  0.00124618
   0.49713610  0.99369048  0.49865392
   0.49529676  0.50517128  0.99473046
   0.25159839  0.99234535  0.25279880
   0.25202271  0.74928408  0.00021746
   0.49244969  0.74823991  0.75020478
   0.00578944  0.75400962  0.25061466
   0.74959782  0.99719487  0.25201224