<?xml version="1.0" encoding="ISO-8859-1"?>
<modeling>
 <generator>
  <i name="program" type="string">vasp </i>
  <i name="version" type="string">5.4.1  </i>
  <i name="subversion" type="string">05Feb16 (build Jan 29 2020 16:04:39) complex                          parallel </i>
  <i name="platform" type="string">IFC91_ompi </i>
  <i name="date" type="string">2020 06 15 </i>
  <i name="time" type="string">05:23:43 </i>
 </generator>
 <incar>
  <i type="string" name="SYSTEM"> automatically generated by mexm</i>
  <i type="int" name="ISTART">     0</i>
  <i type="string" name="PREC">accurate               ! avoid wrap aro</i>
  <i type="string" name="ALGO"> Fast                   ! blocked Davids</i>
  <i type="int" name="ISPIN">     1</i>
  <i type="int" name="ICHARG">     2</i>
  <i type="int" name="NELM">    70</i>
  <i type="int" name="IBRION">     2</i>
  <i name="EDIFF">      0.00001000</i>
  <i name="EDIFFG">     -0.01000000</i>
  <i type="int" name="NSW">   300</i>
  <i type="int" name="ISIF">     3</i>
  <i type="int" name="ISYM">     1</i>
  <i name="ENCUT">    300.00000000</i>
  <i name="POTIM">      0.15000000</i>
  <i type="string" name="LREAL"> Auto                  ! unpublished met</i>
  <i type="int" name="ISMEAR">     1</i>
  <i name="SIGMA">      0.15000000</i>
  <i type="logical" name="LWAVE"> F  </i>
  <i type="logical" name="LCHARG"> F  </i>
  <i type="logical" name="LVTOT"> F  </i>
  <v type="int" name="KPOINT_BSE">    -1     0     0     0</v>
  <i type="int" name="NELM">    70</i>
 </incar>
 <kpoints>
  <generation param="Gamma">
   <v type="int" name="divisions">       3        3        3 </v>
   <v name="usershift">      0.00000000       0.00000000       0.00000000 </v>
   <v name="genvec1">      0.33333333       0.00000000      -0.00000000 </v>
   <v name="genvec2">     -0.00000000       0.33333333       0.00000000 </v>
   <v name="genvec3">      0.00000000       0.00000000       0.33333333 </v>
   <v name="shift">      0.00000000       0.00000000       0.00000000 </v>
  </generation>
  <varray name="kpointlist" >
   <v>       0.00000000       0.00000000       0.00000000 </v>
   <v>       0.33333333       0.00000000       0.00000000 </v>
   <v>      -0.00000000       0.33333333       0.00000000 </v>
   <v>       0.33333333       0.33333333       0.00000000 </v>
   <v>      -0.33333333       0.33333333      -0.00000000 </v>
   <v>      -0.00000000      -0.00000000       0.33333333 </v>
   <v>       0.33333333      -0.00000000       0.33333333 </v>
   <v>      -0.33333333      -0.00000000       0.33333333 </v>
   <v>      -0.00000000       0.33333333       0.33333333 </v>
   <v>       0.33333333       0.33333333       0.33333333 </v>
   <v>      -0.33333333       0.33333333       0.33333333 </v>
   <v>      -0.00000000      -0.33333333       0.33333333 </v>
   <v>       0.33333333      -0.33333333       0.33333333 </v>
   <v>      -0.33333333      -0.33333333       0.33333333 </v>
  </varray>
  <varray name="weights" >
   <v>       0.03703704 </v>
   <v>       0.07407407 </v>
   <v>       0.07407407 </v>
   <v>       0.07407407 </v>
   <v>       0.07407407 </v>
   <v>       0.07407407 </v>
   <v>       0.07407407 </v>
   <v>       0.07407407 </v>
   <v>       0.07407407 </v>
   <v>       0.07407407 </v>
   <v>       0.07407407 </v>
   <v>       0.07407407 </v>
   <v>       0.07407407 </v>
   <v>       0.07407407 </v>
  </varray>
 </kpoints>
 <parameters>
  <separator name="general" >
   <i type="string" name="SYSTEM">automatically generated by mexm</i>
   <i type="logical" name="LCOMPAT"> F  </i>
  </separator>
  <separator name="electronic" >
   <i type="string" name="PREC">accura</i>
   <i name="ENMAX">    300.00000000</i>
   <i name="ENAUG">    461.25700000</i>
   <i name="EDIFF">      0.00001000</i>
   <i type="int" name="IALGO">    68</i>
   <i type="int" name="IWAVPR">    11</i>
   <i type="int" name="NBANDS">   172</i>
   <i name="NELECT">    282.00000000</i>
   <i type="int" name="TURBO">     0</i>
   <i type="int" name="IRESTART">     0</i>
   <i type="int" name="NREBOOT">     0</i>
   <i type="int" name="NMIN">     0</i>
   <i name="EREF">      0.00000000</i>
   <separator name="electronic smearing" >
    <i type="int" name="ISMEAR">     1</i>
    <i name="SIGMA">      0.15000000</i>
    <i name="KSPACING">      0.50000000</i>
    <i type="logical" name="KGAMMA"> T  </i>
   </separator>
   <separator name="electronic projectors" >
    <i type="logical" name="LREAL"> T  </i>
    <v name="ROPT">     -0.00025000     -0.00025000     -0.00025000     -0.00025000</v>
    <i type="int" name="LMAXPAW">  -100</i>
    <i type="int" name="LMAXMIX">     2</i>
    <i type="logical" name="NLSPLINE"> F  </i>
   </separator>
   <separator name="electronic startup" >
    <i type="int" name="ISTART">     0</i>
    <i type="int" name="ICHARG">     2</i>
    <i type="int" name="INIWAV">     1</i>
   </separator>
   <separator name="electronic spin" >
    <i type="int" name="ISPIN">     1</i>
    <i type="logical" name="LNONCOLLINEAR"> F  </i>
    <v name="MAGMOM">      1.00000000      1.00000000      1.00000000      1.00000000      1.00000000      1.00000000      1.00000000      1.00000000      1.00000000      1.00000000      1.00000000      1.00000000      1.00000000      1.00000000      1.00000000      1.00000000      1.00000000      1.00000000      1.00000000      1.00000000
      1.00000000      1.00000000      1.00000000      1.00000000      1.00000000      1.00000000      1.00000000      1.00000000      1.00000000      1.00000000      1.00000000      1.00000000      1.00000000      1.00000000      1.00000000      1.00000000</v>
    <i name="NUPDOWN">     -1.00000000</i>
    <i type="logical" name="LSORBIT"> F  </i>
    <v name="SAXIS">      0.00000000      0.00000000      1.00000000</v>
    <i type="logical" name="LSPIRAL"> F  </i>
    <v name="QSPIRAL">      0.00000000      0.00000000      0.00000000</v>
    <i type="logical" name="LZEROZ"> F  </i>
   </separator>
   <separator name="electronic exchange-correlation" >
    <i type="logical" name="LASPH"> F  </i>
    <i type="logical" name="LMETAGGA"> F  </i>
   </separator>
   <separator name="electronic convergence" >
    <i type="int" name="NELM">    70</i>
    <i type="int" name="NELMDL">    -5</i>
    <i type="int" name="NELMIN">     2</i>
    <i name="ENINI">    300.00000000</i>
    <separator name="electronic convergence detail" >
     <i type="logical" name="LDIAG"> T  </i>
     <i type="logical" name="LSUBROT"> F  </i>
     <i name="WEIMIN">      0.00100000</i>
     <i name="EBREAK">      0.00000001</i>
     <i name="DEPER">      0.30000000</i>
     <i type="int" name="NRMM">     4</i>
     <i name="TIME">      0.40000000</i>
    </separator>
   </separator>
   <separator name="electronic mixer" >
    <i name="AMIX">      0.40000000</i>
    <i name="BMIX">      1.00000000</i>
    <i name="AMIN">      0.10000000</i>
    <i name="AMIX_MAG">      1.60000000</i>
    <i name="BMIX_MAG">      1.00000000</i>
    <separator name="electronic mixer details" >
     <i type="int" name="IMIX">     4</i>
     <i type="logical" name="MIXFIRST"> F  </i>
     <i type="int" name="MAXMIX">   -45</i>
     <i name="WC">    100.00000000</i>
     <i type="int" name="INIMIX">     1</i>
     <i type="int" name="MIXPRE">     1</i>
     <i type="int" name="MREMOVE">     5</i>
    </separator>
   </separator>
   <separator name="electronic dipolcorrection" >
    <i type="logical" name="LDIPOL"> F  </i>
    <i type="logical" name="LMONO"> F  </i>
    <i type="int" name="IDIPOL">     0</i>
    <i name="EPSILON">      1.00000000</i>
    <v name="DIPOL">   -100.00000000   -100.00000000   -100.00000000</v>
    <i name="EFIELD">      0.00000000</i>
   </separator>
  </separator>
  <separator name="grids" >
   <i type="int" name="NGX">    40</i>
   <i type="int" name="NGY">    60</i>
   <i type="int" name="NGZ">    60</i>
   <i type="int" name="NGXF">    80</i>
   <i type="int" name="NGYF">   120</i>
   <i type="int" name="NGZF">   120</i>
   <i type="logical" name="ADDGRID"> F  </i>
  </separator>
  <separator name="ionic" >
   <i type="int" name="NSW">   300</i>
   <i type="int" name="IBRION">     2</i>
   <i type="int" name="ISIF">     3</i>
   <i name="PSTRESS">      0.00000000</i>
   <i name="EDIFFG">     -0.01000000</i>
   <i type="int" name="NFREE">     1</i>
   <i name="POTIM">      0.15000000</i>
   <i name="SMASS">     -3.00000000</i>
   <i name="SCALEE">      1.00000000</i>
  </separator>
  <separator name="ionic md" >
   <i name="TEBEG">      0.00010000</i>
   <i name="TEEND">      0.00010000</i>
   <i type="int" name="NBLOCK">     1</i>
   <i type="int" name="KBLOCK">   300</i>
   <i type="int" name="NPACO">   256</i>
   <i name="APACO">     16.00000000</i>
  </separator>
  <separator name="symmetry" >
   <i type="int" name="ISYM">     1</i>
   <i name="SYMPREC">      0.00001000</i>
  </separator>
  <separator name="dos" >
   <i type="logical" name="LORBIT"> F  </i>
   <v name="RWIGS">     -1.00000000     -1.00000000     -1.00000000     -1.00000000</v>
   <i type="int" name="NEDOS">   301</i>
   <i name="EMIN">     10.00000000</i>
   <i name="EMAX">    -10.00000000</i>
   <i name="EFERMI">      0.00000000</i>
  </separator>
  <separator name="writing" >
   <i type="int" name="NWRITE">     2</i>
   <i type="logical" name="LWAVE"> F  </i>
   <i type="logical" name="LCHARG"> F  </i>
   <i type="logical" name="LPARD"> F  </i>
   <i type="logical" name="LVTOT"> F  </i>
   <i type="logical" name="LVHAR"> F  </i>
   <i type="logical" name="LELF"> F  </i>
   <i type="logical" name="LOPTICS"> F  </i>
   <v name="STM">      0.00000000      0.00000000      0.00000000      0.00000000      0.00000000      0.00000000      0.00000000</v>
  </separator>
  <separator name="performance" >
   <i type="int" name="NPAR">     4</i>
   <i type="int" name="NSIM">     4</i>
   <i type="int" name="NBLK">    -1</i>
   <i type="logical" name="LPLANE"> T  </i>
   <i type="logical" name="LSCALAPACK"> T  </i>
   <i type="logical" name="LSCAAWARE"> F  </i>
   <i type="logical" name="LSCALU"> F  </i>
   <i type="logical" name="LASYNC"> F  </i>
   <i type="logical" name="LORBITALREAL"> F  </i>
  </separator>
  <separator name="miscellaneous" >
   <i type="int" name="IDIOT">     3</i>
   <i type="logical" name="LMUSIC"> F  </i>
   <v name="POMASS">     91.22400000     92.91000000    180.94800000    178.49000000</v>
   <v name="DARWINR">      0.00000000      0.00000000      0.00000000      0.00000000</v>
   <v name="DARWINV">      1.00000000      1.00000000      1.00000000      1.00000000</v>
   <i type="logical" name="LCORR"> T  </i>
  </separator>
  <i type="logical" name="GGA_COMPAT"> T  </i>
  <i type="logical" name="LBERRY"> F  </i>
  <i type="int" name="ICORELEVEL">     0</i>
  <i type="logical" name="LDAU"> F  </i>
  <i type="int" name="I_CONSTRAINED_M">     0</i>
  <separator name="electronic exchange-correlation" >
   <i type="string" name="GGA">--</i>
   <i type="int" name="VOSKOWN">     0</i>
   <i type="logical" name="LHFCALC"> F  </i>
   <i type="string" name="PRECFOCK"></i>
   <i type="logical" name="LSYMGRAD"> F  </i>
   <i type="logical" name="LHFONE"> F  </i>
   <i type="logical" name="LRHFCALC"> F  </i>
   <i type="logical" name="LTHOMAS"> F  </i>
   <i type="logical" name="LMODELHF"> F  </i>
   <i name="ENCUT4O">     -1.00000000</i>
   <i type="int" name="EXXOEP">     0</i>
   <i type="int" name="FOURORBIT">     0</i>
   <i name="AEXX">      0.00000000</i>
   <i name="HFALPHA">      0.00000000</i>
   <i name="MCALPHA">      0.00000000</i>
   <i name="ALDAX">      1.00000000</i>
   <i name="AGGAX">      1.00000000</i>
   <i name="ALDAC">      1.00000000</i>
   <i name="AGGAC">      1.00000000</i>
   <i type="int" name="NKREDX">     1</i>
   <i type="int" name="NKREDY">     1</i>
   <i type="int" name="NKREDZ">     1</i>
   <i type="logical" name="SHIFTRED"> F  </i>
   <i type="logical" name="ODDONLY"> F  </i>
   <i type="logical" name="EVENONLY"> F  </i>
   <i type="int" name="LMAXFOCK">     0</i>
   <i type="int" name="NMAXFOCKAE">     0</i>
   <i type="logical" name="LFOCKAEDFT"> F  </i>
   <i name="HFSCREEN">      0.00000000</i>
   <i name="HFSCREENC">      0.00000000</i>
   <i type="int" name="NBANDSGWLOW">     0</i>
  </separator>
  <separator name="vdW DFT" >
   <i type="logical" name="LUSE_VDW"> F  </i>
   <i name="Zab_VDW">     -0.84910000</i>
   <i name="PARAM1">      0.12340000</i>
   <i name="PARAM2">      1.00000000</i>
   <i name="PARAM3">      0.00000000</i>
  </separator>
  <separator name="model GW" >
   <i type="int" name="MODEL_GW">     0</i>
   <i name="MODEL_EPS0">     12.07920568</i>
   <i name="MODEL_ALPHA">      1.00000000</i>
  </separator>
  <separator name="linear response parameters" >
   <i type="logical" name="LEPSILON"> F  </i>
   <i type="logical" name="LRPA"> F  </i>
   <i type="logical" name="LNABLA"> F  </i>
   <i type="logical" name="LVEL"> F  </i>
   <i type="int" name="KINTER">     0</i>
   <i name="CSHIFT">      0.10000000</i>
   <i name="OMEGAMAX">     -1.00000000</i>
   <i name="DEG_THRESHOLD">      0.00200000</i>
  </separator>
  <separator name="orbital magnetization" >
   <i type="logical" name="NUCIND"> F  </i>
   <v name="MAGPOS">      0.00000000      0.00000000      0.00000000</v>
   <i type="logical" name="LNICSALL"> T  </i>
   <i type="logical" name="ORBITALMAG"> F  </i>
   <i type="logical" name="LMAGBLOCH"> F  </i>
   <i type="logical" name="LCHIMAG"> F  </i>
   <i type="logical" name="LGAUGE"> T  </i>
   <i type="int" name="MAGATOM">     0</i>
   <v name="MAGDIPOL">      0.00000000      0.00000000      0.00000000</v>
   <v name="AVECCONST">      0.00000000      0.00000000      0.00000000</v>
  </separator>
  <separator name="response functions" >
   <i type="logical" name="LADDER"> F  </i>
   <i type="logical" name="LFXC"> F  </i>
   <i type="logical" name="LHARTREE"> T  </i>
   <i type="int" name="IBSE">     0</i>
   <v type="int" name="KPOINT">    -1     0     0     0</v>
   <i type="logical" name="LTCTE"> F  </i>
   <i type="logical" name="LTETE"> F  </i>
   <i type="logical" name="LTRIPLET"> F  </i>
   <i type="logical" name="LFXCEPS"> F  </i>
   <i type="logical" name="LFXHEG"> F  </i>
   <i type="int" name="NATURALO">     0</i>
   <i type="logical" name="L2ORDER"> F  </i>
   <i type="logical" name="LUSEW"> F  </i>
   <i name="ENCUTGW">     -2.00000000</i>
   <i name="ENCUTGWSOFT">     -2.00000000</i>
   <i name="ENCUTLF">     -1.00000000</i>
   <i type="int" name="LMAXMP2">    -1</i>
   <i name="SCISSOR">      0.00000000</i>
   <i type="int" name="NOMEGA">     0</i>
   <i type="int" name="NOMEGAR">     0</i>
   <i type="int" name="NBANDSGW">    -1</i>
   <i type="int" name="NBANDSO">    -1</i>
   <i type="int" name="NBANDSV">    -1</i>
   <i type="int" name="NELM">    70</i>
   <i type="int" name="NELMHF">     1</i>
   <i type="int" name="DIM">     3</i>
   <i type="int" name="ANTIRES">     0</i>
   <i name="OMEGAMAX">    -30.00000000</i>
   <i name="OMEGAMIN">    -30.00000000</i>
   <i name="OMEGATL">   -200.00000000</i>
   <i type="int" name="OMEGAGRID">     0</i>
   <i name="CSHIFT">     -0.10000000</i>
   <i type="logical" name="SELFENERGY"> F  </i>
   <i type="logical" name="LSPECTRAL"> F  </i>
   <i type="logical" name="LSPECTRALGW"> F  </i>
   <i type="logical" name="LSINGLES"> F  </i>
   <i type="logical" name="LFERMIGW"> F  </i>
   <i type="logical" name="ODDONLYGW"> F  </i>
   <i type="logical" name="EVENONLYGW"> F  </i>
   <i type="int" name="NKREDLFX">     1</i>
   <i type="int" name="NKREDLFY">     1</i>
   <i type="int" name="NKREDLFZ">     1</i>
   <i type="int" name="MAXMEM">  1800</i>
   <i type="int" name="TELESCOPE">     0</i>
   <i type="int" name="TAUPAR">     1</i>
   <i type="int" name="OMEGAPAR">    -1</i>
   <i name="LAMBDA">      1.00000000</i>
  </separator>
  <separator name="External order field" >
   <i name="OFIELD_KAPPA">      0.00000000</i>
   <v name="OFIELD_K">      0.00000000      0.00000000      0.00000000</v>
   <i name="OFIELD_Q6_NEAR">      0.00000000</i>
   <i name="OFIELD_Q6_FAR">      0.00000000</i>
   <i name="OFIELD_A">      0.00000000</i>
  </separator>
 </parameters>
 <atominfo>
  <atoms>      36 </atoms>
  <types>       4 </types>
  <array name="atoms" >
   <dimension dim="1">ion</dimension>
   <field type="string">element</field>
   <field type="int">atomtype</field>
   <set>
    <rc><c>Zr</c><c>   1</c></rc>
    <rc><c>Zr</c><c>   1</c></rc>
    <rc><c>Zr</c><c>   1</c></rc>
    <rc><c>Zr</c><c>   1</c></rc>
    <rc><c>Zr</c><c>   1</c></rc>
    <rc><c>Zr</c><c>   1</c></rc>
    <rc><c>Nb</c><c>   2</c></rc>
    <rc><c>Nb</c><c>   2</c></rc>
    <rc><c>Nb</c><c>   2</c></rc>
    <rc><c>Nb</c><c>   2</c></rc>
    <rc><c>Nb</c><c>   2</c></rc>
    <rc><c>Nb</c><c>   2</c></rc>
    <rc><c>Nb</c><c>   2</c></rc>
    <rc><c>Nb</c><c>   2</c></rc>
    <rc><c>Nb</c><c>   2</c></rc>
    <rc><c>Ta</c><c>   3</c></rc>
    <rc><c>Ta</c><c>   3</c></rc>
    <rc><c>Ta</c><c>   3</c></rc>
    <rc><c>Ta</c><c>   3</c></rc>
    <rc><c>Ta</c><c>   3</c></rc>
    <rc><c>Ta</c><c>   3</c></rc>
    <rc><c>Ta</c><c>   3</c></rc>
    <rc><c>Ta</c><c>   3</c></rc>
    <rc><c>Ta</c><c>   3</c></rc>
    <rc><c>Hf</c><c>   4</c></rc>
    <rc><c>Hf</c><c>   4</c></rc>
    <rc><c>Hf</c><c>   4</c></rc>
    <rc><c>Hf</c><c>   4</c></rc>
    <rc><c>Hf</c><c>   4</c></rc>
    <rc><c>Hf</c><c>   4</c></rc>
    <rc><c>Hf</c><c>   4</c></rc>
    <rc><c>Hf</c><c>   4</c></rc>
    <rc><c>Hf</c><c>   4</c></rc>
    <rc><c>Hf</c><c>   4</c></rc>
    <rc><c>Hf</c><c>   4</c></rc>
    <rc><c>Hf</c><c>   4</c></rc>
   </set>
  </array>
  <array name="atomtypes" >
   <dimension dim="1">type</dimension>
   <field type="int">atomspertype</field>
   <field type="string">element</field>
   <field>mass</field>
   <field>valence</field>
   <field type="string">pseudopotential</field>
   <set>
    <rc><c>   6</c><c>Zr</c><c>     91.22400000</c><c>     12.00000000</c><c>  PAW_PBE Zr_sv 04Jan2005               </c></rc>
    <rc><c>   9</c><c>Nb</c><c>     92.91000000</c><c>     13.00000000</c><c>  PAW_PBE Nb_sv 25May2007               </c></rc>
    <rc><c>   9</c><c>Ta</c><c>    180.94800000</c><c>      5.00000000</c><c>  PAW_PBE Ta 17Jan2003                  </c></rc>
    <rc><c>  12</c><c>Hf</c><c>    178.49000000</c><c>      4.00000000</c><c>  PAW_PBE Hf 20Jan2003                  </c></rc>
   </set>
  </array>
 </atominfo>
 <structure name="initialpos" >
  <crystal>
   <varray name="basis" >
    <v>       6.92431302       0.01395230       0.02766018 </v>
    <v>       0.02079128      10.25305219       0.00462915 </v>
    <v>       0.04094904       0.00429493      10.20865623 </v>
   </varray>
   <i name="volume">    724.75234054 </i>
   <varray name="rec_basis" >
    <v>       0.14442156      -0.00029260      -0.00057918 </v>
    <v>      -0.00019636       0.09753235      -0.00004025 </v>
    <v>      -0.00039122      -0.00004343       0.09795767 </v>
   </varray>
  </crystal>
  <varray name="positions" >
   <v>       0.75330600       0.48863000       0.49718200 </v>
   <v>       0.98873600       0.99843400       0.99797900 </v>
   <v>       0.00782800       0.32378000       0.97947300 </v>
   <v>       0.00264200       0.66704400       0.66470300 </v>
   <v>       0.48418400       0.99836900       0.31863600 </v>
   <v>       0.75522000       0.49668800       0.16795300 </v>
   <v>       0.51133900       0.67488100       0.00490000 </v>
   <v>       0.73856100       0.82079200       0.83392900 </v>
   <v>       0.23155100       0.17324600       0.16538900 </v>
   <v>       0.99018600       0.67324100       0.99786600 </v>
   <v>       0.49670400       0.01085800       0.67644900 </v>
   <v>       0.73556200       0.17891700       0.81787400 </v>
   <v>       0.75687000       0.82232700       0.16206000 </v>
   <v>       0.26153400       0.16676700       0.82256400 </v>
   <v>       0.49384000       0.65993000       0.66570900 </v>
   <v>       0.24972600       0.16621500       0.50927000 </v>
   <v>       0.03764000       0.33395300       0.34717800 </v>
   <v>       0.01372100       0.33166900       0.67085400 </v>
   <v>       0.26605500       0.50169600       0.83638700 </v>
   <v>       0.28293400       0.84002500       0.51824500 </v>
   <v>       0.24702000       0.81907500       0.14546300 </v>
   <v>       0.48324600       0.33220400       0.66675800 </v>
   <v>       0.48921100       0.31698300       0.99364800 </v>
   <v>       0.24687300       0.49735800       0.51493900 </v>
   <v>       0.26248200       0.82659800       0.83733900 </v>
   <v>       0.72059200       0.84125900       0.50747200 </v>
   <v>       0.99972700       0.00138900       0.67140100 </v>
   <v>       0.73040200       0.49899100       0.83394500 </v>
   <v>       0.24747300       0.50609600       0.14669000 </v>
   <v>       0.01819900       0.67699000       0.34145500 </v>
   <v>       0.50740000       0.00563600       0.00153700 </v>
   <v>       0.75228000       0.17262400       0.49943400 </v>
   <v>       0.48436100       0.66882700       0.33222000 </v>
   <v>       0.46430400       0.33560900       0.33413200 </v>
   <v>       0.02022100       0.98980300       0.33494100 </v>
   <v>       0.76805700       0.18310700       0.18402300 </v>
  </varray>
 </structure>
 <calculation>
  <scstep>
   <time name="dav">    1.08    1.09</time>
   <time name="total">    1.23    1.68</time>
   <energy>
    <i name="alphaZ">   1433.78351848 </i>
    <i name="ewald"> -17869.94601666 </i>
    <i name="hartreedc">  -6807.25832103 </i>
    <i name="XCdc">   -426.48059458 </i>
    <i name="pawpsdc">  20314.70147068 </i>
    <i name="pawaedc"> -18659.64376138 </i>
    <i name="eentropy">      0.00885524 </i>
    <i name="bandstr">    -88.11722225 </i>
    <i name="atom">  23787.64855414 </i>
    <i name="e_fr_energy">   1684.69648264 </i>
    <i name="e_wo_entrp">   1684.68762740 </i>
    <i name="e_0_energy">   1684.69353090 </i>
   </energy>
  </scstep>
  <scstep>
   <time name="dav">    0.97    1.11</time>
   <time name="total">    0.97    1.32</time>
   <energy>
    <i name="e_fr_energy">   -121.74692799 </i>
    <i name="e_wo_entrp">   -121.75165105 </i>
    <i name="e_0_energy">   -121.74850234 </i>
   </energy>
  </scstep>
  <scstep>
   <time name="dav">    1.39    1.40</time>
   <time name="total">    1.39    1.47</time>
   <energy>
    <i name="e_fr_energy">   -351.86098140 </i>
    <i name="e_wo_entrp">   -351.85626222 </i>
    <i name="e_0_energy">   -351.85940834 </i>
   </energy>
  </scstep>
  <scstep>
   <time name="dav">    1.35    1.38</time>
   <time name="total">    1.35    1.42</time>
   <energy>
    <i name="e_fr_energy">   -378.60183196 </i>
    <i name="e_wo_entrp">   -378.59748770 </i>
    <i name="e_0_energy">   -378.60038387 </i>
   </energy>
  </scstep>
  <scstep>
   <time name="dav">    1.30    1.30</time>
   <time name="total">    1.33    1.39</time>
   <energy>
    <i name="e_fr_energy">   -381.13303759 </i>
    <i name="e_wo_entrp">   -381.12627001 </i>
    <i name="e_0_energy">   -381.13078173 </i>
   </energy>
  </scstep>
  <scstep>
   <time name="diag">    0.07    0.07</time>
   <time name="diis">    0.75    0.75</time>
   <time name="orth">    0.01    0.01</time>
   <time name="total">    0.90    0.97</time>
   <energy>
    <i name="e_fr_energy">   -370.62333106 </i>
    <i name="e_wo_entrp">   -370.61872757 </i>
    <i name="e_0_energy">   -370.62179656 </i>
   </energy>
  </scstep>
  <scstep>
   <time name="diag">    0.09    0.10</time>
   <time name="diis">    0.70    0.74</time>
   <time name="orth">    0.01    0.01</time>
   <time name="total">    0.98    1.10</time>
   <energy>
    <i name="e_fr_energy">   -369.65648172 </i>
    <i name="e_wo_entrp">   -369.67068722 </i>
    <i name="e_0_energy">   -369.66121688 </i>
   </energy>
  </scstep>
  <scstep>
   <time name="diag">    0.08    0.08</time>
   <time name="diis">    0.79    0.79</time>
   <time name="orth">    0.01    0.01</time>
   <time name="total">    0.95    0.99</time>
   <energy>
    <i name="e_fr_energy">   -366.45312443 </i>
    <i name="e_wo_entrp">   -366.46306702 </i>
    <i name="e_0_energy">   -366.45643863 </i>
   </energy>
  </scstep>
  <scstep>
   <time name="diag">    0.08    0.08</time>
   <time name="diis">    0.86    0.86</time>
   <time name="orth">    0.01    0.01</time>
   <time name="total">    1.01    1.06</time>
   <energy>
    <i name="e_fr_energy">   -366.26120241 </i>
    <i name="e_wo_entrp">   -366.27223424 </i>
    <i name="e_0_energy">   -366.26487969 </i>
   </energy>
  </scstep>
  <scstep>
   <time name="diag">    0.08    0.08</time>
   <time name="diis">    0.67    0.83</time>
   <time name="orth">    0.01    0.01</time>
   <time name="total">    0.83    1.03</time>
   <energy>
    <i name="e_fr_energy">   -366.21414487 </i>
    <i name="e_wo_entrp">   -366.22621118 </i>
    <i name="e_0_energy">   -366.21816697 </i>
   </energy>
  </scstep>
  <scstep>
   <time name="diag">    0.13    0.13</time>
   <time name="diis">    0.77    0.77</time>
   <time name="orth">    0.01    0.01</time>
   <time name="total">    0.99    1.04</time>
   <energy>
    <i name="e_fr_energy">   -366.19259732 </i>
    <i name="e_wo_entrp">   -366.20471910 </i>
    <i name="e_0_energy">   -366.19663791 </i>
   </energy>
  </scstep>
  <scstep>
   <time name="diag">    0.08    0.08</time>
   <time name="diis">    0.77    0.77</time>
   <time name="orth">    0.01    0.01</time>
   <time name="total">    0.92    0.97</time>
   <energy>
    <i name="e_fr_energy">   -366.19070765 </i>
    <i name="e_wo_entrp">   -366.20339656 </i>
    <i name="e_0_energy">   -366.19493729 </i>
   </energy>
  </scstep>
  <scstep>
   <time name="diag">    0.08    0.08</time>
   <time name="diis">    0.78    0.79</time>
   <time name="orth">    0.01    0.01</time>
   <time name="total">    0.94    0.99</time>
   <energy>
    <i name="e_fr_energy">   -366.18904278 </i>
    <i name="e_wo_entrp">   -366.20133754 </i>
    <i name="e_0_energy">   -366.19314103 </i>
   </energy>
  </scstep>
  <scstep>
   <time name="diag">    0.07    0.07</time>
   <time name="diis">    0.83    0.83</time>
   <time name="orth">    0.01    0.01</time>
   <time name="total">    0.98    1.03</time>
   <energy>
    <i name="e_fr_energy">   -366.18924368 </i>
    <i name="e_wo_entrp">   -366.20151317 </i>
    <i name="e_0_energy">   -366.19333351 </i>
   </energy>
  </scstep>
  <scstep>
   <time name="diag">    0.07    0.08</time>
   <time name="diis">    0.77    0.78</time>
   <time name="orth">    0.01    0.01</time>
   <time name="total">    0.93    0.97</time>
   <energy>
    <i name="e_fr_energy">   -366.18932647 </i>
    <i name="e_wo_entrp">   -366.20169656 </i>
    <i name="e_0_energy">   -366.19344983 </i>
   </energy>
  </scstep>
  <scstep>
   <time name="diag">    0.07    0.07</time>
   <time name="diis">    0.69    0.69</time>
   <time name="orth">    0.01    0.01</time>
   <time name="total">    0.84    0.89</time>
   <energy>
    <i name="e_fr_energy">   -366.18937621 </i>
    <i name="e_wo_entrp">   -366.20173983 </i>
    <i name="e_0_energy">   -366.19349742 </i>
   </energy>
  </scstep>
  <scstep>
   <time name="diag">    0.07    0.07</time>
   <time name="diis">    0.62    0.64</time>
   <time name="orth">    0.01    0.01</time>
   <time name="total">    0.77    0.86</time>
   <energy>
    <i name="e_fr_energy">   -366.18939098 </i>
    <i name="e_wo_entrp">   -366.20174386 </i>
    <i name="e_0_energy">   -366.19350860 </i>
   </energy>
  </scstep>
  <scstep>
   <time name="diag">    0.08    0.08</time>
   <time name="diis">    0.53    0.61</time>
   <time name="orth">    0.01    0.04</time>
   <time name="total">    0.68    0.87</time>
   <energy>
    <i name="e_fr_energy">   -366.18939981 </i>
    <i name="e_wo_entrp">   -366.20176477 </i>
    <i name="e_0_energy">   -366.19352146 </i>
   </energy>
  </scstep>
  <scstep>
   <time name="diag">    0.08    0.08</time>
   <time name="diis">    0.50    0.50</time>
   <time name="orth">    0.01    0.01</time>
   <time name="total">    0.84    0.94</time>
   <energy>
    <i name="alphaZ">   1433.78351848 </i>
    <i name="ewald"> -17869.94601666 </i>
    <i name="hartreedc">  -6599.93659893 </i>
    <i name="XCdc">   -424.10402451 </i>
    <i name="pawpsdc">  32111.24157178 </i>
    <i name="pawaedc"> -30439.47813900 </i>
    <i name="eentropy">      0.01236499 </i>
    <i name="bandstr">  -2365.41063316 </i>
    <i name="atom">  23787.64855414 </i>
    <i name="e_fr_energy">   -366.18940287 </i>
    <i name="e_wo_entrp">   -366.20176786 </i>
    <i name="e_0_energy">   -366.19352453 </i>
   </energy>
  </scstep>
  <structure>
   <crystal>
    <varray name="basis" >
     <v>       6.92431302       0.01395230       0.02766018 </v>
     <v>       0.02079128      10.25305219       0.00462915 </v>
     <v>       0.04094904       0.00429493      10.20865623 </v>
    </varray>
    <i name="volume">    724.75234054 </i>
    <varray name="rec_basis" >
     <v>       0.14442156      -0.00029260      -0.00057918 </v>
     <v>      -0.00019636       0.09753235      -0.00004025 </v>
     <v>      -0.00039122      -0.00004343       0.09795767 </v>
    </varray>
   </crystal>
   <varray name="positions" >
    <v>       0.75330600       0.48863000       0.49718200 </v>
    <v>       0.98873600       0.99843400       0.99797900 </v>
    <v>       0.00782800       0.32378000       0.97947300 </v>
    <v>       0.00264200       0.66704400       0.66470300 </v>
    <v>       0.48418400       0.99836900       0.31863600 </v>
    <v>       0.75522000       0.49668800       0.16795300 </v>
    <v>       0.51133900       0.67488100       0.00490000 </v>
    <v>       0.73856100       0.82079200       0.83392900 </v>
    <v>       0.23155100       0.17324600       0.16538900 </v>
    <v>       0.99018600       0.67324100       0.99786600 </v>
    <v>       0.49670400       0.01085800       0.67644900 </v>
    <v>       0.73556200       0.17891700       0.81787400 </v>
    <v>       0.75687000       0.82232700       0.16206000 </v>
    <v>       0.26153400       0.16676700       0.82256400 </v>
    <v>       0.49384000       0.65993000       0.66570900 </v>
    <v>       0.24972600       0.16621500       0.50927000 </v>
    <v>       0.03764000       0.33395300       0.34717800 </v>
    <v>       0.01372100       0.33166900       0.67085400 </v>
    <v>       0.26605500       0.50169600       0.83638700 </v>
    <v>       0.28293400       0.84002500       0.51824500 </v>
    <v>       0.24702000       0.81907500       0.14546300 </v>
    <v>       0.48324600       0.33220400       0.66675800 </v>
    <v>       0.48921100       0.31698300       0.99364800 </v>
    <v>       0.24687300       0.49735800       0.51493900 </v>
    <v>       0.26248200       0.82659800       0.83733900 </v>
    <v>       0.72059200       0.84125900       0.50747200 </v>
    <v>       0.99972700       0.00138900       0.67140100 </v>
    <v>       0.73040200       0.49899100       0.83394500 </v>
    <v>       0.24747300       0.50609600       0.14669000 </v>
    <v>       0.01819900       0.67699000       0.34145500 </v>
    <v>       0.50740000       0.00563600       0.00153700 </v>
    <v>       0.75228000       0.17262400       0.49943400 </v>
    <v>       0.48436100       0.66882700       0.33222000 </v>
    <v>       0.46430400       0.33560900       0.33413200 </v>
    <v>       0.02022100       0.98980300       0.33494100 </v>
    <v>       0.76805700       0.18310700       0.18402300 </v>
   </varray>
  </structure>
  <varray name="forces" >
   <v>       0.03133716       0.01136712       0.01683906 </v>
   <v>       0.01175895       0.00591860       0.00248804 </v>
   <v>       0.00476213       0.00840264      -0.00632898 </v>
   <v>      -0.06560541       0.06306553       0.02233527 </v>
   <v>      -0.00607597      -0.00332972       0.01257863 </v>
   <v>      -0.00432197      -0.00202021      -0.03052768 </v>
   <v>       0.00440426      -0.01093373       0.02227718 </v>
   <v>      -0.00735592       0.00525418       0.00319618 </v>
   <v>      -0.00175010      -0.02178322      -0.01395998 </v>
   <v>      -0.01232220      -0.00550499       0.02279662 </v>
   <v>      -0.00444008       0.00568615      -0.01073204 </v>
   <v>      -0.01193023      -0.00572480      -0.00389794 </v>
   <v>       0.00510552       0.01973627      -0.00706554 </v>
   <v>      -0.00149898      -0.01315962       0.01907992 </v>
   <v>       0.02753803       0.02891576       0.00318022 </v>
   <v>      -0.00336659       0.11212024      -0.00067427 </v>
   <v>       0.02383202       0.00162147      -0.02727871 </v>
   <v>      -0.01649638      -0.00464101       0.01784853 </v>
   <v>      -0.00418816      -0.00319181      -0.14714427 </v>
   <v>      -0.00246387      -0.08569122      -0.00347625 </v>
   <v>      -0.00119312       0.02019490      -0.00936330 </v>
   <v>       0.02378684      -0.00974261       0.00171609 </v>
   <v>      -0.00439185      -0.00115233       0.00112773 </v>
   <v>      -0.00196137      -0.11720541       0.06599124 </v>
   <v>       0.00121938       0.01857287       0.01827316 </v>
   <v>       0.00897168       0.01342853       0.00649497 </v>
   <v>       0.00445405       0.00277421      -0.01609760 </v>
   <v>       0.01105498       0.00655243       0.02823260 </v>
   <v>      -0.00805174      -0.00052632       0.04157356 </v>
   <v>       0.00361319       0.00923033       0.00260710 </v>
   <v>      -0.01419567      -0.00060785       0.00319050 </v>
   <v>      -0.00087401      -0.03833268       0.00092670 </v>
   <v>      -0.00721602       0.00368924      -0.00957219 </v>
   <v>       0.00132404      -0.00857842      -0.03876280 </v>
   <v>       0.00217797       0.00127274       0.01242756 </v>
   <v>       0.01435943      -0.00567727      -0.00029932 </v>
  </varray>
  <varray name="stress" >
   <v>       1.00659383      -0.40814707      -0.14296856 </v>
   <v>      -0.40814707       0.56848895       0.07622170 </v>
   <v>      -0.14296855       0.07622168       0.54458404 </v>
  </varray>
  <energy>
   <i name="e_fr_energy">   -366.18940287 </i>
   <i name="e_wo_entrp">   -366.19352453 </i>
   <i name="e_0_energy">      0.01236499 </i>
  </energy>
  <time name="totalsc">   20.42   22.88</time>
 </calculation>
 <calculation>
  <scstep>
   <time name="dav">    1.09    1.10</time>
   <time name="total">    1.19    1.39</time>
   <energy>
    <i name="alphaZ">   1433.23098464 </i>
    <i name="ewald"> -17867.33765092 </i>
    <i name="hartreedc">  -6599.42217739 </i>
    <i name="XCdc">   -424.20784658 </i>
    <i name="pawpsdc">  32111.34709743 </i>
    <i name="pawaedc"> -30439.57578446 </i>
    <i name="eentropy">      0.01225874 </i>
    <i name="bandstr">  -2367.88635320 </i>
    <i name="atom">  23787.64855414 </i>
    <i name="e_fr_energy">   -366.19091759 </i>
    <i name="e_wo_entrp">   -366.20317633 </i>
    <i name="e_0_energy">   -366.19500384 </i>
   </energy>
  </scstep>
  <scstep>
   <time name="diag">    0.08    0.08</time>
   <time name="diis">    0.80    0.81</time>
   <time name="orth">    0.01    0.01</time>
   <time name="total">    0.96    1.01</time>
   <energy>
    <i name="e_fr_energy">   -366.19088140 </i>
    <i name="e_wo_entrp">   -366.20325471 </i>
    <i name="e_0_energy">   -366.19500584 </i>
   </energy>
  </scstep>
  <scstep>
   <time name="diag">    0.08    0.08</time>
   <time name="diis">    0.82    0.82</time>
   <time name="orth">    0.01    0.01</time>
   <time name="total">    0.99    1.04</time>
   <energy>
    <i name="e_fr_energy">   -366.19079621 </i>
    <i name="e_wo_entrp">   -366.20312943 </i>
    <i name="e_0_energy">   -366.19490728 </i>
   </energy>
  </scstep>
  <scstep>
   <time name="diag">    0.08    0.08</time>
   <time name="diis">    0.75    0.76</time>
   <time name="orth">    0.01    0.01</time>
   <time name="total">    0.91    0.96</time>
   <energy>
    <i name="e_fr_energy">   -366.19074853 </i>
    <i name="e_wo_entrp">   -366.20305464 </i>
    <i name="e_0_energy">   -366.19485057 </i>
   </energy>
  </scstep>
  <scstep>
   <time name="diag">    0.07    0.07</time>
   <time name="diis">    0.51    0.51</time>
   <time name="orth">    0.01    0.01</time>
   <time name="total">    0.63    0.68</time>
   <energy>
    <i name="alphaZ">   1433.23098464 </i>
    <i name="ewald"> -17867.33765092 </i>
    <i name="hartreedc">  -6600.96867273 </i>
    <i name="XCdc">   -424.14340775 </i>
    <i name="pawpsdc">  32093.45199166 </i>
    <i name="pawaedc"> -30421.62155627 </i>
    <i name="eentropy">      0.01234234 </i>
    <i name="bandstr">  -2366.46332408 </i>
    <i name="atom">  23787.64855414 </i>
    <i name="e_fr_energy">   -366.19073897 </i>
    <i name="e_wo_entrp">   -366.20308131 </i>
    <i name="e_0_energy">   -366.19485308 </i>
   </energy>
  </scstep>
  <structure>
   <crystal>
    <varray name="basis" >
     <v>       6.92557880       0.01344018       0.02748308 </v>
     <v>       0.02003394      10.25411070       0.00477119 </v>
     <v>       0.04069079       0.00443385      10.20966625 </v>
    </varray>
    <i name="volume">    725.03174435 </i>
    <varray name="rec_basis" >
     <v>       0.14439509      -0.00028184      -0.00057537 </v>
     <v>      -0.00018909       0.09752225      -0.00004160 </v>
     <v>      -0.00038860      -0.00004482       0.09794796 </v>
    </varray>
   </crystal>
   <varray name="positions" >
    <v>       0.75337131       0.48864595       0.49720569 </v>
    <v>       0.98876053       0.99844232       0.99798246 </v>
    <v>       0.00783797       0.32379185       0.97946400 </v>
    <v>       0.00250442       0.66713319       0.66473500 </v>
    <v>       0.48417121       0.99836431       0.31865387 </v>
    <v>       0.75521123       0.49668518       0.16790975 </v>
    <v>       0.51134807       0.67486554       0.00493156 </v>
    <v>       0.73854558       0.82079944       0.83393357 </v>
    <v>       0.23154755       0.17321526       0.16536923 </v>
    <v>       0.99016008       0.67323325       0.99789839 </v>
    <v>       0.49669479       0.01086605       0.67643381 </v>
    <v>       0.73553712       0.17890896       0.81786854 </v>
    <v>       0.75688065       0.82235485       0.16204994 </v>
    <v>       0.26153076       0.16674842       0.82259107 </v>
    <v>       0.49389741       0.65997074       0.66571333 </v>
    <v>       0.24971849       0.16637328       0.50926899 </v>
    <v>       0.03769004       0.33395524       0.34713919 </v>
    <v>       0.01368639       0.33166249       0.67087940 </v>
    <v>       0.26604749       0.50169159       0.83617842 </v>
    <v>       0.28292924       0.83990405       0.51824014 </v>
    <v>       0.24701750       0.81910352       0.14544972 </v>
    <v>       0.48329575       0.33219018       0.66676030 </v>
    <v>       0.48920182       0.31698139       0.99364962 </v>
    <v>       0.24686884       0.49719252       0.51503264 </v>
    <v>       0.26248432       0.82662420       0.83736489 </v>
    <v>       0.72061064       0.84127793       0.50748115 </v>
    <v>       0.99973643       0.00139291       0.67137815 </v>
    <v>       0.73042484       0.49900020       0.83398496 </v>
    <v>       0.24745582       0.50609526       0.14674899 </v>
    <v>       0.01820649       0.67700302       0.34145867 </v>
    <v>       0.50737030       0.00563518       0.00154160 </v>
    <v>       0.75227833       0.17256989       0.49943534 </v>
    <v>       0.48434598       0.66883223       0.33220647 </v>
    <v>       0.46430713       0.33559691       0.33407704 </v>
    <v>       0.02022544       0.98980478       0.33495861 </v>
    <v>       0.76808704       0.18309895       0.18402250 </v>
   </varray>
  </structure>
  <varray name="forces" >
   <v>       0.03145944       0.00977139       0.01335621 </v>
   <v>       0.01015325       0.00609050       0.00207592 </v>
   <v>       0.00626414       0.00881142      -0.00779601 </v>
   <v>      -0.05937815       0.05808656       0.01898244 </v>
   <v>      -0.00794727      -0.00403802       0.01389119 </v>
   <v>      -0.00430345      -0.00153359      -0.02800026 </v>
   <v>       0.00460594      -0.00863620       0.01965735 </v>
   <v>      -0.00926482       0.00493791       0.00509959 </v>
   <v>      -0.00252497      -0.02066860      -0.01370227 </v>
   <v>      -0.01226800      -0.00430798       0.01958223 </v>
   <v>      -0.00673156       0.00498389      -0.01063595 </v>
   <v>      -0.01219140      -0.00500006      -0.00344186 </v>
   <v>       0.00427313       0.01803076      -0.00577785 </v>
   <v>       0.00030537      -0.01336243       0.01732305 </v>
   <v>       0.02746433       0.02564297       0.00345930 </v>
   <v>      -0.00383249       0.10314447       0.00071005 </v>
   <v>       0.02050834      -0.00004625      -0.02505124 </v>
   <v>      -0.01595142      -0.00660142       0.01822397 </v>
   <v>      -0.00339029      -0.00388586      -0.13252220 </v>
   <v>      -0.00002132      -0.07673942      -0.00206694 </v>
   <v>      -0.00110573       0.01563588      -0.00785690 </v>
   <v>       0.02313703      -0.01168015       0.00259161 </v>
   <v>      -0.00609701      -0.00141295      -0.00089463 </v>
   <v>      -0.00419484      -0.10301039       0.06062963 </v>
   <v>       0.00059541       0.01655484       0.01754800 </v>
   <v>       0.00526145       0.01529611       0.00533520 </v>
   <v>       0.00765648       0.00250166      -0.01538057 </v>
   <v>       0.00832747       0.00690607       0.02745234 </v>
   <v>      -0.00843226      -0.00008342       0.03482167 </v>
   <v>       0.00504712       0.00888858       0.00344191 </v>
   <v>      -0.01206908       0.00064685       0.00305189 </v>
   <v>      -0.00010146      -0.03484199      -0.00064766 </v>
   <v>      -0.00705593       0.00330509      -0.00896202 </v>
   <v>       0.00408869      -0.00906002      -0.03674234 </v>
   <v>       0.00408487       0.00160298       0.01295419 </v>
   <v>       0.01362898      -0.00592917      -0.00070904 </v>
  </varray>
  <varray name="stress" >
   <v>       0.51731555      -0.38919035      -0.11277023 </v>
   <v>      -0.38919032       0.15612391       0.07097730 </v>
   <v>      -0.11277019       0.07097725       0.07970684 </v>
  </varray>
  <energy>
   <i name="e_fr_energy">   -366.19073897 </i>
   <i name="e_wo_entrp">   -366.19485308 </i>
   <i name="e_0_energy">      0.01234234 </i>
  </energy>
  <time name="totalsc">    6.23    6.92</time>
 </calculation>
 <calculation>
  <scstep>
   <time name="dav">    1.05    1.06</time>
   <time name="total">    1.15    1.36</time>
   <energy>
    <i name="alphaZ">   1431.57523343 </i>
    <i name="ewald"> -17859.50574848 </i>
    <i name="hartreedc">  -6599.38643017 </i>
    <i name="XCdc">   -424.45441547 </i>
    <i name="pawpsdc">  32094.42929008 </i>
    <i name="pawaedc"> -30422.60268416 </i>
    <i name="eentropy">      0.01202160 </i>
    <i name="bandstr">  -2373.91099705 </i>
    <i name="atom">  23787.64855414 </i>
    <i name="e_fr_energy">   -366.19517609 </i>
    <i name="e_wo_entrp">   -366.20719769 </i>
    <i name="e_0_energy">   -366.19918329 </i>
   </energy>
  </scstep>
  <scstep>
   <time name="diag">    0.08    0.08</time>
   <time name="diis">    0.86    0.87</time>
   <time name="orth">    0.01    0.01</time>
   <time name="total">    1.01    1.05</time>
   <energy>
    <i name="e_fr_energy">   -366.19472475 </i>
    <i name="e_wo_entrp">   -366.20708988 </i>
    <i name="e_0_energy">   -366.19884646 </i>
   </energy>
  </scstep>
  <scstep>
   <time name="diag">    0.11    0.11</time>
   <time name="diis">    0.86    0.86</time>
   <time name="orth">    0.01    0.01</time>
   <time name="total">    1.13    1.18</time>
   <energy>
    <i name="e_fr_energy">   -366.19394157 </i>
    <i name="e_wo_entrp">   -366.20618195 </i>
    <i name="e_0_energy">   -366.19802169 </i>
   </energy>
  </scstep>
  <scstep>
   <time name="diag">    0.11    0.11</time>
   <time name="diis">    0.84    0.87</time>
   <time name="orth">    0.01    0.01</time>
   <time name="total">    1.12    1.19</time>
   <energy>
    <i name="e_fr_energy">   -366.19353597 </i>
    <i name="e_wo_entrp">   -366.20569530 </i>
    <i name="e_0_energy">   -366.19758908 </i>
   </energy>
  </scstep>
  <scstep>
   <time name="diag">    0.58    0.58</time>
   <time name="diis">    0.75    0.84</time>
   <time name="orth">    0.01    0.01</time>
   <time name="total">    1.40    1.55</time>
   <energy>
    <i name="e_fr_energy">   -366.19347402 </i>
    <i name="e_wo_entrp">   -366.20574168 </i>
    <i name="e_0_energy">   -366.19756324 </i>
   </energy>
  </scstep>
  <scstep>
   <time name="diag">    0.08    0.08</time>
   <time name="diis">    0.72    0.72</time>
   <time name="orth">    0.01    0.01</time>
   <time name="total">    0.88    0.93</time>
   <energy>
    <i name="e_fr_energy">   -366.19347146 </i>
    <i name="e_wo_entrp">   -366.20569817 </i>
    <i name="e_0_energy">   -366.19754703 </i>
   </energy>
  </scstep>
  <scstep>
   <time name="diag">    0.08    0.08</time>
   <time name="diis">    0.57    0.58</time>
   <time name="orth">    0.01    0.01</time>
   <time name="total">    0.70    0.77</time>
   <energy>
    <i name="alphaZ">   1431.57523343 </i>
    <i name="ewald"> -17859.50574848 </i>
    <i name="hartreedc">  -6603.84149739 </i>
    <i name="XCdc">   -424.26778710 </i>
    <i name="pawpsdc">  32046.96725384 </i>
    <i name="pawaedc"> -30375.09470517 </i>
    <i name="eentropy">      0.01224089 </i>
    <i name="bandstr">  -2369.68701099 </i>
    <i name="atom">  23787.64855414 </i>
    <i name="e_fr_energy">   -366.19346684 </i>
    <i name="e_wo_entrp">   -366.20570772 </i>
    <i name="e_0_energy">   -366.19754713 </i>
   </energy>
  </scstep>
  <structure>
   <crystal>
    <varray name="basis" >
     <v>       6.92937614       0.01190380       0.02695179 </v>
     <v>       0.01776192      10.25728625       0.00519731 </v>
     <v>       0.03991605       0.00485058      10.21269631 </v>
    </varray>
    <i name="volume">    725.87031166 </i>
    <varray name="rec_basis" >
     <v>       0.14431576      -0.00024962      -0.00056394 </v>
     <v>      -0.00016730       0.09749199      -0.00004565 </v>
     <v>      -0.00038077      -0.00004896       0.09791885 </v>
    </varray>
   </crystal>
   <varray name="positions" >
    <v>       0.75356722       0.48869379       0.49727675 </v>
    <v>       0.98883412       0.99846728       0.99799283 </v>
    <v>       0.00786788       0.32382740       0.97943698 </v>
    <v>       0.00209178       0.66740073       0.66483097 </v>
    <v>       0.48413284       0.99835024       0.31870747 </v>
    <v>       0.75518492       0.49667671       0.16778000 </v>
    <v>       0.51137525       0.67481917       0.00502625 </v>
    <v>       0.73849931       0.82082174       0.83394728 </v>
    <v>       0.23153719       0.17312307       0.16530994 </v>
    <v>       0.99008232       0.67321000       0.99799556 </v>
    <v>       0.49666715       0.01089018       0.67638823 </v>
    <v>       0.73546249       0.17888482       0.81785218 </v>
    <v>       0.75691259       0.82243839       0.16201977 </v>
    <v>       0.26152105       0.16669267       0.82267226 </v>
    <v>       0.49406962       0.66009294       0.66572634 </v>
    <v>       0.24969603       0.16684805       0.50926596 </v>
    <v>       0.03784011       0.33396196       0.34702278 </v>
    <v>       0.01358258       0.33164294       0.67095559 </v>
    <v>       0.26602495       0.50167838       0.83555273 </v>
    <v>       0.28291493       0.83954124       0.51822556 </v>
    <v>       0.24701001       0.81918905       0.14540988 </v>
    <v>       0.48344495       0.33214873       0.66676722 </v>
    <v>       0.48917427       0.31697654       0.99365450 </v>
    <v>       0.24685633       0.49669614       0.51531355 </v>
    <v>       0.26249128       0.82670280       0.83744254 </v>
    <v>       0.72066656       0.84133470       0.50750859 </v>
    <v>       0.99976473       0.00140465       0.67130961 </v>
    <v>       0.73049337       0.49902780       0.83410483 </v>
    <v>       0.24740431       0.50609302       0.14692592 </v>
    <v>       0.01822897       0.67704207       0.34146968 </v>
    <v>       0.50728123       0.00563272       0.00155541 </v>
    <v>       0.75227329       0.17240759       0.49943937 </v>
    <v>       0.48430094       0.66884793       0.33216587 </v>
    <v>       0.46431650       0.33556065       0.33391219 </v>
    <v>       0.02023877       0.98981013       0.33501142 </v>
    <v>       0.76817714       0.18307479       0.18402099 </v>
   </varray>
  </structure>
  <varray name="forces" >
   <v>       0.02948256       0.00607963       0.00496866 </v>
   <v>       0.00497390       0.00605570       0.00136050 </v>
   <v>       0.01305359       0.00862092      -0.01033761 </v>
   <v>      -0.03965362       0.04478373       0.00962878 </v>
   <v>      -0.01301730      -0.00605195       0.01714245 </v>
   <v>      -0.00485521      -0.00024580      -0.02075017 </v>
   <v>       0.00380822      -0.00106866       0.01442441 </v>
   <v>      -0.01532583       0.00533714       0.01083344 </v>
   <v>      -0.00238291      -0.01584267      -0.01303253 </v>
   <v>      -0.01086106       0.00171580       0.01201549 </v>
   <v>      -0.01529414       0.00241888      -0.01098987 </v>
   <v>      -0.01374652      -0.00303555      -0.00183538 </v>
   <v>       0.00196458       0.01394815      -0.00296347 </v>
   <v>       0.00612317      -0.01331656       0.01007075 </v>
   <v>       0.02398474       0.01783586       0.00361828 </v>
   <v>      -0.00535818       0.07965183       0.00492345 </v>
   <v>       0.01149266      -0.00543872      -0.01892394 </v>
   <v>      -0.01478914      -0.01076211       0.01738152 </v>
   <v>      -0.00037476      -0.00576380      -0.09492613 </v>
   <v>       0.00811829      -0.05530550       0.00278188 </v>
   <v>      -0.00045640       0.00161858      -0.00527926 </v>
   <v>       0.02228640      -0.01564013       0.00346716 </v>
   <v>      -0.01311299      -0.00449046      -0.00510144 </v>
   <v>      -0.00920620      -0.06285573       0.04647261 </v>
   <v>       0.00078790       0.00992111       0.01431718 </v>
   <v>      -0.00671299       0.01795103       0.00279182 </v>
   <v>       0.01683925       0.00093373      -0.01398299 </v>
   <v>      -0.00041860       0.00785481       0.02260086 </v>
   <v>      -0.00955601       0.00095394       0.01752523 </v>
   <v>       0.00825679       0.00776804       0.00662647 </v>
   <v>      -0.00572316       0.00384607       0.00344904 </v>
   <v>       0.00209700      -0.02356359      -0.00470103 </v>
   <v>      -0.00470620       0.00138362      -0.00574871 </v>
   <v>       0.01108552      -0.01072733      -0.03024210 </v>
   <v>       0.00848952       0.00324311       0.01348350 </v>
   <v>       0.01270713      -0.00781312      -0.00106886 </v>
  </varray>
  <varray name="stress" >
   <v>      -1.06649906      -0.19998591       0.00237106 </v>
   <v>      -0.19998589      -1.14803555       0.04607439 </v>
   <v>       0.00237108       0.04607441      -1.42963705 </v>
  </varray>
  <energy>
   <i name="e_fr_energy">   -366.19346684 </i>
   <i name="e_wo_entrp">   -366.19754713 </i>
   <i name="e_0_energy">      0.01224089 </i>
  </energy>
  <time name="totalsc">    9.64   10.58</time>
 </calculation>
 <calculation>
  <scstep>
   <time name="dav">    1.12    1.15</time>
   <time name="total">    1.22    1.43</time>
   <energy>
    <i name="alphaZ">   1428.27203643 </i>
    <i name="ewald"> -17843.81155551 </i>
    <i name="hartreedc">  -6600.65415719 </i>
    <i name="XCdc">   -424.89138370 </i>
    <i name="pawpsdc">  32047.98144771 </i>
    <i name="pawaedc"> -30376.15271726 </i>
    <i name="eentropy">      0.01165591 </i>
    <i name="bandstr">  -2384.60415033 </i>
    <i name="atom">  23787.64855414 </i>
    <i name="e_fr_energy">   -366.20026979 </i>
    <i name="e_wo_entrp">   -366.21192571 </i>
    <i name="e_0_energy">   -366.20415510 </i>
   </energy>
  </scstep>
  <scstep>
   <time name="diag">    0.18    0.18</time>
   <time name="diis">    0.66    1.30</time>
   <time name="orth">    0.01    0.01</time>
   <time name="total">    0.92    1.61</time>
   <energy>
    <i name="e_fr_energy">   -366.19840890 </i>
    <i name="e_wo_entrp">   -366.21075321 </i>
    <i name="e_0_energy">   -366.20252367 </i>
   </energy>
  </scstep>
  <scstep>
   <time name="diag">    0.08    0.08</time>
   <time name="diis">    0.69    0.87</time>
   <time name="orth">    0.02    0.02</time>
   <time name="total">    0.88    1.11</time>
   <energy>
    <i name="e_fr_energy">   -366.19521173 </i>
    <i name="e_wo_entrp">   -366.20729963 </i>
    <i name="e_0_energy">   -366.19924103 </i>
   </energy>
  </scstep>
  <scstep>
   <time name="diag">    0.29    0.55</time>
   <time name="diis">    0.77    0.78</time>
   <time name="orth">    0.01    0.01</time>
   <time name="total">    1.16    2.14</time>
   <energy>
    <i name="e_fr_energy">   -366.19360349 </i>
    <i name="e_wo_entrp">   -366.20551479 </i>
    <i name="e_0_energy">   -366.19757393 </i>
   </energy>
  </scstep>
  <scstep>
   <time name="diag">    0.07    0.07</time>
   <time name="diis">    0.78    0.79</time>
   <time name="orth">    0.01    0.01</time>
   <time name="total">    0.93    0.98</time>
   <energy>
    <i name="e_fr_energy">   -366.19335526 </i>
    <i name="e_wo_entrp">   -366.20549237 </i>
    <i name="e_0_energy">   -366.19740096 </i>
   </energy>
  </scstep>
  <scstep>
   <time name="diag">    0.08    0.08</time>
   <time name="diis">    0.79    0.80</time>
   <time name="orth">    0.01    0.01</time>
   <time name="total">    0.94    0.99</time>
   <energy>
    <i name="e_fr_energy">   -366.19336971 </i>
    <i name="e_wo_entrp">   -366.20542270 </i>
    <i name="e_0_energy">   -366.19738737 </i>
   </energy>
  </scstep>
  <scstep>
   <time name="diag">    0.07    0.07</time>
   <time name="diis">    0.67    0.67</time>
   <time name="orth">    0.01    0.01</time>
   <time name="total">    0.82    0.86</time>
   <energy>
    <i name="e_fr_energy">   -366.19336411 </i>
    <i name="e_wo_entrp">   -366.20544331 </i>
    <i name="e_0_energy">   -366.19739051 </i>
   </energy>
  </scstep>
  <scstep>
   <time name="diag">    0.07    0.07</time>
   <time name="diis">    0.64    0.65</time>
   <time name="orth">    0.01    0.01</time>
   <time name="total">    0.79    0.84</time>
   <energy>
    <i name="e_fr_energy">   -366.19336623 </i>
    <i name="e_wo_entrp">   -366.20543870 </i>
    <i name="e_0_energy">   -366.19739039 </i>
   </energy>
  </scstep>
  <scstep>
   <time name="diag">    0.07    0.07</time>
   <time name="diis">    0.57    0.57</time>
   <time name="orth">    0.01    0.01</time>
   <time name="total">    0.68    0.73</time>
   <energy>
    <i name="alphaZ">   1428.27203643 </i>
    <i name="ewald"> -17843.81155551 </i>
    <i name="hartreedc">  -6609.44320493 </i>
    <i name="XCdc">   -424.52266405 </i>
    <i name="pawpsdc">  31953.34172091 </i>
    <i name="pawaedc"> -30281.60928606 </i>
    <i name="eentropy">      0.01207366 </i>
    <i name="bandstr">  -2376.08104324 </i>
    <i name="atom">  23787.64855414 </i>
    <i name="e_fr_energy">   -366.19336866 </i>
    <i name="e_wo_entrp">   -366.20544232 </i>
    <i name="e_0_energy">   -366.19739321 </i>
   </energy>
  </scstep>
  <structure>
   <crystal>
    <varray name="basis" >
     <v>       6.93697082       0.00883104       0.02588920 </v>
     <v>       0.01321788      10.26363736       0.00604955 </v>
     <v>       0.03836658       0.00568405      10.21875644 </v>
    </varray>
    <i name="volume">    727.54904832 </i>
    <varray name="rec_basis" >
     <v>       0.14415740      -0.00018533      -0.00054114 </v>
     <v>      -0.00012383       0.09743154      -0.00005373 </v>
     <v>      -0.00036515      -0.00005721       0.09786067 </v>
    </varray>
   </crystal>
   <varray name="positions" >
    <v>       0.75395886       0.48878950       0.49741885 </v>
    <v>       0.98898123       0.99851721       0.99801357 </v>
    <v>       0.00792769       0.32389849       0.97938297 </v>
    <v>       0.00126716       0.66793550       0.66502278 </v>
    <v>       0.48405616       0.99832209       0.31881464 </v>
    <v>       0.75513230       0.49665980       0.16752057 </v>
    <v>       0.51142959       0.67472645       0.00521557 </v>
    <v>       0.73840686       0.82086631       0.83397467 </v>
    <v>       0.23151642       0.17293873       0.16519139 </v>
    <v>       0.98992690       0.67316349       0.99818983 </v>
    <v>       0.49661191       0.01093842       0.67629710 </v>
    <v>       0.73531330       0.17883654       0.81781946 </v>
    <v>       0.75697649       0.82260543       0.16195944 </v>
    <v>       0.26150162       0.16658121       0.82283460 </v>
    <v>       0.49441395       0.66033733       0.66575235 </v>
    <v>       0.24965145       0.16779730       0.50925987 </v>
    <v>       0.03814007       0.33397545       0.34679003 </v>
    <v>       0.01337507       0.33160382       0.67110792 </v>
    <v>       0.26597974       0.50165200       0.83430172 </v>
    <v>       0.28288608       0.83881584       0.51819645 </v>
    <v>       0.24699507       0.81936007       0.14533022 </v>
    <v>       0.48374317       0.33206590       0.66678107 </v>
    <v>       0.48911920       0.31696684       0.99366424 </v>
    <v>       0.24683106       0.49570366       0.51587523 </v>
    <v>       0.26250526       0.82685995       0.83759780 </v>
    <v>       0.72077838       0.84144823       0.50756347 </v>
    <v>       0.99982127       0.00142814       0.67117258 </v>
    <v>       0.73063038       0.49908300       0.83434449 </v>
    <v>       0.24730138       0.50608851       0.14727969 </v>
    <v>       0.01827392       0.67712015       0.34149169 </v>
    <v>       0.50710319       0.00562777       0.00158301 </v>
    <v>       0.75226313       0.17208308       0.49944744 </v>
    <v>       0.48421089       0.66887931       0.33208471 </v>
    <v>       0.46433518       0.33548816       0.33358258 </v>
    <v>       0.02026543       0.98982083       0.33511701 </v>
    <v>       0.76835723       0.18302652       0.18401800 </v>
   </varray>
  </structure>
  <varray name="forces" >
   <v>       0.02526967      -0.00229662      -0.01360220 </v>
   <v>      -0.00390884       0.00578189      -0.00062462 </v>
   <v>       0.02574310       0.00952595      -0.01664197 </v>
   <v>      -0.00054369       0.01909508      -0.00716314 </v>
   <v>      -0.02400473      -0.01148103       0.02538601 </v>
   <v>      -0.00589958       0.00326850      -0.00650985 </v>
   <v>       0.00226264       0.01349425       0.00046771 </v>
   <v>      -0.02757426       0.00404432       0.02111486 </v>
   <v>      -0.00482086      -0.00324708      -0.00901321 </v>
   <v>      -0.00659971       0.01230695      -0.00382746 </v>
   <v>      -0.03116637      -0.00342569      -0.00991727 </v>
   <v>      -0.01668043       0.00287447      -0.00022259 </v>
   <v>      -0.00241957       0.00080801       0.00357845 </v>
   <v>       0.01885252      -0.01244087      -0.00742619 </v>
   <v>       0.01660420       0.00214128       0.00537242 </v>
   <v>      -0.00747725       0.03167753       0.01374977 </v>
   <v>      -0.00655624      -0.01252706      -0.00716572 </v>
   <v>      -0.01102570      -0.01811699       0.01697323 </v>
   <v>       0.00435681      -0.00826389      -0.02138681 </v>
   <v>       0.02292815      -0.01486049       0.01350174 </v>
   <v>       0.00024664      -0.02797178      -0.00042516 </v>
   <v>       0.01912983      -0.02355563       0.00700023 </v>
   <v>      -0.02489032      -0.00773762      -0.01479077 </v>
   <v>      -0.01973235       0.01857261       0.01847717 </v>
   <v>       0.00012786      -0.00606312       0.00709195 </v>
   <v>      -0.02939438       0.02155882      -0.00117159 </v>
   <v>       0.03519075      -0.00406366      -0.00946985 </v>
   <v>      -0.01732171       0.01206666       0.01427298 </v>
   <v>      -0.01148934       0.00459452      -0.01587131 </v>
   <v>       0.01603384       0.00498164       0.01254547 </v>
   <v>       0.00700126       0.00938416       0.00236802 </v>
   <v>       0.00580688      -0.00051576      -0.01178728 </v>
   <v>      -0.00177521      -0.00250892      -0.00034798 </v>
   <v>       0.02534317      -0.01090097      -0.01731937 </v>
   <v>       0.01807566       0.00361368       0.01516625 </v>
   <v>       0.01030757      -0.00981315      -0.00238195 </v>
  </varray>
  <varray name="stress" >
   <v>      -4.47842957       0.16236364       0.24816853 </v>
   <v>       0.16236364      -3.91465940      -0.05155487 </v>
   <v>       0.24816855      -0.05155493      -4.51815075 </v>
  </varray>
  <energy>
   <i name="e_fr_energy">   -366.19336866 </i>
   <i name="e_wo_entrp">   -366.19739321 </i>
   <i name="e_0_energy">      0.01207366 </i>
  </energy>
  <time name="totalsc">   10.05   12.58</time>
 </calculation>
 <calculation>
  <scstep>
   <time name="dav">    0.98    0.99</time>
   <time name="total">    1.10    1.45</time>
   <energy>
    <i name="alphaZ">   1429.85701722 </i>
    <i name="ewald"> -17851.35283569 </i>
    <i name="hartreedc">  -6610.87212790 </i>
    <i name="XCdc">   -424.22734332 </i>
    <i name="pawpsdc">  31952.77561477 </i>
    <i name="pawaedc"> -30281.15379174 </i>
    <i name="eentropy">      0.01235048 </i>
    <i name="bandstr">  -2368.88342885 </i>
    <i name="atom">  23787.64855414 </i>
    <i name="e_fr_energy">   -366.19599088 </i>
    <i name="e_wo_entrp">   -366.20834137 </i>
    <i name="e_0_energy">   -366.20010771 </i>
   </energy>
  </scstep>
  <scstep>
   <time name="diag">    0.08    0.08</time>
   <time name="diis">    0.75    0.76</time>
   <time name="orth">    0.01    0.01</time>
   <time name="total">    0.90    0.96</time>
   <energy>
    <i name="e_fr_energy">   -366.19548676 </i>
    <i name="e_wo_entrp">   -366.20750218 </i>
    <i name="e_0_energy">   -366.19949190 </i>
   </energy>
  </scstep>
  <scstep>
   <time name="diag">    0.07    0.07</time>
   <time name="diis">    0.81    0.82</time>
   <time name="orth">    0.01    0.01</time>
   <time name="total">    0.96    1.01</time>
   <energy>
    <i name="e_fr_energy">   -366.19474836 </i>
    <i name="e_wo_entrp">   -366.20688574 </i>
    <i name="e_0_energy">   -366.19879416 </i>
   </energy>
  </scstep>
  <scstep>
   <time name="diag">    0.08    0.08</time>
   <time name="diis">    0.79    0.80</time>
   <time name="orth">    0.01    0.01</time>
   <time name="total">    0.94    1.00</time>
   <energy>
    <i name="e_fr_energy">   -366.19434805 </i>
    <i name="e_wo_entrp">   -366.20657403 </i>
    <i name="e_0_energy">   -366.19842338 </i>
   </energy>
  </scstep>
  <scstep>
   <time name="diag">    0.07    0.07</time>
   <time name="diis">    0.82    0.86</time>
   <time name="orth">    0.02    0.02</time>
   <time name="total">    0.98    1.07</time>
   <energy>
    <i name="e_fr_energy">   -366.19428883 </i>
    <i name="e_wo_entrp">   -366.20640429 </i>
    <i name="e_0_energy">   -366.19832732 </i>
   </energy>
  </scstep>
  <scstep>
   <time name="diag">    0.08    0.09</time>
   <time name="diis">    0.69    0.70</time>
   <time name="orth">    0.01    0.01</time>
   <time name="total">    0.85    0.93</time>
   <energy>
    <i name="e_fr_energy">   -366.19429741 </i>
    <i name="e_wo_entrp">   -366.20645523 </i>
    <i name="e_0_energy">   -366.19835002 </i>
   </energy>
  </scstep>
  <scstep>
   <time name="diag">    0.07    0.07</time>
   <time name="diis">    0.54    0.55</time>
   <time name="orth">    0.01    0.01</time>
   <time name="total">    0.66    0.71</time>
   <energy>
    <i name="alphaZ">   1429.85701722 </i>
    <i name="ewald"> -17851.35283569 </i>
    <i name="hartreedc">  -6606.37259316 </i>
    <i name="XCdc">   -424.41575938 </i>
    <i name="pawpsdc">  31997.28410435 </i>
    <i name="pawaedc"> -30325.88193610 </i>
    <i name="eentropy">      0.01214637 </i>
    <i name="bandstr">  -2372.97300045 </i>
    <i name="atom">  23787.64855414 </i>
    <i name="e_fr_energy">   -366.19430270 </i>
    <i name="e_wo_entrp">   -366.20644907 </i>
    <i name="e_0_energy">   -366.19835149 </i>
   </energy>
  </scstep>
  <structure>
   <crystal>
    <varray name="basis" >
     <v>       6.93332347       0.01030674       0.02639951 </v>
     <v>       0.01540016      10.26058724       0.00564026 </v>
     <v>       0.03911072       0.00528377      10.21584606 </v>
    </varray>
    <i name="volume">    726.74256820 </i>
    <varray name="rec_basis" >
     <v>       0.14423340      -0.00021618      -0.00055208 </v>
     <v>      -0.00014469       0.09746055      -0.00004985 </v>
     <v>      -0.00037264      -0.00005325       0.09788860 </v>
    </varray>
   </crystal>
   <varray name="positions" >
    <v>       0.75377093       0.48874351       0.49735063 </v>
    <v>       0.98891064       0.99849322       0.99800361 </v>
    <v>       0.00789898       0.32386436       0.97940890 </v>
    <v>       0.00166256       0.66767896       0.66493078 </v>
    <v>       0.48409294       0.99833561       0.31876321 </v>
    <v>       0.75515758       0.49666791       0.16764509 </v>
    <v>       0.51140354       0.67477095       0.00512470 </v>
    <v>       0.73845120       0.82084493       0.83396153 </v>
    <v>       0.23152646       0.17302720       0.16524828 </v>
    <v>       0.99000145       0.67318584       0.99809659 </v>
    <v>       0.49663840       0.01091527       0.67634084 </v>
    <v>       0.73538489       0.17885973       0.81783517 </v>
    <v>       0.75694579       0.82252524       0.16198840 </v>
    <v>       0.26151096       0.16663472       0.82275668 </v>
    <v>       0.49424869       0.66021998       0.66573986 </v>
    <v>       0.24967254       0.16734171       0.50926283 </v>
    <v>       0.03799619       0.33396892       0.34690173 </v>
    <v>       0.01347461       0.33162263       0.67103482 </v>
    <v>       0.26600157       0.50166462       0.83490216 </v>
    <v>       0.28290015       0.83916400       0.51821040 </v>
    <v>       0.24700219       0.81927799       0.14536846 </v>
    <v>       0.48360013       0.33210561       0.66677440 </v>
    <v>       0.48914562       0.31697151       0.99365956 </v>
    <v>       0.24684344       0.49618003       0.51560560 </v>
    <v>       0.26249849       0.82678453       0.83752329 </v>
    <v>       0.72072470       0.84139373       0.50753713 </v>
    <v>       0.99979415       0.00141685       0.67123835 </v>
    <v>       0.73056461       0.49905650       0.83422946 </v>
    <v>       0.24735072       0.50609070       0.14710990 </v>
    <v>       0.01825233       0.67708267       0.34148112 </v>
    <v>       0.50718860       0.00563017       0.00156978 </v>
    <v>       0.75226811       0.17223883       0.49944356 </v>
    <v>       0.48425409       0.66886426       0.33212367 </v>
    <v>       0.46432628       0.33552293       0.33374078 </v>
    <v>       0.02025263       0.98981569       0.33506633 </v>
    <v>       0.76827085       0.18304966       0.18401942 </v>
   </varray>
  </structure>
  <varray name="forces" >
   <v>       0.02642040       0.00087099      -0.00604317 </v>
   <v>      -0.00001789       0.00551389      -0.00029996 </v>
   <v>       0.02002717       0.00986499      -0.01404486 </v>
   <v>      -0.01918991       0.03198381       0.00175749 </v>
   <v>      -0.01975627      -0.00972195       0.02238040 </v>
   <v>      -0.00541149       0.00197932      -0.01273064 </v>
   <v>       0.00156191       0.00552730       0.00594789 </v>
   <v>      -0.02099664       0.00484377       0.01658419 </v>
   <v>      -0.00472011      -0.00803131      -0.00995239 </v>
   <v>      -0.00647056       0.00654230       0.00362304 </v>
   <v>      -0.02394684      -0.00072539      -0.01044537 </v>
   <v>      -0.01468475       0.00028303      -0.00104532 </v>
   <v>      -0.00005650       0.00608711       0.00070160 </v>
   <v>       0.01318693      -0.01250903      -0.00070788 </v>
   <v>       0.01923770       0.00968830       0.00483114 </v>
   <v>      -0.00616112       0.05567556       0.01029072 </v>
   <v>       0.00273049      -0.00675097      -0.01235795 </v>
   <v>      -0.01203677      -0.01326088       0.01724380 </v>
   <v>       0.00152843      -0.00645726      -0.05903898 </v>
   <v>       0.01527328      -0.03667747       0.00896933 </v>
   <v>      -0.00007558      -0.01509939      -0.00376078 </v>
   <v>       0.02000683      -0.01915689       0.00558255 </v>
   <v>      -0.01869906      -0.00474322      -0.01092361 </v>
   <v>      -0.01565490      -0.02147756       0.03271549 </v>
   <v>       0.00003710      -0.00005740       0.01022092 </v>
   <v>      -0.01814277       0.01878080       0.00168969 </v>
   <v>       0.02640119      -0.00266715      -0.01117490 </v>
   <v>      -0.00880592       0.01132496       0.01890502 </v>
   <v>      -0.01043159       0.00390721       0.00021185 </v>
   <v>       0.01302571       0.00591087       0.01002608 </v>
   <v>       0.00106068       0.00606095       0.00189740 </v>
   <v>       0.00405261      -0.01144012      -0.00761878 </v>
   <v>      -0.00402167      -0.00068654      -0.00309970 </v>
   <v>       0.01852630      -0.00913643      -0.02368471 </v>
   <v>       0.01448928       0.00156436       0.01529074 </v>
   <v>       0.01171432      -0.00781054      -0.00194035 </v>
  </varray>
  <varray name="stress" >
   <v>      -3.29109217       0.05070063       0.15637539 </v>
   <v>       0.05070065      -2.94960862      -0.03212106 </v>
   <v>       0.15637532      -0.03212105      -3.36957701 </v>
  </varray>
  <energy>
   <i name="e_fr_energy">   -366.19430270 </i>
   <i name="e_wo_entrp">   -366.19835149 </i>
   <i name="e_0_energy">      0.01214637 </i>
  </energy>
  <time name="totalsc">    8.02    8.93</time>
 </calculation>
 <calculation>
  <scstep>
   <time name="dav">    1.05    1.06</time>
   <time name="total">    1.14    1.35</time>
   <energy>
    <i name="alphaZ">   1430.35006517 </i>
    <i name="ewald"> -17853.05859238 </i>
    <i name="hartreedc">  -6607.52475943 </i>
    <i name="XCdc">   -424.32088567 </i>
    <i name="pawpsdc">  31996.05486530 </i>
    <i name="pawaedc"> -30324.62342779 </i>
    <i name="eentropy">      0.01215289 </i>
    <i name="bandstr">  -2370.73332937 </i>
    <i name="atom">  23787.64855414 </i>
    <i name="e_fr_energy">   -366.19535715 </i>
    <i name="e_wo_entrp">   -366.20751004 </i>
    <i name="e_0_energy">   -366.19940811 </i>
   </energy>
  </scstep>
  <scstep>
   <time name="diag">    0.09    0.09</time>
   <time name="diis">    0.71    0.72</time>
   <time name="orth">    0.01    0.01</time>
   <time name="total">    0.88    0.92</time>
   <energy>
    <i name="e_fr_energy">   -366.19530867 </i>
    <i name="e_wo_entrp">   -366.20742883 </i>
    <i name="e_0_energy">   -366.19934872 </i>
   </energy>
  </scstep>
  <scstep>
   <time name="diag">    0.07    0.07</time>
   <time name="diis">    0.74    0.74</time>
   <time name="orth">    0.01    0.01</time>
   <time name="total">    0.89    0.94</time>
   <energy>
    <i name="e_fr_energy">   -366.19523213 </i>
    <i name="e_wo_entrp">   -366.20738652 </i>
    <i name="e_0_energy">   -366.19928359 </i>
   </energy>
  </scstep>
  <scstep>
   <time name="diag">    0.08    0.08</time>
   <time name="diis">    0.63    0.65</time>
   <time name="orth">    0.03    0.03</time>
   <time name="total">    0.80    0.89</time>
   <energy>
    <i name="e_fr_energy">   -366.19520623 </i>
    <i name="e_wo_entrp">   -366.20736489 </i>
    <i name="e_0_energy">   -366.19925912 </i>
   </energy>
  </scstep>
  <scstep>
   <time name="diag">    0.07    0.07</time>
   <time name="diis">    0.34    0.35</time>
   <time name="orth">    0.01    0.01</time>
   <time name="total">    0.46    0.52</time>
   <energy>
    <i name="alphaZ">   1430.35006517 </i>
    <i name="ewald"> -17853.05859238 </i>
    <i name="hartreedc">  -6606.17691883 </i>
    <i name="XCdc">   -424.37701133 </i>
    <i name="pawpsdc">  32012.56497856 </i>
    <i name="pawaedc"> -30341.10528179 </i>
    <i name="eentropy">      0.01215459 </i>
    <i name="bandstr">  -2372.05315424 </i>
    <i name="atom">  23787.64855414 </i>
    <i name="e_fr_energy">   -366.19520612 </i>
    <i name="e_wo_entrp">   -366.20736071 </i>
    <i name="e_0_energy">   -366.19925765 </i>
   </energy>
  </scstep>
  <structure>
   <crystal>
    <varray name="basis" >
     <v>       6.93277002       0.00994238       0.02633184 </v>
     <v>       0.01486113      10.25938577       0.00572437 </v>
     <v>       0.03901324       0.00536582      10.21433374 </v>
    </varray>
    <i name="volume">    726.49205684 </i>
    <varray name="rec_basis" >
     <v>       0.14424488      -0.00020864      -0.00055083 </v>
     <v>      -0.00013959       0.09747195      -0.00005067 </v>
     <v>      -0.00037177      -0.00005409       0.09790309 </v>
    </varray>
   </crystal>
   <varray name="positions" >
    <v>       0.75383992       0.48875593       0.49736527 </v>
    <v>       0.98892903       0.99850229       0.99800605 </v>
    <v>       0.00792163       0.32387829       0.97939489 </v>
    <v>       0.00154487       0.66776222       0.66495571 </v>
    <v>       0.48406837       0.99832713       0.31878814 </v>
    <v>       0.75514693       0.49666681       0.16760610 </v>
    <v>       0.51141149       0.67476217       0.00515144 </v>
    <v>       0.73842371       0.82085299       0.83397350 </v>
    <v>       0.23152032       0.17300004       0.16522835 </v>
    <v>       0.98997710       0.67318336       0.99812277 </v>
    <v>       0.49661343       0.01092096       0.67632413 </v>
    <v>       0.73535513       0.17885385       0.81783056 </v>
    <v>       0.75695374       0.82254926       0.16198121 </v>
    <v>       0.26151850       0.16661437       0.82277661 </v>
    <v>       0.49430629       0.66025551       0.66574555 </v>
    <v>       0.24966225       0.16748894       0.50926734 </v>
    <v>       0.03803583       0.33396717       0.34686626 </v>
    <v>       0.01343952       0.33161096       0.67106275 </v>
    <v>       0.26599723       0.50165804       0.83471531 </v>
    <v>       0.28290807       0.83905447       0.51821134 </v>
    <v>       0.24700030       0.81929169       0.14535657 </v>
    <v>       0.48365257       0.33208545       0.66677897 </v>
    <v>       0.48912464       0.31696789       0.99365522 </v>
    <v>       0.24682834       0.49604485       0.51569272 </v>
    <v>       0.26250024       0.82680416       0.83754796 </v>
    <v>       0.72072496       0.84141754       0.50754489 </v>
    <v>       0.99982121       0.00141841       0.67121541 </v>
    <v>       0.73057504       0.49906919       0.83426916 </v>
    <v>       0.24732996       0.50609214       0.14715430 </v>
    <v>       0.01826776       0.67709544       0.34148899 </v>
    <v>       0.50716711       0.00563264       0.00157420 </v>
    <v>       0.75226992       0.17219237       0.49944066 </v>
    <v>       0.48423979       0.66886784       0.33211193 </v>
    <v>       0.46434268       0.33550919       0.33368735 </v>
    <v>       0.02026686       0.98981782       0.33508736 </v>
    <v>       0.76830225       0.18303963       0.18401804 </v>
   </varray>
  </structure>
  <varray name="forces" >
   <v>       0.02535696       0.00122450      -0.00795522 </v>
   <v>      -0.00120897       0.00603935      -0.00039959 </v>
   <v>       0.01960608       0.00956745      -0.01264209 </v>
   <v>      -0.01487177       0.02725740      -0.00128737 </v>
   <v>      -0.01846359      -0.00851071       0.02223355 </v>
   <v>      -0.00509348       0.00189853      -0.01103581 </v>
   <v>       0.00246443       0.00582997       0.00517597 </v>
   <v>      -0.02090166       0.00641694       0.01660392 </v>
   <v>      -0.00361154      -0.01023734      -0.01176428 </v>
   <v>      -0.00776720       0.00632796       0.00113888 </v>
   <v>      -0.02422483      -0.00137361      -0.01087597 </v>
   <v>      -0.01284429      -0.00200638       0.00090509 </v>
   <v>      -0.00067325       0.00779843       0.00248418 </v>
   <v>       0.01134256      -0.01409361       0.00083404 </v>
   <v>       0.02073179       0.00713859       0.00482874 </v>
   <v>      -0.00618562       0.04476826       0.00920399 </v>
   <v>      -0.00306155      -0.00807572      -0.01219879 </v>
   <v>      -0.01447090      -0.01431993       0.01650557 </v>
   <v>       0.00080023      -0.00605589      -0.04484543 </v>
   <v>       0.01434220      -0.02846897       0.00880520 </v>
   <v>      -0.00006108      -0.01466837      -0.00034022 </v>
   <v>       0.02228816      -0.01878150       0.00455986 </v>
   <v>      -0.01862080      -0.00448817      -0.00941624 </v>
   <v>      -0.01526883      -0.00751758       0.02643644 </v>
   <v>      -0.00079151       0.00042928       0.00887380 </v>
   <v>      -0.01810723       0.02014854      -0.00061826 </v>
   <v>       0.02715042      -0.00299515      -0.01057908 </v>
   <v>      -0.00929775       0.01037008       0.01687532 </v>
   <v>      -0.01087083       0.00268251      -0.00351087 </v>
   <v>       0.01141808       0.00475753       0.01085752 </v>
   <v>       0.00253374       0.00740995       0.00317292 </v>
   <v>       0.00429918      -0.00952126      -0.00959209 </v>
   <v>      -0.00148754      -0.00309208      -0.00216006 </v>
   <v>       0.02214986      -0.00923839      -0.02228275 </v>
   <v>       0.01346328       0.00336953       0.01497707 </v>
   <v>       0.00993726      -0.00999013      -0.00296794 </v>
  </varray>
  <varray name="stress" >
   <v>      -2.70159288       0.02642890       0.15717599 </v>
   <v>       0.02642890      -2.36587299      -0.01317160 </v>
   <v>       0.15717597      -0.01317167      -2.84343479 </v>
  </varray>
  <energy>
   <i name="e_fr_energy">   -366.19520612 </i>
   <i name="e_wo_entrp">   -366.19925765 </i>
   <i name="e_0_energy">      0.01215459 </i>
  </energy>
  <time name="totalsc">    5.72    6.30</time>
 </calculation>
 <calculation>
  <scstep>
   <time name="dav">    1.04    1.18</time>
   <time name="total">    1.16    1.50</time>
   <energy>
    <i name="alphaZ">   1431.83063981 </i>
    <i name="ewald"> -17858.17055311 </i>
    <i name="hartreedc">  -6609.50001719 </i>
    <i name="XCdc">   -424.09793211 </i>
    <i name="pawpsdc">  32011.68099170 </i>
    <i name="pawaedc"> -30340.20815468 </i>
    <i name="eentropy">      0.01218096 </i>
    <i name="bandstr">  -2365.39398641 </i>
    <i name="atom">  23787.64855414 </i>
    <i name="e_fr_energy">   -366.19827689 </i>
    <i name="e_wo_entrp">   -366.21045785 </i>
    <i name="e_0_energy">   -366.20233721 </i>
   </energy>
  </scstep>
  <scstep>
   <time name="diag">    0.13    0.13</time>
   <time name="diis">    0.85    0.86</time>
   <time name="orth">    0.01    0.01</time>
   <time name="total">    1.16    1.21</time>
   <energy>
    <i name="e_fr_energy">   -366.19781545 </i>
    <i name="e_wo_entrp">   -366.20988711 </i>
    <i name="e_0_energy">   -366.20183933 </i>
   </energy>
  </scstep>
  <scstep>
   <time name="diag">    0.10    0.10</time>
   <time name="diis">    0.94    0.98</time>
   <time name="orth">    0.01    0.02</time>
   <time name="total">    1.52    1.70</time>
   <energy>
    <i name="e_fr_energy">   -366.19719228 </i>
    <i name="e_wo_entrp">   -366.20937337 </i>
    <i name="e_0_energy">   -366.20125264 </i>
[...]
       <r>    6.6479    1.0000 </r>
       <r>    6.7088    1.0000 </r>
       <r>    6.7312    1.0000 </r>
       <r>    6.7788    1.0000 </r>
       <r>    6.7836    1.0000 </r>
       <r>    6.8162    1.0000 </r>
       <r>    6.8692    1.0000 </r>
       <r>    6.9198    1.0002 </r>
       <r>    6.9574    1.0007 </r>
       <r>    6.9974    1.0022 </r>
       <r>    7.0225    1.0042 </r>
       <r>    7.0776    1.0137 </r>
       <r>    7.1140    1.0241 </r>
       <r>    7.1640    1.0354 </r>
       <r>    7.1732    1.0352 </r>
       <r>    7.2228    1.0022 </r>
       <r>    7.2449    0.9616 </r>
       <r>    7.2810    0.8499 </r>
       <r>    7.3319    0.6048 </r>
       <r>    7.3572    0.4627 </r>
       <r>    7.3925    0.2735 </r>
       <r>    7.4501    0.0535 </r>
       <r>    7.4680    0.0146 </r>
       <r>    7.4840   -0.0095 </r>
       <r>    7.5181   -0.0334 </r>
       <r>    7.5773   -0.0271 </r>
       <r>    7.6022   -0.0195 </r>
       <r>    7.6315   -0.0118 </r>
       <r>    7.6842   -0.0036 </r>
       <r>    7.7019   -0.0023 </r>
       <r>    7.7760   -0.0002 </r>
       <r>    7.8359   -0.0000 </r>
       <r>    7.8746   -0.0000 </r>
       <r>    7.9124   -0.0000 </r>
       <r>    7.9630   -0.0000 </r>
       <r>    7.9758   -0.0000 </r>
       <r>    8.0345   -0.0000 </r>
       <r>    8.0947   -0.0000 </r>
       <r>    8.1411   -0.0000 </r>
       <r>    8.1718   -0.0000 </r>
       <r>    8.2370   -0.0000 </r>
       <r>    8.5145   -0.0000 </r>
       <r>    8.6396   -0.0000 </r>
       <r>    8.7213   -0.0000 </r>
       <r>    9.2064   -0.0000 </r>
       <r>    9.2901   -0.0000 </r>
       <r>    9.3575   -0.0000 </r>
       <r>    9.4590   -0.0000 </r>
       <r>    9.4798   -0.0000 </r>
      </set>
     </set>
    </set>
   </array>
  </eigenvalues>
  <separator name="orbital magnetization" >
   <v name="MAGDIPOLOUT">      0.00000000      0.00000000      0.00000000</v>
  </separator>
  <dos>
   <i name="efermi">      7.35062852 </i>
   <total>
    <array>
     <dimension dim="1">gridpoints</dimension>
     <dimension dim="2">spin</dimension>
     <field>energy</field>
     <field>total</field>
     <field>integrated</field>
     <set>
      <set comment="spin 1">
       <r>   -49.7204     0.0000     0.0000 </r>
       <r>   -49.5136     0.0000     0.0000 </r>
       <r>   -49.3069     0.0000     0.0000 </r>
       <r>   -49.1001     0.0000     0.0000 </r>
       <r>   -48.8933     0.0000     0.0000 </r>
       <r>   -48.6866     0.0000     0.0000 </r>
       <r>   -48.4798     0.0000     0.0000 </r>
       <r>   -48.2730    -0.0000    -0.0000 </r>
       <r>   -48.0663    -0.0000    -0.0000 </r>
       <r>   -47.8595    -0.0000    -0.0000 </r>
       <r>   -47.6527    -0.0000    -0.0000 </r>
       <r>   -47.4460    -0.0000    -0.0000 </r>
       <r>   -47.2392    -0.0434    -0.0090 </r>
       <r>   -47.0324    -1.3375    -0.2855 </r>
       <r>   -46.8257    27.8094     5.4645 </r>
       <r>   -46.6189    57.8481    17.4255 </r>
       <r>   -46.4121     3.1966    18.0864 </r>
       <r>   -46.2054    -0.4171    18.0002 </r>
       <r>   -45.9986    -0.0008    18.0000 </r>
       <r>   -45.7918    -0.0000    18.0000 </r>
       <r>   -45.5851    -0.0000    18.0000 </r>
       <r>   -45.3783     0.0000    18.0000 </r>
       <r>   -45.1715     0.0000    18.0000 </r>
       <r>   -44.9648     0.0000    18.0000 </r>
       <r>   -44.7580     0.0000    18.0000 </r>
       <r>   -44.5512     0.0000    18.0000 </r>
       <r>   -44.3445     0.0000    18.0000 </r>
       <r>   -44.1377     0.0000    18.0000 </r>
       <r>   -43.9310     0.0000    18.0000 </r>
       <r>   -43.7242     0.0000    18.0000 </r>
       <r>   -43.5174     0.0000    18.0000 </r>
       <r>   -43.3107     0.0000    18.0000 </r>
       <r>   -43.1039     0.0000    18.0000 </r>
       <r>   -42.8971     0.0000    18.0000 </r>
       <r>   -42.6904     0.0000    18.0000 </r>
       <r>   -42.4836     0.0000    18.0000 </r>
       <r>   -42.2768    -0.0000    18.0000 </r>
       <r>   -42.0701    -0.0000    18.0000 </r>
       <r>   -41.8633    -0.0000    18.0000 </r>
       <r>   -41.6565    -0.0000    18.0000 </r>
       <r>   -41.4498    -0.0000    18.0000 </r>
       <r>   -41.2430    -0.0355    17.9927 </r>
       <r>   -41.0362    -1.1268    17.7597 </r>
       <r>   -40.8295    24.3193    22.7881 </r>
       <r>   -40.6227    36.4544    30.3256 </r>
       <r>   -40.4159    -1.5129    30.0128 </r>
       <r>   -40.2092    -0.0617    30.0000 </r>
       <r>   -40.0024    -0.0000    30.0000 </r>
       <r>   -39.7956    -0.0000    30.0000 </r>
       <r>   -39.5889     0.0000    30.0000 </r>
       <r>   -39.3821     0.0000    30.0000 </r>
       <r>   -39.1754     0.0000    30.0000 </r>
       <r>   -38.9686     0.0000    30.0000 </r>
       <r>   -38.7618     0.0000    30.0000 </r>
       <r>   -38.5551     0.0000    30.0000 </r>
       <r>   -38.3483     0.0000    30.0000 </r>
       <r>   -38.1415     0.0000    30.0000 </r>
       <r>   -37.9348     0.0000    30.0000 </r>
       <r>   -37.7280     0.0000    30.0000 </r>
       <r>   -37.5212     0.0000    30.0000 </r>
       <r>   -37.3145     0.0000    30.0000 </r>
       <r>   -37.1077     0.0000    30.0000 </r>
       <r>   -36.9009     0.0000    30.0000 </r>
       <r>   -36.6942     0.0000    30.0000 </r>
       <r>   -36.4874     0.0000    30.0000 </r>
       <r>   -36.2806     0.0000    30.0000 </r>
       <r>   -36.0739     0.0000    30.0000 </r>
       <r>   -35.8671     0.0000    30.0000 </r>
       <r>   -35.6603     0.0000    30.0000 </r>
       <r>   -35.4536     0.0000    30.0000 </r>
       <r>   -35.2468     0.0000    30.0000 </r>
       <r>   -35.0400     0.0000    30.0000 </r>
       <r>   -34.8333     0.0000    30.0000 </r>
       <r>   -34.6265     0.0000    30.0000 </r>
       <r>   -34.4197     0.0000    30.0000 </r>
       <r>   -34.2130     0.0000    30.0000 </r>
       <r>   -34.0062     0.0000    30.0000 </r>
       <r>   -33.7995     0.0000    30.0000 </r>
       <r>   -33.5927     0.0000    30.0000 </r>
       <r>   -33.3859     0.0000    30.0000 </r>
       <r>   -33.1792     0.0000    30.0000 </r>
       <r>   -32.9724     0.0000    30.0000 </r>
       <r>   -32.7656     0.0000    30.0000 </r>
       <r>   -32.5589     0.0000    30.0000 </r>
       <r>   -32.3521     0.0000    30.0000 </r>
       <r>   -32.1453     0.0000    30.0000 </r>
       <r>   -31.9386     0.0000    30.0000 </r>
       <r>   -31.7318     0.0000    30.0000 </r>
       <r>   -31.5250     0.0000    30.0000 </r>
       <r>   -31.3183     0.0000    30.0000 </r>
       <r>   -31.1115     0.0000    30.0000 </r>
       <r>   -30.9047     0.0000    30.0000 </r>
       <r>   -30.6980     0.0000    30.0000 </r>
       <r>   -30.4912     0.0000    30.0000 </r>
       <r>   -30.2844     0.0000    30.0000 </r>
       <r>   -30.0777     0.0000    30.0000 </r>
       <r>   -29.8709     0.0000    30.0000 </r>
       <r>   -29.6641     0.0000    30.0000 </r>
       <r>   -29.4574     0.0000    30.0000 </r>
       <r>   -29.2506     0.0000    30.0000 </r>
       <r>   -29.0439     0.0000    30.0000 </r>
       <r>   -28.8371     0.0000    30.0000 </r>
       <r>   -28.6303     0.0000    30.0000 </r>
       <r>   -28.4236     0.0000    30.0000 </r>
       <r>   -28.2168     0.0000    30.0000 </r>
       <r>   -28.0100     0.0000    30.0000 </r>
       <r>   -27.8033     0.0000    30.0000 </r>
       <r>   -27.5965     0.0000    30.0000 </r>
       <r>   -27.3897     0.0000    30.0000 </r>
       <r>   -27.1830     0.0000    30.0000 </r>
       <r>   -26.9762     0.0000    30.0000 </r>
       <r>   -26.7694     0.0000    30.0000 </r>
       <r>   -26.5627     0.0000    30.0000 </r>
       <r>   -26.3559     0.0000    30.0000 </r>
       <r>   -26.1491     0.0000    30.0000 </r>
       <r>   -25.9424     0.0000    30.0000 </r>
       <r>   -25.7356     0.0000    30.0000 </r>
       <r>   -25.5288     0.0000    30.0000 </r>
       <r>   -25.3221     0.0000    30.0000 </r>
       <r>   -25.1153     0.0000    30.0000 </r>
       <r>   -24.9085     0.0000    30.0000 </r>
       <r>   -24.7018    -0.0000    30.0000 </r>
       <r>   -24.4950    -0.0000    30.0000 </r>
       <r>   -24.2882    -0.0000    30.0000 </r>
       <r>   -24.0815    -0.0000    30.0000 </r>
       <r>   -23.8747    -0.0000    30.0000 </r>
       <r>   -23.6680    -0.0448    29.9907 </r>
       <r>   -23.4612    -0.8169    29.8218 </r>
       <r>   -23.2544    20.6845    34.0987 </r>
       <r>   -23.0477    46.3429    43.6808 </r>
       <r>   -22.8409    97.9883    63.9413 </r>
       <r>   -22.6341    66.1031    77.6092 </r>
       <r>   -22.4274    31.8988    84.2047 </r>
       <r>   -22.2206    -0.9021    84.0182 </r>
       <r>   -22.0138    -0.0881    84.0000 </r>
       <r>   -21.8071    -0.0001    84.0000 </r>
       <r>   -21.6003    -0.0000    84.0000 </r>
       <r>   -21.3935     0.0000    84.0000 </r>
       <r>   -21.1868     0.0000    84.0000 </r>
       <r>   -20.9800     0.0000    84.0000 </r>
       <r>   -20.7732     0.0000    84.0000 </r>
       <r>   -20.5665     0.0000    84.0000 </r>
       <r>   -20.3597    -0.0000    84.0000 </r>
       <r>   -20.1529    -0.0000    84.0000 </r>
       <r>   -19.9462    -0.0000    84.0000 </r>
       <r>   -19.7394    -0.0000    84.0000 </r>
       <r>   -19.5326    -0.0100    83.9979 </r>
       <r>   -19.3259    -0.7655    83.8397 </r>
       <r>   -19.1191     8.7378    85.6463 </r>
       <r>   -18.9124    77.0151   101.5704 </r>
       <r>   -18.7056    86.7381   119.5048 </r>
       <r>   -18.4988     2.9259   120.1098 </r>
       <r>   -18.2921    -0.5288   120.0005 </r>
       <r>   -18.0853    -0.0022   120.0000 </r>
       <r>   -17.8785    -0.0000   120.0000 </r>
       <r>   -17.6718    -0.0000   120.0000 </r>
       <r>   -17.4650     0.0000   120.0000 </r>
       <r>   -17.2582     0.0000   120.0000 </r>
       <r>   -17.0515     0.0000   120.0000 </r>
       <r>   -16.8447     0.0000   120.0000 </r>
       <r>   -16.6379     0.0000   120.0000 </r>
       <r>   -16.4312     0.0000   120.0000 </r>
       <r>   -16.2244     0.0000   120.0000 </r>
       <r>   -16.0176     0.0000   120.0000 </r>
       <r>   -15.8109     0.0000   120.0000 </r>
       <r>   -15.6041     0.0000   120.0000 </r>
       <r>   -15.3973     0.0000   120.0000 </r>
       <r>   -15.1906     0.0000   120.0000 </r>
       <r>   -14.9838     0.0000   120.0000 </r>
       <r>   -14.7770     0.0000   120.0000 </r>
       <r>   -14.5703     0.0000   120.0000 </r>
       <r>   -14.3635     0.0000   120.0000 </r>
       <r>   -14.1567     0.0000   120.0000 </r>
       <r>   -13.9500     0.0000   120.0000 </r>
       <r>   -13.7432     0.0000   120.0000 </r>
       <r>   -13.5365     0.0000   120.0000 </r>
       <r>   -13.3297     0.0000   120.0000 </r>
       <r>   -13.1229     0.0000   120.0000 </r>
       <r>   -12.9162     0.0000   120.0000 </r>
       <r>   -12.7094     0.0000   120.0000 </r>
       <r>   -12.5026     0.0000   120.0000 </r>
       <r>   -12.2959     0.0000   120.0000 </r>
       <r>   -12.0891     0.0000   120.0000 </r>
       <r>   -11.8823     0.0000   120.0000 </r>
       <r>   -11.6756     0.0000   120.0000 </r>
       <r>   -11.4688     0.0000   120.0000 </r>
       <r>   -11.2620     0.0000   120.0000 </r>
       <r>   -11.0553     0.0000   120.0000 </r>
       <r>   -10.8485     0.0000   120.0000 </r>
       <r>   -10.6417     0.0000   120.0000 </r>
       <r>   -10.4350     0.0000   120.0000 </r>
       <r>   -10.2282     0.0000   120.0000 </r>
       <r>   -10.0214     0.0000   120.0000 </r>
       <r>    -9.8147     0.0000   120.0000 </r>
       <r>    -9.6079     0.0000   120.0000 </r>
       <r>    -9.4011     0.0000   120.0000 </r>
       <r>    -9.1944     0.0000   120.0000 </r>
       <r>    -8.9876     0.0000   120.0000 </r>
       <r>    -8.7809     0.0000   120.0000 </r>
       <r>    -8.5741     0.0000   120.0000 </r>
       <r>    -8.3673     0.0000   120.0000 </r>
       <r>    -8.1606     0.0000   120.0000 </r>
       <r>    -7.9538     0.0000   120.0000 </r>
       <r>    -7.7470     0.0000   120.0000 </r>
       <r>    -7.5403     0.0000   120.0000 </r>
       <r>    -7.3335     0.0000   120.0000 </r>
       <r>    -7.1267     0.0000   120.0000 </r>
       <r>    -6.9200     0.0000   120.0000 </r>
       <r>    -6.7132     0.0000   120.0000 </r>
       <r>    -6.5064     0.0000   120.0000 </r>
       <r>    -6.2997     0.0000   120.0000 </r>
       <r>    -6.0929     0.0000   120.0000 </r>
       <r>    -5.8861     0.0000   120.0000 </r>
       <r>    -5.6794     0.0000   120.0000 </r>
       <r>    -5.4726     0.0000   120.0000 </r>
       <r>    -5.2658     0.0000   120.0000 </r>
       <r>    -5.0591     0.0000   120.0000 </r>
       <r>    -4.8523     0.0000   120.0000 </r>
       <r>    -4.6455     0.0000   120.0000 </r>
       <r>    -4.4388     0.0000   120.0000 </r>
       <r>    -4.2320     0.0000   120.0000 </r>
       <r>    -4.0252     0.0000   120.0000 </r>
       <r>    -3.8185     0.0000   120.0000 </r>
       <r>    -3.6117     0.0000   120.0000 </r>
       <r>    -3.4050     0.0000   120.0000 </r>
       <r>    -3.1982     0.0000   120.0000 </r>
       <r>    -2.9914     0.0000   120.0000 </r>
       <r>    -2.7847     0.0000   120.0000 </r>
       <r>    -2.5779     0.0000   120.0000 </r>
       <r>    -2.3711     0.0000   120.0000 </r>
       <r>    -2.1644     0.0000   120.0000 </r>
       <r>    -1.9576     0.0000   120.0000 </r>
       <r>    -1.7508     0.0000   120.0000 </r>
       <r>    -1.5441     0.0000   120.0000 </r>
       <r>    -1.3373     0.0000   120.0000 </r>
       <r>    -1.1305     0.0000   120.0000 </r>
       <r>    -0.9238     0.0000   120.0000 </r>
       <r>    -0.7170    -0.0000   120.0000 </r>
       <r>    -0.5102    -0.0000   120.0000 </r>
       <r>    -0.3035    -0.0000   120.0000 </r>
       <r>    -0.0967    -0.0000   120.0000 </r>
       <r>     0.1101    -0.0004   119.9999 </r>
       <r>     0.3168    -0.0127   119.9973 </r>
       <r>     0.5236     0.2147   120.0417 </r>
       <r>     0.7304     0.9963   120.2477 </r>
       <r>     0.9371     1.6219   120.5830 </r>
       <r>     1.1439     1.9581   120.9879 </r>
       <r>     1.3507     3.2198   121.6536 </r>
       <r>     1.5574     3.6511   122.4086 </r>
       <r>     1.7642     2.2207   122.8677 </r>
       <r>     1.9709     4.3400   123.7651 </r>
       <r>     2.1777     4.0544   124.6034 </r>
       <r>     2.3845     3.0515   125.2343 </r>
       <r>     2.5912     6.3561   126.5486 </r>
       <r>     2.7980     8.2914   128.2629 </r>
       <r>     3.0048     7.7800   129.8716 </r>
       <r>     3.2115     7.9451   131.5144 </r>
       <r>     3.4183     8.5025   133.2724 </r>
       <r>     3.6251    15.0620   136.3867 </r>
       <r>     3.8318    21.3154   140.7940 </r>
       <r>     4.0386    20.1254   144.9552 </r>
       <r>     4.2454    26.6678   150.4692 </r>
       <r>     4.4521    31.2007   156.9204 </r>
       <r>     4.6589    33.8573   163.9209 </r>
       <r>     4.8657    39.5551   172.0996 </r>
       <r>     5.0724    38.1807   179.9940 </r>
       <r>     5.2792    32.7682   186.7693 </r>
       <r>     5.4860    35.5831   194.1267 </r>
       <r>     5.6927    26.7948   199.6669 </r>
       <r>     5.8995    16.3382   203.0451 </r>
       <r>     6.1063    51.2443   213.6406 </r>
       <r>     6.3130    64.2617   226.9277 </r>
       <r>     6.5198    58.3000   238.9821 </r>
       <r>     6.7265    51.8145   249.6956 </r>
       <r>     6.9333    54.7751   261.0212 </r>
       <r>     7.1401    54.7894   272.3497 </r>
       <r>     7.3468    45.8393   281.8277 </r>
       <r>     7.5536    49.1252   291.9851 </r>
       <r>     7.7604    48.5427   302.0220 </r>
       <r>     7.9671    42.5019   310.8099 </r>
       <r>     8.1739    32.7821   317.5881 </r>
       <r>     8.3807    27.3904   323.2515 </r>
       <r>     8.5874    21.4670   327.6901 </r>
       <r>     8.7942    15.9738   330.9930 </r>
       <r>     9.0010    13.7948   333.8453 </r>
       <r>     9.2077    24.5974   338.9311 </r>
       <r>     9.4145    19.4508   342.9529 </r>
       <r>     9.6213     5.3555   344.0602 </r>
       <r>     9.8280    -0.2819   344.0019 </r>
       <r>    10.0348    -0.0094   344.0000 </r>
       <r>    10.2416    -0.0000   344.0000 </r>
       <r>    10.4483    -0.0000   344.0000 </r>
       <r>    10.6551     0.0000   344.0000 </r>
       <r>    10.8619     0.0000   344.0000 </r>
       <r>    11.0686     0.0000   344.0000 </r>
       <r>    11.2754     0.0000   344.0000 </r>
       <r>    11.4822     0.0000   344.0000 </r>
       <r>    11.6889     0.0000   344.0000 </r>
       <r>    11.8957     0.0000   344.0000 </r>
       <r>    12.1024     0.0000   344.0000 </r>
       <r>    12.3092     0.0000   344.0000 </r>
      </set>
     </set>
    </array>
   </total>
  </dos>
 </calculation>
 <structure name="finalpos" >
  <crystal>
   <varray name="basis" >
    <v>       6.92701586       0.00891044       0.02839913 </v>
    <v>       0.01332496      10.25862614       0.00547984 </v>
    <v>       0.04206920       0.00511886      10.20277036 </v>
   </varray>
   <i name="volume">    725.01220123 </i>
   <varray name="rec_basis" >
    <v>       0.14436499      -0.00018720      -0.00059517 </v>
    <v>      -0.00012519       0.09747913      -0.00004839 </v>
    <v>      -0.00040177      -0.00005183       0.09801428 </v>
   </varray>
  </crystal>
  <varray name="positions" >
   <v>       0.75528305       0.48863658       0.49689042 </v>
   <v>       0.98847432       0.99843488       0.99788547 </v>
   <v>       0.00871393       0.32428874       0.97887505 </v>
   <v>       0.00045469       0.66881040       0.66496489 </v>
   <v>       0.48297095       0.99825764       0.31947932 </v>
   <v>       0.75520204       0.49677099       0.16717924 </v>
   <v>       0.51127884       0.67492769       0.00543689 </v>
   <v>       0.73760208       0.82120113       0.83432854 </v>
   <v>       0.23121849       0.17275397       0.16488499 </v>
   <v>       0.98947803       0.67335615       0.99805222 </v>
   <v>       0.49537363       0.01105190       0.67597602 </v>
   <v>       0.73513044       0.17838427       0.81801067 </v>
   <v>       0.75690679       0.82311381       0.16265849 </v>
   <v>       0.26166624       0.16613441       0.82280031 </v>
   <v>       0.49558193       0.66038760       0.66603507 </v>
   <v>       0.24963706       0.16875287       0.50940274 </v>
   <v>       0.03820577       0.33386064       0.34632193 </v>
   <v>       0.01243559       0.33106290       0.67141295 </v>
   <v>       0.26590663       0.50169985       0.83361412 </v>
   <v>       0.28333843       0.83773668       0.51849118 </v>
   <v>       0.24669547       0.81908883       0.14568828 </v>
   <v>       0.48494929       0.33181519       0.66671521 </v>
   <v>       0.48856540       0.31693523       0.99355904 </v>
   <v>       0.24625074       0.49571380       0.51630345 </v>
   <v>       0.26251234       0.82684736       0.83786968 </v>
   <v>       0.72040982       0.84236653       0.50718253 </v>
   <v>       0.00097396       0.00122633       0.67081831 </v>
   <v>       0.73031701       0.49933141       0.83484997 </v>
   <v>       0.24673228       0.50622091       0.14704178 </v>
   <v>       0.01864295       0.67728217       0.34199878 </v>
   <v>       0.50713846       0.00569260       0.00199089 </v>
   <v>       0.75244128       0.17175436       0.49910365 </v>
   <v>       0.48455731       0.66835169       0.33202866 </v>
   <v>       0.46509687       0.33555898       0.33289518 </v>
   <v>       0.02104297       0.98993596       0.33560566 </v>
   <v>       0.76880190       0.18226653       0.18364542 </v>
  </varray>
 </structure>
</modeling>
