       N       E                     dE             d eps       ncg     rms          rms(c)
DAV:   1     0.203921493436E+04    0.20392E+04   -0.11701E+05  5656   0.107E+03
DAV:   2    -0.800500971125E+02   -0.21193E+04   -0.20491E+04  5928   0.402E+02
DAV:   3    -0.343826856701E+03   -0.26378E+03   -0.25100E+03  8792   0.973E+01
DAV:   4    -0.374477685570E+03   -0.30651E+02   -0.29159E+02  8576   0.307E+01
DAV:   5    -0.377567345765E+03   -0.30897E+01   -0.30237E+01  8376   0.102E+01    0.649E+01
RMM:   6    -0.367395598719E+03    0.10172E+02   -0.25107E+01  7216   0.106E+01    0.304E+01
RMM:   7    -0.370675210656E+03   -0.32796E+01   -0.28124E+01  7590   0.754E+00    0.137E+01
RMM:   8    -0.363254066426E+03    0.74211E+01   -0.79111E+00  7579   0.425E+00    0.472E+00
RMM:   9    -0.362916284233E+03    0.33778E+00   -0.24562E+00  7812   0.200E+00    0.306E+00
RMM:  10    -0.362885374175E+03    0.30910E-01   -0.54932E-01  7824   0.114E+00    0.169E+00
RMM:  11    -0.362853081536E+03    0.32293E-01   -0.18450E-01  7718   0.712E-01    0.784E-01
RMM:  12    -0.362845726456E+03    0.73551E-02   -0.74527E-02  7894   0.373E-01    0.440E-01
RMM:  13    -0.362843264309E+03    0.24621E-02   -0.22190E-02  7833   0.213E-01    0.258E-01
RMM:  14    -0.362843194628E+03    0.69681E-04   -0.75687E-03  8139   0.104E-01    0.149E-01
RMM:  15    -0.362843431128E+03   -0.23650E-03   -0.36995E-03  7942   0.705E-02    0.742E-02
RMM:  16    -0.362843494449E+03   -0.63321E-04   -0.15257E-03  7460   0.413E-02    0.338E-02
RMM:  17    -0.362843520827E+03   -0.26378E-04   -0.67930E-04  6150   0.256E-02    0.208E-02
RMM:  18    -0.362843536186E+03   -0.15359E-04   -0.33365E-04  6208   0.206E-02    0.104E-02
RMM:  19    -0.362843545045E+03   -0.88587E-05   -0.13222E-04  4898   0.136E-02    0.608E-03
RMM:  20    -0.362843547822E+03   -0.27771E-05   -0.59343E-05  4483   0.115E-02
   1 F= -.36284355E+03 E0= -.36284874E+03  d E =-.362844E+03
       N       E                     dE             d eps       ncg     rms          rms(c)
DAV:   1    -0.362928832952E+03   -0.85288E-01   -0.31892E+00  6224   0.586E+00    0.197E+00
RMM:   2    -0.362917114154E+03    0.11719E-01   -0.34847E-01  7466   0.154E+00    0.756E-01
RMM:   3    -0.362898362072E+03    0.18752E-01   -0.69065E-02  7950   0.470E-01    0.559E-01
RMM:   4    -0.362890324769E+03    0.80373E-02   -0.19707E-02  7915   0.275E-01    0.286E-01
RMM:   5    -0.362889118793E+03    0.12060E-02   -0.52427E-03  7852   0.164E-01    0.206E-01
RMM:   6    -0.362889320393E+03   -0.20160E-03   -0.25086E-03  8130   0.809E-02    0.131E-01
RMM:   7    -0.362889287984E+03    0.32409E-04   -0.93959E-04  7915   0.578E-02    0.734E-02
RMM:   8    -0.362889328623E+03   -0.40639E-04   -0.55183E-04  7150   0.328E-02    0.537E-02
RMM:   9    -0.362889350532E+03   -0.21909E-04   -0.18247E-04  6635   0.258E-02    0.366E-02
RMM:  10    -0.362889365042E+03   -0.14510E-04   -0.10148E-04  5469   0.177E-02    0.168E-02
RMM:  11    -0.362889362406E+03    0.26361E-05   -0.70209E-05  4612   0.153E-02
   2 F= -.36288936E+03 E0= -.36289473E+03  d E =-.458146E-01
       N       E                     dE             d eps       ncg     rms          rms(c)
DAV:   1    -0.363127390906E+03   -0.23803E+00   -0.15654E+01  6024   0.130E+01    0.427E+00
RMM:   2    -0.363072871217E+03    0.54520E-01   -0.17018E+00  7551   0.341E+00    0.170E+00
RMM:   3    -0.362972775205E+03    0.10010E+00   -0.32997E-01  7960   0.102E+00    0.122E+00
RMM:   4    -0.362935511248E+03    0.37264E-01   -0.98231E-02  7942   0.610E-01    0.634E-01
RMM:   5    -0.362929215117E+03    0.62961E-02   -0.25065E-02  7850   0.368E-01    0.450E-01
RMM:   6    -0.362930375573E+03   -0.11605E-02   -0.12628E-02  8241   0.179E-01    0.286E-01
RMM:   7    -0.362930334912E+03    0.40660E-04   -0.46746E-03  8650   0.130E-01    0.161E-01
RMM:   8    -0.362930575542E+03   -0.24063E-03   -0.26742E-03  8814   0.693E-02    0.121E-01
RMM:   9    -0.362930724714E+03   -0.14917E-03   -0.82048E-04  8033   0.505E-02    0.836E-02
RMM:  10    -0.362930870473E+03   -0.14576E-03   -0.50019E-04  7415   0.346E-02    0.387E-02
RMM:  11    -0.362930894015E+03   -0.23542E-04   -0.33608E-04  6567   0.283E-02    0.171E-02
RMM:  12    -0.362930894692E+03   -0.67777E-06   -0.13624E-04  5911   0.184E-02    0.111E-02
RMM:  13    -0.362930893563E+03    0.11291E-05   -0.36707E-05  4517   0.135E-02
   3 F= -.36293089E+03 E0= -.36293673E+03  d E =-.873457E-01
       N       E                     dE             d eps       ncg     rms          rms(c)
DAV:   1    -0.362966032033E+03   -0.35137E-01   -0.29142E+00  5488   0.489E+00    0.878E-01
RMM:   2    -0.362972416590E+03   -0.63846E-02   -0.16591E-01  6801   0.105E+00    0.363E-01
RMM:   3    -0.362969040321E+03    0.33763E-02   -0.19682E-02  7499   0.324E-01    0.275E-01
RMM:   4    -0.362967628184E+03    0.14121E-02   -0.51049E-03  7903   0.126E-01    0.152E-01
RMM:   5    -0.362967406159E+03    0.22202E-03   -0.20271E-03  7869   0.815E-02    0.100E-01
RMM:   6    -0.362967428049E+03   -0.21890E-04   -0.86443E-04  8023   0.494E-02    0.640E-02
RMM:   7    -0.362967435393E+03   -0.73446E-05   -0.34466E-04  7431   0.324E-02    0.366E-02
RMM:   8    -0.362967463071E+03   -0.27678E-04   -0.12792E-04  6087   0.184E-02    0.224E-02
RMM:   9    -0.362967477384E+03   -0.14313E-04   -0.75711E-05  4749   0.152E-02    0.160E-02
RMM:  10    -0.362967488306E+03   -0.10922E-04   -0.38996E-05  4441   0.130E-02    0.998E-03
RMM:  11    -0.362967494371E+03   -0.60650E-05   -0.12065E-05  3274   0.106E-02
   4 F= -.36296749E+03 E0= -.36297335E+03  d E =-.366008E-01
       N       E                     dE             d eps       ncg     rms          rms(c)
DAV:   1    -0.363019220301E+03   -0.51732E-01   -0.26217E+01  5352   0.147E+01    0.267E+00
RMM:   2    -0.363074572050E+03   -0.55352E-01   -0.14653E+00  6898   0.311E+00    0.110E+00
RMM:   3    -0.363043568949E+03    0.31003E-01   -0.17217E-01  7470   0.943E-01    0.807E-01
RMM:   4    -0.363031358008E+03    0.12211E-01   -0.47067E-02  8004   0.384E-01    0.441E-01
RMM:   5    -0.363029454147E+03    0.19039E-02   -0.18390E-02  7950   0.245E-01    0.296E-01
RMM:   6    -0.363029640063E+03   -0.18592E-03   -0.75223E-03  8364   0.143E-01    0.193E-01
RMM:   7    -0.363029680635E+03   -0.40572E-04   -0.30245E-03  8741   0.962E-02    0.112E-01
RMM:   8    -0.363029901339E+03   -0.22070E-03   -0.14224E-03  8453   0.519E-02    0.712E-02
RMM:   9    -0.363029978905E+03   -0.77566E-04   -0.57456E-04  7757   0.375E-02    0.514E-02
RMM:  10    -0.363030046655E+03   -0.67750E-04   -0.28234E-04  6997   0.256E-02    0.317E-02
RMM:  11    -0.363030081281E+03   -0.34626E-04   -0.13640E-04  6164   0.206E-02    0.114E-02
RMM:  12    -0.363030087491E+03   -0.62096E-05   -0.52740E-05  4892   0.149E-02
   5 F= -.36303009E+03 E0= -.36303579E+03  d E =-.991939E-01
       N       E                     dE             d eps       ncg     rms          rms(c)
DAV:   1    -0.363032776248E+03   -0.26950E-02   -0.35070E+00  5392   0.539E+00    0.972E-01
RMM:   2    -0.363040512891E+03   -0.77366E-02   -0.19951E-01  6759   0.115E+00    0.394E-01
RMM:   3    -0.363036636561E+03    0.38763E-02   -0.23243E-02  7447   0.354E-01    0.297E-01
RMM:   4    -0.363034943490E+03    0.16931E-02   -0.61694E-03  7904   0.138E-01    0.161E-01
RMM:   5    -0.363034705563E+03    0.23793E-03   -0.24344E-03  7867   0.890E-02    0.106E-01
RMM:   6    -0.363034747383E+03   -0.41820E-04   -0.10173E-03  8109   0.532E-02    0.682E-02
RMM:   7    -0.363034764926E+03   -0.17544E-04   -0.42031E-04  7553   0.354E-02    0.403E-02
RMM:   8    -0.363034798686E+03   -0.33760E-04   -0.15902E-04  6339   0.204E-02    0.256E-02
RMM:   9    -0.363034817471E+03   -0.18784E-04   -0.93926E-05  5070   0.170E-02    0.183E-02
RMM:  10    -0.363034831748E+03   -0.14277E-04   -0.48127E-05  4743   0.139E-02    0.107E-02
RMM:  11    -0.363034838997E+03   -0.72493E-05   -0.14522E-05  3407   0.111E-02
   6 F= -.36303484E+03 E0= -.36304043E+03  d E =-.103945E+00
       N       E                     dE             d eps       ncg     rms          rms(c)
DAV:   1    -0.363041457780E+03   -0.66260E-02   -0.78457E-01  5384   0.260E+00    0.311E-01
RMM:   2    -0.363043955333E+03   -0.24976E-02   -0.35380E-02  7561   0.526E-01    0.177E-01
RMM:   3    -0.363043022174E+03    0.93316E-03   -0.41927E-03  7757   0.141E-01    0.119E-01
RMM:   4    -0.363042824615E+03    0.19756E-03   -0.10083E-03  7804   0.537E-02    0.719E-02
RMM:   5    -0.363042786554E+03    0.38061E-04   -0.41759E-04  7704   0.398E-02    0.387E-02
RMM:   6    -0.363042782330E+03    0.42236E-05   -0.17938E-04  6756   0.218E-02    0.265E-02
RMM:   7    -0.363042773139E+03    0.91910E-05   -0.68793E-05  4950   0.143E-02
   7 F= -.36304277E+03 E0= -.36304831E+03  d E =-.793414E-02
       N       E                     dE             d eps       ncg     rms          rms(c)
DAV:   1    -0.363046741565E+03   -0.39592E-02   -0.70576E+00  5152   0.780E+00    0.924E-01
RMM:   2    -0.363069221559E+03   -0.22480E-01   -0.31831E-01  7551   0.159E+00    0.525E-01
RMM:   3    -0.363061034306E+03    0.81873E-02   -0.37234E-02  7855   0.423E-01    0.352E-01
RMM:   4    -0.363059358847E+03    0.16755E-02   -0.88678E-03  7838   0.159E-01    0.213E-01
RMM:   5    -0.363059069690E+03    0.28916E-03   -0.37476E-03  7753   0.119E-01    0.115E-01
RMM:   6    -0.363059072534E+03   -0.28435E-05   -0.16893E-03  8469   0.651E-02    0.785E-02
RMM:   7    -0.363059023450E+03    0.49083E-04   -0.67524E-04  7795   0.368E-02    0.478E-02
RMM:   8    -0.363059027867E+03   -0.44167E-05   -0.22545E-04  6187   0.228E-02    0.260E-02
RMM:   9    -0.363059033463E+03   -0.55956E-05   -0.15113E-04  6049   0.196E-02    0.144E-02
RMM:  10    -0.363059032688E+03    0.77450E-06   -0.55731E-05  5231   0.150E-02
   8 F= -.36305903E+03 E0= -.36306438E+03  d E =-.241937E-01
       N       E                     dE             d eps       ncg     rms          rms(c)
DAV:   1    -0.363005101212E+03    0.53932E-01   -0.28220E+01  5152   0.156E+01    0.181E+00
RMM:   2    -0.363095939932E+03   -0.90839E-01   -0.12832E+00  7521   0.317E+00    0.103E+00
RMM:   3    -0.363065443127E+03    0.30497E-01   -0.14923E-01  7906   0.862E-01    0.703E-01
RMM:   4    -0.363058977437E+03    0.64657E-02   -0.34949E-02  7812   0.316E-01    0.429E-01
RMM:   5    -0.363057797734E+03    0.11797E-02   -0.14823E-02  7697   0.238E-01    0.231E-01
RMM:   6    -0.363057761367E+03    0.36367E-04   -0.66165E-03  8567   0.129E-01    0.154E-01
RMM:   7    -0.363057607651E+03    0.15372E-03   -0.27036E-03  9088   0.720E-02    0.945E-02
RMM:   8    -0.363057657026E+03   -0.49375E-04   -0.10272E-03  8594   0.420E-02    0.526E-02
RMM:   9    -0.363057684098E+03   -0.27072E-04   -0.49366E-04  7683   0.332E-02    0.304E-02
RMM:  10    -0.363057691716E+03   -0.76182E-05   -0.20346E-04  6250   0.224E-02    0.171E-02
RMM:  11    -0.363057693422E+03   -0.17064E-05   -0.10037E-04  5646   0.175E-02    0.907E-03
RMM:  12    -0.363057693826E+03   -0.40330E-06   -0.38916E-05  4563   0.133E-02
   9 F= -.36305769E+03 E0= -.36306260E+03  d E =-.228548E-01
       N       E                     dE             d eps       ncg     rms          rms(c)
DAV:   1    -0.363050732562E+03    0.69609E-02   -0.81628E+00  5152   0.841E+00    0.998E-01
RMM:   2    -0.363075271901E+03   -0.24539E-01   -0.36353E-01  7542   0.170E+00    0.547E-01
RMM:   3    -0.363066232292E+03    0.90396E-02   -0.41218E-02  7657   0.446E-01    0.368E-01
RMM:   4    -0.363064253850E+03    0.19784E-02   -0.10017E-02  7892   0.172E-01    0.217E-01
RMM:   5    -0.363063948632E+03    0.30522E-03   -0.41798E-03  7875   0.126E-01    0.120E-01
RMM:   6    -0.363063998910E+03   -0.50278E-04   -0.17917E-03  8523   0.671E-02    0.804E-02
RMM:   7    -0.363063975617E+03    0.23294E-04   -0.69406E-04  7927   0.373E-02    0.500E-02
RMM:   8    -0.363064008424E+03   -0.32807E-04   -0.24817E-04  6436   0.234E-02    0.275E-02
RMM:   9    -0.363064030542E+03   -0.22118E-04   -0.14292E-04  5855   0.196E-02    0.149E-02
RMM:  10    -0.363064040371E+03   -0.98292E-05   -0.57287E-05  5129   0.153E-02
  10 F= -.36306404E+03 E0= -.36306918E+03  d E =-.292014E-01
       N       E                     dE             d eps       ncg     rms          rms(c)
DAV:   1    -0.363090653352E+03   -0.26623E-01   -0.28146E+00  5672   0.539E+00    0.152E+00
RMM:   2    -0.363083700895E+03    0.69525E-02   -0.24128E-01  7026   0.133E+00    0.565E-01
RMM:   3    -0.363075747038E+03    0.79539E-02   -0.41730E-02  7791   0.411E-01    0.423E-01
RMM:   4    -0.363070996376E+03    0.47507E-02   -0.12333E-02  7935   0.219E-01    0.213E-01
RMM:   5    -0.363070496741E+03    0.49963E-03   -0.36924E-03  7797   0.128E-01    0.162E-01
RMM:   6    -0.363070685306E+03   -0.18856E-03   -0.16896E-03  8169   0.684E-02    0.986E-02
RMM:   7    -0.363070737913E+03   -0.52608E-04   -0.66598E-04  7826   0.480E-02    0.540E-02
RMM:   8    -0.363070807227E+03   -0.69313E-04   -0.32828E-04  6823   0.268E-02    0.394E-02
RMM:   9    -0.363070847284E+03   -0.40057E-04   -0.12878E-04  5512   0.216E-02    0.299E-02
RMM:  10    -0.363070889306E+03   -0.42022E-04   -0.73571E-05  4978   0.158E-02    0.144E-02
RMM:  11    -0.363070911452E+03   -0.22146E-04   -0.48934E-05  4393   0.147E-02    0.608E-03
RMM:  12    -0.363070914073E+03   -0.26207E-05   -0.23559E-05  3840   0.133E-02
  11 F= -.36307091E+03 E0= -.36307573E+03  d E =-.687370E-02
       N       E                     dE             d eps       ncg     rms          rms(c)
DAV:   1    -0.363071886529E+03   -0.97508E-03   -0.11764E-01  5744   0.110E+00    0.309E-01
RMM:   2    -0.363071582741E+03    0.30379E-03   -0.99947E-03  6981   0.272E-01    0.114E-01
RMM:   3    -0.363071257704E+03    0.32504E-03   -0.17373E-03  7769   0.839E-02    0.843E-02
RMM:   4    -0.363071070575E+03    0.18713E-03   -0.51824E-04  7814   0.443E-02    0.422E-02
RMM:   5    -0.363071056562E+03    0.14013E-04   -0.15501E-04  6919   0.263E-02    0.319E-02
RMM:   6    -0.363071072501E+03   -0.15939E-04   -0.65282E-05  4949   0.148E-02    0.207E-02
RMM:   7    -0.363071081518E+03   -0.90175E-05   -0.27870E-05  3512   0.124E-02
  12 F= -.36307108E+03 E0= -.36307583E+03  d E =-.704115E-02
       N       E                     dE             d eps       ncg     rms          rms(c)
DAV:   1    -0.363072937083E+03   -0.18646E-02   -0.16231E+00  5152   0.373E+00    0.338E-01
RMM:   2    -0.363078146301E+03   -0.52092E-02   -0.65786E-02  6888   0.742E-01    0.173E-01
RMM:   3    -0.363077674287E+03    0.47201E-03   -0.70154E-03  7685   0.207E-01    0.145E-01
RMM:   4    -0.363077524313E+03    0.14997E-03   -0.16156E-03  8715   0.587E-02    0.977E-02
RMM:   5    -0.363077491303E+03    0.33010E-04   -0.62434E-04  7817   0.418E-02    0.564E-02
RMM:   6    -0.363077461667E+03    0.29636E-04   -0.27135E-04  7739   0.338E-02    0.212E-02
RMM:   7    -0.363077461696E+03   -0.29569E-07   -0.96740E-05  5345   0.146E-02
  13 F= -.36307746E+03 E0= -.36308222E+03  d E =-.638018E-02
       N       E                     dE             d eps       ncg     rms          rms(c)
DAV:   1    -0.363071426542E+03    0.60351E-02   -0.42833E+00  5152   0.606E+00    0.545E-01
RMM:   2    -0.363085190701E+03   -0.13764E-01   -0.17373E-01  6774   0.121E+00    0.275E-01
RMM:   3    -0.363084019263E+03    0.11714E-02   -0.18475E-02  7681   0.338E-01    0.234E-01
RMM:   4    -0.363083659708E+03    0.35956E-03   -0.42998E-03  8848   0.948E-02    0.158E-01
RMM:   5    -0.363083587611E+03    0.72096E-04   -0.16355E-03  8050   0.674E-02    0.925E-02
RMM:   6    -0.363083519499E+03    0.68113E-04   -0.74544E-04  8024   0.559E-02    0.352E-02
RMM:   7    -0.363083525097E+03   -0.55986E-05   -0.28424E-04  7172   0.239E-02    0.255E-02
RMM:   8    -0.363083523052E+03    0.20453E-05   -0.77342E-05  5173   0.164E-02
  14 F= -.36308352E+03 E0= -.36308830E+03  d E =-.124415E-01
       N       E                     dE             d eps       ncg     rms          rms(c)
DAV:   1    -0.363030411641E+03    0.53113E-01   -0.17129E+01  5152   0.121E+01    0.109E+00
RMM:   2    -0.363085967737E+03   -0.55556E-01   -0.69768E-01  6724   0.242E+00    0.544E-01
RMM:   3    -0.363081728030E+03    0.42397E-02   -0.74632E-02  7736   0.691E-01    0.473E-01
RMM:   4    -0.363080313132E+03    0.14149E-02   -0.17152E-02  8884   0.191E-01    0.324E-01
RMM:   5    -0.363080000795E+03    0.31234E-03   -0.63563E-03  8184   0.137E-01    0.192E-01
RMM:   6    -0.363079712729E+03    0.28807E-03   -0.30572E-03  7967   0.116E-01    0.721E-02
RMM:   7    -0.363079740311E+03   -0.27582E-04   -0.11812E-03  8901   0.485E-02    0.528E-02
RMM:   8    -0.363079743609E+03   -0.32984E-05   -0.36054E-04  7202   0.273E-02    0.372E-02
RMM:   9    -0.363079753907E+03   -0.10298E-04   -0.20525E-04  6454   0.213E-02    0.237E-02
RMM:  10    -0.363079751459E+03    0.24479E-05   -0.82585E-05  5668   0.158E-02
  15 F= -.36307975E+03 E0= -.36308461E+03  d E =-.866994E-02
       N       E                     dE             d eps       ncg     rms          rms(c)
DAV:   1    -0.363062421741E+03    0.17332E-01   -0.83373E+00  5152   0.845E+00    0.750E-01
RMM:   2    -0.363088236299E+03   -0.25815E-01   -0.33408E-01  6629   0.167E+00    0.374E-01
RMM:   3    -0.363085456306E+03    0.27800E-02   -0.33791E-02  7674   0.470E-01    0.307E-01
RMM:   4    -0.363084740380E+03    0.71593E-03   -0.79061E-03  8724   0.129E-01    0.200E-01
RMM:   5    -0.363084608241E+03    0.13214E-03   -0.29826E-03  8290   0.915E-02    0.119E-01
RMM:   6    -0.363084551480E+03    0.56761E-04   -0.12821E-03  8261   0.713E-02    0.486E-02
RMM:   7    -0.363084572326E+03   -0.20846E-04   -0.50000E-04  8197   0.325E-02    0.342E-02
RMM:   8    -0.363084582480E+03   -0.10154E-04   -0.14349E-04  6007   0.181E-02    0.233E-02
RMM:   9    -0.363084595610E+03   -0.13130E-04   -0.89224E-05  4982   0.158E-02    0.136E-02
RMM:  10    -0.363084601605E+03   -0.59947E-05   -0.34618E-05  4114   0.127E-02
  16 F= -.36308460E+03 E0= -.36308940E+03  d E =-.135201E-01
       N       E                     dE             d eps       ncg     rms          rms(c)
DAV:   1    -0.363086765515E+03   -0.21699E-02   -0.99356E-01  5264   0.292E+00    0.401E-01
RMM:   2    -0.363089274534E+03   -0.25090E-02   -0.44805E-02  7125   0.587E-01    0.192E-01
RMM:   3    -0.363088135608E+03    0.11389E-02   -0.54031E-03  7508   0.173E-01    0.138E-01
RMM:   4    -0.363087837417E+03    0.29819E-03   -0.13955E-03  7840   0.649E-02    0.795E-02
RMM:   5    -0.363087799813E+03    0.37604E-04   -0.53160E-04  7831   0.457E-02    0.504E-02
RMM:   6    -0.363087809270E+03   -0.94565E-05   -0.23260E-04  7312   0.257E-02    0.319E-02
RMM:   7    -0.363087813185E+03   -0.39150E-05   -0.84414E-05  5522   0.165E-02
  17 F= -.36308781E+03 E0= -.36309269E+03  d E =-.321158E-02
       N       E                     dE             d eps       ncg     rms          rms(c)
DAV:   1    -0.363086390496E+03    0.14188E-02   -0.33994E+00  5264   0.540E+00    0.744E-01
RMM:   2    -0.363094894045E+03   -0.85035E-02   -0.15349E-01  7207   0.109E+00    0.357E-01
RMM:   3    -0.363091165468E+03    0.37286E-02   -0.19027E-02  7595   0.317E-01    0.256E-01
RMM:   4    -0.363090143321E+03    0.10221E-02   -0.49454E-03  7871   0.122E-01    0.148E-01
RMM:   5    -0.363090027584E+03    0.11574E-03   -0.19289E-03  7936   0.859E-02    0.941E-02
RMM:   6    -0.363090058353E+03   -0.30769E-04   -0.85013E-04  8187   0.476E-02    0.605E-02
RMM:   7    -0.363090066761E+03   -0.84087E-05   -0.32383E-04  7159   0.298E-02    0.380E-02
RMM:   8    -0.363090091810E+03   -0.25049E-04   -0.13068E-04  5822   0.184E-02    0.247E-02
RMM:   9    -0.363090107862E+03   -0.16051E-04   -0.75331E-05  5181   0.162E-02    0.140E-02
RMM:  10    -0.363090118753E+03   -0.10891E-04   -0.37946E-05  4364   0.131E-02    0.839E-03
RMM:  11    -0.363090123796E+03   -0.50434E-05   -0.15333E-05  3425   0.112E-02
  18 F= -.36309012E+03 E0= -.36309514E+03  d E =-.552219E-02
       N       E                     dE             d eps       ncg     rms          rms(c)
DAV:   1    -0.363092259247E+03   -0.21405E-02   -0.34601E-01  5632   0.177E+00    0.352E-01
RMM:   2    -0.363092611012E+03   -0.35176E-03   -0.20462E-02  6808   0.386E-01    0.151E-01
RMM:   3    -0.363092041831E+03    0.56918E-03   -0.28111E-03  7715   0.121E-01    0.105E-01
RMM:   4    -0.363091787361E+03    0.25447E-03   -0.88533E-04  7874   0.537E-02    0.540E-02
RMM:   5    -0.363091749097E+03    0.38264E-04   -0.28558E-04  7720   0.344E-02    0.381E-02
RMM:   6    -0.363091744952E+03    0.41455E-05   -0.11898E-04  6112   0.176E-02    0.225E-02
RMM:   7    -0.363091738869E+03    0.60830E-05   -0.41889E-05  4093   0.135E-02
  19 F= -.36309174E+03 E0= -.36309684E+03  d E =-.161507E-02
       N       E                     dE             d eps       ncg     rms          rms(c)
DAV:   1    -0.363095407655E+03   -0.36627E-02   -0.18271E+00  5376   0.406E+00    0.795E-01
RMM:   2    -0.363097323444E+03   -0.19158E-02   -0.10689E-01  6631   0.888E-01    0.340E-01
RMM:   3    -0.363094299591E+03    0.30239E-02   -0.13906E-02  7672   0.278E-01    0.236E-01
RMM:   4    -0.363093025855E+03    0.12737E-02   -0.43323E-03  7924   0.120E-01    0.123E-01
RMM:   5    -0.363092856675E+03    0.16918E-03   -0.14124E-03  7879   0.749E-02    0.874E-02
RMM:   6    -0.363092870202E+03   -0.13526E-04   -0.60253E-04  8162   0.392E-02    0.517E-02
RMM:   7    -0.363092867379E+03    0.28230E-05   -0.25102E-04  6768   0.277E-02    0.317E-02
RMM:   8    -0.363092868281E+03   -0.90178E-06   -0.11316E-04  5381   0.184E-02    0.213E-02
RMM:   9    -0.363092870174E+03   -0.18933E-05   -0.63767E-05  4778   0.155E-02
  20 F= -.36309287E+03 E0= -.36309818E+03  d E =-.274638E-02
       N       E                     dE             d eps       ncg     rms          rms(c)
DAV:   1    -0.363092987986E+03   -0.11971E-03   -0.35133E-02  5696   0.562E-01    0.116E-01
RMM:   2    -0.363093007457E+03   -0.19471E-04   -0.21208E-03  6829   0.124E-01    0.514E-02
RMM:   3    -0.363092947497E+03    0.59961E-04   -0.29270E-04  7357   0.396E-02    0.367E-02
RMM:   4    -0.363092918192E+03    0.29305E-04   -0.85697E-05  6199   0.182E-02    0.193E-02
RMM:   5    -0.363092913281E+03    0.49106E-05   -0.20539E-05  2980   0.132E-02
  21 F= -.36309291E+03 E0= -.36309820E+03  d E =-.278949E-02
       N       E                     dE             d eps       ncg     rms          rms(c)
DAV:   1    -0.363093443454E+03   -0.52526E-03   -0.86568E-02  5312   0.829E-01    0.584E-02
RMM:   2    -0.363093658621E+03   -0.21517E-03   -0.26917E-03  6497   0.158E-01    0.308E-02
RMM:   3    -0.363093650468E+03    0.81535E-05   -0.31180E-04  7017   0.457E-02    0.252E-02
RMM:   4    -0.363093646460E+03    0.40080E-05   -0.76349E-05  5098   0.132E-02
  22 F= -.36309365E+03 E0= -.36309891E+03  d E =-.733178E-03
       N       E                     dE             d eps       ncg     rms          rms(c)
DAV:   1    -0.363093552972E+03    0.97496E-04   -0.77793E-01  5152   0.248E+00    0.173E-01
RMM:   2    -0.363095467998E+03   -0.19150E-02   -0.24369E-02  6849   0.473E-01    0.959E-02
RMM:   3    -0.363095463793E+03    0.42056E-05   -0.32646E-03  7661   0.133E-01    0.769E-02
RMM:   4    -0.363095425988E+03    0.37805E-04   -0.69401E-04  8350   0.376E-02    0.523E-02
RMM:   5    -0.363095419056E+03    0.69321E-05   -0.26723E-04  7560   0.290E-02    0.259E-02
RMM:   6    -0.363095420715E+03   -0.16591E-05   -0.10629E-04  6332   0.183E-02    0.127E-02
RMM:   7    -0.363095420548E+03    0.16678E-06   -0.25625E-05  3737   0.119E-02
  23 F= -.36309542E+03 E0= -.36310062E+03  d E =-.250727E-02
       N       E                     dE             d eps       ncg     rms          rms(c)
DAV:   1    -0.363089646289E+03    0.57744E-02   -0.31165E+00  5152   0.497E+00    0.343E-01
RMM:   2    -0.363097320266E+03   -0.76740E-02   -0.97441E-02  6801   0.947E-01    0.185E-01
RMM:   3    -0.363097247134E+03    0.73132E-04   -0.12607E-02  7680   0.267E-01    0.148E-01
RMM:   4    -0.363097105315E+03    0.14182E-03   -0.26403E-03  8915   0.734E-02    0.100E-01
RMM:   5    -0.363097074398E+03    0.30917E-04   -0.10127E-03  8127   0.535E-02    0.519E-02
RMM:   6    -0.363097075783E+03   -0.13843E-05   -0.41584E-04  8064   0.358E-02    0.242E-02
RMM:   7    -0.363097075890E+03   -0.10743E-06   -0.12350E-04  5372   0.169E-02    0.155E-02
RMM:   8    -0.363097081708E+03   -0.58181E-05   -0.80511E-05  4610   0.159E-02
  24 F= -.36309708E+03 E0= -.36310216E+03  d E =-.416843E-02
       N       E                     dE             d eps       ncg     rms          rms(c)
DAV:   1    -0.363098061079E+03   -0.98519E-03   -0.28132E-01  5168   0.151E+00    0.231E-01
RMM:   2    -0.363098653523E+03   -0.59244E-03   -0.12353E-02  7629   0.307E-01    0.118E-01
RMM:   3    -0.363098368164E+03    0.28536E-03   -0.17954E-03  7754   0.852E-02    0.813E-02
RMM:   4    -0.363098253272E+03    0.11489E-03   -0.49054E-04  7623   0.388E-02    0.443E-02
RMM:   5    -0.363098231168E+03    0.22105E-04   -0.20991E-04  7193   0.257E-02    0.285E-02
RMM:   6    -0.363098224370E+03    0.67979E-05   -0.73312E-05  5123   0.143E-02
  25 F= -.36309822E+03 E0= -.36310327E+03  d E =-.114266E-02
       N       E                     dE             d eps       ncg     rms          rms(c)
DAV:   1    -0.363098374914E+03   -0.14375E-03   -0.15897E+00  5152   0.359E+00    0.542E-01
RMM:   2    -0.363101629376E+03   -0.32545E-02   -0.68964E-02  7604   0.725E-01    0.279E-01
RMM:   3    -0.363099976359E+03    0.16530E-02   -0.97382E-03  7753   0.201E-01    0.191E-01
RMM:   4    -0.363099362069E+03    0.61429E-03   -0.26632E-03  7689   0.908E-02    0.104E-01
RMM:   5    -0.363099248091E+03    0.11398E-03   -0.11652E-03  7971   0.604E-02    0.675E-02
RMM:   6    -0.363099228469E+03    0.19622E-04   -0.44211E-04  7734   0.330E-02    0.426E-02
RMM:   7    -0.363099218978E+03    0.94910E-05   -0.17800E-04  5959   0.205E-02    0.270E-02
RMM:   8    -0.363099217033E+03    0.19458E-05   -0.94307E-05  5083   0.166E-02
  26 F= -.36309922E+03 E0= -.36310420E+03  d E =-.213532E-02
       N       E                     dE             d eps       ncg     rms          rms(c)
DAV:   1    -0.363099831886E+03   -0.61291E-03   -0.77299E-02  5600   0.808E-01    0.153E-01
RMM:   2    -0.363099892066E+03   -0.60180E-04   -0.42959E-03  7539   0.176E-01    0.723E-02
RMM:   3    -0.363099790300E+03    0.10177E-03   -0.66296E-04  7722   0.518E-02    0.524E-02
RMM:   4    -0.363099741543E+03    0.48758E-04   -0.21608E-04  7444   0.251E-02    0.296E-02
RMM:   5    -0.363099732201E+03    0.93416E-05   -0.75109E-05  6047   0.173E-02
  27 F= -.36309973E+03 E0= -.36310466E+03  d E =-.515168E-03
       N       E                     dE             d eps       ncg     rms          rms(c)
DAV:   1    -0.363101270945E+03   -0.15294E-02   -0.69158E-01  5152   0.242E+00    0.436E-01
RMM:   2    -0.363102020139E+03   -0.74919E-03   -0.37162E-02  7318   0.516E-01    0.201E-01
RMM:   3    -0.363100992290E+03    0.10278E-02   -0.48853E-03  7631   0.150E-01    0.142E-01
RMM:   4    -0.363100610914E+03    0.38138E-03   -0.14820E-03  7745   0.663E-02    0.825E-02
RMM:   5    -0.363100537406E+03    0.73507E-04   -0.55264E-04  7898   0.459E-02    0.548E-02
RMM:   6    -0.363100559369E+03   -0.21963E-04   -0.22995E-04  6780   0.250E-02    0.334E-02
RMM:   7    -0.363100568971E+03   -0.96016E-05   -0.11101E-04  6094   0.180E-02    0.200E-02
RMM:   8    -0.363100579423E+03   -0.10452E-04   -0.51615E-05  4558   0.136E-02    0.115E-02
RMM:   9    -0.363100584799E+03   -0.53756E-05   -0.23165E-05  3724   0.111E-02
  28 F= -.36310058E+03 E0= -.36310536E+03  d E =-.136777E-02
       N       E                     dE             d eps       ncg     rms          rms(c)
DAV:   1    -0.363100646913E+03   -0.67490E-04   -0.45637E-02  5376   0.622E-01    0.111E-01
RMM:   2    -0.363100696525E+03   -0.49612E-04   -0.24272E-03  7325   0.132E-01    0.503E-02
RMM:   3    -0.363100635771E+03    0.60754E-04   -0.32315E-04  7406   0.383E-02    0.345E-02
RMM:   4    -0.363100616393E+03    0.19377E-04   -0.10154E-04  6308   0.177E-02    0.194E-02
RMM:   5    -0.363100614613E+03    0.17804E-05   -0.31409E-05  3725   0.122E-02
  29 F= -.36310061E+03 E0= -.36310534E+03  d E =-.139758E-02
       N       E                     dE             d eps       ncg     rms          rms(c)
DAV:   1    -0.363100848532E+03   -0.23214E-03   -0.21992E-02  5328   0.417E-01    0.402E-02
RMM:   2    -0.363100902446E+03   -0.53913E-04   -0.85727E-04  7351   0.859E-02    0.220E-02
RMM:   3    -0.363100901342E+03    0.11033E-05   -0.10928E-04  5577   0.237E-02    0.155E-02
RMM:   4    -0.363100903022E+03   -0.16801E-05   -0.55112E-05  4636   0.119E-02
  30 F= -.36310090E+03 E0= -.36310561E+03  d E =-.288410E-03
       N       E                     dE             d eps       ncg     rms          rms(c)
DAV:   1    -0.363101164877E+03   -0.26353E-03   -0.19756E-01  5168   0.125E+00    0.115E-01
RMM:   2    -0.363101621701E+03   -0.45682E-03   -0.74839E-03  7302   0.256E-01    0.605E-02
RMM:   3    -0.363101614701E+03    0.70005E-05   -0.10287E-03  7520   0.678E-02    0.419E-02
RMM:   4    -0.363101606495E+03    0.82061E-05   -0.30939E-04  6928   0.264E-02    0.247E-02
RMM:   5    -0.363101603984E+03    0.25104E-05   -0.90446E-05  5091   0.151E-02
  31 F= -.36310160E+03 E0= -.36310624E+03  d E =-.989371E-03
       N       E                     dE             d eps       ncg     rms          rms(c)
DAV:   1    -0.363100582618E+03    0.10239E-02   -0.79055E-01  5152   0.250E+00    0.229E-01
RMM:   2    -0.363102400563E+03   -0.18179E-02   -0.29898E-02  7271   0.511E-01    0.121E-01
RMM:   3    -0.363102363235E+03    0.37327E-04   -0.41538E-03  7662   0.136E-01    0.834E-02
RMM:   4    -0.363102316194E+03    0.47042E-04   -0.11465E-03  8390   0.519E-02    0.486E-02
RMM:   5    -0.363102314786E+03    0.14077E-05   -0.39455E-04  6922   0.313E-02    0.264E-02
RMM:   6    -0.363102314031E+03    0.75445E-06   -0.16887E-04  5754   0.203E-02    0.136E-02
RMM:   7    -0.363102317328E+03   -0.32965E-05   -0.73929E-05  4630   0.139E-02
  32 F= -.36310232E+03 E0= -.36310680E+03  d E =-.170272E-02
       N       E                     dE             d eps       ncg     rms          rms(c)
DAV:   1    -0.363103392101E+03   -0.10781E-02   -0.13362E-01  5824   0.114E+00    0.296E-01
RMM:   2    -0.363103314759E+03    0.77342E-04   -0.10391E-02  7151   0.271E-01    0.119E-01
RMM:   3    -0.363102908762E+03    0.40600E-03   -0.17543E-03  7818   0.855E-02    0.833E-02
RMM:   4    -0.363102732761E+03    0.17600E-03   -0.52515E-04  7815   0.439E-02    0.413E-02
RMM:   5    -0.363102705839E+03    0.26922E-04   -0.15841E-04  7059   0.272E-02    0.304E-02
RMM:   6    -0.363102702160E+03    0.36791E-05   -0.67073E-05  4898   0.145E-02
  33 F= -.36310270E+03 E0= -.36310718E+03  d E =-.384832E-03
       N       E                     dE             d eps       ncg     rms          rms(c)
DAV:   1    -0.363103039901E+03   -0.33406E-03   -0.63623E-02  5568   0.791E-01    0.196E-01
RMM:   2    -0.363103020402E+03    0.19499E-04   -0.48610E-03  7026   0.192E-01    0.781E-02
RMM:   3    -0.363102830353E+03    0.19005E-03   -0.74920E-04  7625   0.590E-02    0.555E-02
RMM:   4    -0.363102752993E+03    0.77360E-04   -0.23668E-04  7477   0.293E-02    0.292E-02
RMM:   5    -0.363102740135E+03    0.12858E-04   -0.69659E-05  5656   0.192E-02    0.225E-02
RMM:   6    -0.363102736690E+03    0.34450E-05   -0.31669E-05  3845   0.113E-02
  34 F= -.36310274E+03 E0= -.36310721E+03  d E =-.419362E-03
       N       E                     dE             d eps       ncg     rms          rms(c)
DAV:   1    -0.363102848530E+03   -0.10840E-03   -0.28005E-02  5312   0.476E-01    0.416E-02
RMM:   2    -0.363102924686E+03   -0.76156E-04   -0.10323E-03  7299   0.948E-02    0.248E-02
RMM:   3    -0.363102918512E+03    0.61744E-05   -0.14500E-04  5835   0.272E-02    0.198E-02
RMM:   4    -0.363102914962E+03    0.35497E-05   -0.38673E-05  4081   0.117E-02
  35 F= -.36310291E+03 E0= -.36310737E+03  d E =-.178272E-03
       N       E                     dE             d eps       ncg     rms          rms(c)
DAV:   1    -0.363102701066E+03    0.21745E-03   -0.25132E-01  5152   0.143E+00    0.118E-01
RMM:   2    -0.363103379688E+03   -0.67862E-03   -0.88291E-03  7011   0.279E-01    0.641E-02
RMM:   3    -0.363103347948E+03    0.31740E-04   -0.11926E-03  7654   0.771E-02    0.529E-02
RMM:   4    -0.363103323576E+03    0.24372E-04   -0.25772E-04  7192   0.237E-02    0.345E-02
RMM:   5    -0.363103321289E+03    0.22864E-05   -0.10074E-04  6320   0.160E-02    0.182E-02
RMM:   6    -0.363103320649E+03    0.64007E-06   -0.38567E-05  4120   0.122E-02
  36 F= -.36310332E+03 E0= -.36310770E+03  d E =-.583960E-03
       N       E                     dE             d eps       ncg     rms          rms(c)
DAV:   1    -0.363101066652E+03    0.22546E-02   -0.10063E+00  5152   0.286E+00    0.234E-01
RMM:   2    -0.363103773429E+03   -0.27068E-02   -0.35204E-02  6808   0.557E-01    0.123E-01
RMM:   3    -0.363103606396E+03    0.16703E-03   -0.45271E-03  7677   0.155E-01    0.101E-01
RMM:   4    -0.363103515578E+03    0.90817E-04   -0.95457E-04  8583   0.452E-02    0.669E-02
RMM:   5    -0.363103506723E+03    0.88557E-05   -0.38499E-04  7728   0.330E-02    0.376E-02
RMM:   6    -0.363103504701E+03    0.20215E-05   -0.16867E-04  7202   0.242E-02    0.172E-02
RMM:   7    -0.363103504534E+03    0.16676E-06   -0.48099E-05  4100   0.127E-02
  37 F= -.36310350E+03 E0= -.36310774E+03  d E =-.767845E-03
       N       E                     dE             d eps       ncg     rms          rms(c)
DAV:   1    -0.363103263733E+03    0.24097E-03   -0.12599E-01  5168   0.101E+00    0.839E-02
RMM:   2    -0.363103598301E+03   -0.33457E-03   -0.42958E-03  6267   0.197E-01    0.419E-02
RMM:   3    -0.363103565758E+03    0.32543E-04   -0.50068E-04  7451   0.573E-02    0.362E-02
RMM:   4    -0.363103549844E+03    0.15914E-04   -0.93553E-05  5866   0.155E-02    0.235E-02
RMM:   5    -0.363103546314E+03    0.35300E-05   -0.31149E-05  3751   0.104E-02
  38 F= -.36310355E+03 E0= -.36310783E+03  d E =-.809624E-03
       N       E                     dE             d eps       ncg     rms          rms(c)
DAV:   1    -0.363104312619E+03   -0.76278E-03   -0.31999E-02  6344   0.608E-01    0.211E-01
RMM:   2    -0.363104056158E+03    0.25646E-03   -0.38179E-03  7689   0.159E-01    0.863E-02
RMM:   3    -0.363103830465E+03    0.22569E-03   -0.77280E-04  7893   0.468E-02    0.581E-02
RMM:   4    -0.363103749108E+03    0.81357E-04   -0.25290E-04  7777   0.324E-02    0.299E-02
RMM:   5    -0.363103736209E+03    0.12900E-04   -0.73574E-05  6171   0.189E-02    0.208E-02
RMM:   6    -0.363103743963E+03   -0.77541E-05   -0.19972E-05  3111   0.105E-02
  39 F= -.36310374E+03 E0= -.36310800E+03  d E =-.197649E-03
       N       E                     dE             d eps       ncg     rms          rms(c)
DAV:   1    -0.363104285866E+03   -0.54966E-03   -0.30394E-02  6120   0.596E-01    0.200E-01
RMM:   2    -0.363104053694E+03    0.23217E-03   -0.34013E-03  7671   0.156E-01    0.807E-02
RMM:   3    -0.363103851278E+03    0.20242E-03   -0.66198E-04  7860   0.443E-02    0.555E-02
RMM:   4    -0.363103779763E+03    0.71515E-04   -0.22861E-04  7657   0.310E-02    0.288E-02
RMM:   5    -0.363103772118E+03    0.76450E-05   -0.66246E-05  6003   0.188E-02
  40 F= -.36310377E+03 E0= -.36310799E+03  d E =-.225804E-03
       N       E                     dE             d eps       ncg     rms          rms(c)
DAV:   1    -0.363104001639E+03   -0.22188E-03   -0.33653E-02  5216   0.540E-01    0.891E-02
RMM:   2    -0.363104028484E+03   -0.26844E-04   -0.16296E-03  7694   0.110E-01    0.451E-02
RMM:   3    -0.363104016364E+03    0.12120E-04   -0.28788E-04  7551   0.322E-02    0.339E-02
RMM:   4    -0.363103995416E+03    0.20948E-04   -0.92453E-05  6547   0.178E-02    0.166E-02
RMM:   5    -0.363103993098E+03    0.23180E-05   -0.34375E-05  3753   0.108E-02
  41 F= -.36310399E+03 E0= -.36310820E+03  d E =-.220980E-03
       N       E                     dE             d eps       ncg     rms          rms(c)
DAV:   1    -0.363104236804E+03   -0.24139E-03   -0.12692E-01  5168   0.105E+00    0.160E-01
RMM:   2    -0.363104314520E+03   -0.77716E-04   -0.58713E-03  7688   0.211E-01    0.784E-02
RMM:   3    -0.363104252581E+03    0.61939E-04   -0.94607E-04  7751   0.592E-02    0.587E-02
RMM:   4    -0.363104172831E+03    0.79749E-04   -0.30435E-04  7602   0.316E-02    0.290E-02
RMM:   5    -0.363104164212E+03    0.86190E-05   -0.12612E-04  6455   0.186E-02    0.184E-02
RMM:   6    -0.363104161224E+03    0.29879E-05   -0.35302E-05  4017   0.108E-02
  42 F= -.36310416E+03 E0= -.36310835E+03  d E =-.389106E-03
       N       E                     dE             d eps       ncg     rms          rms(c)
DAV:   1    -0.363104398588E+03   -0.23438E-03   -0.18616E-02  5448   0.429E-01    0.115E-01
RMM:   2    -0.363104347919E+03    0.50669E-04   -0.12913E-03  7625   0.983E-02    0.451E-02
RMM:   3    -0.363104295202E+03    0.52717E-04   -0.24252E-04  6966   0.301E-02    0.348E-02
RMM:   4    -0.363104261750E+03    0.33452E-04   -0.73328E-05  5777   0.196E-02    0.180E-02
RMM:   5    -0.363104254686E+03    0.70638E-05   -0.21242E-05  3105   0.135E-02
  43 F= -.36310425E+03 E0= -.36310844E+03  d E =-.934614E-04
       N       E                     dE             d eps       ncg     rms          rms(c)
DAV:   1    -0.363104582589E+03   -0.32084E-03   -0.39050E-02  5328   0.624E-01    0.166E-01
RMM:   2    -0.363104472755E+03    0.10983E-03   -0.27552E-03  7663   0.143E-01    0.665E-02
RMM:   3    -0.363104359179E+03    0.11358E-03   -0.53155E-04  7716   0.432E-02    0.510E-02
RMM:   4    -0.363104290010E+03    0.69169E-04   -0.16444E-04  7360   0.266E-02    0.267E-02
RMM:   5    -0.363104279020E+03    0.10990E-04   -0.61379E-05  6028   0.157E-02    0.202E-02
RMM:   6    -0.363104275115E+03    0.39054E-05   -0.19439E-05  3279   0.995E-03
  44 F= -.36310428E+03 E0= -.36310845E+03  d E =-.113890E-03
       N       E                     dE             d eps       ncg     rms          rms(c)
DAV:   1    -0.363104307900E+03   -0.28880E-04   -0.28425E-03  5376   0.148E-01    0.206E-02
RMM:   2    -0.363104310854E+03   -0.29544E-05   -0.13664E-04  7581   0.313E-02    0.127E-02
RMM:   3    -0.363104307782E+03    0.30723E-05   -0.10844E-05  3402   0.102E-02
  45 F= -.36310431E+03 E0= -.36310848E+03  d E =-.326672E-04
       N       E                     dE             d eps       ncg     rms          rms(c)
DAV:   1    -0.363104390669E+03   -0.79815E-04   -0.25471E-02  5248   0.442E-01    0.571E-02
RMM:   2    -0.363104408453E+03   -0.17784E-04   -0.10002E-03  7668   0.876E-02    0.306E-02
RMM:   3    -0.363104400173E+03    0.82805E-05   -0.15736E-04  6087   0.245E-02    0.220E-02
RMM:   4    -0.363104394427E+03    0.57459E-05   -0.74719E-05  4979   0.150E-02
  46 F= -.36310439E+03 E0= -.36310854E+03  d E =-.119312E-03
       N       E                     dE             d eps       ncg     rms          rms(c)
DAV:   1    -0.363104451118E+03   -0.50945E-04   -0.10164E-01  5168   0.885E-01    0.109E-01
RMM:   2    -0.363104542709E+03   -0.91591E-04   -0.38116E-03  7650   0.174E-01    0.585E-02
RMM:   3    -0.363104522147E+03    0.20562E-04   -0.62535E-04  7496   0.469E-02    0.431E-02
RMM:   4    -0.363104491874E+03    0.30273E-04   -0.23648E-04  6913   0.247E-02    0.210E-02
RMM:   5    -0.363104489387E+03    0.24871E-05   -0.82719E-05  5160   0.148E-02
  47 F= -.36310449E+03 E0= -.36310857E+03  d E =-.214272E-03
       N       E                     dE             d eps       ncg     rms          rms(c)
DAV:   1    -0.363104712567E+03   -0.22069E-03   -0.72166E-03  6384   0.289E-01    0.102E-01
RMM:   2    -0.363104650827E+03    0.61740E-04   -0.84829E-04  7657   0.745E-02    0.415E-02
RMM:   3    -0.363104596642E+03    0.54185E-04   -0.17962E-04  6842   0.223E-02    0.286E-02
RMM:   4    -0.363104578018E+03    0.18624E-04   -0.55731E-05  5116   0.176E-02    0.154E-02
RMM:   5    -0.363104576660E+03    0.13579E-05   -0.18138E-05  3062   0.128E-02
  48 F= -.36310458E+03 E0= -.36310863E+03  d E =-.872735E-04
       N       E                     dE             d eps       ncg     rms          rms(c)
DAV:   1    -0.363105783311E+03   -0.12053E-02   -0.63824E-02  5912   0.865E-01    0.308E-01
RMM:   2    -0.363105172804E+03    0.61051E-03   -0.70281E-03  7711   0.221E-01    0.119E-01
RMM:   3    -0.363104772973E+03    0.39983E-03   -0.15682E-03  7928   0.649E-02    0.845E-02
RMM:   4    -0.363104589165E+03    0.18381E-03   -0.49327E-04  7741   0.480E-02    0.437E-02
RMM:   5    -0.363104571127E+03    0.18038E-04   -0.15866E-04  7079   0.270E-02    0.329E-02
RMM:   6    -0.363104588404E+03   -0.17277E-04   -0.54391E-05  4627   0.140E-02    0.209E-02
RMM:   7    -0.363104598646E+03   -0.10242E-04   -0.29330E-05  3467   0.121E-02    0.103E-02
RMM:   8    -0.363104605997E+03   -0.73508E-05   -0.21525E-05  3481   0.109E-02
  49 F= -.36310461E+03 E0= -.36310859E+03  d E =-.116610E-03
       N       E                     dE             d eps       ncg     rms          rms(c)
DAV:   1    -0.363104796026E+03   -0.19738E-03   -0.75088E-03  6056   0.294E-01    0.109E-01
RMM:   2    -0.363104738891E+03    0.57135E-04   -0.87679E-04  7634   0.761E-02    0.437E-02
RMM:   3    -0.363104689779E+03    0.49112E-04   -0.20836E-04  7032   0.236E-02    0.326E-02
RMM:   4    -0.363104662632E+03    0.27147E-04   -0.60129E-05  5571   0.180E-02    0.170E-02
RMM:   5    -0.363104656518E+03    0.61144E-05   -0.17292E-05  2846   0.124E-02
  50 F= -.36310466E+03 E0= -.36310866E+03  d E =-.167131E-03
       N       E                     dE             d eps       ncg     rms          rms(c)
DAV:   1    -0.363104714760E+03   -0.52128E-04   -0.31729E-03  5776   0.196E-01    0.662E-02
RMM:   2    -0.363104690497E+03    0.24264E-04   -0.34311E-04  7495   0.502E-02    0.260E-02
RMM:   3    -0.363104666738E+03    0.23759E-04   -0.64224E-05  6142   0.146E-02    0.192E-02
RMM:   4    -0.363104655387E+03    0.11351E-04   -0.15539E-05  2688   0.119E-02    0.136E-02
RMM:   5    -0.363104653218E+03    0.21684E-05   -0.67687E-06  2657   0.984E-03
  51 F= -.36310465E+03 E0= -.36310868E+03  d E =-.163831E-03
       N       E                     dE             d eps       ncg     rms          rms(c)
DAV:   1    -0.363104737793E+03   -0.82406E-04   -0.72300E-03  5248   0.240E-01    0.328E-02
RMM:   2    -0.363104736172E+03    0.16209E-05   -0.27512E-04  7224   0.477E-02    0.162E-02
RMM:   3    -0.363104731199E+03    0.49731E-05   -0.36560E-05  3675   0.138E-02
  52 F= -.36310473E+03 E0= -.36310874E+03  d E =-.779807E-04
       N       E                     dE             d eps       ncg     rms          rms(c)
DAV:   1    -0.363104944957E+03   -0.20879E-03   -0.64675E-02  5168   0.715E-01    0.104E-01
RMM:   2    -0.363104930329E+03    0.14628E-04   -0.26465E-03  7617   0.142E-01    0.526E-02
RMM:   3    -0.363104904566E+03    0.25763E-04   -0.48806E-04  7581   0.408E-02    0.351E-02
RMM:   4    -0.363104879901E+03    0.24665E-04   -0.17442E-04  6628   0.222E-02    0.163E-02
RMM:   5    -0.363104876419E+03    0.34824E-05   -0.58435E-05  4352   0.123E-02
  53 F= -.36310488E+03 E0= -.36310883E+03  d E =-.223201E-03
       N       E                     dE             d eps       ncg     rms          rms(c)
DAV:   1    -0.363105042991E+03   -0.16309E-03   -0.25936E-01  5152   0.143E+00    0.204E-01
RMM:   2    -0.363105034179E+03    0.88119E-05   -0.10411E-02  7626   0.285E-01    0.103E-01
RMM:   3    -0.363104959230E+03    0.74949E-04   -0.18886E-03  7638   0.801E-02    0.721E-02
RMM:   4    -0.363104842817E+03    0.11641E-03   -0.67402E-04  7731   0.436E-02    0.323E-02
RMM:   5    -0.363104836229E+03    0.65878E-05   -0.25097E-04  6171   0.244E-02    0.188E-02
RMM:   6    -0.363104837185E+03   -0.95518E-06   -0.10024E-04  4946   0.158E-02    0.104E-02
RMM:   7    -0.363104838031E+03   -0.84660E-06   -0.39670E-05  4505   0.119E-02
  54 F= -.36310484E+03 E0= -.36310868E+03  d E =-.184813E-03
       N       E                     dE             d eps       ncg     rms          rms(c)
DAV:   1    -0.363105039308E+03   -0.20212E-03   -0.10347E-01  5152   0.905E-01    0.129E-01
RMM:   2    -0.363105007707E+03    0.31601E-04   -0.39349E-03  7570   0.180E-01    0.648E-02
RMM:   3    -0.363104967989E+03    0.39718E-04   -0.62962E-04  7650   0.491E-02    0.454E-02
RMM:   4    -0.363104915103E+03    0.52886E-04   -0.20983E-04  7334   0.260E-02    0.199E-02
RMM:   5    -0.363104911213E+03    0.38899E-05   -0.76721E-05  5498   0.144E-02
  55 F= -.36310491E+03 E0= -.36310882E+03  d E =-.257995E-03
       N       E                     dE             d eps       ncg     rms          rms(c)
DAV:   1    -0.363105001972E+03   -0.86869E-04   -0.23038E-02  5280   0.399E-01    0.502E-02
RMM:   2    -0.363105044484E+03   -0.42512E-04   -0.73714E-04  7463   0.769E-02    0.247E-02
RMM:   3    -0.363105035012E+03    0.94717E-05   -0.95569E-05  6139   0.207E-02
  56 F= -.36310504E+03 E0= -.36310893E+03  d E =-.123799E-03
       N       E                     dE             d eps       ncg     rms          rms(c)
DAV:   1    -0.363105094857E+03   -0.50373E-04   -0.20708E-01  5264   0.119E+00    0.150E-01
RMM:   2    -0.363105444539E+03   -0.34968E-03   -0.67732E-03  7622   0.230E-01    0.789E-02
RMM:   3    -0.363105374665E+03    0.69874E-04   -0.96092E-04  7678   0.588E-02    0.556E-02
RMM:   4    -0.363105337513E+03    0.37152E-04   -0.26728E-04  7383   0.259E-02    0.324E-02
RMM:   5    -0.363105328619E+03    0.88937E-05   -0.11659E-04  6704   0.185E-02    0.193E-02
RMM:   6    -0.363105322708E+03    0.59111E-05   -0.36342E-05  3763   0.113E-02
  57 F= -.36310532E+03 E0= -.36310913E+03  d E =-.411495E-03
       N       E                     dE             d eps       ncg     rms          rms(c)
DAV:   1    -0.363104697252E+03    0.63137E-03   -0.82855E-01  5264   0.239E+00    0.291E-01
RMM:   2    -0.363106172916E+03   -0.14757E-02   -0.26617E-02  7611   0.459E-01    0.152E-01
RMM:   3    -0.363105894944E+03    0.27797E-03   -0.36877E-03  7730   0.117E-01    0.107E-01
RMM:   4    -0.363105754751E+03    0.14019E-03   -0.99253E-04  7936   0.498E-02    0.619E-02
RMM:   5    -0.363105730413E+03    0.24338E-04   -0.43738E-04  7946   0.363E-02    0.363E-02
RMM:   6    -0.363105718235E+03    0.12178E-04   -0.15895E-04  6639   0.206E-02    0.210E-02
RMM:   7    -0.363105716237E+03    0.19984E-05   -0.58081E-05  4515   0.138E-02
  58 F= -.36310572E+03 E0= -.36310937E+03  d E =-.805023E-03
       N       E                     dE             d eps       ncg     rms          rms(c)
DAV:   1    -0.363101711246E+03    0.40070E-02   -0.33116E+00  5152   0.478E+00    0.578E-01
RMM:   2    -0.363107766968E+03   -0.60557E-02   -0.10722E-01  7614   0.919E-01    0.304E-01
RMM:   3    -0.363106592798E+03    0.11742E-02   -0.14410E-02  7710   0.233E-01    0.213E-01
RMM:   4    -0.363106042490E+03    0.55031E-03   -0.38473E-03  7861   0.993E-02    0.125E-01
RMM:   5    -0.363105941311E+03    0.10118E-03   -0.16859E-03  7961   0.721E-02    0.729E-02
RMM:   6    -0.363105904287E+03    0.37024E-04   -0.64172E-04  8201   0.405E-02    0.423E-02
RMM:   7    -0.363105907272E+03   -0.29849E-05   -0.24235E-04  6252   0.227E-02    0.280E-02
RMM:   8    -0.363105909597E+03   -0.23255E-05   -0.13351E-04  5637   0.183E-02    0.169E-02
RMM:   9    -0.363105909681E+03   -0.83983E-07   -0.62483E-05  5245   0.145E-02
  59 F= -.36310591E+03 E0= -.36310922E+03  d E =-.998468E-03
       N       E                     dE             d eps       ncg     rms          rms(c)
DAV:   1    -0.363105919502E+03   -0.99044E-05   -0.36076E-04  5912   0.481E-02    0.829E-03
RMM:   2    -0.363105920595E+03   -0.10932E-05   -0.26699E-05  3666   0.142E-02
  60 F= -.36310592E+03 E0= -.36310922E+03  d E =-.109137E-04
       N       E                     dE             d eps       ncg     rms          rms(c)
DAV:   1    -0.363105948921E+03   -0.29419E-04   -0.28577E-03  5504   0.137E-01    0.122E-02
RMM:   2    -0.363105954738E+03   -0.58173E-05   -0.83780E-05  5534   0.258E-02
  61 F= -.36310595E+03 E0= -.36310925E+03  d E =-.450565E-04
       N       E                     dE             d eps       ncg     rms          rms(c)
DAV:   1    -0.363106001848E+03   -0.52927E-04   -0.11461E-02  5424   0.273E-01    0.237E-02
RMM:   2    -0.363106025816E+03   -0.23969E-04   -0.32169E-04  6972   0.502E-02    0.139E-02
RMM:   3    -0.363106023976E+03    0.18395E-05   -0.49258E-05  4244   0.149E-02
  62 F= -.36310602E+03 E0= -.36310930E+03  d E =-.114295E-03
       N       E                     dE             d eps       ncg     rms          rms(c)
DAV:   1    -0.363106081951E+03   -0.56135E-04   -0.45518E-02  5328   0.544E-01    0.442E-02
RMM:   2    -0.363106168908E+03   -0.86957E-04   -0.12039E-03  7300   0.970E-02    0.261E-02
RMM:   3    -0.363106167706E+03    0.12019E-05   -0.20071E-04  6211   0.273E-02    0.191E-02
RMM:   4    -0.363106168378E+03   -0.67235E-06   -0.62020E-05  4456   0.117E-02
  63 F= -.36310617E+03 E0= -.36310939E+03  d E =-.258697E-03
       N       E                     dE             d eps       ncg     rms          rms(c)
DAV:   1    -0.363106134618E+03    0.33088E-04   -0.18134E-01  5264   0.109E+00    0.839E-02
RMM:   2    -0.363106472609E+03   -0.33799E-03   -0.44971E-03  7255   0.192E-01    0.480E-02
RMM:   3    -0.363106476181E+03   -0.35715E-05   -0.72393E-04  7341   0.525E-02    0.364E-02
RMM:   4    -0.363106471679E+03    0.45017E-05   -0.18630E-04  6409   0.182E-02    0.243E-02
RMM:   5    -0.363106468915E+03    0.27644E-05   -0.60792E-05  4690   0.126E-02
  64 F= -.36310647E+03 E0= -.36310960E+03  d E =-.559233E-03
       N       E                     dE             d eps       ncg     rms          rms(c)
DAV:   1    -0.363105782448E+03    0.68923E-03   -0.72552E-01  5264   0.218E+00    0.167E-01
RMM:   2    -0.363107124115E+03   -0.13417E-02   -0.17862E-02  7174   0.384E-01    0.926E-02
RMM:   3    -0.363107113832E+03    0.10283E-04   -0.27487E-03  7670   0.105E-01    0.693E-02
RMM:   4    -0.363107098267E+03    0.15565E-04   -0.64865E-04  7972   0.339E-02    0.466E-02
RMM:   5    -0.363107092688E+03    0.55792E-05   -0.23903E-04  6818   0.234E-02    0.254E-02
RMM:   6    -0.363107088514E+03    0.41746E-05   -0.10050E-04  5978   0.172E-02    0.110E-02
RMM:   7    -0.363107087714E+03    0.79954E-06   -0.28597E-05  3872   0.111E-02
  65 F= -.36310709E+03 E0= -.36311003E+03  d E =-.117803E-02
       N       E                     dE             d eps       ncg     rms          rms(c)
DAV:   1    -0.363103231794E+03    0.38567E-02   -0.29024E+00  5152   0.436E+00    0.336E-01
RMM:   2    -0.363108632943E+03   -0.54011E-02   -0.71985E-02  7140   0.771E-01    0.186E-01
RMM:   3    -0.363108490052E+03    0.14289E-03   -0.10431E-02  7669   0.212E-01    0.139E-01
RMM:   4    -0.363108423548E+03    0.66504E-04   -0.25492E-03  8577   0.667E-02    0.952E-02
RMM:   5    -0.363108394682E+03    0.28866E-04   -0.94067E-04  8034   0.484E-02    0.519E-02
RMM:   6    -0.363108379653E+03    0.15029E-04   -0.37761E-04  7838   0.334E-02    0.229E-02
RMM:   7    -0.363108377992E+03    0.16606E-05   -0.12180E-04  5277   0.161E-02    0.146E-02
RMM:   8    -0.363108381392E+03   -0.34002E-05   -0.78251E-05  4645   0.143E-02
  66 F= -.36310838E+03 E0= -.36311095E+03  d E =-.247171E-02
       N       E                     dE             d eps       ncg     rms          rms(c)
DAV:   1    -0.363089602476E+03    0.18776E-01   -0.11599E+01  5152   0.872E+00    0.685E-01
RMM:   2    -0.363112363361E+03   -0.22761E-01   -0.29732E-01  7216   0.155E+00    0.390E-01
RMM:   3    -0.363111055791E+03    0.13076E-02   -0.40873E-02  7692   0.423E-01    0.286E-01
RMM:   4    -0.363110767885E+03    0.28791E-03   -0.10215E-02  8621   0.134E-01    0.198E-01
RMM:   5    -0.363110615729E+03    0.15216E-03   -0.36467E-03  8276   0.966E-02    0.109E-01
RMM:   6    -0.363110554542E+03    0.61187E-04   -0.15463E-03  8310   0.688E-02    0.466E-02
RMM:   7    -0.363110562629E+03   -0.80874E-05   -0.61132E-04  7687   0.328E-02    0.300E-02
RMM:   8    -0.363110573485E+03   -0.10855E-04   -0.25487E-04  6422   0.216E-02    0.192E-02
RMM:   9    -0.363110579826E+03   -0.63418E-05   -0.13168E-04  5584   0.164E-02    0.107E-02
RMM:  10    -0.363110580829E+03   -0.10031E-05   -0.48546E-05  4696   0.136E-02
  67 F= -.36311058E+03 E0= -.36311252E+03  d E =-.467115E-02
       N       E                     dE             d eps       ncg     rms          rms(c)
DAV:   1    -0.363110685729E+03   -0.10590E-03   -0.16970E+00  5264   0.338E+00    0.369E-01
RMM:   2    -0.363113818168E+03   -0.31324E-02   -0.51717E-02  7535   0.640E-01    0.201E-01
RMM:   3    -0.363113275059E+03    0.54311E-03   -0.66390E-03  7719   0.160E-01    0.139E-01
RMM:   4    -0.363113140350E+03    0.13471E-03   -0.19660E-03  8211   0.631E-02    0.932E-02
RMM:   5    -0.363113104562E+03    0.35788E-04   -0.73788E-04  8028   0.486E-02    0.513E-02
RMM:   6    -0.363113113854E+03   -0.92923E-05   -0.32829E-04  7557   0.284E-02    0.313E-02
RMM:   7    -0.363113117445E+03   -0.35902E-05   -0.12293E-04  5593   0.178E-02    0.202E-02
RMM:   8    -0.363113126634E+03   -0.91893E-05   -0.60784E-05  4551   0.135E-02
  68 F= -.36311313E+03 E0= -.36311479E+03  d E =-.254580E-02
       N       E                     dE             d eps       ncg     rms          rms(c)
DAV:   1    -0.363111871012E+03    0.12464E-02   -0.21134E+00  5264   0.377E+00    0.412E-01
RMM:   2    -0.363115792976E+03   -0.39220E-02   -0.64359E-02  7515   0.714E-01    0.225E-01
RMM:   3    -0.363115097874E+03    0.69510E-03   -0.81535E-03  7708   0.178E-01    0.154E-01
RMM:   4    -0.363114941646E+03    0.15623E-03   -0.24185E-03  8203   0.700E-02    0.103E-01
RMM:   5    -0.363114904316E+03    0.37329E-04   -0.91002E-04  8044   0.539E-02    0.569E-02
RMM:   6    -0.363114917136E+03   -0.12820E-04   -0.40503E-04  7844   0.315E-02    0.348E-02
RMM:   7    -0.363114923121E+03   -0.59841E-05   -0.15218E-04  5928   0.193E-02    0.228E-02
RMM:   8    -0.363114934154E+03   -0.11033E-04   -0.70005E-05  4867   0.143E-02    0.132E-02
RMM:   9    -0.363114940318E+03   -0.61645E-05   -0.29103E-05  3886   0.119E-02
  69 F= -.36311494E+03 E0= -.36311634E+03  d E =-.435949E-02
       N       E                     dE             d eps       ncg     rms          rms(c)
DAV:   1    -0.363101810885E+03    0.13123E-01   -0.84508E+00  5208   0.755E+00    0.836E-01
RMM:   2    -0.363117948274E+03   -0.16137E-01   -0.26140E-01  7525   0.144E+00    0.453E-01
RMM:   3    -0.363114827152E+03    0.31211E-02   -0.32080E-02  7714   0.358E-01    0.307E-01
RMM:   4    -0.363114191156E+03    0.63600E-03   -0.95025E-03  8144   0.140E-01    0.205E-01
RMM:   5    -0.363113999995E+03    0.19116E-03   -0.35245E-03  8117   0.106E-01    0.113E-01
RMM:   6    -0.363114017812E+03   -0.17817E-04   -0.15558E-03  8397   0.626E-02    0.667E-02
RMM:   7    -0.363114041098E+03   -0.23287E-04   -0.61656E-04  7708   0.364E-02    0.443E-02
RMM:   8    -0.363114067375E+03   -0.26277E-04   -0.22925E-04  6387   0.218E-02    0.274E-02
RMM:   9    -0.363114086668E+03   -0.19293E-04   -0.12860E-04  5970   0.187E-02    0.159E-02
RMM:  10    -0.363114097166E+03   -0.10497E-04   -0.51596E-05  4894   0.138E-02    0.811E-03
RMM:  11    -0.363114101484E+03   -0.43180E-05   -0.28707E-05  3888   0.117E-02
  70 F= -.36311410E+03 E0= -.36311509E+03  d E =-.352065E-02
       N       E                     dE             d eps       ncg     rms          rms(c)
DAV:   1    -0.363109748261E+03    0.43489E-02   -0.39556E+00  5264   0.517E+00    0.559E-01
RMM:   2    -0.363117174839E+03   -0.74266E-02   -0.11953E-01  7455   0.978E-01    0.306E-01
RMM:   3    -0.363115966051E+03    0.12088E-02   -0.15079E-02  7716   0.246E-01    0.218E-01
RMM:   4    -0.363115582430E+03    0.38362E-03   -0.40874E-03  8103   0.941E-02    0.147E-01
RMM:   5    -0.363115445412E+03    0.13702E-03   -0.15819E-03  7963   0.737E-02    0.778E-02
RMM:   6    -0.363115415832E+03    0.29580E-04   -0.67839E-04  8213   0.422E-02    0.454E-02
RMM:   7    -0.363115409238E+03    0.65944E-05   -0.26409E-04  6855   0.236E-02    0.304E-02
RMM:   8    -0.363115405849E+03    0.33894E-05   -0.94071E-05  5495   0.160E-02
  71 F= -.36311541E+03 E0= -.36311666E+03  d E =-.482502E-02
       N       E                     dE             d eps       ncg     rms          rms(c)
DAV:   1    -0.363115328676E+03    0.80562E-04   -0.80282E-02  5464   0.737E-01    0.832E-02
RMM:   2    -0.363115467934E+03   -0.13926E-03   -0.24466E-03  7234   0.140E-01    0.429E-02
RMM:   3    -0.363115431427E+03    0.36507E-04   -0.27135E-04  7082   0.364E-02    0.323E-02
RMM:   4    -0.363115419491E+03    0.11937E-04   -0.66267E-05  5079   0.153E-02    0.214E-02
RMM:   5    -0.363115415051E+03    0.44394E-05   -0.19918E-05  3070   0.117E-02
  72 F= -.36311542E+03 E0= -.36311663E+03  d E =-.483422E-02
       N       E                     dE             d eps       ncg     rms          rms(c)
DAV:   1    -0.363116884053E+03   -0.14646E-02   -0.74876E-02  5328   0.799E-01    0.952E-02
RMM:   2    -0.363116994950E+03   -0.11090E-03   -0.31749E-03  7602   0.160E-01    0.522E-02
RMM:   3    -0.363116960729E+03    0.34221E-04   -0.42336E-04  7516   0.430E-02    0.383E-02
RMM:   4    -0.363116935489E+03    0.25240E-04   -0.12512E-04  6554   0.195E-02    0.190E-02
RMM:   5    -0.363116935093E+03    0.39589E-06   -0.52835E-05  4384   0.122E-02
  73 F= -.36311694E+03 E0= -.36311809E+03  d E =-.152004E-02
       N       E                     dE             d eps       ncg     rms          rms(c)
DAV:   1    -0.363120260592E+03   -0.33251E-02   -0.67345E-01  5152   0.239E+00    0.287E-01
RMM:   2    -0.363121261032E+03   -0.10004E-02   -0.28415E-02  7642   0.481E-01    0.154E-01
RMM:   3    -0.363120965605E+03    0.29543E-03   -0.38060E-03  7693   0.128E-01    0.113E-01
RMM:   4    -0.363120728289E+03    0.23732E-03   -0.11567E-03  7752   0.582E-02    0.570E-02
RMM:   5    -0.363120715313E+03    0.12976E-04   -0.51701E-04  7708   0.385E-02    0.326E-02
RMM:   6    -0.363120717558E+03   -0.22451E-05   -0.15203E-04  5605   0.201E-02    0.199E-02
RMM:   7    -0.363120724867E+03   -0.73096E-05   -0.87326E-05  4901   0.159E-02
  74 F= -.36312072E+03 E0= -.36312168E+03  d E =-.530982E-02
       N       E                     dE             d eps       ncg     rms          rms(c)
DAV:   1    -0.363123136750E+03   -0.24192E-02   -0.26962E+00  5152   0.479E+00    0.578E-01
RMM:   2    -0.363127073567E+03   -0.39368E-02   -0.11372E-01  7643   0.964E-01    0.308E-01
RMM:   3    -0.363125833819E+03    0.12397E-02   -0.15007E-02  7691   0.256E-01    0.225E-01
RMM:   4    -0.363124863756E+03    0.97006E-03   -0.45741E-03  7749   0.116E-01    0.113E-01
RMM:   5    -0.363124794973E+03    0.68783E-04   -0.20387E-03  7831   0.771E-02    0.640E-02
RMM:   6    -0.363124808848E+03   -0.13875E-04   -0.69566E-04  7868   0.394E-02    0.393E-02
RMM:   7    -0.363124824809E+03   -0.15960E-04   -0.27301E-04  5890   0.233E-02    0.249E-02
RMM:   8    -0.363124841024E+03   -0.16215E-04   -0.15033E-04  5736   0.183E-02    0.146E-02
RMM:   9    -0.363124846601E+03   -0.55775E-05   -0.46706E-05  4941   0.142E-02
  75 F= -.36312485E+03 E0= -.36312545E+03  d E =-.943155E-02
       N       E                     dE             d eps       ncg     rms          rms(c)
DAV:   1    -0.363124905900E+03   -0.64877E-04   -0.35883E-01  5232   0.175E+00    0.210E-01
RMM:   2    -0.363125446372E+03   -0.54047E-03   -0.15215E-02  7638   0.351E-01    0.112E-01
RMM:   3    -0.363125300165E+03    0.14621E-03   -0.20845E-03  7687   0.944E-02    0.815E-02
RMM:   4    -0.363125178584E+03    0.12158E-03   -0.64484E-04  7783   0.428E-02    0.408E-02
RMM:   5    -0.363125173446E+03    0.51380E-05   -0.28195E-04  7242   0.283E-02    0.232E-02
RMM:   6    -0.363125176280E+03   -0.28347E-05   -0.81670E-05  4889   0.155E-02
  76 F= -.36312518E+03 E0= -.36312566E+03  d E =-.976123E-02
       N       E                     dE             d eps       ncg     rms          rms(c)
DAV:   1    -0.363131598710E+03   -0.64253E-02   -0.54220E-01  5800   0.237E+00    0.664E-01
RMM:   2    -0.363130438135E+03    0.11606E-02   -0.43533E-02  7629   0.569E-01    0.259E-01
RMM:   3    -0.363128567527E+03    0.18706E-02   -0.83246E-03  7873   0.176E-01    0.187E-01
RMM:   4    -0.363127662158E+03    0.90537E-03   -0.24945E-03  7923   0.103E-01    0.934E-02
RMM:   5    -0.363127530412E+03    0.13175E-03   -0.77319E-04  7836   0.576E-02    0.665E-02
RMM:   6    -0.363127538200E+03   -0.77885E-05   -0.30857E-04  7098   0.290E-02    0.421E-02
RMM:   7    -0.363127523121E+03    0.15079E-04   -0.12734E-04  6349   0.209E-02    0.217E-02
RMM:   8    -0.363127523086E+03    0.35296E-07   -0.65166E-05  4681   0.152E-02
  77 F= -.36312752E+03 E0= -.36312804E+03  d E =-.234681E-02
       N       E                     dE             d eps       ncg     rms          rms(c)
DAV:   1    -0.363133157924E+03   -0.56348E-02   -0.67674E-01  5672   0.265E+00    0.730E-01
RMM:   2    -0.363131604950E+03    0.15530E-02   -0.53209E-02  7564   0.633E-01    0.280E-01
RMM:   3    -0.363129330065E+03    0.22749E-02   -0.98197E-03  7867   0.194E-01    0.201E-01
RMM:   4    -0.363128258668E+03    0.10714E-02   -0.29634E-03  7896   0.113E-01    0.102E-01
RMM:   5    -0.363128115826E+03    0.14284E-03   -0.91733E-04  7815   0.629E-02    0.750E-02
RMM:   6    -0.363128135231E+03   -0.19405E-04   -0.37336E-04  7241   0.321E-02    0.486E-02
RMM:   7    -0.363128124806E+03    0.10425E-04   -0.16340E-04  6523   0.236E-02    0.260E-02
RMM:   8    -0.363128128602E+03   -0.37959E-05   -0.89296E-05  5020   0.171E-02
  78 F= -.36312813E+03 E0= -.36312870E+03  d E =-.295232E-02
       N       E                     dE             d eps       ncg     rms          rms(c)
DAV:   1    -0.363128895024E+03   -0.77022E-03   -0.25947E-01  5216   0.148E+00    0.124E-01
RMM:   2    -0.363129575540E+03   -0.68052E-03   -0.97157E-03  7444   0.293E-01    0.694E-02
RMM:   3    -0.363129527012E+03    0.48528E-04   -0.11566E-03  7635   0.791E-02    0.537E-02
RMM:   4    -0.363129491808E+03    0.35204E-04   -0.29323E-04  7811   0.281E-02    0.315E-02
RMM:   5    -0.363129485737E+03    0.60704E-05   -0.12220E-04  6304   0.183E-02    0.159E-02
RMM:   6    -0.363129484345E+03    0.13921E-05   -0.43307E-05  4125   0.132E-02
  79 F= -.36312948E+03 E0= -.36313005E+03  d E =-.135574E-02
       N       E                     dE             d eps       ncg     rms          rms(c)
DAV:   1    -0.363126645717E+03    0.28400E-02   -0.23343E+00  5152   0.443E+00    0.365E-01
RMM:   2    -0.363132743562E+03   -0.60978E-02   -0.86910E-02  7286   0.880E-01    0.198E-01
RMM:   3    -0.363132333495E+03    0.41007E-03   -0.10168E-02  7673   0.238E-01    0.152E-01
RMM:   4    -0.363132042131E+03    0.29136E-03   -0.25019E-03  8527   0.812E-02    0.871E-02
RMM:   5    -0.363132013931E+03    0.28201E-04   -0.10945E-03  8101   0.557E-02    0.450E-02
RMM:   6    -0.363132016359E+03   -0.24280E-05   -0.38706E-04  7978   0.328E-02    0.220E-02
RMM:   7    -0.363132019164E+03   -0.28054E-05   -0.11872E-04  5427   0.174E-02    0.141E-02
RMM:   8    -0.363132026070E+03   -0.69058E-05   -0.76673E-05  4761   0.148E-02
  80 F= -.36313203E+03 E0= -.36313260E+03  d E =-.389747E-02
       N       E                     dE             d eps       ncg     rms          rms(c)
DAV:   1    -0.363108716826E+03    0.23302E-01   -0.93410E+00  5152   0.885E+00    0.731E-01
RMM:   2    -0.363133193345E+03   -0.24477E-01   -0.34865E-01  7264   0.177E+00    0.399E-01
RMM:   3    -0.363131350540E+03    0.18428E-02   -0.40180E-02  7676   0.477E-01    0.303E-01
RMM:   4    -0.363130189062E+03    0.11615E-02   -0.99734E-03  8508   0.162E-01    0.175E-01
RMM:   5    -0.363130057480E+03    0.13158E-03   -0.42856E-03  8274   0.112E-01    0.901E-02
RMM:   6    -0.363130074210E+03   -0.16731E-04   -0.15718E-03  8503   0.657E-02    0.446E-02
RMM:   7    -0.363130090695E+03   -0.16485E-04   -0.57380E-04  7664   0.334E-02    0.287E-02
RMM:   8    -0.363130114455E+03   -0.23760E-04   -0.28251E-04  6765   0.226E-02    0.184E-02
RMM:   9    -0.363130121202E+03   -0.67466E-05   -0.99788E-05  5678   0.168E-02
  81 F= -.36313012E+03 E0= -.36313080E+03  d E =-.199260E-02
       N       E                     dE             d eps       ncg     rms          rms(c)
DAV:   1    -0.363121269863E+03    0.88446E-02   -0.49651E+00  5152   0.646E+00    0.539E-01
RMM:   2    -0.363134098425E+03   -0.12829E-01   -0.18324E-01  7198   0.128E+00    0.287E-01
RMM:   3    -0.363133234479E+03    0.86395E-03   -0.20723E-02  7678   0.348E-01    0.223E-01
RMM:   4    -0.363132528305E+03    0.70617E-03   -0.48206E-03  8492   0.116E-01    0.128E-01
RMM:   5    -0.363132450623E+03    0.77683E-04   -0.21104E-03  8222   0.806E-02    0.658E-02
RMM:   6    -0.363132428414E+03    0.22209E-04   -0.73452E-04  8280   0.468E-02    0.318E-02
RMM:   7    -0.363132431164E+03   -0.27500E-05   -0.23251E-04  6485   0.227E-02    0.206E-02
RMM:   8    -0.363132440834E+03   -0.96698E-05   -0.14982E-04  5610   0.180E-02    0.132E-02
RMM:   9    -0.363132441543E+03   -0.70935E-06   -0.46170E-05  4591   0.126E-02
  82 F= -.36313244E+03 E0= -.36313303E+03  d E =-.431294E-02
       N       E                     dE             d eps       ncg     rms          rms(c)
DAV:   1    -0.363136027459E+03   -0.35866E-02   -0.25927E-01  5728   0.164E+00    0.508E-01
RMM:   2    -0.363134778390E+03    0.12491E-02   -0.21949E-02  7566   0.402E-01    0.191E-01
RMM:   3    -0.363133752015E+03    0.10264E-02   -0.43926E-03  7864   0.123E-01    0.140E-01
RMM:   4    -0.363133262912E+03    0.48910E-03   -0.13786E-03  7867   0.775E-02    0.714E-02
RMM:   5    -0.363133199020E+03    0.63892E-04   -0.40969E-04  7716   0.438E-02    0.516E-02
RMM:   6    -0.363133230299E+03   -0.31279E-04   -0.16321E-04  6707   0.218E-02    0.324E-02
RMM:   7    -0.363133241449E+03   -0.11150E-04   -0.72484E-05  5078   0.159E-02    0.172E-02
RMM:   8    -0.363133252964E+03   -0.11515E-04   -0.37322E-05  3845   0.126E-02    0.115E-02
RMM:   9    -0.363133260508E+03   -0.75449E-05   -0.15632E-05  3292   0.108E-02
  83 F= -.36313326E+03 E0= -.36313376E+03  d E =-.818965E-03
       N       E                     dE             d eps       ncg     rms          rms(c)
DAV:   1    -0.363133696352E+03   -0.44339E-03   -0.38335E-02  5744   0.632E-01    0.193E-01
RMM:   2    -0.363133505023E+03    0.19133E-03   -0.31925E-03  7518   0.154E-01    0.716E-02
RMM:   3    -0.363133355145E+03    0.14988E-03   -0.62162E-04  7788   0.469E-02    0.508E-02
RMM:   4    -0.363133292412E+03    0.62732E-04   -0.20134E-04  7240   0.290E-02    0.256E-02
RMM:   5    -0.363133287056E+03    0.53560E-05   -0.52676E-05  4569   0.185E-02
  84 F= -.36313329E+03 E0= -.36313376E+03  d E =-.845513E-03
       N       E                     dE             d eps       ncg     rms          rms(c)
DAV:   1    -0.363133805070E+03   -0.51266E-03   -0.96605E-02  5200   0.881E-01    0.108E-01
RMM:   2    -0.363134014574E+03   -0.20950E-03   -0.38377E-03  7680   0.176E-01    0.615E-02
RMM:   3    -0.363133972258E+03    0.42316E-04   -0.53693E-04  7772   0.475E-02    0.439E-02
RMM:   4    -0.363133946516E+03    0.25742E-04   -0.14246E-04  6850   0.204E-02    0.251E-02
RMM:   5    -0.363133942659E+03    0.38570E-05   -0.62497E-05  5439   0.135E-02
  85 F= -.36313394E+03 E0= -.36313442E+03  d E =-.655603E-03
       N       E                     dE             d eps       ncg     rms          rms(c)
DAV:   1    -0.363133778046E+03    0.16847E-03   -0.86918E-01  5152   0.265E+00    0.306E-01
RMM:   2    -0.363135643110E+03   -0.18651E-02   -0.33711E-02  7676   0.525E-01    0.174E-01
RMM:   3    -0.363135144509E+03    0.49860E-03   -0.42983E-03  7794   0.137E-01    0.122E-01
RMM:   4    -0.363134918297E+03    0.22621E-03   -0.11355E-03  7890   0.576E-02    0.697E-02
RMM:   5    -0.363134884450E+03    0.33847E-04   -0.52857E-04  7847   0.422E-02    0.393E-02
RMM:   6    -0.363134875722E+03    0.87283E-05   -0.18541E-04  6233   0.225E-02    0.251E-02
RMM:   7    -0.363134873255E+03    0.24666E-05   -0.87639E-05  5019   0.164E-02
  86 F= -.36313487E+03 E0= -.36313536E+03  d E =-.158620E-02
       N       E                     dE             d eps       ncg     rms          rms(c)
DAV:   1    -0.363134855537E+03    0.20185E-04   -0.21233E-02  5392   0.413E-01    0.480E-02
RMM:   2    -0.363134906579E+03   -0.51043E-04   -0.88618E-04  7612   0.828E-02    0.285E-02
RMM:   3    -0.363134893203E+03    0.13376E-04   -0.12978E-04  5933   0.224E-02    0.197E-02
RMM:   4    -0.363134888837E+03    0.43657E-05   -0.48246E-05  4228   0.129E-02
  87 F= -.36313489E+03 E0= -.36313538E+03  d E =-.160178E-02
       N       E                     dE             d eps       ncg     rms          rms(c)
DAV:   1    -0.363135328661E+03   -0.43546E-03   -0.28099E-02  5536   0.545E-01    0.154E-01
RMM:   2    -0.363135242930E+03    0.85731E-04   -0.24242E-03  7630   0.136E-01    0.595E-02
RMM:   3    -0.363135139556E+03    0.10337E-03   -0.41531E-04  7570   0.398E-02    0.444E-02
RMM:   4    -0.363135085597E+03    0.53959E-04   -0.12287E-04  6816   0.233E-02    0.233E-02
RMM:   5    -0.363135074385E+03    0.11212E-04   -0.34693E-05  3863   0.151E-02    0.188E-02
RMM:   6    -0.363135071528E+03    0.28571E-05   -0.15354E-05  2981   0.108E-02
  88 F= -.36313507E+03 E0= -.36313559E+03  d E =-.182690E-03
       N       E                     dE             d eps       ncg     rms          rms(c)
DAV:   1    -0.363135594619E+03   -0.52023E-03   -0.51387E-02  5440   0.738E-01    0.209E-01
RMM:   2    -0.363135435747E+03    0.15887E-03   -0.44449E-03  7655   0.183E-01    0.815E-02
RMM:   3    -0.363135241288E+03    0.19446E-03   -0.77200E-04  7743   0.535E-02    0.600E-02
RMM:   4    -0.363135145853E+03    0.95436E-04   -0.24312E-04  7645   0.317E-02    0.316E-02
RMM:   5    -0.363135128715E+03    0.17137E-04   -0.82897E-05  6741   0.188E-02    0.228E-02
RMM:   6    -0.363135125185E+03    0.35301E-05   -0.27098E-05  3592   0.107E-02
  89 F= -.36313513E+03 E0= -.36313569E+03  d E =-.236348E-03
       N       E                     dE             d eps       ncg     rms          rms(c)
DAV:   1    -0.363135221045E+03   -0.92330E-04   -0.83900E-03  5376   0.271E-01    0.412E-02
RMM:   2    -0.363135232923E+03   -0.11878E-04   -0.45934E-04  7689   0.579E-02    0.231E-02
RMM:   3    -0.363135226107E+03    0.68167E-05   -0.66869E-05  4770   0.170E-02
  90 F= -.36313523E+03 E0= -.36313579E+03  d E =-.100921E-03
       N       E                     dE             d eps       ncg     rms          rms(c)
DAV:   1    -0.363135420547E+03   -0.18762E-03   -0.75178E-02  5184   0.811E-01    0.117E-01
RMM:   2    -0.363135496283E+03   -0.75736E-04   -0.37231E-03  7682   0.167E-01    0.591E-02
RMM:   3    -0.363135458866E+03    0.37417E-04   -0.54020E-04  7682   0.451E-02    0.434E-02
RMM:   4    -0.363135426008E+03    0.32857E-04   -0.17635E-04  6864   0.228E-02    0.223E-02
RMM:   5    -0.363135422996E+03    0.30118E-05   -0.74593E-05  5252   0.142E-02
  91 F= -.36313542E+03 E0= -.36313600E+03  d E =-.297811E-03
       N       E                     dE             d eps       ncg     rms          rms(c)
DAV:   1    -0.363135238094E+03    0.18791E-03   -0.30142E-01  5152   0.163E+00    0.224E-01
RMM:   2    -0.363135618335E+03   -0.38024E-03   -0.14402E-02  7675   0.333E-01    0.113E-01
RMM:   3    -0.363135468051E+03    0.15028E-03   -0.19209E-03  7698   0.878E-02    0.827E-02
RMM:   4    -0.363135340204E+03    0.12785E-03   -0.63548E-04  7680   0.438E-02    0.414E-02
RMM:   5    -0.363135332853E+03    0.73505E-05   -0.27895E-04  7286   0.282E-02    0.253E-02
RMM:   6    -0.363135336819E+03   -0.39660E-05   -0.84939E-05  4907   0.157E-02
  92 F= -.36313534E+03 E0= -.36313593E+03  d E =-.211634E-03
       N       E                     dE             d eps       ncg     rms          rms(c)
DAV:   1    -0.363135478944E+03   -0.14609E-03   -0.12295E-01  5152   0.104E+00    0.145E-01
RMM:   2    -0.363135630391E+03   -0.15145E-03   -0.56952E-03  7665   0.213E-01    0.716E-02
RMM:   3    -0.363135558470E+03    0.71921E-04   -0.66894E-04  7757   0.550E-02    0.525E-02
RMM:   4    -0.363135494382E+03    0.64089E-04   -0.19736E-04  7488   0.266E-02    0.258E-02
RMM:   5    -0.363135485185E+03    0.91965E-05   -0.80562E-05  6362   0.165E-02
  93 F= -.36313549E+03 E0= -.36313606E+03  d E =-.360000E-03
       N       E                     dE             d eps       ncg     rms          rms(c)
DAV:   1    -0.363135718860E+03   -0.22448E-03   -0.81709E-03  6288   0.307E-01    0.112E-01
RMM:   2    -0.363135633362E+03    0.85498E-04   -0.10022E-03  7680   0.803E-02    0.451E-02
RMM:   3    -0.363135579277E+03    0.54084E-04   -0.22688E-04  7070   0.248E-02    0.306E-02
RMM:   4    -0.363135557440E+03    0.21837E-04   -0.73238E-05  6544   0.189E-02    0.157E-02
RMM:   5    -0.363135553425E+03    0.40148E-05   -0.20523E-05  2946   0.119E-02
  94 F= -.36313555E+03 E0= -.36313612E+03  d E =-.682402E-04
       N       E                     dE             d eps       ncg     rms          rms(c)
DAV:   1    -0.363135868754E+03   -0.31131E-03   -0.15577E-02  5928   0.430E-01    0.146E-01
RMM:   2    -0.363135726881E+03    0.14187E-03   -0.17549E-03  7674   0.113E-01    0.589E-02
RMM:   3    -0.363135621719E+03    0.10516E-03   -0.35464E-04  7269   0.328E-02    0.417E-02
RMM:   4    -0.363135584339E+03    0.37380E-04   -0.12402E-04  7127   0.243E-02    0.226E-02
RMM:   5    -0.363135579228E+03    0.51116E-05   -0.35323E-05  3976   0.149E-02
  95 F= -.36313558E+03 E0= -.36313614E+03  d E =-.940427E-04
       N       E                     dE             d eps       ncg     rms          rms(c)
DAV:   1    -0.363135697972E+03   -0.11363E-03   -0.79640E-03  5280   0.267E-01    0.599E-02
RMM:   2    -0.363135692820E+03    0.51514E-05   -0.49163E-04  7674   0.578E-02    0.284E-02
RMM:   3    -0.363135686264E+03    0.65559E-05   -0.10579E-04  6615   0.186E-02    0.213E-02
RMM:   4    -0.363135678173E+03    0.80913E-05   -0.37626E-05  4009   0.134E-02
  96 F= -.36313568E+03 E0= -.36313625E+03  d E =-.989453E-04
       N       E                     dE             d eps       ncg     rms          rms(c)
DAV:   1    -0.363136026281E+03   -0.34002E-03   -0.71164E-02  5152   0.802E-01    0.162E-01
RMM:   2    -0.363135918343E+03    0.10794E-03   -0.39320E-03  7638   0.167E-01    0.735E-02
RMM:   3    -0.363135843603E+03    0.74740E-04   -0.71215E-04  7813   0.501E-02    0.568E-02
RMM:   4    -0.363135761272E+03    0.82330E-04   -0.24997E-04  7606   0.300E-02    0.276E-02
RMM:   5    -0.363135752329E+03    0.89434E-05   -0.95578E-05  6201   0.166E-02
  97 F= -.36313575E+03 E0= -.36313637E+03  d E =-.173101E-03
