       N       E                     dE             d eps       ncg     rms          rms(c)
DAV:   1     0.223495953372E+04    0.22350E+04   -0.12394E+05  5968   0.107E+03
DAV:   2    -0.511833881660E+02   -0.22861E+04   -0.22056E+04  6184   0.406E+02
DAV:   3    -0.336588578473E+03   -0.28541E+03   -0.27114E+03  9328   0.994E+01
DAV:   4    -0.369705947232E+03   -0.33117E+02   -0.31717E+02  9192   0.314E+01
DAV:   5    -0.373027667788E+03   -0.33217E+01   -0.32770E+01  8648   0.985E+00    0.635E+01
RMM:   6    -0.362564865876E+03    0.10463E+02   -0.23351E+01  7492   0.100E+01    0.299E+01
RMM:   7    -0.364886484546E+03   -0.23216E+01   -0.25202E+01  8041   0.827E+00    0.119E+01
RMM:   8    -0.358625212448E+03    0.62613E+01   -0.59635E+00  7997   0.347E+00    0.429E+00
RMM:   9    -0.358521156656E+03    0.10406E+00   -0.20444E+00  8130   0.181E+00    0.295E+00
RMM:  10    -0.358477716423E+03    0.43440E-01   -0.43047E-01  8097   0.107E+00    0.157E+00
RMM:  11    -0.358434373107E+03    0.43343E-01   -0.14325E-01  8045   0.571E-01    0.731E-01
RMM:  12    -0.358431344676E+03    0.30284E-02   -0.56514E-02  8180   0.340E-01    0.427E-01
RMM:  13    -0.358429175035E+03    0.21696E-02   -0.14944E-02  8206   0.197E-01    0.230E-01
RMM:  14    -0.358429301353E+03   -0.12632E-03   -0.63539E-03  8436   0.963E-02    0.126E-01
RMM:  15    -0.358429411220E+03   -0.10987E-03   -0.26111E-03  8510   0.594E-02    0.616E-02
RMM:  16    -0.358429434993E+03   -0.23773E-04   -0.10696E-03  7219   0.345E-02    0.335E-02
RMM:  17    -0.358429439742E+03   -0.47496E-05   -0.43752E-04  6373   0.241E-02    0.159E-02
RMM:  18    -0.358429449643E+03   -0.99011E-05   -0.21211E-04  5897   0.176E-02    0.941E-03
RMM:  19    -0.358429451099E+03   -0.14551E-05   -0.76056E-05  4965   0.123E-02
   1 F= -.35842945E+03 E0= -.35843638E+03  d E =-.358429E+03
       N       E                     dE             d eps       ncg     rms          rms(c)
DAV:   1    -0.358431423015E+03   -0.19734E-02   -0.86536E-02  6476   0.910E-01    0.287E-01
RMM:   2    -0.358431165528E+03    0.25749E-03   -0.74347E-03  7646   0.226E-01    0.102E-01
RMM:   3    -0.358430879958E+03    0.28557E-03   -0.14615E-03  8090   0.735E-02    0.738E-02
RMM:   4    -0.358430737568E+03    0.14239E-03   -0.36507E-04  8096   0.380E-02    0.420E-02
RMM:   5    -0.358430705152E+03    0.32416E-04   -0.11722E-04  6934   0.227E-02    0.304E-02
RMM:   6    -0.358430699400E+03    0.57524E-05   -0.52699E-05  4658   0.126E-02
   2 F= -.35843070E+03 E0= -.35843769E+03  d E =-.124830E-02
       N       E                     dE             d eps       ncg     rms          rms(c)
DAV:   1    -0.358439009231E+03   -0.83041E-02   -0.77697E-01  6096   0.273E+00    0.850E-01
RMM:   2    -0.358436414920E+03    0.25943E-02   -0.64713E-02  7529   0.672E-01    0.304E-01
RMM:   3    -0.358433766766E+03    0.26482E-02   -0.12606E-02  8092   0.214E-01    0.219E-01
RMM:   4    -0.358432537986E+03    0.12288E-02   -0.31663E-03  8258   0.113E-01    0.128E-01
RMM:   5    -0.358432275762E+03    0.26222E-03   -0.10389E-03  8132   0.647E-02    0.942E-02
RMM:   6    -0.358432284850E+03   -0.90873E-05   -0.49534E-04  8146   0.345E-02    0.613E-02
RMM:   7    -0.358432267529E+03    0.17320E-04   -0.18170E-04  6921   0.259E-02    0.311E-02
RMM:   8    -0.358432270001E+03   -0.24714E-05   -0.11391E-04  5858   0.170E-02    0.223E-02
RMM:   9    -0.358432270799E+03   -0.79820E-06   -0.45234E-05  4487   0.133E-02
   3 F= -.35843227E+03 E0= -.35843942E+03  d E =-.281970E-02
       N       E                     dE             d eps       ncg     rms          rms(c)
DAV:   1    -0.358433605706E+03   -0.13357E-02   -0.11433E-01  6048   0.982E-01    0.219E-01
RMM:   2    -0.358433606370E+03   -0.66418E-06   -0.67993E-03  7059   0.216E-01    0.865E-02
RMM:   3    -0.358433469739E+03    0.13663E-03   -0.10033E-03  8064   0.719E-02    0.633E-02
RMM:   4    -0.358433387277E+03    0.82462E-04   -0.26849E-04  7936   0.285E-02    0.373E-02
RMM:   5    -0.358433370750E+03    0.16527E-04   -0.10359E-04  6971   0.200E-02    0.265E-02
RMM:   6    -0.358433373599E+03   -0.28489E-05   -0.33166E-05  3935   0.110E-02
   4 F= -.35843337E+03 E0= -.35844055E+03  d E =-.110280E-02
       N       E                     dE             d eps       ncg     rms          rms(c)
DAV:   1    -0.358436571951E+03   -0.32012E-02   -0.10236E+00  5744   0.294E+00    0.638E-01
RMM:   2    -0.358436799903E+03   -0.22795E-03   -0.59890E-02  6816   0.637E-01    0.245E-01
RMM:   3    -0.358435446566E+03    0.13533E-02   -0.81192E-03  8017   0.207E-01    0.179E-01
RMM:   4    -0.358434743280E+03    0.70329E-03   -0.20643E-03  8231   0.794E-02    0.106E-01
RMM:   5    -0.358434616012E+03    0.12727E-03   -0.84053E-04  8316   0.549E-02    0.782E-02
RMM:   6    -0.358434637697E+03   -0.21684E-04   -0.32113E-04  7920   0.301E-02    0.449E-02
RMM:   7    -0.358434661349E+03   -0.23652E-04   -0.16161E-04  6920   0.222E-02    0.254E-02
RMM:   8    -0.358434674831E+03   -0.13483E-04   -0.67503E-05  5098   0.148E-02    0.163E-02
RMM:   9    -0.358434683951E+03   -0.91197E-05   -0.36910E-05  4435   0.121E-02
   5 F= -.35843468E+03 E0= -.35844193E+03  d E =-.241315E-02
       N       E                     dE             d eps       ncg     rms          rms(c)
DAV:   1    -0.358434707164E+03   -0.32333E-04   -0.13745E-03  6572   0.107E-01    0.282E-02
RMM:   2    -0.358434712411E+03   -0.52466E-05   -0.98801E-05  7230   0.249E-02
   6 F= -.35843471E+03 E0= -.35844195E+03  d E =-.244161E-02
       N       E                     dE             d eps       ncg     rms          rms(c)
DAV:   1    -0.358434870052E+03   -0.16289E-03   -0.36619E-02  5792   0.559E-01    0.913E-02
RMM:   2    -0.358434969368E+03   -0.99316E-04   -0.20287E-03  7309   0.118E-01    0.398E-02
RMM:   3    -0.358434922915E+03    0.46453E-04   -0.23026E-04  7274   0.366E-02    0.311E-02
RMM:   4    -0.358434904990E+03    0.17925E-04   -0.56043E-05  5893   0.146E-02    0.187E-02
RMM:   5    -0.358434899510E+03    0.54801E-05   -0.17966E-05  3314   0.107E-02
   7 F= -.35843490E+03 E0= -.35844215E+03  d E =-.187099E-03
       N       E                     dE             d eps       ncg     rms          rms(c)
DAV:   1    -0.358434931614E+03   -0.26624E-04   -0.14207E-01  5696   0.110E+00    0.171E-01
RMM:   2    -0.358435362797E+03   -0.43118E-03   -0.76955E-03  7364   0.230E-01    0.777E-02
RMM:   3    -0.358435161494E+03    0.20130E-03   -0.89648E-04  7850   0.697E-02    0.578E-02
RMM:   4    -0.358435103036E+03    0.58457E-04   -0.21972E-04  7728   0.255E-02    0.343E-02
RMM:   5    -0.358435088834E+03    0.14202E-04   -0.88204E-05  6801   0.177E-02    0.221E-02
RMM:   6    -0.358435083819E+03    0.50156E-05   -0.33895E-05  4002   0.113E-02
   8 F= -.35843508E+03 E0= -.35844235E+03  d E =-.371408E-03
       N       E                     dE             d eps       ncg     rms          rms(c)
DAV:   1    -0.358435074192E+03    0.14643E-04   -0.12133E-02  5632   0.323E-01    0.482E-02
RMM:   2    -0.358435114371E+03   -0.40179E-04   -0.65810E-04  7468   0.668E-02    0.236E-02
RMM:   3    -0.358435095199E+03    0.19172E-04   -0.78781E-05  6331   0.199E-02    0.172E-02
RMM:   4    -0.358435089688E+03    0.55107E-05   -0.18926E-05  3441   0.994E-03
   9 F= -.35843509E+03 E0= -.35844236E+03  d E =-.377277E-03
       N       E                     dE             d eps       ncg     rms          rms(c)
DAV:   1    -0.358435267526E+03   -0.17233E-03   -0.25921E-02  5632   0.478E-01    0.101E-01
RMM:   2    -0.358435288242E+03   -0.20716E-04   -0.17016E-03  7436   0.108E-01    0.401E-02
RMM:   3    -0.358435255721E+03    0.32521E-04   -0.23045E-04  7288   0.343E-02    0.276E-02
RMM:   4    -0.358435241851E+03    0.13870E-04   -0.60095E-05  6013   0.157E-02    0.157E-02
RMM:   5    -0.358435239446E+03    0.24043E-05   -0.17690E-05  3406   0.926E-03
  10 F= -.35843524E+03 E0= -.35844249E+03  d E =-.149758E-03
       N       E                     dE             d eps       ncg     rms          rms(c)
DAV:   1    -0.358435535647E+03   -0.29380E-03   -0.23184E-01  5544   0.143E+00    0.290E-01
RMM:   2    -0.358435750283E+03   -0.21464E-03   -0.14902E-02  7270   0.318E-01    0.111E-01
RMM:   3    -0.358435451879E+03    0.29840E-03   -0.18313E-03  7949   0.988E-02    0.760E-02
RMM:   4    -0.358435346044E+03    0.10583E-03   -0.46891E-04  8031   0.407E-02    0.458E-02
RMM:   5    -0.358435337923E+03    0.81211E-05   -0.17501E-04  7213   0.210E-02    0.350E-02
RMM:   6    -0.358435343705E+03   -0.57817E-05   -0.77158E-05  6034   0.150E-02
  11 F= -.35843534E+03 E0= -.35844255E+03  d E =-.254017E-03
       N       E                     dE             d eps       ncg     rms          rms(c)
DAV:   1    -0.358435387915E+03   -0.49992E-04   -0.12165E-02  5824   0.328E-01    0.724E-02
RMM:   2    -0.358435414652E+03   -0.26736E-04   -0.82296E-04  7036   0.748E-02    0.287E-02
RMM:   3    -0.358435398328E+03    0.16324E-04   -0.10454E-04  6417   0.241E-02    0.205E-02
RMM:   4    -0.358435390139E+03    0.81886E-05   -0.20550E-05  3112   0.129E-02
  12 F= -.35843539E+03 E0= -.35844260E+03  d E =-.300451E-03
       N       E                     dE             d eps       ncg     rms          rms(c)
DAV:   1    -0.358435470322E+03   -0.71994E-04   -0.18631E-02  5584   0.404E-01    0.769E-02
RMM:   2    -0.358435503096E+03   -0.32774E-04   -0.12094E-03  6724   0.900E-02    0.305E-02
RMM:   3    -0.358435474926E+03    0.28169E-04   -0.12026E-04  7027   0.260E-02    0.225E-02
RMM:   4    -0.358435462800E+03    0.12127E-04   -0.23026E-05  3502   0.113E-02    0.152E-02
RMM:   5    -0.358435458959E+03    0.38409E-05   -0.86926E-06  3111   0.858E-03
  13 F= -.35843546E+03 E0= -.35844267E+03  d E =-.688198E-04
