       N       E                     dE             d eps       ncg     rms          rms(c)
DAV:   1     0.204761613408E+04    0.20476E+04   -0.11789E+05  5704   0.108E+03
DAV:   2    -0.770437485165E+02   -0.21247E+04   -0.20571E+04  5872   0.404E+02
DAV:   3    -0.344693898544E+03   -0.26765E+03   -0.25451E+03  8776   0.987E+01
DAV:   4    -0.377189675173E+03   -0.32496E+02   -0.30936E+02  8584   0.319E+01
DAV:   5    -0.380413353643E+03   -0.32237E+01   -0.31537E+01  8280   0.996E+00    0.642E+01
RMM:   6    -0.370110978749E+03    0.10302E+02   -0.29499E+01  7395   0.106E+01    0.307E+01
RMM:   7    -0.373544643619E+03   -0.34337E+01   -0.34278E+01  7796   0.908E+00    0.138E+01
RMM:   8    -0.365326827442E+03    0.82178E+01   -0.86137E+00  7440   0.425E+00    0.438E+00
RMM:   9    -0.365125003757E+03    0.20182E+00   -0.34184E+00  7779   0.235E+00    0.306E+00
RMM:  10    -0.365063179550E+03    0.61824E-01   -0.68728E-01  7882   0.128E+00    0.180E+00
RMM:  11    -0.365023424213E+03    0.39755E-01   -0.19298E-01  7707   0.672E-01    0.103E+00
RMM:  12    -0.365016469259E+03    0.69550E-02   -0.86186E-02  7830   0.431E-01    0.529E-01
RMM:  13    -0.365014009792E+03    0.24595E-02   -0.23300E-02  7801   0.250E-01    0.291E-01
RMM:  14    -0.365014022043E+03   -0.12250E-04   -0.11911E-02  7961   0.124E-01    0.170E-01
RMM:  15    -0.365014034488E+03   -0.12445E-04   -0.58866E-03  7855   0.883E-02    0.912E-02
RMM:  16    -0.365014080882E+03   -0.46394E-04   -0.21727E-03  7550   0.467E-02    0.522E-02
RMM:  17    -0.365014105528E+03   -0.24646E-04   -0.96747E-04  6791   0.332E-02    0.242E-02
RMM:  18    -0.365014132240E+03   -0.26713E-04   -0.38729E-04  5672   0.196E-02    0.131E-02
RMM:  19    -0.365014146356E+03   -0.14116E-04   -0.21997E-04  5192   0.154E-02    0.711E-03
RMM:  20    -0.365014149742E+03   -0.33858E-05   -0.73468E-05  4147   0.113E-02
   1 F= -.36501415E+03 E0= -.36501950E+03  d E =-.365014E+03
       N       E                     dE             d eps       ncg     rms          rms(c)
DAV:   1    -0.365083861433E+03   -0.69715E-01   -0.23970E+00  6464   0.515E+00    0.179E+00
RMM:   2    -0.365074220295E+03    0.96411E-02   -0.27435E-01  7686   0.135E+00    0.748E-01
RMM:   3    -0.365053685908E+03    0.20534E-01   -0.59343E-02  7926   0.419E-01    0.499E-01
RMM:   4    -0.365047437774E+03    0.62481E-02   -0.17964E-02  7898   0.291E-01    0.258E-01
RMM:   5    -0.365046494630E+03    0.94314E-03   -0.44089E-03  7807   0.142E-01    0.187E-01
RMM:   6    -0.365046648364E+03   -0.15373E-03   -0.20523E-03  8152   0.694E-02    0.137E-01
RMM:   7    -0.365046730539E+03   -0.82175E-04   -0.77566E-04  7678   0.528E-02    0.718E-02
RMM:   8    -0.365046838136E+03   -0.10760E-03   -0.54103E-04  6991   0.335E-02    0.465E-02
RMM:   9    -0.365046905108E+03   -0.66972E-04   -0.21406E-04  6392   0.262E-02    0.333E-02
RMM:  10    -0.365046953297E+03   -0.48189E-04   -0.11208E-04  5259   0.177E-02    0.209E-02
RMM:  11    -0.365046975960E+03   -0.22663E-04   -0.52979E-05  4383   0.144E-02    0.989E-03
RMM:  12    -0.365046986167E+03   -0.10207E-04   -0.29223E-05  3984   0.136E-02    0.620E-03
RMM:  13    -0.365046989156E+03   -0.29888E-05   -0.14484E-05  3442   0.117E-02
   2 F= -.36504699E+03 E0= -.36505247E+03  d E =-.328394E-01
       N       E                     dE             d eps       ncg     rms          rms(c)
DAV:   1    -0.365224572655E+03   -0.17759E+00   -0.97818E+00  6152   0.104E+01    0.365E+00
RMM:   2    -0.365182904200E+03    0.41668E-01   -0.11142E+00  7677   0.272E+00    0.150E+00
RMM:   3    -0.365100105272E+03    0.82799E-01   -0.24037E-01  7920   0.844E-01    0.101E+00
RMM:   4    -0.365074538296E+03    0.25567E-01   -0.71933E-02  7879   0.586E-01    0.522E-01
RMM:   5    -0.365070795408E+03    0.37429E-02   -0.18301E-02  7864   0.286E-01    0.379E-01
RMM:   6    -0.365071399104E+03   -0.60370E-03   -0.80976E-03  8260   0.139E-01    0.276E-01
RMM:   7    -0.365071640081E+03   -0.24098E-03   -0.32545E-03  8729   0.104E-01    0.146E-01
RMM:   8    -0.365072028168E+03   -0.38809E-03   -0.21566E-03  8677   0.643E-02    0.967E-02
RMM:   9    -0.365072266154E+03   -0.23799E-03   -0.78848E-04  7569   0.478E-02    0.670E-02
RMM:  10    -0.365072431624E+03   -0.16547E-03   -0.45749E-04  7068   0.315E-02    0.414E-02
RMM:  11    -0.365072499656E+03   -0.68032E-04   -0.20807E-04  5691   0.238E-02    0.225E-02
RMM:  12    -0.365072528929E+03   -0.29273E-04   -0.10488E-04  5553   0.186E-02    0.743E-03
RMM:  13    -0.365072536377E+03   -0.74489E-05   -0.45330E-05  4438   0.145E-02
   3 F= -.36507254E+03 E0= -.36507828E+03  d E =-.583866E-01
       N       E                     dE             d eps       ncg     rms          rms(c)
DAV:   1    -0.365096067516E+03   -0.23539E-01   -0.20654E+00  5440   0.399E+00    0.613E-01
RMM:   2    -0.365100192126E+03   -0.41246E-02   -0.86038E-02  7236   0.791E-01    0.281E-01
RMM:   3    -0.365098720752E+03    0.14714E-02   -0.11480E-02  7582   0.230E-01    0.214E-01
RMM:   4    -0.365098006114E+03    0.71464E-03   -0.29649E-03  7857   0.940E-02    0.120E-01
RMM:   5    -0.365097885412E+03    0.12070E-03   -0.12619E-03  7802   0.624E-02    0.732E-02
RMM:   6    -0.365097856049E+03    0.29363E-04   -0.50755E-04  7731   0.363E-02    0.473E-02
RMM:   7    -0.365097844654E+03    0.11394E-04   -0.19419E-04  6778   0.221E-02    0.289E-02
RMM:   8    -0.365097841218E+03    0.34363E-05   -0.76817E-05  5296   0.146E-02
   4 F= -.36509784E+03 E0= -.36510363E+03  d E =-.253048E-01
       N       E                     dE             d eps       ncg     rms          rms(c)
DAV:   1    -0.365116843327E+03   -0.18999E-01   -0.18580E+01  5152   0.120E+01    0.181E+00
RMM:   2    -0.365155812468E+03   -0.38969E-01   -0.77879E-01  7141   0.238E+00    0.822E-01
RMM:   3    -0.365143936657E+03    0.11876E-01   -0.10404E-01  7619   0.698E-01    0.651E-01
RMM:   4    -0.365137316416E+03    0.66202E-02   -0.25606E-02  7855   0.275E-01    0.369E-01
RMM:   5    -0.365136236765E+03    0.10797E-02   -0.11255E-02  7897   0.183E-01    0.223E-01
RMM:   6    -0.365136031375E+03    0.20539E-03   -0.44481E-03  8026   0.109E-01    0.146E-01
RMM:   7    -0.365135986713E+03    0.44662E-04   -0.18420E-03  8677   0.632E-02    0.895E-02
RMM:   8    -0.365136015984E+03   -0.29271E-04   -0.80646E-04  8039   0.373E-02    0.589E-02
RMM:   9    -0.365136026588E+03   -0.10604E-04   -0.32962E-04  6944   0.276E-02    0.339E-02
RMM:  10    -0.365136035694E+03   -0.91066E-05   -0.16928E-04  6185   0.207E-02    0.203E-02
RMM:  11    -0.365136033150E+03    0.25441E-05   -0.72505E-05  4999   0.158E-02
   5 F= -.36513603E+03 E0= -.36514190E+03  d E =-.634968E-01
       N       E                     dE             d eps       ncg     rms          rms(c)
DAV:   1    -0.365136467370E+03   -0.43168E-03   -0.59636E-01  5488   0.214E+00    0.328E-01
RMM:   2    -0.365137652466E+03   -0.11851E-02   -0.24666E-02  7195   0.423E-01    0.148E-01
RMM:   3    -0.365137244273E+03    0.40819E-03   -0.33066E-03  7590   0.122E-01    0.113E-01
RMM:   4    -0.365137044213E+03    0.20006E-03   -0.88298E-04  7784   0.502E-02    0.628E-02
RMM:   5    -0.365137013411E+03    0.30802E-04   -0.37822E-04  7688   0.336E-02    0.385E-02
RMM:   6    -0.365137005566E+03    0.78453E-05   -0.15454E-04  6706   0.199E-02    0.260E-02
RMM:   7    -0.365136999965E+03    0.56010E-05   -0.53632E-05  4528   0.133E-02
   6 F= -.36513700E+03 E0= -.36514288E+03  d E =-.644636E-01
       N       E                     dE             d eps       ncg     rms          rms(c)
DAV:   1    -0.365143039370E+03   -0.60338E-02   -0.35373E-01  5712   0.183E+00    0.457E-01
RMM:   2    -0.365142992584E+03    0.46786E-04   -0.25898E-02  7030   0.436E-01    0.185E-01
RMM:   3    -0.365142084322E+03    0.90826E-03   -0.43516E-03  7762   0.139E-01    0.136E-01
RMM:   4    -0.365141602687E+03    0.48164E-03   -0.13335E-03  7868   0.735E-02    0.691E-02
RMM:   5    -0.365141544087E+03    0.58600E-04   -0.38952E-04  7707   0.398E-02    0.501E-02
RMM:   6    -0.365141543671E+03    0.41528E-06   -0.18017E-04  6801   0.216E-02    0.344E-02
RMM:   7    -0.365141534485E+03    0.91866E-05   -0.69163E-05  5290   0.159E-02
   7 F= -.36514153E+03 E0= -.36514745E+03  d E =-.453452E-02
       N       E                     dE             d eps       ncg     rms          rms(c)
DAV:   1    -0.365157318483E+03   -0.15775E-01   -0.26047E+00  5504   0.497E+00    0.124E+00
RMM:   2    -0.365156864296E+03    0.45419E-03   -0.19073E-01  7132   0.118E+00    0.505E-01
RMM:   3    -0.365150205779E+03    0.66585E-02   -0.32694E-02  7795   0.376E-01    0.374E-01
RMM:   4    -0.365146629479E+03    0.35763E-02   -0.10059E-02  7922   0.202E-01    0.191E-01
RMM:   5    -0.365146224123E+03    0.40536E-03   -0.29863E-03  7840   0.109E-01    0.138E-01
RMM:   6    -0.365146269400E+03   -0.45278E-04   -0.13912E-03  8332   0.581E-02    0.933E-02
RMM:   7    -0.365146254703E+03    0.14697E-04   -0.58170E-04  7430   0.409E-02    0.513E-02
RMM:   8    -0.365146272785E+03   -0.18082E-04   -0.29970E-04  6782   0.267E-02    0.339E-02
RMM:   9    -0.365146285572E+03   -0.12787E-04   -0.13542E-04  5327   0.210E-02    0.243E-02
RMM:  10    -0.365146290093E+03   -0.45205E-05   -0.81916E-05  5068   0.161E-02
   8 F= -.36514629E+03 E0= -.36515230E+03  d E =-.929013E-02
       N       E                     dE             d eps       ncg     rms          rms(c)
DAV:   1    -0.365150295599E+03   -0.40100E-02   -0.25916E-01  5688   0.155E+00    0.373E-01
RMM:   2    -0.365150494260E+03   -0.19866E-03   -0.18973E-02  7480   0.364E-01    0.169E-01
RMM:   3    -0.365149629780E+03    0.86448E-03   -0.32760E-03  7769   0.115E-01    0.117E-01
RMM:   4    -0.365149341597E+03    0.28818E-03   -0.95905E-04  7895   0.601E-02    0.600E-02
RMM:   5    -0.365149302407E+03    0.39190E-04   -0.29826E-04  7729   0.352E-02    0.407E-02
RMM:   6    -0.365149309352E+03   -0.69451E-05   -0.13352E-04  6734   0.186E-02    0.283E-02
RMM:   7    -0.365149314187E+03   -0.48352E-05   -0.44287E-05  4078   0.128E-02
   9 F= -.36514931E+03 E0= -.36515539E+03  d E =-.302409E-02
       N       E                     dE             d eps       ncg     rms          rms(c)
DAV:   1    -0.365161323204E+03   -0.12014E-01   -0.23259E+00  5464   0.464E+00    0.111E+00
RMM:   2    -0.365163277943E+03   -0.19547E-02   -0.16736E-01  7323   0.109E+00    0.496E-01
RMM:   3    -0.365155249089E+03    0.80289E-02   -0.27550E-02  7744   0.341E-01    0.331E-01
RMM:   4    -0.365152842678E+03    0.24064E-02   -0.81162E-03  7916   0.177E-01    0.172E-01
RMM:   5    -0.365152542635E+03    0.30004E-03   -0.24606E-03  7830   0.102E-01    0.121E-01
RMM:   6    -0.365152597973E+03   -0.55338E-04   -0.11321E-03  8087   0.532E-02    0.875E-02
RMM:   7    -0.365152632210E+03   -0.34237E-04   -0.44482E-04  7166   0.359E-02    0.490E-02
RMM:   8    -0.365152685821E+03   -0.53610E-04   -0.24843E-04  6669   0.243E-02    0.303E-02
RMM:   9    -0.365152715717E+03   -0.29897E-04   -0.10622E-04  5134   0.191E-02    0.195E-02
RMM:  10    -0.365152735945E+03   -0.20228E-04   -0.64323E-05  4814   0.150E-02    0.125E-02
RMM:  11    -0.365152745170E+03   -0.92247E-05   -0.24581E-05  3831   0.122E-02
  10 F= -.36515275E+03 E0= -.36515896E+03  d E =-.645508E-02
       N       E                     dE             d eps       ncg     rms          rms(c)
DAV:   1    -0.365152914026E+03   -0.17808E-03   -0.25368E-02  5880   0.485E-01    0.118E-01
RMM:   2    -0.365152945824E+03   -0.31798E-04   -0.18910E-03  7472   0.114E-01    0.539E-02
RMM:   3    -0.365152854384E+03    0.91440E-04   -0.32522E-04  7301   0.362E-02    0.370E-02
RMM:   4    -0.365152822105E+03    0.32279E-04   -0.87597E-05  6209   0.196E-02    0.197E-02
RMM:   5    -0.365152814362E+03    0.77438E-05   -0.20401E-05  2978   0.127E-02
  11 F= -.36515281E+03 E0= -.36515901E+03  d E =-.652427E-02
       N       E                     dE             d eps       ncg     rms          rms(c)
DAV:   1    -0.365153975830E+03   -0.11537E-02   -0.83235E-02  5344   0.804E-01    0.663E-02
RMM:   2    -0.365154177205E+03   -0.20137E-03   -0.27341E-03  7107   0.153E-01    0.384E-02
RMM:   3    -0.365154146534E+03    0.30671E-04   -0.31950E-04  7234   0.421E-02    0.290E-02
RMM:   4    -0.365154139938E+03    0.65963E-05   -0.81855E-05  5546   0.143E-02
  12 F= -.36515414E+03 E0= -.36516038E+03  d E =-.132558E-02
       N       E                     dE             d eps       ncg     rms          rms(c)
DAV:   1    -0.365155905459E+03   -0.17589E-02   -0.74784E-01  5152   0.241E+00    0.204E-01
RMM:   2    -0.365157781832E+03   -0.18764E-02   -0.24703E-02  7179   0.458E-01    0.122E-01
RMM:   3    -0.365157502369E+03    0.27946E-03   -0.31598E-03  7652   0.122E-01    0.925E-02
RMM:   4    -0.365157444986E+03    0.57382E-04   -0.76706E-04  8267   0.410E-02    0.600E-02
RMM:   5    -0.365157434327E+03    0.10659E-04   -0.30693E-04  7437   0.301E-02    0.304E-02
RMM:   6    -0.365157435914E+03   -0.15871E-05   -0.12367E-04  6626   0.195E-02    0.148E-02
RMM:   7    -0.365157434742E+03    0.11725E-05   -0.31987E-05  3834   0.120E-02
  13 F= -.36515743E+03 E0= -.36516379E+03  d E =-.462038E-02
       N       E                     dE             d eps       ncg     rms          rms(c)
DAV:   1    -0.365154782791E+03    0.26531E-02   -0.29964E+00  5152   0.482E+00    0.402E-01
RMM:   2    -0.365162278130E+03   -0.74953E-02   -0.98864E-02  7112   0.919E-01    0.236E-01
RMM:   3    -0.365161143566E+03    0.11346E-02   -0.12271E-02  7659   0.247E-01    0.177E-01
RMM:   4    -0.365160924148E+03    0.21942E-03   -0.29474E-03  8516   0.792E-02    0.116E-01
RMM:   5    -0.365160879511E+03    0.44637E-04   -0.11473E-03  8049   0.579E-02    0.598E-02
RMM:   6    -0.365160885208E+03   -0.56976E-05   -0.48172E-04  8109   0.384E-02    0.268E-02
RMM:   7    -0.365160886087E+03   -0.87823E-06   -0.16287E-04  5686   0.182E-02    0.174E-02
RMM:   8    -0.365160892470E+03   -0.63834E-05   -0.86075E-05  4679   0.162E-02
  14 F= -.36516089E+03 E0= -.36516745E+03  d E =-.807811E-02
       N       E                     dE             d eps       ncg     rms          rms(c)
DAV:   1    -0.365160625493E+03    0.26059E-03   -0.22603E-01  5376   0.132E+00    0.111E-01
RMM:   2    -0.365161209517E+03   -0.58402E-03   -0.75980E-03  7232   0.253E-01    0.662E-02
RMM:   3    -0.365161134584E+03    0.74933E-04   -0.10136E-03  7513   0.681E-02    0.497E-02
RMM:   4    -0.365161122937E+03    0.11647E-04   -0.26192E-04  7193   0.231E-02    0.325E-02
RMM:   5    -0.365161122258E+03    0.67976E-06   -0.95957E-05  5967   0.151E-02
  15 F= -.36516112E+03 E0= -.36516773E+03  d E =-.830790E-02
       N       E                     dE             d eps       ncg     rms          rms(c)
DAV:   1    -0.365170531565E+03   -0.94086E-02   -0.93333E-01  5680   0.308E+00    0.927E-01
RMM:   2    -0.365169033166E+03    0.14984E-02   -0.78886E-02  7493   0.748E-01    0.378E-01
RMM:   3    -0.365164707224E+03    0.43259E-02   -0.16805E-02  7906   0.243E-01    0.273E-01
RMM:   4    -0.365162701506E+03    0.20057E-02   -0.49339E-03  7870   0.151E-01    0.126E-01
RMM:   5    -0.365162497993E+03    0.20351E-03   -0.13006E-03  7761   0.777E-02    0.923E-02
RMM:   6    -0.365162511336E+03   -0.13343E-04   -0.61313E-04  7817   0.384E-02    0.632E-02
RMM:   7    -0.365162496672E+03    0.14664E-04   -0.20084E-04  6499   0.282E-02    0.348E-02
RMM:   8    -0.365162501895E+03   -0.52224E-05   -0.13682E-04  5826   0.188E-02    0.236E-02
RMM:   9    -0.365162504039E+03   -0.21447E-05   -0.52593E-05  4694   0.149E-02
  16 F= -.36516250E+03 E0= -.36516922E+03  d E =-.138178E-02
       N       E                     dE             d eps       ncg     rms          rms(c)
DAV:   1    -0.365162526327E+03   -0.24432E-04   -0.15058E-03  6432   0.121E-01    0.402E-02
RMM:   2    -0.365162521715E+03    0.46121E-05   -0.16682E-04  7456   0.317E-02    0.186E-02
RMM:   3    -0.365162515214E+03    0.65006E-05   -0.37265E-05  4266   0.116E-02
  17 F= -.36516252E+03 E0= -.36516922E+03  d E =-.139296E-02
       N       E                     dE             d eps       ncg     rms          rms(c)
DAV:   1    -0.365162953850E+03   -0.43213E-03   -0.25956E-01  5408   0.143E+00    0.972E-02
RMM:   2    -0.365163646655E+03   -0.69281E-03   -0.84927E-03  6304   0.269E-01    0.565E-02
RMM:   3    -0.365163585829E+03    0.60827E-04   -0.95938E-04  7353   0.790E-02    0.428E-02
RMM:   4    -0.365163579757E+03    0.60717E-05   -0.25626E-04  6856   0.210E-02    0.292E-02
RMM:   5    -0.365163576179E+03    0.35776E-05   -0.77076E-05  5549   0.139E-02
  18 F= -.36516358E+03 E0= -.36517036E+03  d E =-.106096E-02
       N       E                     dE             d eps       ncg     rms          rms(c)
DAV:   1    -0.365159397052E+03    0.41827E-02   -0.23340E+00  5264   0.428E+00    0.291E-01
RMM:   2    -0.365165699076E+03   -0.63020E-02   -0.76439E-02  6359   0.808E-01    0.170E-01
RMM:   3    -0.365165237536E+03    0.46154E-03   -0.91459E-03  7647   0.236E-01    0.130E-01
RMM:   4    -0.365165170713E+03    0.66823E-04   -0.21227E-03  8927   0.613E-02    0.886E-02
RMM:   5    -0.365165145783E+03    0.24930E-04   -0.75985E-04  8017   0.458E-02    0.479E-02
RMM:   6    -0.365165146216E+03   -0.43320E-06   -0.31201E-04  7531   0.307E-02    0.217E-02
RMM:   7    -0.365165142237E+03    0.39790E-05   -0.10947E-04  5298   0.150E-02    0.135E-02
RMM:   8    -0.365165145415E+03   -0.31777E-05   -0.49467E-05  3938   0.130E-02
  19 F= -.36516515E+03 E0= -.36517214E+03  d E =-.263020E-02
       N       E                     dE             d eps       ncg     rms          rms(c)
DAV:   1    -0.365170589550E+03   -0.54473E-02   -0.19195E-01  7056   0.155E+00    0.612E-01
RMM:   2    -0.365168903504E+03    0.16860E-02   -0.31796E-02  7754   0.436E-01    0.258E-01
RMM:   3    -0.365166636967E+03    0.22665E-02   -0.66782E-03  7943   0.129E-01    0.171E-01
RMM:   4    -0.365165886600E+03    0.75037E-03   -0.20916E-03  7904   0.970E-02    0.877E-02
RMM:   5    -0.365165770380E+03    0.11622E-03   -0.53244E-04  7646   0.500E-02    0.602E-02
RMM:   6    -0.365165793576E+03   -0.23197E-04   -0.21374E-04  6843   0.242E-02    0.444E-02
RMM:   7    -0.365165815072E+03   -0.21496E-04   -0.81280E-05  5682   0.176E-02    0.253E-02
RMM:   8    -0.365165833051E+03   -0.17978E-04   -0.62138E-05  4110   0.139E-02    0.166E-02
RMM:   9    -0.365165845641E+03   -0.12591E-04   -0.33293E-05  3891   0.127E-02    0.103E-02
RMM:  10    -0.365165854769E+03   -0.91278E-05   -0.11559E-05  3270   0.102E-02
  20 F= -.36516585E+03 E0= -.36517285E+03  d E =-.709354E-03
       N       E                     dE             d eps       ncg     rms          rms(c)
DAV:   1    -0.365165878199E+03   -0.32558E-04   -0.96407E-04  7136   0.112E-01    0.416E-02
RMM:   2    -0.365165869754E+03    0.84455E-05   -0.16478E-04  7092   0.318E-02    0.177E-02
RMM:   3    -0.365165856829E+03    0.12924E-04   -0.20299E-05  3157   0.933E-03    0.109E-02
RMM:   4    -0.365165855774E+03    0.10548E-05   -0.67363E-06  2735   0.899E-03
  21 F= -.36516586E+03 E0= -.36517286E+03  d E =-.710360E-03
       N       E                     dE             d eps       ncg     rms          rms(c)
DAV:   1    -0.365166243620E+03   -0.38679E-03   -0.58780E-02  5312   0.693E-01    0.788E-02
RMM:   2    -0.365166400561E+03   -0.15694E-03   -0.24120E-03  7558   0.141E-01    0.441E-02
RMM:   3    -0.365166372688E+03    0.27873E-04   -0.28869E-04  7241   0.361E-02    0.332E-02
RMM:   4    -0.365166359897E+03    0.12792E-04   -0.79105E-05  6046   0.159E-02    0.191E-02
RMM:   5    -0.365166356979E+03    0.29173E-05   -0.29292E-05  3670   0.107E-02
  22 F= -.36516636E+03 E0= -.36517335E+03  d E =-.501205E-03
       N       E                     dE             d eps       ncg     rms          rms(c)
DAV:   1    -0.365166005745E+03    0.35415E-03   -0.52800E-01  5152   0.208E+00    0.234E-01
RMM:   2    -0.365167384792E+03   -0.13790E-02   -0.21503E-02  7566   0.421E-01    0.129E-01
RMM:   3    -0.365167143441E+03    0.24135E-03   -0.26082E-03  7684   0.105E-01    0.958E-02
RMM:   4    -0.365167026039E+03    0.11740E-03   -0.69726E-04  7943   0.444E-02    0.555E-02
RMM:   5    -0.365167006931E+03    0.19108E-04   -0.31019E-04  7502   0.313E-02    0.311E-02
RMM:   6    -0.365166998663E+03    0.82683E-05   -0.11626E-04  6223   0.180E-02    0.180E-02
RMM:   7    -0.365166994415E+03    0.42477E-05   -0.38089E-05  3953   0.123E-02
  23 F= -.36516699E+03 E0= -.36517394E+03  d E =-.113864E-02
       N       E                     dE             d eps       ncg     rms          rms(c)
DAV:   1    -0.365167375881E+03   -0.37722E-03   -0.94202E-02  5280   0.903E-01    0.149E-01
RMM:   2    -0.365167650049E+03   -0.27417E-03   -0.53907E-03  7208   0.194E-01    0.751E-02
RMM:   3    -0.365167471834E+03    0.17822E-03   -0.64167E-04  7584   0.562E-02    0.496E-02
RMM:   4    -0.365167423940E+03    0.47894E-04   -0.18888E-04  7163   0.250E-02    0.270E-02
RMM:   5    -0.365167413696E+03    0.10244E-04   -0.65053E-05  5503   0.168E-02    0.174E-02
RMM:   6    -0.365167409715E+03    0.39806E-05   -0.23727E-05  3271   0.105E-02
  24 F= -.36516741E+03 E0= -.36517439E+03  d E =-.415300E-03
       N       E                     dE             d eps       ncg     rms          rms(c)
DAV:   1    -0.365167613827E+03   -0.20013E-03   -0.35642E-01  5264   0.176E+00    0.291E-01
RMM:   2    -0.365168625607E+03   -0.10118E-02   -0.20383E-02  7257   0.377E-01    0.147E-01
RMM:   3    -0.365167956726E+03    0.66888E-03   -0.24353E-03  7654   0.108E-01    0.974E-02
RMM:   4    -0.365167777807E+03    0.17892E-03   -0.71815E-04  7764   0.487E-02    0.533E-02
RMM:   5    -0.365167744939E+03    0.32869E-04   -0.26292E-04  7674   0.319E-02    0.347E-02
RMM:   6    -0.365167738634E+03    0.63042E-05   -0.11136E-04  5967   0.175E-02    0.222E-02
RMM:   7    -0.365167733663E+03    0.49710E-05   -0.43895E-05  4247   0.126E-02
  25 F= -.36516773E+03 E0= -.36517476E+03  d E =-.739248E-03
       N       E                     dE             d eps       ncg     rms          rms(c)
DAV:   1    -0.365167969478E+03   -0.23084E-03   -0.25580E-02  5600   0.476E-01    0.968E-02
RMM:   2    -0.365168006150E+03   -0.36672E-04   -0.16357E-03  7386   0.108E-01    0.444E-02
RMM:   3    -0.365167969297E+03    0.36853E-04   -0.25215E-04  7111   0.323E-02    0.334E-02
RMM:   4    -0.365167947833E+03    0.21465E-04   -0.76827E-05  6234   0.178E-02    0.178E-02
RMM:   5    -0.365167944831E+03    0.30011E-05   -0.23704E-05  3315   0.117E-02
  26 F= -.36516794E+03 E0= -.36517499E+03  d E =-.211168E-03
       N       E                     dE             d eps       ncg     rms          rms(c)
DAV:   1    -0.365168443814E+03   -0.49598E-03   -0.22885E-01  5280   0.143E+00    0.272E-01
RMM:   2    -0.365168843732E+03   -0.39992E-03   -0.14081E-02  6870   0.316E-01    0.120E-01
RMM:   3    -0.365168451448E+03    0.39228E-03   -0.17834E-03  7700   0.936E-02    0.860E-02
RMM:   4    -0.365168304818E+03    0.14663E-03   -0.53511E-04  7725   0.440E-02    0.465E-02
RMM:   5    -0.365168292333E+03    0.12486E-04   -0.18907E-04  7104   0.269E-02    0.327E-02
RMM:   6    -0.365168297862E+03   -0.55290E-05   -0.82203E-05  5638   0.153E-02
  27 F= -.36516830E+03 E0= -.36517540E+03  d E =-.564198E-03
       N       E                     dE             d eps       ncg     rms          rms(c)
DAV:   1    -0.365168331928E+03   -0.39595E-04   -0.34428E-02  5424   0.555E-01    0.101E-01
RMM:   2    -0.365168390578E+03   -0.58651E-04   -0.20853E-03  6943   0.122E-01    0.451E-02
RMM:   3    -0.365168338155E+03    0.52423E-04   -0.26904E-04  7151   0.362E-02    0.322E-02
RMM:   4    -0.365168324268E+03    0.13887E-04   -0.86265E-05  5778   0.185E-02    0.191E-02
RMM:   5    -0.365168325712E+03   -0.14444E-05   -0.29058E-05  3517   0.129E-02
  28 F= -.36516833E+03 E0= -.36517544E+03  d E =-.592049E-03
       N       E                     dE             d eps       ncg     rms          rms(c)
DAV:   1    -0.365168404975E+03   -0.80707E-04   -0.11601E-02  5392   0.300E-01    0.266E-02
RMM:   2    -0.365168438450E+03   -0.33475E-04   -0.40741E-04  6761   0.587E-02    0.157E-02
RMM:   3    -0.365168435651E+03    0.27988E-05   -0.49220E-05  4357   0.177E-02
  29 F= -.36516844E+03 E0= -.36517556E+03  d E =-.109939E-03
       N       E                     dE             d eps       ncg     rms          rms(c)
DAV:   1    -0.365168467921E+03   -0.29471E-04   -0.10448E-01  5200   0.898E-01    0.748E-02
RMM:   2    -0.365168705659E+03   -0.23774E-03   -0.34407E-03  7026   0.173E-01    0.422E-02
RMM:   3    -0.365168693371E+03    0.12288E-04   -0.45380E-04  7173   0.468E-02    0.327E-02
RMM:   4    -0.365168687170E+03    0.62008E-05   -0.12713E-04  6115   0.172E-02    0.202E-02
RMM:   5    -0.365168687605E+03   -0.43447E-06   -0.44679E-05  4199   0.113E-02
  30 F= -.36516869E+03 E0= -.36517585E+03  d E =-.361893E-03
       N       E                     dE             d eps       ncg     rms          rms(c)
DAV:   1    -0.365168066306E+03    0.62086E-03   -0.41704E-01  5152   0.180E+00    0.146E-01
RMM:   2    -0.365169026982E+03   -0.96068E-03   -0.13501E-02  7000   0.347E-01    0.800E-02
RMM:   3    -0.365168972136E+03    0.54846E-04   -0.17035E-03  7619   0.927E-02    0.623E-02
RMM:   4    -0.365168936638E+03    0.35498E-04   -0.40243E-04  7839   0.304E-02    0.381E-02
RMM:   5    -0.365168934229E+03    0.24086E-05   -0.16699E-04  6708   0.216E-02    0.203E-02
RMM:   6    -0.365168933277E+03    0.95264E-06   -0.65500E-05  5180   0.148E-02
  31 F= -.36516893E+03 E0= -.36517616E+03  d E =-.607565E-03
       N       E                     dE             d eps       ncg     rms          rms(c)
DAV:   1    -0.365170106445E+03   -0.11722E-02   -0.10955E-01  5832   0.106E+00    0.325E-01
RMM:   2    -0.365169852974E+03    0.25347E-03   -0.90680E-03  7545   0.251E-01    0.130E-01
RMM:   3    -0.365169361464E+03    0.49151E-03   -0.20117E-03  7870   0.823E-02    0.951E-02
RMM:   4    -0.365169114999E+03    0.24646E-03   -0.61114E-04  7812   0.533E-02    0.446E-02
RMM:   5    -0.365169084903E+03    0.30096E-04   -0.16101E-04  6799   0.280E-02    0.321E-02
RMM:   6    -0.365169080976E+03    0.39277E-05   -0.71705E-05  4919   0.147E-02
  32 F= -.36516908E+03 E0= -.36517633E+03  d E =-.147699E-03
       N       E                     dE             d eps       ncg     rms          rms(c)
DAV:   1    -0.365169084373E+03    0.53041E-06   -0.45314E-04  7312   0.653E-02    0.302E-02
RMM:   2    -0.365169080796E+03    0.35770E-05   -0.65360E-05  6148   0.170E-02
  33 F= -.36516908E+03 E0= -.36517634E+03  d E =-.147519E-03
       N       E                     dE             d eps       ncg     rms          rms(c)
DAV:   1    -0.365169036721E+03    0.47651E-04   -0.85289E-02  5376   0.819E-01    0.510E-02
RMM:   2    -0.365169271631E+03   -0.23491E-03   -0.26373E-03  6042   0.150E-01    0.289E-02
RMM:   3    -0.365169249778E+03    0.21853E-04   -0.28381E-04  6704   0.467E-02    0.234E-02
RMM:   4    -0.365169247120E+03    0.26574E-05   -0.72866E-05  5095   0.124E-02
  34 F= -.36516925E+03 E0= -.36517652E+03  d E =-.166324E-03
       N       E                     dE             d eps       ncg     rms          rms(c)
DAV:   1    -0.365169003965E+03    0.24581E-03   -0.15170E-01  5264   0.109E+00    0.709E-02
RMM:   2    -0.365169450027E+03   -0.44606E-03   -0.48333E-03  6452   0.201E-01    0.465E-02
RMM:   3    -0.365169394929E+03    0.55098E-04   -0.59905E-04  7130   0.606E-02    0.355E-02
RMM:   4    -0.365169392210E+03    0.27192E-05   -0.15278E-04  6415   0.172E-02    0.231E-02
RMM:   5    -0.365169391206E+03    0.10044E-05   -0.44246E-05  4289   0.115E-02
  35 F= -.36516939E+03 E0= -.36517671E+03  d E =-.310410E-03
       N       E                     dE             d eps       ncg     rms          rms(c)
DAV:   1    -0.365167834875E+03    0.15573E-02   -0.60730E-01  5264   0.218E+00    0.138E-01
RMM:   2    -0.365169577939E+03   -0.17431E-02   -0.19001E-02  6249   0.401E-01    0.842E-02
RMM:   3    -0.365169386766E+03    0.19117E-03   -0.22520E-03  7539   0.123E-01    0.654E-02
RMM:   4    -0.365169374246E+03    0.12520E-04   -0.49769E-04  7920   0.306E-02    0.431E-02
RMM:   5    -0.365169373933E+03    0.31262E-06   -0.17369E-04  6878   0.216E-02    0.263E-02
RMM:   6    -0.365169369066E+03    0.48673E-05   -0.72091E-05  5626   0.162E-02
  36 F= -.36516937E+03 E0= -.36517675E+03  d E =-.288270E-03
       N       E                     dE             d eps       ncg     rms          rms(c)
DAV:   1    -0.365168789509E+03    0.58442E-03   -0.27372E-01  5264   0.147E+00    0.908E-02
RMM:   2    -0.365169542907E+03   -0.75340E-03   -0.83213E-03  5850   0.267E-01    0.546E-02
RMM:   3    -0.365169443792E+03    0.99115E-04   -0.86673E-04  7288   0.844E-02    0.419E-02
RMM:   4    -0.365169432498E+03    0.11294E-04   -0.18184E-04  7205   0.198E-02    0.270E-02
RMM:   5    -0.365169429675E+03    0.28231E-05   -0.52023E-05  4750   0.131E-02
  37 F= -.36516943E+03 E0= -.36517676E+03  d E =-.348879E-03
       N       E                     dE             d eps       ncg     rms          rms(c)
DAV:   1    -0.365172511391E+03   -0.30789E-02   -0.21012E-01  6232   0.154E+00    0.522E-01
RMM:   2    -0.365171459282E+03    0.10521E-02   -0.23551E-02  7685   0.398E-01    0.218E-01
RMM:   3    -0.365169854513E+03    0.16048E-02   -0.48635E-03  7914   0.121E-01    0.147E-01
RMM:   4    -0.365169312203E+03    0.54231E-03   -0.15541E-03  7876   0.841E-02    0.747E-02
RMM:   5    -0.365169233583E+03    0.78620E-04   -0.40074E-04  7588   0.440E-02    0.519E-02
RMM:   6    -0.365169253114E+03   -0.19531E-04   -0.16710E-04  6689   0.215E-02    0.382E-02
RMM:   7    -0.365169269950E+03   -0.16836E-04   -0.61283E-05  4656   0.157E-02    0.217E-02
RMM:   8    -0.365169284842E+03   -0.14892E-04   -0.44042E-05  3858   0.132E-02    0.127E-02
RMM:   9    -0.365169295439E+03   -0.10597E-04   -0.26689E-05  3794   0.120E-02    0.854E-03
RMM:  10    -0.365169301868E+03   -0.64288E-05   -0.93066E-06  3108   0.987E-03
  38 F= -.36516930E+03 E0= -.36517669E+03  d E =0.127807E-03
       N       E                     dE             d eps       ncg     rms          rms(c)
DAV:   1    -0.365170892603E+03   -0.15972E-02   -0.88118E-02  6264   0.994E-01    0.340E-01
RMM:   2    -0.365170535930E+03    0.35667E-03   -0.10131E-02  7698   0.258E-01    0.145E-01
RMM:   3    -0.365169817476E+03    0.71845E-03   -0.21508E-03  7909   0.801E-02    0.981E-02
RMM:   4    -0.365169573174E+03    0.24430E-03   -0.67492E-04  7824   0.552E-02    0.501E-02
RMM:   5    -0.365169526621E+03    0.46553E-04   -0.17402E-04  7117   0.293E-02    0.340E-02
RMM:   6    -0.365169521831E+03    0.47899E-05   -0.72149E-05  4987   0.151E-02
  39 F= -.36516952E+03 E0= -.36517687E+03  d E =-.921563E-04
       N       E                     dE             d eps       ncg     rms          rms(c)
DAV:   1    -0.365169517912E+03    0.87086E-05   -0.38485E-04  6208   0.679E-02    0.177E-02
RMM:   2    -0.365169514701E+03    0.32113E-05   -0.40090E-05  3702   0.181E-02
  40 F= -.36516951E+03 E0= -.36517687E+03  d E =-.850263E-04
