       N       E                     dE             d eps       ncg     rms          rms(c)
DAV:   1     0.156645399112E+04    0.15665E+04   -0.99768E+04  5000   0.104E+03
DAV:   2    -0.113461274150E+03   -0.16799E+04   -0.16146E+04  5088   0.359E+02
DAV:   3    -0.350934564020E+03   -0.23747E+03   -0.22537E+03  7864   0.101E+02
DAV:   4    -0.379670587040E+03   -0.28736E+02   -0.27248E+02  7712   0.302E+01
DAV:   5    -0.382655837880E+03   -0.29853E+01   -0.29023E+01  7384   0.101E+01    0.675E+01
RMM:   6    -0.372396541690E+03    0.10259E+02   -0.22040E+01  6555   0.960E+00    0.327E+01
RMM:   7    -0.373191492481E+03   -0.79495E+00   -0.26500E+01  6993   0.872E+00    0.104E+01
RMM:   8    -0.367998360051E+03    0.51931E+01   -0.62921E+00  7108   0.368E+00    0.372E+00
RMM:   9    -0.367835742542E+03    0.16262E+00   -0.22821E+00  7163   0.197E+00    0.260E+00
RMM:  10    -0.367794672721E+03    0.41070E-01   -0.39920E-01  7156   0.114E+00    0.120E+00
RMM:  11    -0.367780521209E+03    0.14152E-01   -0.13022E-01  7148   0.530E-01    0.630E-01
RMM:  12    -0.367778680194E+03    0.18410E-02   -0.49241E-02  7250   0.319E-01    0.365E-01
RMM:  13    -0.367778475877E+03    0.20432E-03   -0.19889E-02  7243   0.172E-01    0.219E-01
RMM:  14    -0.367778831445E+03   -0.35557E-03   -0.84426E-03  7287   0.102E-01    0.109E-01
RMM:  15    -0.367779124813E+03   -0.29337E-03   -0.42768E-03  7179   0.611E-02    0.523E-02
RMM:  16    -0.367779250927E+03   -0.12611E-03   -0.18659E-03  6182   0.379E-02    0.307E-02
RMM:  17    -0.367779288180E+03   -0.37253E-04   -0.73925E-04  5793   0.256E-02    0.156E-02
RMM:  18    -0.367779315913E+03   -0.27733E-04   -0.38823E-04  5225   0.185E-02    0.820E-03
RMM:  19    -0.367779328547E+03   -0.12634E-04   -0.16741E-04  4153   0.134E-02    0.453E-03
RMM:  20    -0.367779333161E+03   -0.46143E-05   -0.78855E-05  3904   0.110E-02
   1 F= -.36777933E+03 E0= -.36778846E+03  d E =-.367779E+03
       N       E                     dE             d eps       ncg     rms          rms(c)
DAV:   1    -0.367780558075E+03   -0.12295E-02   -0.59572E-02  5292   0.661E-01    0.116E-01
RMM:   2    -0.367780593744E+03   -0.35669E-04   -0.23287E-03  7029   0.126E-01    0.457E-02
RMM:   3    -0.367780569319E+03    0.24426E-04   -0.34805E-04  6927   0.365E-02    0.292E-02
RMM:   4    -0.367780553790E+03    0.15528E-04   -0.10886E-04  5955   0.170E-02    0.183E-02
RMM:   5    -0.367780548221E+03    0.55688E-05   -0.30178E-05  3159   0.118E-02
   2 F= -.36778055E+03 E0= -.36778965E+03  d E =-.121506E-02
       N       E                     dE             d eps       ncg     rms          rms(c)
DAV:   1    -0.367783277348E+03   -0.27236E-02   -0.53527E-01  5064   0.198E+00    0.343E-01
RMM:   2    -0.367783457005E+03   -0.17966E-03   -0.19671E-02  7068   0.375E-01    0.137E-01
RMM:   3    -0.367783244565E+03    0.21244E-03   -0.29396E-03  7165   0.104E-01    0.871E-02
RMM:   4    -0.367783113240E+03    0.13132E-03   -0.90468E-04  7415   0.478E-02    0.541E-02
RMM:   5    -0.367783086900E+03    0.26340E-04   -0.31670E-04  7259   0.315E-02    0.353E-02
RMM:   6    -0.367783082691E+03    0.42093E-05   -0.12588E-04  5901   0.169E-02    0.224E-02
RMM:   7    -0.367783078473E+03    0.42172E-05   -0.46166E-05  3941   0.133E-02
   3 F= -.36778308E+03 E0= -.36779209E+03  d E =-.374531E-02
       N       E                     dE             d eps       ncg     rms          rms(c)
DAV:   1    -0.367784186282E+03   -0.11036E-02   -0.21406E+00  4920   0.396E+00    0.683E-01
RMM:   2    -0.367784825869E+03   -0.63959E-03   -0.77808E-02  7073   0.745E-01    0.273E-01
RMM:   3    -0.367783985782E+03    0.84009E-03   -0.11535E-02  7208   0.202E-01    0.172E-01
RMM:   4    -0.367783470248E+03    0.51553E-03   -0.34761E-03  7460   0.943E-02    0.106E-01
RMM:   5    -0.367783373379E+03    0.96869E-04   -0.12323E-03  7378   0.604E-02    0.693E-02
RMM:   6    -0.367783372554E+03    0.82467E-06   -0.48337E-04  6962   0.328E-02    0.436E-02
RMM:   7    -0.367783373742E+03   -0.11879E-05   -0.19285E-04  5848   0.239E-02    0.217E-02
RMM:   8    -0.367783376304E+03   -0.25620E-05   -0.10588E-04  5098   0.180E-02    0.140E-02
RMM:   9    -0.367783376271E+03    0.33742E-07   -0.45479E-05  4196   0.137E-02
   4 F= -.36778338E+03 E0= -.36779219E+03  d E =-.404311E-02
       N       E                     dE             d eps       ncg     rms          rms(c)
DAV:   1    -0.367784258593E+03   -0.88229E-03   -0.42481E-01  4928   0.177E+00    0.310E-01
RMM:   2    -0.367784304294E+03   -0.45702E-04   -0.15442E-02  7050   0.333E-01    0.123E-01
RMM:   3    -0.367784128840E+03    0.17545E-03   -0.22687E-03  7202   0.907E-02    0.791E-02
RMM:   4    -0.367784012593E+03    0.11625E-03   -0.66738E-04  7387   0.426E-02    0.483E-02
RMM:   5    -0.367783996831E+03    0.15762E-04   -0.22291E-04  7045   0.277E-02    0.309E-02
RMM:   6    -0.367784003219E+03   -0.63887E-05   -0.81572E-05  5096   0.145E-02
   5 F= -.36778400E+03 E0= -.36779291E+03  d E =-.467006E-02
       N       E                     dE             d eps       ncg     rms          rms(c)
DAV:   1    -0.367785489640E+03   -0.14928E-02   -0.96817E-02  4992   0.932E-01    0.254E-01
RMM:   2    -0.367785143534E+03    0.34611E-03   -0.53445E-03  6318   0.199E-01    0.833E-02
RMM:   3    -0.367785044671E+03    0.98863E-04   -0.99592E-04  6925   0.691E-02    0.560E-02
RMM:   4    -0.367784960763E+03    0.83908E-04   -0.27389E-04  7038   0.315E-02    0.339E-02
RMM:   5    -0.367784958414E+03    0.23493E-05   -0.84096E-05  5420   0.180E-02
   6 F= -.36778496E+03 E0= -.36779380E+03  d E =-.955194E-03
       N       E                     dE             d eps       ncg     rms          rms(c)
DAV:   1    -0.367787475704E+03   -0.25149E-02   -0.35315E-01  4928   0.178E+00    0.486E-01
RMM:   2    -0.367786248832E+03    0.12269E-02   -0.19765E-02  6689   0.377E-01    0.160E-01
RMM:   3    -0.367785909631E+03    0.33920E-03   -0.38534E-03  7103   0.127E-01    0.109E-01
RMM:   4    -0.367785607533E+03    0.30210E-03   -0.10977E-03  7279   0.620E-02    0.671E-02
RMM:   5    -0.367785597796E+03    0.97367E-05   -0.38569E-04  7236   0.334E-02    0.514E-02
RMM:   6    -0.367785622679E+03   -0.24884E-04   -0.14156E-04  6361   0.209E-02    0.294E-02
RMM:   7    -0.367785643322E+03   -0.20643E-04   -0.71480E-05  4695   0.154E-02    0.147E-02
RMM:   8    -0.367785652770E+03   -0.94481E-05   -0.32958E-05  3580   0.134E-02
   7 F= -.36778565E+03 E0= -.36779437E+03  d E =-.164955E-02
       N       E                     dE             d eps       ncg     rms          rms(c)
DAV:   1    -0.367785841165E+03   -0.19784E-03   -0.11622E-02  4800   0.317E-01    0.255E-02
RMM:   2    -0.367785873197E+03   -0.32032E-04   -0.42930E-04  6973   0.610E-02    0.140E-02
RMM:   3    -0.367785872163E+03    0.10338E-05   -0.35207E-05  3666   0.165E-02
   8 F= -.36778587E+03 E0= -.36779460E+03  d E =-.219392E-03
       N       E                     dE             d eps       ncg     rms          rms(c)
DAV:   1    -0.367786140281E+03   -0.26708E-03   -0.10421E-01  4704   0.949E-01    0.759E-02
RMM:   2    -0.367786393270E+03   -0.25299E-03   -0.37611E-03  6875   0.179E-01    0.396E-02
RMM:   3    -0.367786386106E+03    0.71641E-05   -0.47991E-04  6460   0.460E-02    0.289E-02
RMM:   4    -0.367786382356E+03    0.37500E-05   -0.15256E-04  5808   0.197E-02    0.165E-02
RMM:   5    -0.367786383280E+03   -0.92464E-06   -0.51960E-05  3643   0.118E-02
   9 F= -.36778638E+03 E0= -.36779512E+03  d E =-.730510E-03
       N       E                     dE             d eps       ncg     rms          rms(c)
DAV:   1    -0.367785914591E+03    0.46776E-03   -0.41664E-01  4624   0.190E+00    0.148E-01
RMM:   2    -0.367786930175E+03   -0.10156E-02   -0.14773E-02  6832   0.358E-01    0.764E-02
RMM:   3    -0.367786903705E+03    0.26470E-04   -0.18952E-03  6999   0.916E-02    0.577E-02
RMM:   4    -0.367786868422E+03    0.35283E-04   -0.49669E-04  7365   0.349E-02    0.331E-02
RMM:   5    -0.367786868274E+03    0.14821E-06   -0.16829E-04  5783   0.224E-02    0.159E-02
RMM:   6    -0.367786869759E+03   -0.14856E-05   -0.78131E-05  4430   0.150E-02
  10 F= -.36778687E+03 E0= -.36779563E+03  d E =-.121699E-02
       N       E                     dE             d eps       ncg     rms          rms(c)
DAV:   1    -0.367787425438E+03   -0.55716E-03   -0.49859E-02  4904   0.723E-01    0.208E-01
RMM:   2    -0.367787200976E+03    0.22446E-03   -0.36112E-03  6833   0.165E-01    0.694E-02
RMM:   3    -0.367787142278E+03    0.58697E-04   -0.70962E-04  7136   0.532E-02    0.498E-02
RMM:   4    -0.367787064489E+03    0.77789E-04   -0.18885E-04  6719   0.262E-02    0.286E-02
RMM:   5    -0.367787053711E+03    0.10778E-04   -0.63001E-05  4765   0.159E-02    0.203E-02
RMM:   6    -0.367787048354E+03    0.53570E-05   -0.20817E-05  2812   0.113E-02
  11 F= -.36778705E+03 E0= -.36779581E+03  d E =-.178595E-03
       N       E                     dE             d eps       ncg     rms          rms(c)
DAV:   1    -0.367787114262E+03   -0.60550E-04   -0.82366E-03  4824   0.295E-01    0.813E-02
RMM:   2    -0.367787079611E+03    0.34650E-04   -0.57705E-04  6942   0.667E-02    0.261E-02
RMM:   3    -0.367787068153E+03    0.11458E-04   -0.10196E-04  6078   0.203E-02    0.193E-02
RMM:   4    -0.367787055408E+03    0.12746E-04   -0.23093E-05  3041   0.117E-02    0.129E-02
RMM:   5    -0.367787053093E+03    0.23148E-05   -0.90792E-06  2568   0.918E-03
  12 F= -.36778705E+03 E0= -.36779581E+03  d E =-.183334E-03
       N       E                     dE             d eps       ncg     rms          rms(c)
DAV:   1    -0.367787149994E+03   -0.94587E-04   -0.25405E-02  4704   0.469E-01    0.570E-02
RMM:   2    -0.367787186285E+03   -0.36291E-04   -0.97447E-04  7094   0.887E-02    0.290E-02
RMM:   3    -0.367787178672E+03    0.76133E-05   -0.12303E-04  5379   0.226E-02    0.185E-02
RMM:   4    -0.367787175400E+03    0.32718E-05   -0.51049E-05  4021   0.137E-02
  13 F= -.36778718E+03 E0= -.36779591E+03  d E =-.122307E-03
       N       E                     dE             d eps       ncg     rms          rms(c)
DAV:   1    -0.367787065812E+03    0.11286E-03   -0.21444E-01  4608   0.136E+00    0.158E-01
RMM:   2    -0.367787373458E+03   -0.30765E-03   -0.79017E-03  7105   0.256E-01    0.782E-02
RMM:   3    -0.367787326867E+03    0.46591E-04   -0.10801E-03  7064   0.650E-02    0.506E-02
RMM:   4    -0.367787292713E+03    0.34154E-04   -0.33786E-04  6942   0.291E-02    0.305E-02
RMM:   5    -0.367787291127E+03    0.15862E-05   -0.13203E-04  5939   0.195E-02    0.174E-02
RMM:   6    -0.367787291661E+03   -0.53360E-06   -0.43689E-05  3682   0.118E-02
  14 F= -.36778729E+03 E0= -.36779595E+03  d E =-.238568E-03
       N       E                     dE             d eps       ncg     rms          rms(c)
DAV:   1    -0.367787300478E+03   -0.93509E-05   -0.82284E-03  4704   0.268E-01    0.321E-02
RMM:   2    -0.367787313992E+03   -0.13514E-04   -0.29597E-04  6669   0.504E-02    0.148E-02
RMM:   3    -0.367787309249E+03    0.47434E-05   -0.21225E-05  2646   0.137E-02
  15 F= -.36778731E+03 E0= -.36779598E+03  d E =-.256156E-03
       N       E                     dE             d eps       ncg     rms          rms(c)
DAV:   1    -0.367787391017E+03   -0.77025E-04   -0.19794E-02  4688   0.416E-01    0.585E-02
RMM:   2    -0.367787399292E+03   -0.82748E-05   -0.73584E-04  7084   0.773E-02    0.259E-02
RMM:   3    -0.367787391539E+03    0.77527E-05   -0.89906E-05  5840   0.203E-02
  16 F= -.36778739E+03 E0= -.36779607E+03  d E =-.822902E-04
