<?xml version="1.0" encoding="ISO-8859-1"?>
<modeling>
 <generator>
  <i name="program" type="string">vasp </i>
  <i name="version" type="string">5.4.1  </i>
  <i name="subversion" type="string">05Feb16 (build Jan 29 2020 16:04:39) complex                          parallel </i>
  <i name="platform" type="string">IFC91_ompi </i>
  <i name="date" type="string">2020 06 15 </i>
  <i name="time" type="string">13:10:15 </i>
 </generator>
 <incar>
  <i type="string" name="SYSTEM"> automatically generated by mexm</i>
  <i type="int" name="ISTART">     0</i>
  <i type="string" name="PREC">accurate               ! avoid wrap aro</i>
  <i type="string" name="ALGO"> Fast                   ! blocked Davids</i>
  <i type="int" name="ISPIN">     1</i>
  <i type="int" name="ICHARG">     2</i>
  <i type="int" name="NELM">    70</i>
  <i type="int" name="IBRION">     2</i>
  <i name="EDIFF">      0.00001000</i>
  <i name="EDIFFG">     -0.01000000</i>
  <i type="int" name="NSW">   300</i>
  <i type="int" name="ISIF">     3</i>
  <i type="int" name="ISYM">     1</i>
  <i name="ENCUT">    300.00000000</i>
  <i name="POTIM">      0.15000000</i>
  <i type="string" name="LREAL"> Auto                  ! unpublished met</i>
  <i type="int" name="ISMEAR">     1</i>
  <i name="SIGMA">      0.15000000</i>
  <i type="logical" name="LWAVE"> F  </i>
  <i type="logical" name="LCHARG"> F  </i>
  <i type="logical" name="LVTOT"> F  </i>
  <v type="int" name="KPOINT_BSE">    -1     0     0     0</v>
  <i type="int" name="NELM">    70</i>
 </incar>
 <kpoints>
  <generation param="Gamma">
   <v type="int" name="divisions">       3        3        3 </v>
   <v name="usershift">      0.00000000       0.00000000       0.00000000 </v>
   <v name="genvec1">      0.33333333      -0.00000000      -0.00000000 </v>
   <v name="genvec2">      0.00000000       0.33333333       0.00000000 </v>
   <v name="genvec3">     -0.00000000      -0.00000000       0.33333333 </v>
   <v name="shift">      0.00000000       0.00000000       0.00000000 </v>
  </generation>
  <varray name="kpointlist" >
   <v>       0.00000000       0.00000000       0.00000000 </v>
   <v>       0.33333333      -0.00000000      -0.00000000 </v>
   <v>       0.00000000       0.33333333      -0.00000000 </v>
   <v>       0.33333333       0.33333333       0.00000000 </v>
   <v>      -0.33333333       0.33333333      -0.00000000 </v>
   <v>       0.00000000      -0.00000000       0.33333333 </v>
   <v>       0.33333333      -0.00000000       0.33333333 </v>
   <v>      -0.33333333       0.00000000       0.33333333 </v>
   <v>       0.00000000       0.33333333       0.33333333 </v>
   <v>       0.33333333       0.33333333       0.33333333 </v>
   <v>      -0.33333333       0.33333333       0.33333333 </v>
   <v>       0.00000000      -0.33333333       0.33333333 </v>
   <v>       0.33333333      -0.33333333       0.33333333 </v>
   <v>      -0.33333333      -0.33333333       0.33333333 </v>
  </varray>
  <varray name="weights" >
   <v>       0.03703704 </v>
   <v>       0.07407407 </v>
   <v>       0.07407407 </v>
   <v>       0.07407407 </v>
   <v>       0.07407407 </v>
   <v>       0.07407407 </v>
   <v>       0.07407407 </v>
   <v>       0.07407407 </v>
   <v>       0.07407407 </v>
   <v>       0.07407407 </v>
   <v>       0.07407407 </v>
   <v>       0.07407407 </v>
   <v>       0.07407407 </v>
   <v>       0.07407407 </v>
  </varray>
 </kpoints>
 <parameters>
  <separator name="general" >
   <i type="string" name="SYSTEM">automatically generated by mexm</i>
   <i type="logical" name="LCOMPAT"> F  </i>
  </separator>
  <separator name="electronic" >
   <i type="string" name="PREC">accura</i>
   <i name="ENMAX">    300.00000000</i>
   <i name="ENAUG">    461.25700000</i>
   <i name="EDIFF">      0.00001000</i>
   <i type="int" name="IALGO">    68</i>
   <i type="int" name="IWAVPR">    11</i>
   <i type="int" name="NBANDS">   188</i>
   <i name="NELECT">    312.00000000</i>
   <i type="int" name="TURBO">     0</i>
   <i type="int" name="IRESTART">     0</i>
   <i type="int" name="NREBOOT">     0</i>
   <i type="int" name="NMIN">     0</i>
   <i name="EREF">      0.00000000</i>
   <separator name="electronic smearing" >
    <i type="int" name="ISMEAR">     1</i>
    <i name="SIGMA">      0.15000000</i>
    <i name="KSPACING">      0.50000000</i>
    <i type="logical" name="KGAMMA"> T  </i>
   </separator>
   <separator name="electronic projectors" >
    <i type="logical" name="LREAL"> T  </i>
    <v name="ROPT">     -0.00025000     -0.00025000     -0.00025000     -0.00025000</v>
    <i type="int" name="LMAXPAW">  -100</i>
    <i type="int" name="LMAXMIX">     2</i>
    <i type="logical" name="NLSPLINE"> F  </i>
   </separator>
   <separator name="electronic startup" >
    <i type="int" name="ISTART">     0</i>
    <i type="int" name="ICHARG">     2</i>
    <i type="int" name="INIWAV">     1</i>
   </separator>
   <separator name="electronic spin" >
    <i type="int" name="ISPIN">     1</i>
    <i type="logical" name="LNONCOLLINEAR"> F  </i>
    <v name="MAGMOM">      1.00000000      1.00000000      1.00000000      1.00000000      1.00000000      1.00000000      1.00000000      1.00000000      1.00000000      1.00000000      1.00000000      1.00000000      1.00000000      1.00000000      1.00000000      1.00000000      1.00000000      1.00000000      1.00000000      1.00000000
      1.00000000      1.00000000      1.00000000      1.00000000      1.00000000      1.00000000      1.00000000      1.00000000      1.00000000      1.00000000      1.00000000      1.00000000      1.00000000      1.00000000      1.00000000      1.00000000</v>
    <i name="NUPDOWN">     -1.00000000</i>
    <i type="logical" name="LSORBIT"> F  </i>
    <v name="SAXIS">      0.00000000      0.00000000      1.00000000</v>
    <i type="logical" name="LSPIRAL"> F  </i>
    <v name="QSPIRAL">      0.00000000      0.00000000      0.00000000</v>
    <i type="logical" name="LZEROZ"> F  </i>
   </separator>
   <separator name="electronic exchange-correlation" >
    <i type="logical" name="LASPH"> F  </i>
    <i type="logical" name="LMETAGGA"> F  </i>
   </separator>
   <separator name="electronic convergence" >
    <i type="int" name="NELM">    70</i>
    <i type="int" name="NELMDL">    -5</i>
    <i type="int" name="NELMIN">     2</i>
    <i name="ENINI">    300.00000000</i>
    <separator name="electronic convergence detail" >
     <i type="logical" name="LDIAG"> T  </i>
     <i type="logical" name="LSUBROT"> F  </i>
     <i name="WEIMIN">      0.00100000</i>
     <i name="EBREAK">      0.00000001</i>
     <i name="DEPER">      0.30000000</i>
     <i type="int" name="NRMM">     4</i>
     <i name="TIME">      0.40000000</i>
    </separator>
   </separator>
   <separator name="electronic mixer" >
    <i name="AMIX">      0.40000000</i>
    <i name="BMIX">      1.00000000</i>
    <i name="AMIN">      0.10000000</i>
    <i name="AMIX_MAG">      1.60000000</i>
    <i name="BMIX_MAG">      1.00000000</i>
    <separator name="electronic mixer details" >
     <i type="int" name="IMIX">     4</i>
     <i type="logical" name="MIXFIRST"> F  </i>
     <i type="int" name="MAXMIX">   -45</i>
     <i name="WC">    100.00000000</i>
     <i type="int" name="INIMIX">     1</i>
     <i type="int" name="MIXPRE">     1</i>
     <i type="int" name="MREMOVE">     5</i>
    </separator>
   </separator>
   <separator name="electronic dipolcorrection" >
    <i type="logical" name="LDIPOL"> F  </i>
    <i type="logical" name="LMONO"> F  </i>
    <i type="int" name="IDIPOL">     0</i>
    <i name="EPSILON">      1.00000000</i>
    <v name="DIPOL">   -100.00000000   -100.00000000   -100.00000000</v>
    <i name="EFIELD">      0.00000000</i>
   </separator>
  </separator>
  <separator name="grids" >
   <i type="int" name="NGX">    40</i>
   <i type="int" name="NGY">    60</i>
   <i type="int" name="NGZ">    60</i>
   <i type="int" name="NGXF">    80</i>
   <i type="int" name="NGYF">   120</i>
   <i type="int" name="NGZF">   120</i>
   <i type="logical" name="ADDGRID"> F  </i>
  </separator>
  <separator name="ionic" >
   <i type="int" name="NSW">   300</i>
   <i type="int" name="IBRION">     2</i>
   <i type="int" name="ISIF">     3</i>
   <i name="PSTRESS">      0.00000000</i>
   <i name="EDIFFG">     -0.01000000</i>
   <i type="int" name="NFREE">     1</i>
   <i name="POTIM">      0.15000000</i>
   <i name="SMASS">     -3.00000000</i>
   <i name="SCALEE">      1.00000000</i>
  </separator>
  <separator name="ionic md" >
   <i name="TEBEG">      0.00010000</i>
   <i name="TEEND">      0.00010000</i>
   <i type="int" name="NBLOCK">     1</i>
   <i type="int" name="KBLOCK">   300</i>
   <i type="int" name="NPACO">   256</i>
   <i name="APACO">     16.00000000</i>
  </separator>
  <separator name="symmetry" >
   <i type="int" name="ISYM">     1</i>
   <i name="SYMPREC">      0.00001000</i>
  </separator>
  <separator name="dos" >
   <i type="logical" name="LORBIT"> F  </i>
   <v name="RWIGS">     -1.00000000     -1.00000000     -1.00000000     -1.00000000</v>
   <i type="int" name="NEDOS">   301</i>
   <i name="EMIN">     10.00000000</i>
   <i name="EMAX">    -10.00000000</i>
   <i name="EFERMI">      0.00000000</i>
  </separator>
  <separator name="writing" >
   <i type="int" name="NWRITE">     2</i>
   <i type="logical" name="LWAVE"> F  </i>
   <i type="logical" name="LCHARG"> F  </i>
   <i type="logical" name="LPARD"> F  </i>
   <i type="logical" name="LVTOT"> F  </i>
   <i type="logical" name="LVHAR"> F  </i>
   <i type="logical" name="LELF"> F  </i>
   <i type="logical" name="LOPTICS"> F  </i>
   <v name="STM">      0.00000000      0.00000000      0.00000000      0.00000000      0.00000000      0.00000000      0.00000000</v>
  </separator>
  <separator name="performance" >
   <i type="int" name="NPAR">     4</i>
   <i type="int" name="NSIM">     4</i>
   <i type="int" name="NBLK">    -1</i>
   <i type="logical" name="LPLANE"> T  </i>
   <i type="logical" name="LSCALAPACK"> T  </i>
   <i type="logical" name="LSCAAWARE"> F  </i>
   <i type="logical" name="LSCALU"> F  </i>
   <i type="logical" name="LASYNC"> F  </i>
   <i type="logical" name="LORBITALREAL"> F  </i>
  </separator>
  <separator name="miscellaneous" >
   <i type="int" name="IDIOT">     3</i>
   <i type="logical" name="LMUSIC"> F  </i>
   <v name="POMASS">     91.22400000    178.49000000    180.94800000     92.91000000</v>
   <v name="DARWINR">      0.00000000      0.00000000      0.00000000      0.00000000</v>
   <v name="DARWINV">      1.00000000      1.00000000      1.00000000      1.00000000</v>
   <i type="logical" name="LCORR"> T  </i>
  </separator>
  <i type="logical" name="GGA_COMPAT"> T  </i>
  <i type="logical" name="LBERRY"> F  </i>
  <i type="int" name="ICORELEVEL">     0</i>
  <i type="logical" name="LDAU"> F  </i>
  <i type="int" name="I_CONSTRAINED_M">     0</i>
  <separator name="electronic exchange-correlation" >
   <i type="string" name="GGA">--</i>
   <i type="int" name="VOSKOWN">     0</i>
   <i type="logical" name="LHFCALC"> F  </i>
   <i type="string" name="PRECFOCK"></i>
   <i type="logical" name="LSYMGRAD"> F  </i>
   <i type="logical" name="LHFONE"> F  </i>
   <i type="logical" name="LRHFCALC"> F  </i>
   <i type="logical" name="LTHOMAS"> F  </i>
   <i type="logical" name="LMODELHF"> F  </i>
   <i name="ENCUT4O">     -1.00000000</i>
   <i type="int" name="EXXOEP">     0</i>
   <i type="int" name="FOURORBIT">     0</i>
   <i name="AEXX">      0.00000000</i>
   <i name="HFALPHA">      0.00000000</i>
   <i name="MCALPHA">      0.00000000</i>
   <i name="ALDAX">      1.00000000</i>
   <i name="AGGAX">      1.00000000</i>
   <i name="ALDAC">      1.00000000</i>
   <i name="AGGAC">      1.00000000</i>
   <i type="int" name="NKREDX">     1</i>
   <i type="int" name="NKREDY">     1</i>
   <i type="int" name="NKREDZ">     1</i>
   <i type="logical" name="SHIFTRED"> F  </i>
   <i type="logical" name="ODDONLY"> F  </i>
   <i type="logical" name="EVENONLY"> F  </i>
   <i type="int" name="LMAXFOCK">     0</i>
   <i type="int" name="NMAXFOCKAE">     0</i>
   <i type="logical" name="LFOCKAEDFT"> F  </i>
   <i name="HFSCREEN">      0.00000000</i>
   <i name="HFSCREENC">      0.00000000</i>
   <i type="int" name="NBANDSGWLOW">     0</i>
  </separator>
  <separator name="vdW DFT" >
   <i type="logical" name="LUSE_VDW"> F  </i>
   <i name="Zab_VDW">     -0.84910000</i>
   <i name="PARAM1">      0.12340000</i>
   <i name="PARAM2">      1.00000000</i>
   <i name="PARAM3">      0.00000000</i>
  </separator>
  <separator name="model GW" >
   <i type="int" name="MODEL_GW">     0</i>
   <i name="MODEL_EPS0">     12.26583088</i>
   <i name="MODEL_ALPHA">      1.00000000</i>
  </separator>
  <separator name="linear response parameters" >
   <i type="logical" name="LEPSILON"> F  </i>
   <i type="logical" name="LRPA"> F  </i>
   <i type="logical" name="LNABLA"> F  </i>
   <i type="logical" name="LVEL"> F  </i>
   <i type="int" name="KINTER">     0</i>
   <i name="CSHIFT">      0.10000000</i>
   <i name="OMEGAMAX">     -1.00000000</i>
   <i name="DEG_THRESHOLD">      0.00200000</i>
  </separator>
  <separator name="orbital magnetization" >
   <i type="logical" name="NUCIND"> F  </i>
   <v name="MAGPOS">      0.00000000      0.00000000      0.00000000</v>
   <i type="logical" name="LNICSALL"> T  </i>
   <i type="logical" name="ORBITALMAG"> F  </i>
   <i type="logical" name="LMAGBLOCH"> F  </i>
   <i type="logical" name="LCHIMAG"> F  </i>
   <i type="logical" name="LGAUGE"> T  </i>
   <i type="int" name="MAGATOM">     0</i>
   <v name="MAGDIPOL">      0.00000000      0.00000000      0.00000000</v>
   <v name="AVECCONST">      0.00000000      0.00000000      0.00000000</v>
  </separator>
  <separator name="response functions" >
   <i type="logical" name="LADDER"> F  </i>
   <i type="logical" name="LFXC"> F  </i>
   <i type="logical" name="LHARTREE"> T  </i>
   <i type="int" name="IBSE">     0</i>
   <v type="int" name="KPOINT">    -1     0     0     0</v>
   <i type="logical" name="LTCTE"> F  </i>
   <i type="logical" name="LTETE"> F  </i>
   <i type="logical" name="LTRIPLET"> F  </i>
   <i type="logical" name="LFXCEPS"> F  </i>
   <i type="logical" name="LFXHEG"> F  </i>
   <i type="int" name="NATURALO">     0</i>
   <i type="logical" name="L2ORDER"> F  </i>
   <i type="logical" name="LUSEW"> F  </i>
   <i name="ENCUTGW">     -2.00000000</i>
   <i name="ENCUTGWSOFT">     -2.00000000</i>
   <i name="ENCUTLF">     -1.00000000</i>
   <i type="int" name="LMAXMP2">    -1</i>
   <i name="SCISSOR">      0.00000000</i>
   <i type="int" name="NOMEGA">     0</i>
   <i type="int" name="NOMEGAR">     0</i>
   <i type="int" name="NBANDSGW">    -1</i>
   <i type="int" name="NBANDSO">    -1</i>
   <i type="int" name="NBANDSV">    -1</i>
   <i type="int" name="NELM">    70</i>
   <i type="int" name="NELMHF">     1</i>
   <i type="int" name="DIM">     3</i>
   <i type="int" name="ANTIRES">     0</i>
   <i name="OMEGAMAX">    -30.00000000</i>
   <i name="OMEGAMIN">    -30.00000000</i>
   <i name="OMEGATL">   -200.00000000</i>
   <i type="int" name="OMEGAGRID">     0</i>
   <i name="CSHIFT">     -0.10000000</i>
   <i type="logical" name="SELFENERGY"> F  </i>
   <i type="logical" name="LSPECTRAL"> F  </i>
   <i type="logical" name="LSPECTRALGW"> F  </i>
   <i type="logical" name="LSINGLES"> F  </i>
   <i type="logical" name="LFERMIGW"> F  </i>
   <i type="logical" name="ODDONLYGW"> F  </i>
   <i type="logical" name="EVENONLYGW"> F  </i>
   <i type="int" name="NKREDLFX">     1</i>
   <i type="int" name="NKREDLFY">     1</i>
   <i type="int" name="NKREDLFZ">     1</i>
   <i type="int" name="MAXMEM">  1800</i>
   <i type="int" name="TELESCOPE">     0</i>
   <i type="int" name="TAUPAR">     1</i>
   <i type="int" name="OMEGAPAR">    -1</i>
   <i name="LAMBDA">      1.00000000</i>
  </separator>
  <separator name="External order field" >
   <i name="OFIELD_KAPPA">      0.00000000</i>
   <v name="OFIELD_K">      0.00000000      0.00000000      0.00000000</v>
   <i name="OFIELD_Q6_NEAR">      0.00000000</i>
   <i name="OFIELD_Q6_FAR">      0.00000000</i>
   <i name="OFIELD_A">      0.00000000</i>
  </separator>
 </parameters>
 <atominfo>
  <atoms>      36 </atoms>
  <types>       4 </types>
  <array name="atoms" >
   <dimension dim="1">ion</dimension>
   <field type="string">element</field>
   <field type="int">atomtype</field>
   <set>
    <rc><c>Zr</c><c>   1</c></rc>
    <rc><c>Zr</c><c>   1</c></rc>
    <rc><c>Zr</c><c>   1</c></rc>
    <rc><c>Zr</c><c>   1</c></rc>
    <rc><c>Zr</c><c>   1</c></rc>
    <rc><c>Zr</c><c>   1</c></rc>
    <rc><c>Zr</c><c>   1</c></rc>
    <rc><c>Zr</c><c>   1</c></rc>
    <rc><c>Hf</c><c>   2</c></rc>
    <rc><c>Hf</c><c>   2</c></rc>
    <rc><c>Hf</c><c>   2</c></rc>
    <rc><c>Hf</c><c>   2</c></rc>
    <rc><c>Hf</c><c>   2</c></rc>
    <rc><c>Hf</c><c>   2</c></rc>
    <rc><c>Hf</c><c>   2</c></rc>
    <rc><c>Hf</c><c>   2</c></rc>
    <rc><c>Hf</c><c>   2</c></rc>
    <rc><c>Hf</c><c>   2</c></rc>
    <rc><c>Hf</c><c>   2</c></rc>
    <rc><c>Hf</c><c>   2</c></rc>
    <rc><c>Ta</c><c>   3</c></rc>
    <rc><c>Ta</c><c>   3</c></rc>
    <rc><c>Ta</c><c>   3</c></rc>
    <rc><c>Ta</c><c>   3</c></rc>
    <rc><c>Ta</c><c>   3</c></rc>
    <rc><c>Nb</c><c>   4</c></rc>
    <rc><c>Nb</c><c>   4</c></rc>
    <rc><c>Nb</c><c>   4</c></rc>
    <rc><c>Nb</c><c>   4</c></rc>
    <rc><c>Nb</c><c>   4</c></rc>
    <rc><c>Nb</c><c>   4</c></rc>
    <rc><c>Nb</c><c>   4</c></rc>
    <rc><c>Nb</c><c>   4</c></rc>
    <rc><c>Nb</c><c>   4</c></rc>
    <rc><c>Nb</c><c>   4</c></rc>
    <rc><c>Nb</c><c>   4</c></rc>
   </set>
  </array>
  <array name="atomtypes" >
   <dimension dim="1">type</dimension>
   <field type="int">atomspertype</field>
   <field type="string">element</field>
   <field>mass</field>
   <field>valence</field>
   <field type="string">pseudopotential</field>
   <set>
    <rc><c>   8</c><c>Zr</c><c>     91.22400000</c><c>     12.00000000</c><c>  PAW_PBE Zr_sv 04Jan2005               </c></rc>
    <rc><c>  12</c><c>Hf</c><c>    178.49000000</c><c>      4.00000000</c><c>  PAW_PBE Hf 20Jan2003                  </c></rc>
    <rc><c>   5</c><c>Ta</c><c>    180.94800000</c><c>      5.00000000</c><c>  PAW_PBE Ta 17Jan2003                  </c></rc>
    <rc><c>  11</c><c>Nb</c><c>     92.91000000</c><c>     13.00000000</c><c>  PAW_PBE Nb_sv 25May2007               </c></rc>
   </set>
  </array>
 </atominfo>
 <structure name="initialpos" >
  <crystal>
   <varray name="basis" >
    <v>       7.00786721       0.04798255       0.01756883 </v>
    <v>       0.07026035      10.22669895       0.00054871 </v>
    <v>       0.02611879      -0.00036913      10.26951860 </v>
   </varray>
   <i name="volume">    735.94985281 </i>
   <varray name="rec_basis" >
    <v>       0.14270439      -0.00098040      -0.00036298 </v>
    <v>      -0.00066956       0.09778786       0.00000522 </v>
    <v>      -0.00024410      -0.00000355       0.09737617 </v>
   </varray>
  </crystal>
  <varray name="positions" >
   <v>       0.77443600       0.84396700       0.49796000 </v>
   <v>       0.01466700       0.00601100       0.00784200 </v>
   <v>       0.76992700       0.16503200       0.49629000 </v>
   <v>       0.73495000       0.17273300       0.17182500 </v>
   <v>       0.49262000       0.33150300       0.65439200 </v>
   <v>       0.77212100       0.84033500       0.82417500 </v>
   <v>       0.23452700       0.50694100       0.49453600 </v>
   <v>       0.73359200       0.49071800       0.84031200 </v>
   <v>       0.75676100       0.16769900       0.83094800 </v>
   <v>       0.48603400       0.00255300       0.99813100 </v>
   <v>       0.27035200       0.50776100       0.16922200 </v>
   <v>       0.52590400       0.66819500       0.65235100 </v>
   <v>       0.25401200       0.50836700       0.83802400 </v>
   <v>       0.23602400       0.16491300       0.48302800 </v>
   <v>       0.01288300       0.33322700       0.00871900 </v>
   <v>       0.96647700       0.66041000       0.01913900 </v>
   <v>       0.25844100       0.82020000       0.17477500 </v>
   <v>       0.47425600       0.99982600       0.66967300 </v>
   <v>       0.24005100       0.81092100       0.83374900 </v>
   <v>       0.23764900       0.83119900       0.48997300 </v>
   <v>       0.72429000       0.49392800       0.17403500 </v>
   <v>       0.04380800       0.01161200       0.67781800 </v>
   <v>       0.52665500       0.66683600       0.34160500 </v>
   <v>       0.76664500       0.49520600       0.49128500 </v>
   <v>       0.97049400       0.65882100       0.32141000 </v>
   <v>       0.25845000       0.16972600       0.18338200 </v>
   <v>       0.97287400       0.65204200       0.66183900 </v>
   <v>       0.52782800       0.67789900       0.00833900 </v>
   <v>       0.73709000       0.83516900       0.17648800 </v>
   <v>       0.50695300       0.34146900       0.34561100 </v>
   <v>       0.99249700       0.34372600       0.32191500 </v>
   <v>       0.00898500       0.33450000       0.67402700 </v>
   <v>       0.47361200       0.31731400       0.00142000 </v>
   <v>       0.24224600       0.17938300       0.82924200 </v>
   <v>       0.50349300       0.99242800       0.32746200 </v>
   <v>       0.99839300       0.99743400       0.30905800 </v>
  </varray>
 </structure>
 <calculation>
  <scstep>
   <time name="dav">    1.21    1.24</time>
   <time name="total">    1.39    1.71</time>
   <energy>
    <i name="alphaZ">   1565.19267898 </i>
    <i name="ewald"> -21540.23945824 </i>
    <i name="hartreedc">  -7998.84029975 </i>
    <i name="XCdc">     53.61508128 </i>
    <i name="pawpsdc">  24033.31942271 </i>
    <i name="pawaedc"> -22599.33685454 </i>
    <i name="eentropy">     -0.00015911 </i>
    <i name="bandstr">   -337.13835776 </i>
    <i name="atom">  28943.69313547 </i>
    <i name="e_fr_energy">   2120.26518904 </i>
    <i name="e_wo_entrp">   2120.26534815 </i>
    <i name="e_0_energy">   2120.26524207 </i>
   </energy>
  </scstep>
  <scstep>
   <time name="dav">    1.09    1.11</time>
   <time name="total">    1.09    1.26</time>
   <energy>
    <i name="e_fr_energy">    -62.18854102 </i>
    <i name="e_wo_entrp">    -62.19202007 </i>
    <i name="e_0_energy">    -62.18970070 </i>
   </energy>
  </scstep>
  <scstep>
   <time name="dav">    1.56    1.61</time>
   <time name="total">    1.56    1.64</time>
   <energy>
    <i name="e_fr_energy">   -334.41263974 </i>
    <i name="e_wo_entrp">   -334.42262348 </i>
    <i name="e_0_energy">   -334.41596766 </i>
   </energy>
  </scstep>
  <scstep>
   <time name="dav">    1.72    1.80</time>
   <time name="total">    1.72    1.83</time>
   <energy>
    <i name="e_fr_energy">   -367.31146073 </i>
    <i name="e_wo_entrp">   -367.33099262 </i>
    <i name="e_0_energy">   -367.31797136 </i>
   </energy>
  </scstep>
  <scstep>
   <time name="dav">    1.54    1.58</time>
   <time name="total">    1.57    1.65</time>
   <energy>
    <i name="e_fr_energy">   -370.57965735 </i>
    <i name="e_wo_entrp">   -370.60003123 </i>
    <i name="e_0_energy">   -370.58644864 </i>
   </energy>
  </scstep>
  <scstep>
   <time name="diag">    0.09    0.10</time>
   <time name="diis">    0.78    0.83</time>
   <time name="orth">    0.01    0.01</time>
   <time name="total">    0.96    1.04</time>
   <energy>
    <i name="e_fr_energy">   -360.01618462 </i>
    <i name="e_wo_entrp">   -360.04124241 </i>
    <i name="e_0_energy">   -360.02453721 </i>
   </energy>
  </scstep>
  <scstep>
   <time name="diag">    0.10    0.10</time>
   <time name="diis">    0.77    0.80</time>
   <time name="orth">    0.01    0.01</time>
   <time name="total">    0.95    1.01</time>
   <energy>
    <i name="e_fr_energy">   -358.22779835 </i>
    <i name="e_wo_entrp">   -358.24290537 </i>
    <i name="e_0_energy">   -358.23283402 </i>
   </energy>
  </scstep>
  <scstep>
   <time name="diag">    0.14    0.14</time>
   <time name="diis">    0.88    0.91</time>
   <time name="orth">    0.01    0.01</time>
   <time name="total">    1.14    1.23</time>
   <energy>
    <i name="e_fr_energy">   -356.33169683 </i>
    <i name="e_wo_entrp">   -356.35039590 </i>
    <i name="e_0_energy">   -356.33792985 </i>
   </energy>
  </scstep>
  <scstep>
   <time name="diag">    0.09    0.10</time>
   <time name="diis">    0.83    0.87</time>
   <time name="orth">    0.01    0.01</time>
   <time name="total">    1.05    1.12</time>
   <energy>
    <i name="e_fr_energy">   -356.23164466 </i>
    <i name="e_wo_entrp">   -356.25208881 </i>
    <i name="e_0_energy">   -356.23845938 </i>
   </energy>
  </scstep>
  <scstep>
   <time name="diag">    0.10    0.10</time>
   <time name="diis">    0.82    0.88</time>
   <time name="orth">    0.01    0.01</time>
   <time name="total">    1.03    1.15</time>
   <energy>
    <i name="e_fr_energy">   -356.16205944 </i>
    <i name="e_wo_entrp">   -356.18237212 </i>
    <i name="e_0_energy">   -356.16883033 </i>
   </energy>
  </scstep>
  <scstep>
   <time name="diag">    0.10    0.11</time>
   <time name="diis">    0.85    0.88</time>
   <time name="orth">    0.01    0.01</time>
   <time name="total">    1.04    1.10</time>
   <energy>
    <i name="e_fr_energy">   -356.14025115 </i>
    <i name="e_wo_entrp">   -356.16104002 </i>
    <i name="e_0_energy">   -356.14718077 </i>
   </energy>
  </scstep>
  <scstep>
   <time name="diag">    0.10    0.11</time>
   <time name="diis">    0.83    0.87</time>
   <time name="orth">    0.01    0.01</time>
   <time name="total">    1.01    1.11</time>
   <energy>
    <i name="e_fr_energy">   -356.13836514 </i>
    <i name="e_wo_entrp">   -356.15913811 </i>
    <i name="e_0_energy">   -356.14528946 </i>
   </energy>
  </scstep>
  <scstep>
   <time name="diag">    0.09    0.09</time>
   <time name="diis">    0.80    0.85</time>
   <time name="orth">    0.01    0.01</time>
   <time name="total">    0.97    1.07</time>
   <energy>
    <i name="e_fr_energy">   -356.13742462 </i>
    <i name="e_wo_entrp">   -356.15775055 </i>
    <i name="e_0_energy">   -356.14419993 </i>
   </energy>
  </scstep>
  <scstep>
   <time name="diag">    0.11    0.12</time>
   <time name="diis">    0.92    0.96</time>
   <time name="orth">    0.01    0.01</time>
   <time name="total">    1.13    1.23</time>
   <energy>
    <i name="e_fr_energy">   -356.13777334 </i>
    <i name="e_wo_entrp">   -356.15835881 </i>
    <i name="e_0_energy">   -356.14463516 </i>
   </energy>
  </scstep>
  <scstep>
   <time name="diag">    0.13    0.13</time>
   <time name="diis">    1.06    1.08</time>
   <time name="orth">    0.02    0.02</time>
   <time name="total">    1.26    1.33</time>
   <energy>
    <i name="e_fr_energy">   -356.13789496 </i>
    <i name="e_wo_entrp">   -356.15839298 </i>
    <i name="e_0_energy">   -356.14472763 </i>
   </energy>
  </scstep>
  <scstep>
   <time name="diag">    0.13    0.13</time>
   <time name="diis">    0.85    0.85</time>
   <time name="orth">    0.01    0.01</time>
   <time name="total">    1.08    1.12</time>
   <energy>
    <i name="e_fr_energy">   -356.13798997 </i>
    <i name="e_wo_entrp">   -356.15852710 </i>
    <i name="e_0_energy">   -356.14483568 </i>
   </energy>
  </scstep>
  <scstep>
   <time name="diag">    0.09    0.09</time>
   <time name="diis">    0.66    0.68</time>
   <time name="orth">    0.01    0.01</time>
   <time name="total">    0.91    0.96</time>
   <energy>
    <i name="e_fr_energy">   -356.13802414 </i>
    <i name="e_wo_entrp">   -356.15856158 </i>
    <i name="e_0_energy">   -356.14486995 </i>
   </energy>
  </scstep>
  <scstep>
   <time name="diag">    0.09    0.09</time>
   <time name="diis">    0.59    0.61</time>
   <time name="orth">    0.01    0.01</time>
   <time name="total">    0.92    1.00</time>
   <energy>
    <i name="e_fr_energy">   -356.13804541 </i>
    <i name="e_wo_entrp">   -356.15859283 </i>
    <i name="e_0_energy">   -356.14489455 </i>
   </energy>
  </scstep>
  <scstep>
   <time name="diag">    0.09    0.10</time>
   <time name="diis">    0.57    0.59</time>
   <time name="orth">    0.01    0.01</time>
   <time name="total">    0.76    0.82</time>
   <energy>
    <i name="e_fr_energy">   -356.13805267 </i>
    <i name="e_wo_entrp">   -356.15859925 </i>
    <i name="e_0_energy">   -356.14490153 </i>
   </energy>
  </scstep>
  <scstep>
   <time name="diag">    0.13    0.13</time>
   <time name="diis">    0.50    0.53</time>
   <time name="orth">    0.01    0.01</time>
   <time name="total">    0.68    0.74</time>
   <energy>
    <i name="alphaZ">   1565.19267898 </i>
    <i name="ewald"> -21540.23945824 </i>
    <i name="hartreedc">  -7743.66126744 </i>
    <i name="XCdc">     50.22831868 </i>
    <i name="pawpsdc">  35833.70333979 </i>
    <i name="pawaedc"> -34371.52477433 </i>
    <i name="eentropy">      0.02054916 </i>
    <i name="bandstr">  -3093.55057846 </i>
    <i name="atom">  28943.69313547 </i>
    <i name="e_fr_energy">   -356.13805639 </i>
    <i name="e_wo_entrp">   -356.15860555 </i>
    <i name="e_0_energy">   -356.14490611 </i>
   </energy>
  </scstep>
  <structure>
   <crystal>
    <varray name="basis" >
     <v>       7.00786721       0.04798255       0.01756883 </v>
     <v>       0.07026035      10.22669895       0.00054871 </v>
     <v>       0.02611879      -0.00036913      10.26951860 </v>
    </varray>
    <i name="volume">    735.94985281 </i>
    <varray name="rec_basis" >
     <v>       0.14270439      -0.00098040      -0.00036298 </v>
     <v>      -0.00066956       0.09778786       0.00000522 </v>
     <v>      -0.00024410      -0.00000355       0.09737617 </v>
    </varray>
   </crystal>
   <varray name="positions" >
    <v>       0.77443600       0.84396700       0.49796000 </v>
    <v>       0.01466700       0.00601100       0.00784200 </v>
    <v>       0.76992700       0.16503200       0.49629000 </v>
    <v>       0.73495000       0.17273300       0.17182500 </v>
    <v>       0.49262000       0.33150300       0.65439200 </v>
    <v>       0.77212100       0.84033500       0.82417500 </v>
    <v>       0.23452700       0.50694100       0.49453600 </v>
    <v>       0.73359200       0.49071800       0.84031200 </v>
    <v>       0.75676100       0.16769900       0.83094800 </v>
    <v>       0.48603400       0.00255300       0.99813100 </v>
    <v>       0.27035200       0.50776100       0.16922200 </v>
    <v>       0.52590400       0.66819500       0.65235100 </v>
    <v>       0.25401200       0.50836700       0.83802400 </v>
    <v>       0.23602400       0.16491300       0.48302800 </v>
    <v>       0.01288300       0.33322700       0.00871900 </v>
    <v>       0.96647700       0.66041000       0.01913900 </v>
    <v>       0.25844100       0.82020000       0.17477500 </v>
    <v>       0.47425600       0.99982600       0.66967300 </v>
    <v>       0.24005100       0.81092100       0.83374900 </v>
    <v>       0.23764900       0.83119900       0.48997300 </v>
    <v>       0.72429000       0.49392800       0.17403500 </v>
    <v>       0.04380800       0.01161200       0.67781800 </v>
    <v>       0.52665500       0.66683600       0.34160500 </v>
    <v>       0.76664500       0.49520600       0.49128500 </v>
    <v>       0.97049400       0.65882100       0.32141000 </v>
    <v>       0.25845000       0.16972600       0.18338200 </v>
    <v>       0.97287400       0.65204200       0.66183900 </v>
    <v>       0.52782800       0.67789900       0.00833900 </v>
    <v>       0.73709000       0.83516900       0.17648800 </v>
    <v>       0.50695300       0.34146900       0.34561100 </v>
    <v>       0.99249700       0.34372600       0.32191500 </v>
    <v>       0.00898500       0.33450000       0.67402700 </v>
    <v>       0.47361200       0.31731400       0.00142000 </v>
    <v>       0.24224600       0.17938300       0.82924200 </v>
    <v>       0.50349300       0.99242800       0.32746200 </v>
    <v>       0.99839300       0.99743400       0.30905800 </v>
   </varray>
  </structure>
  <varray name="forces" >
   <v>      -0.00531329      -0.00476940       0.00028951 </v>
   <v>      -0.01738672      -0.00668057      -0.00599486 </v>
   <v>      -0.01579328      -0.00422512       0.09894655 </v>
   <v>       0.00929567      -0.01164315      -0.08378397 </v>
   <v>       0.02048978      -0.01856960       0.01051200 </v>
   <v>      -0.00279401       0.08448559       0.00884905 </v>
   <v>       0.00587021       0.01747161      -0.01137712 </v>
   <v>      -0.00547075      -0.07296950      -0.01349477 </v>
   <v>       0.04165960       0.01181305      -0.01923062 </v>
   <v>       0.04009462       0.03544617      -0.03897762 </v>
   <v>      -0.00215363       0.00803167       0.01469873 </v>
   <v>       0.00285934       0.00492504      -0.00150396 </v>
   <v>       0.00446526       0.01541448      -0.00663075 </v>
   <v>       0.00396719      -0.00592466      -0.02021810 </v>
   <v>      -0.02363566      -0.02611910      -0.02459287 </v>
   <v>      -0.00385760      -0.00684728       0.00468776 </v>
   <v>      -0.00875181      -0.00841000      -0.00653222 </v>
   <v>       0.02782824       0.02194525       0.03165593 </v>
   <v>       0.00403877      -0.02456468       0.00243391 </v>
   <v>       0.01530551      -0.00169437      -0.00818112 </v>
   <v>       0.00106349       0.00423547      -0.00251752 </v>
   <v>      -0.03781795       0.04784051       0.02936898 </v>
   <v>       0.00983380       0.00744171      -0.00384924 </v>
   <v>      -0.00131810       0.00490903       0.00450467 </v>
   <v>      -0.00496264       0.00489743       0.00770777 </v>
   <v>       0.00243847       0.00726582       0.01786867 </v>
   <v>      -0.00128284      -0.01348565      -0.01162288 </v>
   <v>       0.00016424      -0.00413402       0.00522986 </v>
   <v>       0.01021474      -0.00425707       0.00249680 </v>
   <v>       0.00082788      -0.00008470       0.00270297 </v>
   <v>      -0.00288259      -0.00211236       0.00556186 </v>
   <v>      -0.04236733      -0.01535991       0.02717730 </v>
   <v>       0.01760891      -0.02978781      -0.00729217 </v>
   <v>      -0.04914102      -0.01413763      -0.00852480 </v>
   <v>       0.00301706      -0.00131167       0.00203664 </v>
   <v>       0.00388643       0.00096542      -0.00240434 </v>
  </varray>
  <varray name="stress" >
   <v>      -1.55817612      -0.21330046       0.04403394 </v>
   <v>      -0.21330048      -1.01122605       0.04695558 </v>
   <v>       0.04403395       0.04695556      -1.04559174 </v>
  </varray>
  <energy>
   <i name="e_fr_energy">   -356.13805639 </i>
   <i name="e_wo_entrp">   -356.14490611 </i>
   <i name="e_0_energy">      0.02054916 </i>
  </energy>
  <time name="totalsc">   24.15   26.17</time>
 </calculation>
 <calculation>
  <scstep>
   <time name="dav">    1.26    1.32</time>
   <time name="total">    1.39    1.61</time>
   <energy>
    <i name="alphaZ">   1566.23802354 </i>
    <i name="ewald"> -21545.66085997 </i>
    <i name="hartreedc">  -7744.77656847 </i>
    <i name="XCdc">     50.44900011 </i>
    <i name="pawpsdc">  35833.64065888 </i>
    <i name="pawaedc"> -34371.46386573 </i>
    <i name="eentropy">      0.02040372 </i>
    <i name="bandstr">  -3088.28009967 </i>
    <i name="atom">  28943.69313547 </i>
    <i name="e_fr_energy">   -356.14017211 </i>
    <i name="e_wo_entrp">   -356.16057583 </i>
    <i name="e_0_energy">   -356.14697335 </i>
   </energy>
  </scstep>
  <scstep>
   <time name="diag">    0.09    0.09</time>
   <time name="diis">    0.82    0.86</time>
   <time name="orth">    0.01    0.01</time>
   <time name="total">    0.99    1.06</time>
   <energy>
    <i name="e_fr_energy">   -356.13963818 </i>
    <i name="e_wo_entrp">   -356.16035187 </i>
    <i name="e_0_energy">   -356.14654274 </i>
   </energy>
  </scstep>
  <scstep>
   <time name="diag">    0.08    0.09</time>
   <time name="diis">    0.80    0.83</time>
   <time name="orth">    0.01    0.01</time>
   <time name="total">    0.97    1.05</time>
   <energy>
    <i name="e_fr_energy">   -356.13921461 </i>
    <i name="e_wo_entrp">   -356.15965236 </i>
    <i name="e_0_energy">   -356.14602720 </i>
   </energy>
  </scstep>
  <scstep>
   <time name="diag">    0.09    0.09</time>
   <time name="diis">    0.82    0.84</time>
   <time name="orth">    0.01    0.01</time>
   <time name="total">    0.98    1.07</time>
   <energy>
    <i name="e_fr_energy">   -356.13910253 </i>
    <i name="e_wo_entrp">   -356.15961474 </i>
    <i name="e_0_energy">   -356.14593993 </i>
   </energy>
  </scstep>
  <scstep>
   <time name="diag">    0.08    0.09</time>
   <time name="diis">    0.73    0.73</time>
   <time name="orth">    0.01    0.01</time>
   <time name="total">    0.90    0.94</time>
   <energy>
    <i name="e_fr_energy">   -356.13907483 </i>
    <i name="e_wo_entrp">   -356.15958786 </i>
    <i name="e_0_energy">   -356.14591251 </i>
   </energy>
  </scstep>
  <scstep>
   <time name="diag">    0.09    0.09</time>
   <time name="diis">    0.47    0.49</time>
   <time name="orth">    0.01    0.01</time>
   <time name="total">    0.61    0.66</time>
   <energy>
    <i name="alphaZ">   1566.23802354 </i>
    <i name="ewald"> -21545.66085997 </i>
    <i name="hartreedc">  -7741.35791782 </i>
    <i name="XCdc">     50.29780446 </i>
    <i name="pawpsdc">  35865.41638950 </i>
    <i name="pawaedc"> -34403.36141418 </i>
    <i name="eentropy">      0.02050845 </i>
    <i name="bandstr">  -3091.42475370 </i>
    <i name="atom">  28943.69313547 </i>
    <i name="e_fr_energy">   -356.13908425 </i>
    <i name="e_wo_entrp">   -356.15959270 </i>
    <i name="e_0_energy">   -356.14592040 </i>
   </energy>
  </scstep>
  <structure>
   <crystal>
    <varray name="basis" >
     <v>       7.00584900       0.04769771       0.01762284 </v>
     <v>       0.06983731      10.22478646       0.00063786 </v>
     <v>       0.02619480      -0.00028105      10.26753591 </v>
    </varray>
    <i name="volume">    735.45866235 </i>
    <varray name="rec_basis" >
     <v>       0.14274543      -0.00097496      -0.00036420 </v>
     <v>      -0.00066590       0.09780610       0.00000438 </v>
     <v>      -0.00024496      -0.00000440       0.09739498 </v>
    </varray>
   </crystal>
   <varray name="positions" >
    <v>       0.77442509       0.84396030       0.49796043 </v>
    <v>       0.01463122       0.00600171       0.00783361 </v>
    <v>       0.76989392       0.16502618       0.49642950 </v>
    <v>       0.73496980       0.17271643       0.17170689 </v>
    <v>       0.49266253       0.33147652       0.65440674 </v>
    <v>       0.77211398       0.84045460       0.82418748 </v>
    <v>       0.23453894       0.50696567       0.49451994 </v>
    <v>       0.73358181       0.49061478       0.84029300 </v>
    <v>       0.75684697       0.16771531       0.83092075 </v>
    <v>       0.48611651       0.00260277       0.99807593 </v>
    <v>       0.27034736       0.50777239       0.16924272 </v>
    <v>       0.52590984       0.66820194       0.65234887 </v>
    <v>       0.25402104       0.50838877       0.83801464 </v>
    <v>       0.23603238       0.16490458       0.48299949 </v>
    <v>       0.01283468       0.33319026       0.00868443 </v>
    <v>       0.96646911       0.66040035       0.01914562 </v>
    <v>       0.25842308       0.82018818       0.17476583 </v>
    <v>       0.47431300       0.99985679       0.66971751 </v>
    <v>       0.24005968       0.81088620       0.83375242 </v>
    <v>       0.23768068       0.83119645       0.48996142 </v>
    <v>       0.72429215       0.49393398       0.17403145 </v>
    <v>       0.04372906       0.01168008       0.67785952 </v>
    <v>       0.52667522       0.66684644       0.34159954 </v>
    <v>       0.76664218       0.49521296       0.49129135 </v>
    <v>       0.97048364       0.65882798       0.32142088 </v>
    <v>       0.25845484       0.16973626       0.18340717 </v>
    <v>       0.97287160       0.65202293       0.66182263 </v>
    <v>       0.52782837       0.67789315       0.00834637 </v>
    <v>       0.73711114       0.83516288       0.17649148 </v>
    <v>       0.50695470       0.34146887       0.34561481 </v>
    <v>       0.99249105       0.34372304       0.32192285 </v>
    <v>       0.00889757       0.33447867       0.67406545 </v>
    <v>       0.47364883       0.31727167       0.00140966 </v>
    <v>       0.24214475       0.17936347       0.82923016 </v>
    <v>       0.50349924       0.99242611       0.32746486 </v>
    <v>       0.99840103       0.99743533       0.30905460 </v>
   </varray>
  </structure>
  <varray name="forces" >
   <v>      -0.00554853      -0.00228939       0.00008808 </v>
   <v>      -0.01581608      -0.00776099      -0.00559708 </v>
   <v>      -0.01618266      -0.00483047       0.08987564 </v>
   <v>       0.00938772      -0.01067552      -0.07638614 </v>
   <v>       0.01751230      -0.01685324       0.00985196 </v>
   <v>      -0.00345192       0.07708015       0.00843449 </v>
   <v>       0.00725565       0.01460971      -0.01023679 </v>
   <v>      -0.00664769      -0.06701772      -0.01177473 </v>
   <v>       0.03676938       0.01023066      -0.01624083 </v>
   <v>       0.03507134       0.03087273      -0.03722323 </v>
   <v>      -0.00321074       0.00534957       0.01325932 </v>
   <v>       0.00245953       0.00548961       0.00107516 </v>
   <v>       0.00450183       0.01322000      -0.00562206 </v>
   <v>       0.00512362      -0.00547714      -0.01744900 </v>
   <v>      -0.02082390      -0.02264791      -0.02229038 </v>
   <v>      -0.00325399      -0.00554370       0.00115964 </v>
   <v>      -0.00733681      -0.00656788      -0.00768051 </v>
   <v>       0.02467745       0.02100574       0.02938096 </v>
   <v>       0.00534568      -0.02070331       0.00220155 </v>
   <v>       0.01498027      -0.00015082      -0.00572713 </v>
   <v>       0.00160062       0.00120253      -0.00317983 </v>
   <v>      -0.03525099       0.03991310       0.02485797 </v>
   <v>       0.00527100       0.00816673      -0.00375977 </v>
   <v>      -0.00343288       0.00176450       0.00510899 </v>
   <v>       0.00035451       0.00609405       0.00846610 </v>
   <v>       0.00135554       0.00637786       0.01561764 </v>
   <v>       0.00065976      -0.01003448      -0.00907136 </v>
   <v>      -0.00197234      -0.00523949       0.00217531 </v>
   <v>       0.01046407      -0.00118077      -0.00095990 </v>
   <v>      -0.00059154      -0.00159115       0.00140002 </v>
   <v>      -0.00155935      -0.00363369       0.00546897 </v>
   <v>      -0.03773079      -0.01186009       0.02354990 </v>
   <v>       0.01654253      -0.02550378      -0.00755896 </v>
   <v>      -0.04359644      -0.01269100      -0.00564799 </v>
   <v>       0.00339391      -0.00057677       0.00412902 </v>
   <v>       0.00367996       0.00145243       0.00030499 </v>
  </varray>
  <varray name="stress" >
   <v>      -0.77278149      -0.20234952       0.01931218 </v>
   <v>      -0.20234949      -0.29235300       0.05446342 </v>
   <v>       0.01931220       0.05446343      -0.32792890 </v>
  </varray>
  <energy>
   <i name="e_fr_energy">   -356.13908425 </i>
   <i name="e_wo_entrp">   -356.14592040 </i>
   <i name="e_0_energy">      0.02050845 </i>
  </energy>
  <time name="totalsc">    7.63    8.35</time>
 </calculation>
 <calculation>
  <scstep>
   <time name="dav">    1.38    1.45</time>
   <time name="total">    1.52    1.74</time>
   <energy>
    <i name="alphaZ">   1569.27060858 </i>
    <i name="ewald"> -21561.34261188 </i>
    <i name="hartreedc">  -7744.69564289 </i>
    <i name="XCdc">     50.94201677 </i>
    <i name="pawpsdc">  35862.61161735 </i>
    <i name="pawaedc"> -34400.51174485 </i>
    <i name="eentropy">      0.02007671 </i>
    <i name="bandstr">  -3076.13655392 </i>
    <i name="atom">  28943.69313547 </i>
    <i name="e_fr_energy">   -356.14909866 </i>
    <i name="e_wo_entrp">   -356.16917536 </i>
    <i name="e_0_energy">   -356.15579089 </i>
   </energy>
  </scstep>
  <scstep>
   <time name="diag">    0.13    0.13</time>
   <time name="diis">    1.41    1.44</time>
   <time name="orth">    0.01    0.01</time>
   <time name="total">    1.62    1.68</time>
   <energy>
    <i name="e_fr_energy">   -356.14464293 </i>
    <i name="e_wo_entrp">   -356.16559077 </i>
    <i name="e_0_energy">   -356.15162554 </i>
   </energy>
  </scstep>
  <scstep>
   <time name="diag">    0.13    0.14</time>
   <time name="diis">    1.00    1.05</time>
   <time name="orth">    0.01    0.01</time>
   <time name="total">    1.22    1.30</time>
   <energy>
    <i name="e_fr_energy">   -356.14109961 </i>
    <i name="e_wo_entrp">   -356.16126943 </i>
    <i name="e_0_energy">   -356.14782288 </i>
   </energy>
  </scstep>
  <scstep>
   <time name="diag">    0.17    0.17</time>
   <time name="diis">    0.90    0.94</time>
   <time name="orth">    0.01    0.01</time>
   <time name="total">    1.15    1.23</time>
   <energy>
    <i name="e_fr_energy">   -356.14015239 </i>
    <i name="e_wo_entrp">   -356.16053289 </i>
    <i name="e_0_energy">   -356.14694589 </i>
   </energy>
  </scstep>
  <scstep>
   <time name="diag">    0.10    0.10</time>
   <time name="diis">    0.83    0.90</time>
   <time name="orth">    0.01    0.01</time>
   <time name="total">    1.04    1.19</time>
   <energy>
    <i name="e_fr_energy">   -356.13991100 </i>
    <i name="e_wo_entrp">   -356.16029307 </i>
    <i name="e_0_energy">   -356.14670502 </i>
   </energy>
  </scstep>
  <scstep>
   <time name="diag">    0.10    0.10</time>
   <time name="diis">    0.84    0.89</time>
   <time name="orth">    0.02    0.02</time>
   <time name="total">    1.02    1.12</time>
   <energy>
    <i name="e_fr_energy">   -356.13996400 </i>
    <i name="e_wo_entrp">   -356.16033231 </i>
    <i name="e_0_energy">   -356.14675344 </i>
   </energy>
  </scstep>
  <scstep>
   <time name="diag">    0.09    0.09</time>
   <time name="diis">    0.77    0.81</time>
   <time name="orth">    0.01    0.01</time>
   <time name="total">    0.95    1.05</time>
   <energy>
    <i name="e_fr_energy">   -356.14001441 </i>
    <i name="e_wo_entrp">   -356.16040199 </i>
    <i name="e_0_energy">   -356.14681027 </i>
   </energy>
  </scstep>
  <scstep>
   <time name="diag">    0.09    0.09</time>
   <time name="diis">    0.55    0.59</time>
   <time name="orth">    0.01    0.01</time>
   <time name="total">    0.72    0.83</time>
   <energy>
    <i name="e_fr_energy">   -356.14004342 </i>
    <i name="e_wo_entrp">   -356.16040667 </i>
    <i name="e_0_energy">   -356.14683117 </i>
   </energy>
  </scstep>
  <scstep>
   <time name="diag">    0.10    0.11</time>
   <time name="diis">    0.49    0.51</time>
   <time name="orth">    0.01    0.01</time>
   <time name="total">    0.68    0.74</time>
   <energy>
    <i name="e_fr_energy">   -356.14006375 </i>
    <i name="e_wo_entrp">   -356.16042865 </i>
    <i name="e_0_energy">   -356.14685205 </i>
   </energy>
  </scstep>
  <scstep>
   <time name="diag">    0.10    0.11</time>
   <time name="diis">    0.46    0.48</time>
   <time name="orth">    0.01    0.01</time>
   <time name="total">    0.65    0.71</time>
   <energy>
    <i name="e_fr_energy">   -356.14008344 </i>
    <i name="e_wo_entrp">   -356.16044491 </i>
    <i name="e_0_energy">   -356.14687060 </i>
   </energy>
  </scstep>
  <scstep>
   <time name="diag">    0.09    0.09</time>
   <time name="diis">    0.41    0.41</time>
   <time name="orth">    0.01    0.01</time>
   <time name="total">    0.55    0.60</time>
   <energy>
    <i name="alphaZ">   1569.27060858 </i>
    <i name="ewald"> -21561.34261188 </i>
    <i name="hartreedc">  -7735.53796915 </i>
    <i name="XCdc">     50.53660796 </i>
    <i name="pawpsdc">  35945.46654158 </i>
    <i name="pawaedc"> -34483.10060798 </i>
    <i name="eentropy">      0.02036321 </i>
    <i name="bandstr">  -3085.14615808 </i>
    <i name="atom">  28943.69313547 </i>
    <i name="e_fr_energy">   -356.14009029 </i>
    <i name="e_wo_entrp">   -356.16045350 </i>
    <i name="e_0_energy">   -356.14687803 </i>
   </energy>
  </scstep>
  <structure>
   <crystal>
    <varray name="basis" >
     <v>       7.00000441       0.04687282       0.01777924 </v>
     <v>       0.06861223      10.21924802       0.00089601 </v>
     <v>       0.02641491      -0.00002595      10.26179420 </v>
    </varray>
    <i name="volume">    734.03740274 </i>
    <varray name="rec_basis" >
     <v>       0.14286441      -0.00095916      -0.00036775 </v>
     <v>      -0.00065528       0.09785896       0.00000193 </v>
     <v>      -0.00024746      -0.00000688       0.09744948 </v>
    </varray>
   </crystal>
   <varray name="positions" >
    <v>       0.77439349       0.84394090       0.49796166 </v>
    <v>       0.01452756       0.00597481       0.00780932 </v>
    <v>       0.76979810       0.16500932       0.49683357 </v>
    <v>       0.73502717       0.17266842       0.17136479 </v>
    <v>       0.49278571       0.33139983       0.65444945 </v>
    <v>       0.77209368       0.84080101       0.82422361 </v>
    <v>       0.23457352       0.50703712       0.49447344 </v>
    <v>       0.73355226       0.49031581       0.84023799 </v>
    <v>       0.75709602       0.16776257       0.83084182 </v>
    <v>       0.48635553       0.00274695       0.99791640 </v>
    <v>       0.27033392       0.50780538       0.16930274 </v>
    <v>       0.52592677       0.66822205       0.65234270 </v>
    <v>       0.25404722       0.50845183       0.83798752 </v>
    <v>       0.23605667       0.16488017       0.48291692 </v>
    <v>       0.01269472       0.33308385       0.00858428 </v>
    <v>       0.96644623       0.66037239       0.01916480 </v>
    <v>       0.25837116       0.82015395       0.17473925 </v>
    <v>       0.47447811       0.99994598       0.66984644 </v>
    <v>       0.24008481       0.81078539       0.83376232 </v>
    <v>       0.23777244       0.83118908       0.48992786 </v>
    <v>       0.72429838       0.49395132       0.17402116 </v>
    <v>       0.04350040       0.01187725       0.67797979 </v>
    <v>       0.52673381       0.66687667       0.34158373 </v>
    <v>       0.76663403       0.49523312       0.49130975 </v>
    <v>       0.97045363       0.65884820       0.32145239 </v>
    <v>       0.25846886       0.16976598       0.18348009 </v>
    <v>       0.97286466       0.65196768       0.66177520 </v>
    <v>       0.52782944       0.67787620       0.00836772 </v>
    <v>       0.73717239       0.83514514       0.17650157 </v>
    <v>       0.50695961       0.34146850       0.34562583 </v>
    <v>       0.99247380       0.34371446       0.32194558 </v>
    <v>       0.00864431       0.33441690       0.67417683 </v>
    <v>       0.47375551       0.31714907       0.00137972 </v>
    <v>       0.24185146       0.17930688       0.82919587 </v>
    <v>       0.50351731       0.99242065       0.32747314 </v>
    <v>       0.99842427       0.99743918       0.30904474 </v>
   </varray>
  </structure>
  <varray name="forces" >
   <v>      -0.00579476       0.00386919      -0.00006735 </v>
   <v>      -0.00885841      -0.01128057      -0.00392227 </v>
   <v>      -0.01593600      -0.00667473       0.06337321 </v>
   <v>       0.00946434      -0.00845039      -0.05380318 </v>
   <v>       0.00763301      -0.01054568       0.00799420 </v>
   <v>      -0.00372052       0.05239718       0.00582177 </v>
   <v>       0.00980311       0.00622487      -0.00507058 </v>
   <v>      -0.00821395      -0.04802186      -0.00776607 </v>
   <v>       0.02394119       0.00673919      -0.00738913 </v>
   <v>       0.02088077       0.01756689      -0.03223594 </v>
   <v>      -0.00806119      -0.00273301       0.00778019 </v>
   <v>       0.00019854       0.00613663       0.01070762 </v>
   <v>       0.00086778       0.00750350      -0.00333990 </v>
   <v>       0.00840362      -0.00529991      -0.00938377 </v>
   <v>      -0.01333464      -0.00965040      -0.01680316 </v>
   <v>      -0.00012462      -0.00501390      -0.01239912 </v>
   <v>      -0.00419854       0.00024808      -0.01095428 </v>
   <v>       0.01494517       0.01716476       0.02313441 </v>
   <v>       0.00735252      -0.01255383       0.00020559 </v>
   <v>       0.01382299       0.00458743       0.00265718 </v>
   <v>       0.00463391      -0.00693512      -0.00567855 </v>
   <v>      -0.02727344       0.01642899       0.01029320 </v>
   <v>      -0.00772190       0.00854616      -0.00248220 </v>
   <v>      -0.00826894      -0.00629052       0.00942148 </v>
   <v>       0.01451395       0.00853628       0.01046505 </v>
   <v>      -0.00207816       0.00434382       0.01034125 </v>
   <v>       0.00475789       0.00072511      -0.00053285 </v>
   <v>      -0.00388658      -0.00752941      -0.00655321 </v>
   <v>       0.01028927       0.00816315      -0.00885493 </v>
   <v>      -0.00315149      -0.00490413      -0.00244029 </v>
   <v>       0.00086013      -0.00670014       0.00495965 </v>
   <v>      -0.02178994      -0.00149619       0.01349090 </v>
   <v>       0.01088590      -0.01383366      -0.00825411 </v>
   <v>      -0.02769690      -0.00546048       0.00267373 </v>
   <v>       0.00507762       0.00106103       0.00810348 </v>
   <v>       0.00177828       0.00313167       0.00650796 </v>
  </varray>
  <varray name="stress" >
   <v>       2.02662157      -0.05709007      -0.05494372 </v>
   <v>      -0.05709007       2.26407359       0.05997021 </v>
   <v>      -0.05494369       0.05997017       2.21497236 </v>
  </varray>
  <energy>
   <i name="e_fr_energy">   -356.14009029 </i>
   <i name="e_wo_entrp">   -356.14687803 </i>
   <i name="e_0_energy">      0.02036321 </i>
  </energy>
  <time name="totalsc">   12.78   14.05</time>
 </calculation>
 <calculation>
  <scstep>
   <time name="dav">    1.13    1.17</time>
   <time name="total">    1.27    1.49</time>
   <energy>
    <i name="alphaZ">   1569.02734770 </i>
    <i name="ewald"> -21560.97756429 </i>
    <i name="hartreedc">  -7734.42324007 </i>
    <i name="XCdc">     50.48381707 </i>
    <i name="pawpsdc">  35945.83188266 </i>
    <i name="pawaedc"> -34483.45031650 </i>
    <i name="eentropy">      0.02046640 </i>
    <i name="bandstr">  -3086.34621111 </i>
    <i name="atom">  28943.69313547 </i>
    <i name="e_fr_energy">   -356.14068266 </i>
    <i name="e_wo_entrp">   -356.16114907 </i>
    <i name="e_0_energy">   -356.14750480 </i>
   </energy>
  </scstep>
  <scstep>
   <time name="diag">    0.11    0.11</time>
   <time name="diis">    0.79    0.82</time>
   <time name="orth">    0.01    0.01</time>
   <time name="total">    0.99    1.05</time>
   <energy>
    <i name="e_fr_energy">   -356.14083090 </i>
    <i name="e_wo_entrp">   -356.16121280 </i>
    <i name="e_0_energy">   -356.14762487 </i>
   </energy>
  </scstep>
  <scstep>
   <time name="diag">    0.09    0.09</time>
   <time name="diis">    0.77    0.79</time>
   <time name="orth">    0.01    0.01</time>
   <time name="total">    0.94    1.00</time>
   <energy>
    <i name="e_fr_energy">   -356.14079525 </i>
    <i name="e_wo_entrp">   -356.16127417 </i>
    <i name="e_0_energy">   -356.14762156 </i>
   </energy>
  </scstep>
  <scstep>
   <time name="diag">    0.09    0.09</time>
   <time name="diis">    0.68    0.70</time>
   <time name="orth">    0.01    0.01</time>
   <time name="total">    0.86    0.91</time>
   <energy>
    <i name="e_fr_energy">   -356.14078208 </i>
    <i name="e_wo_entrp">   -356.16123677 </i>
    <i name="e_0_energy">   -356.14760031 </i>
   </energy>
  </scstep>
  <scstep>
   <time name="diag">    0.09    0.09</time>
   <time name="diis">    0.39    0.40</time>
   <time name="orth">    0.01    0.01</time>
   <time name="total">    0.53    0.58</time>
   <energy>
    <i name="alphaZ">   1569.02734770 </i>
    <i name="ewald"> -21560.97756429 </i>
    <i name="hartreedc">  -7735.23255308 </i>
    <i name="XCdc">     50.52067121 </i>
    <i name="pawpsdc">  35939.04420029 </i>
    <i name="pawaedc"> -34476.59252418 </i>
    <i name="eentropy">      0.02046287 </i>
    <i name="bandstr">  -3085.64395510 </i>
    <i name="atom">  28943.69313547 </i>
    <i name="e_fr_energy">   -356.14077911 </i>
    <i name="e_wo_entrp">   -356.16124199 </i>
    <i name="e_0_energy">   -356.14760007 </i>
   </energy>
  </scstep>
  <structure>
   <crystal>
    <varray name="basis" >
     <v>       6.99990314       0.04661955       0.01778578 </v>
     <v>       0.06823502      10.22016192       0.00102944 </v>
     <v>       0.02642115       0.00010695      10.26261088 </v>
    </varray>
    <i name="volume">    734.15120737 </i>
    <varray name="rec_basis" >
     <v>       0.14286641      -0.00095381      -0.00036780 </v>
     <v>      -0.00065169       0.09785016       0.00000066 </v>
     <v>      -0.00024753      -0.00000816       0.09744173 </v>
    </varray>
   </crystal>
   <varray name="positions" >
    <v>       0.77437813       0.84393878       0.49796196 </v>
    <v>       0.01448922       0.00595853       0.00779963 </v>
    <v>       0.76975336       0.16499949       0.49699358 </v>
    <v>       0.73505401       0.17264860       0.17122921 </v>
    <v>       0.49282806       0.33137058       0.65446737 </v>
    <v>       0.77208342       0.84093681       0.82423804 </v>
    <v>       0.23459432       0.50706141       0.49445678 </v>
    <v>       0.73353504       0.49019642       0.84021692 </v>
    <v>       0.75719146       0.16778065       0.83081450 </v>
    <v>       0.48644467       0.00279996       0.99784743 </v>
    <v>       0.27032085       0.50781216       0.16932522 </v>
    <v>       0.52593151       0.66823241       0.65234958 </v>
    <v>       0.25405529       0.50847492       0.83797751 </v>
    <v>       0.23607315       0.16486928       0.48288706 </v>
    <v>       0.01264134       0.33304737       0.00854379 </v>
    <v>       0.96643997       0.66036080       0.01916009 </v>
    <v>       0.25835222       0.82014490       0.17472332 </v>
    <v>       0.47454011       0.99998381       0.66989978 </v>
    <v>       0.24010031       0.81074799       0.83376515 </v>
    <v>       0.23781342       0.83119069       0.48992087 </v>
    <v>       0.72430556       0.49395042       0.17401383 </v>
    <v>       0.04340641       0.01194394       0.67802062 </v>
    <v>       0.52674059       0.66689174       0.34157748 </v>
    <v>       0.76662217       0.49523358       0.49132227 </v>
    <v>       0.97046239       0.65886043       0.32146925 </v>
    <v>       0.25847016       0.16977752       0.18350809 </v>
    <v>       0.97286834       0.65195328       0.66176192 </v>
    <v>       0.52782526       0.67786559       0.00836828 </v>
    <v>       0.73720098       0.83514683       0.17649721 </v>
    <v>       0.50695730       0.34146449       0.34562688 </v>
    <v>       0.99247018       0.34370676       0.32195569 </v>
    <v>       0.00855020       0.33439908       0.67421780 </v>
    <v>       0.47379726       0.31710473       0.00136500 </v>
    <v>       0.24173966       0.17928733       0.82918878 </v>
    <v>       0.50352811       0.99242000       0.32748184 </v>
    <v>       0.99843261       0.99744272       0.30904727 </v>
   </varray>
  </structure>
  <varray name="forces" >
   <v>      -0.00509844       0.00439659      -0.00088347 </v>
   <v>      -0.00536503      -0.01170830      -0.00365550 </v>
   <v>      -0.01410855      -0.00611100       0.05192793 </v>
   <v>       0.00813599      -0.00609479      -0.04345469 </v>
   <v>       0.00370241      -0.00851275       0.00702635 </v>
   <v>      -0.00262325       0.04285468       0.00367741 </v>
   <v>       0.00943293       0.00398392      -0.00449971 </v>
   <v>      -0.00901249      -0.04001393      -0.00593287 </v>
   <v>       0.01964429       0.00562467      -0.00446201 </v>
   <v>       0.01441848       0.01412352      -0.02954329 </v>
   <v>      -0.00798898      -0.00513459       0.00638496 </v>
   <v>       0.00201165       0.00560037       0.01229000 </v>
   <v>       0.00044646       0.00482670      -0.00239410 </v>
   <v>       0.00816979      -0.00524727      -0.00664854 </v>
   <v>      -0.00846309      -0.00568163      -0.01435339 </v>
   <v>      -0.00178459      -0.00473191      -0.01436743 </v>
   <v>      -0.00170880       0.00105153      -0.01059716 </v>
   <v>       0.00779298       0.01651817       0.02182198 </v>
   <v>       0.00674140      -0.00898779      -0.00125851 </v>
   <v>       0.01288649       0.00686884       0.00492385 </v>
   <v>       0.00430393      -0.00772707      -0.00328402 </v>
   <v>      -0.02011791       0.01031652       0.00725185 </v>
   <v>      -0.00764304       0.00743557      -0.00316482 </v>
   <v>      -0.00816109      -0.00679404       0.00733818 </v>
   <v>       0.01445075       0.00735804       0.00927465 </v>
   <v>      -0.00219409       0.00417856       0.01006422 </v>
   <v>       0.00384761       0.00169216       0.00061143 </v>
   <v>      -0.00281158      -0.00820589      -0.00644406 </v>
   <v>       0.00973611       0.00854113      -0.00852816 </v>
   <v>      -0.00264027      -0.00368858      -0.00316917 </v>
   <v>      -0.00005666      -0.00544354       0.00440327 </v>
   <v>      -0.01663072       0.00082402       0.01110411 </v>
   <v>       0.00717835      -0.01133403      -0.00805177 </v>
   <v>      -0.02402641      -0.00385149       0.00313204 </v>
   <v>       0.00553722      -0.00009789       0.00771456 </v>
   <v>       0.00199815       0.00317149       0.00574588 </v>
  </varray>
  <varray name="stress" >
   <v>       1.86999335      -0.03360115      -0.08577927 </v>
   <v>      -0.03360117       2.06164961       0.06525341 </v>
   <v>      -0.08577930       0.06525337       1.98292133 </v>
  </varray>
  <energy>
   <i name="e_fr_energy">   -356.14077911 </i>
   <i name="e_wo_entrp">   -356.14760007 </i>
   <i name="e_0_energy">      0.02046287 </i>
  </energy>
  <time name="totalsc">    6.28    7.00</time>
 </calculation>
 <calculation>
  <scstep>
   <time name="dav">    1.07    1.12</time>
   <time name="total">    1.20    1.41</time>
   <energy>
    <i name="alphaZ">   1568.29795711 </i>
    <i name="ewald"> -21559.83975970 </i>
    <i name="hartreedc">  -7731.89984889 </i>
    <i name="XCdc">     50.36179432 </i>
    <i name="pawpsdc">  35939.61548016 </i>
    <i name="pawaedc"> -34477.15830601 </i>
    <i name="eentropy">      0.02076029 </i>
    <i name="bandstr">  -3089.23240427 </i>
    <i name="atom">  28943.69313547 </i>
    <i name="e_fr_energy">   -356.14119152 </i>
    <i name="e_wo_entrp">   -356.16195181 </i>
    <i name="e_0_energy">   -356.14811161 </i>
   </energy>
  </scstep>
  <scstep>
   <time name="diag">    0.09    0.09</time>
   <time name="diis">    0.76    0.80</time>
   <time name="orth">    0.01    0.01</time>
   <time name="total">    0.93    1.01</time>
   <energy>
    <i name="e_fr_energy">   -356.14247468 </i>
    <i name="e_wo_entrp">   -356.16298760 </i>
    <i name="e_0_energy">   -356.14931232 </i>
   </energy>
  </scstep>
  <scstep>
   <time name="diag">    0.11    0.11</time>
   <time name="diis">    0.81    0.85</time>
   <time name="orth">    0.01    0.01</time>
   <time name="total">    1.01    1.09</time>
   <energy>
    <i name="e_fr_energy">   -356.14215413 </i>
    <i name="e_wo_entrp">   -356.16295541 </i>
    <i name="e_0_energy">   -356.14908789 </i>
   </energy>
  </scstep>
  <scstep>
   <time name="diag">    0.09    0.09</time>
   <time name="diis">    0.86    0.88</time>
   <time name="orth">    0.01    0.01</time>
   <time name="total">    1.03    1.09</time>
   <energy>
    <i name="e_fr_energy">   -356.14204444 </i>
    <i name="e_wo_entrp">   -356.16277140 </i>
    <i name="e_0_energy">   -356.14895343 </i>
   </energy>
  </scstep>
  <scstep>
   <time name="diag">    0.09    0.09</time>
   <time name="diis">    0.97    1.00</time>
   <time name="orth">    0.01    0.01</time>
   <time name="total">    1.16    1.23</time>
   <energy>
    <i name="e_fr_energy">   -356.14203466 </i>
    <i name="e_wo_entrp">   -356.16278867 </i>
    <i name="e_0_energy">   -356.14895266 </i>
   </energy>
  </scstep>
  <scstep>
   <time name="diag">    0.09    0.09</time>
   <time name="diis">    0.68    0.70</time>
   <time name="orth">    0.01    0.01</time>
   <time name="total">    0.82    0.87</time>
   <energy>
    <i name="alphaZ">   1568.29795711 </i>
    <i name="ewald"> -21559.83975970 </i>
    <i name="hartreedc">  -7734.09568738 </i>
    <i name="XCdc">     50.46375058 </i>
    <i name="pawpsdc">  35919.13551982 </i>
    <i name="pawaedc"> -34456.63121076 </i>
    <i name="eentropy">      0.02073764 </i>
    <i name="bandstr">  -3087.18647083 </i>
    <i name="atom">  28943.69313547 </i>
    <i name="e_fr_energy">   -356.14202804 </i>
    <i name="e_wo_entrp">   -356.16276569 </i>
    <i name="e_0_energy">   -356.14894059 </i>
   </energy>
  </scstep>
  <structure>
   <crystal>
    <varray name="basis" >
     <v>       6.99959933       0.04585971       0.01780540 </v>
     <v>       0.06710339      10.22290360       0.00142974 </v>
     <v>       0.02643987       0.00050564      10.26506095 </v>
    </varray>
    <i name="volume">    734.49264949 </i>
    <varray name="rec_basis" >
     <v>       0.14287240      -0.00093777      -0.00036795 </v>
     <v>      -0.00064091       0.09782377      -0.00000317 </v>
     <v>      -0.00024773      -0.00001200       0.09741847 </v>
    </varray>
   </crystal>
   <varray name="positions" >
    <v>       0.77433202       0.84393241       0.49796284 </v>
    <v>       0.01437421       0.00590970       0.00777057 </v>
    <v>       0.76961913       0.16496998       0.49747358 </v>
    <v>       0.73513453       0.17258917       0.17082249 </v>
    <v>       0.49295509       0.33128282       0.65452115 </v>
    <v>       0.77205264       0.84134417       0.82428133 </v>
    <v>       0.23465674       0.50713425       0.49440681 </v>
    <v>       0.73348335       0.48983829       0.84015371 </v>
    <v>       0.75747776       0.16783487       0.83073256 </v>
    <v>       0.48671207       0.00295897       0.99764055 </v>
    <v>       0.27028163       0.50783250       0.16939264 </v>
    <v>       0.52594572       0.66826350       0.65237020 </v>
    <v>       0.25407947       0.50854416       0.83794749 </v>
    <v>       0.23612259       0.16483659       0.48279748 </v>
    <v>       0.01248117       0.33293795       0.00842232 </v>
    <v>       0.96642118       0.66032603       0.01914598 </v>
    <v>       0.25829539       0.82011776       0.17467554 </v>
    <v>       0.47472612       0.00009728       0.67005979 </v>
    <v>       0.24014681       0.81063582       0.83377364 </v>
    <v>       0.23793637       0.83119552       0.48989990 </v>
    <v>       0.72432710       0.49394775       0.17399185 </v>
    <v>       0.04312445       0.01214398       0.67814309 </v>
    <v>       0.52676090       0.66693697       0.34155873 </v>
    <v>       0.76658658       0.49523496       0.49135983 </v>
    <v>       0.97048867       0.65889714       0.32151981 </v>
    <v>       0.25847406       0.16981213       0.18359207 </v>
    <v>       0.97287937       0.65191008       0.66172210 </v>
    <v>       0.52781272       0.67783379       0.00836995 </v>
    <v>       0.73728675       0.83515189       0.17648414 </v>
    <v>       0.50695037       0.34145245       0.34563001 </v>
    <v>       0.99245930       0.34368367       0.32198603 </v>
    <v>       0.00826784       0.33434564       0.67434069 </v>
    <v>       0.47392253       0.31697174       0.00132086 </v>
    <v>       0.24140424       0.17922867       0.82916750 </v>
    <v>       0.50356052       0.99241804       0.32750794 </v>
    <v>       0.99845761       0.99745335       0.30905483 </v>
   </varray>
  </structure>
  <varray name="forces" >
   <v>      -0.00278848       0.00549885      -0.00661747 </v>
   <v>       0.00505003      -0.01345685       0.00064445 </v>
   <v>      -0.00901266      -0.00618955       0.01840405 </v>
   <v>       0.00637388      -0.00286232      -0.01420738 </v>
   <v>      -0.00844988      -0.00300742       0.00325172 </v>
   <v>       0.00038582       0.01498684      -0.00201898 </v>
   <v>       0.00656018      -0.00272576      -0.00228840 </v>
   <v>      -0.01070829      -0.01666286      -0.00123294 </v>
   <v>       0.00796159       0.00176010       0.00435741 </v>
   <v>      -0.00520330       0.00299305      -0.01948125 </v>
   <v>      -0.00765497      -0.01052026       0.00327408 </v>
   <v>       0.00782498       0.00415634       0.01577833 </v>
   <v>      -0.00239069      -0.00287700      -0.00053061 </v>
   <v>       0.00671185      -0.00690157      -0.00053976 </v>
   <v>       0.00615499       0.00562291      -0.00596159 </v>
   <v>      -0.00652096      -0.00315423      -0.01870645 </v>
   <v>       0.00500891       0.00691646      -0.00867698 </v>
   <v>      -0.01331127       0.01392344       0.01635106 </v>
   <v>       0.00473081       0.00026598      -0.00430460 </v>
   <v>       0.00939522       0.01420834       0.00857049 </v>
   <v>       0.00322626      -0.00920360       0.00418667 </v>
   <v>       0.00193028      -0.00809112      -0.00328463 </v>
   <v>      -0.00792584       0.00515147      -0.00527582 </v>
   <v>      -0.00685117      -0.00791027       0.00136365 </v>
   <v>       0.01494703       0.00462909       0.00632821 </v>
   <v>      -0.00333140       0.00134191       0.00769966 </v>
   <v>      -0.00012718       0.00733553       0.00584065 </v>
   <v>       0.00236120      -0.01076895      -0.00705252 </v>
   <v>       0.00722841       0.01074035      -0.00616233 </v>
   <v>       0.00066360      -0.00200816      -0.00550839 </v>
   <v>      -0.00426103      -0.00335509       0.00211989 </v>
   <v>       0.00279690       0.00872698       0.00194241 </v>
   <v>      -0.00699261      -0.00443757      -0.00628641 </v>
   <v>      -0.01280410       0.00312505       0.00481012 </v>
   <v>       0.00783272      -0.00207808       0.00588520 </v>
   <v>       0.00118916       0.00482797       0.00732847 </v>
  </varray>
  <varray name="stress" >
   <v>       1.45193807       0.08718176      -0.15178442 </v>
   <v>       0.08718178       1.40537133       0.06251531 </v>
   <v>      -0.15178446       0.06251527       1.33607664 </v>
  </varray>
  <energy>
   <i name="e_fr_energy">   -356.14202804 </i>
   <i name="e_wo_entrp">   -356.14894059 </i>
   <i name="e_0_energy">      0.02073764 </i>
  </energy>
  <time name="totalsc">    8.03    9.29</time>
 </calculation>
 <calculation>
  <scstep>
   <time name="dav">    1.00    1.06</time>
   <time name="total">    1.12    1.34</time>
   <energy>
    <i name="alphaZ">   1566.84093812 </i>
    <i name="ewald"> -21557.37187423 </i>
    <i name="hartreedc">  -7727.57849761 </i>
    <i name="XCdc">     50.14522992 </i>
    <i name="pawpsdc">  35919.81469092 </i>
    <i name="pawaedc"> -34457.32890753 </i>
    <i name="eentropy">      0.02131856 </i>
    <i name="bandstr">  -3094.37364747 </i>
    <i name="atom">  28943.69313547 </i>
    <i name="e_fr_energy">   -356.13761385 </i>
    <i name="e_wo_entrp">   -356.15893241 </i>
    <i name="e_0_energy">   -356.14472004 </i>
   </energy>
  </scstep>
  <scstep>
   <time name="diag">    0.09    0.10</time>
   <time name="diis">    0.78    0.82</time>
   <time name="orth">    0.01    0.01</time>
   <time name="total">    0.95    1.03</time>
   <energy>
    <i name="e_fr_energy">   -356.14270460 </i>
    <i name="e_wo_entrp">   -356.16351989 </i>
    <i name="e_0_energy">   -356.14964303 </i>
   </energy>
  </scstep>
  <scstep>
   <time name="diag">    0.09    0.10</time>
   <time name="diis">    0.78    0.83</time>
   <time name="orth">    0.01    0.01</time>
   <time name="total">    0.98    1.06</time>
   <energy>
    <i name="e_fr_energy">   -356.14146785 </i>
    <i name="e_wo_entrp">   -356.16287276 </i>
    <i name="e_0_energy">   -356.14860282 </i>
   </energy>
  </scstep>
  <scstep>
   <time name="diag">    0.11    0.12</time>
   <time name="diis">    0.89    0.92</time>
   <time name="orth">    0.01    0.01</time>
   <time name="total">    1.08    1.15</time>
   <energy>
    <i name="e_fr_energy">   -356.14103661 </i>
    <i name="e_wo_entrp">   -356.16228286 </i>
    <i name="e_0_energy">   -356.14811870 </i>
   </energy>
  </scstep>
  <scstep>
   <time name="diag">    0.08    0.09</time>
   <time name="diis">    0.96    0.97</time>
   <time name="orth">    0.01    0.01</time>
   <time name="total">    1.12    1.17</time>
   <energy>
    <i name="e_fr_energy">   -356.14100181 </i>
    <i name="e_wo_entrp">   -356.16229642 </i>
    <i name="e_0_energy">   -356.14810002 </i>
   </energy>
  </scstep>
  <scstep>
   <time name="diag">    0.10    0.10</time>
   <time name="diis">    0.88    0.93</time>
   <time name="orth">    0.01    0.01</time>
   <time name="total">    1.07    1.22</time>
   <energy>
    <i name="e_fr_energy">   -356.14098837 </i>
    <i name="e_wo_entrp">   -356.16225884 </i>
    <i name="e_0_energy">   -356.14807853 </i>
   </energy>
  </scstep>
  <scstep>
   <time name="diag">    0.09    0.09</time>
   <time name="diis">    0.72    0.76</time>
   <time name="orth">    0.01    0.01</time>
   <time name="total">    0.89    0.98</time>
   <energy>
    <i name="e_fr_energy">   -356.14098966 </i>
    <i name="e_wo_entrp">   -356.16226875 </i>
    <i name="e_0_energy">   -356.14808269 </i>
   </energy>
  </scstep>
  <scstep>
   <time name="diag">    0.09    0.09</time>
   <time name="diis">    0.65    0.71</time>
   <time name="orth">    0.01    0.01</time>
   <time name="total">    0.79    0.91</time>
   <energy>
    <i name="alphaZ">   1566.84093812 </i>
    <i name="ewald"> -21557.37187423 </i>
    <i name="hartreedc">  -7731.79589383 </i>
    <i name="XCdc">     50.34106641 </i>
    <i name="pawpsdc">  35881.30041074 </i>
    <i name="pawaedc"> -34418.86756243 </i>
    <i name="eentropy">      0.02128866 </i>
    <i name="bandstr">  -3090.30249727 </i>
    <i name="atom">  28943.69313547 </i>
    <i name="e_fr_energy">   -356.14098836 </i>
    <i name="e_wo_entrp">   -356.16227702 </i>
    <i name="e_0_energy">   -356.14808458 </i>
   </energy>
  </scstep>
  <structure>
   <crystal>
    <varray name="basis" >
     <v>       6.99899171       0.04434004       0.01784463 </v>
     <v>       0.06484013      10.22838696       0.00223034 </v>
     <v>       0.02647731       0.00130303      10.26996108 </v>
    </varray>
    <i name="volume">    735.17566058 </i>
    <varray name="rec_basis" >
     <v>       0.14288440      -0.00090570      -0.00036826 </v>
     <v>      -0.00061937       0.09777106      -0.00001081 </v>
     <v>      -0.00024814      -0.00001966       0.09737199 </v>
    </varray>
   </crystal>
   <varray name="positions" >
    <v>       0.77423980       0.84391968       0.49796459 </v>
    <v>       0.01414415       0.00581204       0.00771247 </v>
    <v>       0.76935065       0.16491093       0.49843335 </v>
    <v>       0.73529556       0.17247036       0.17000926 </v>
    <v>       0.49320915       0.33110738       0.65462869 </v>
    <v>       0.77199122       0.84215868       0.82436786 </v>
    <v>       0.23478162       0.50727991       0.49430688 </v>
    <v>       0.73337984       0.48912221       0.84002735 </v>
    <v>       0.75805042       0.16794333       0.83056870 </v>
    <v>       0.48724696       0.00327698       0.99722688 </v>
    <v>       0.27020320       0.50787317       0.16952746 </v>
    <v>       0.52597416       0.66832565       0.65241144 </v>
    <v>       0.25412787       0.50868262       0.83788744 </v>
    <v>       0.23622146       0.16477124       0.48261838 </v>
    <v>       0.01216080       0.33271916       0.00817944 </v>
    <v>       0.96638357       0.66025653       0.01911777 </v>
    <v>       0.25818171       0.82006349       0.17458000 </v>
    <v>       0.47509819       0.00032418       0.67037971 </v>
    <v>       0.24023978       0.81041155       0.83379063 </v>
    <v>       0.23818227       0.83120519       0.48985796 </v>
    <v>       0.72437019       0.49394241       0.17394791 </v>
    <v>       0.04256057       0.01254391       0.67838797 </v>
    <v>       0.52680156       0.66702741       0.34152125 </v>
    <v>       0.76651540       0.49523771       0.49143492 </v>
    <v>       0.97054125       0.65897053       0.32162090 </v>
    <v>       0.25848188       0.16988133       0.18376001 </v>
    <v>       0.97290144       0.65182371       0.66164248 </v>
    <v>       0.52778763       0.67777019       0.00837329 </v>
    <v>       0.73745829       0.83516203       0.17645800 </v>
    <v>       0.50693650       0.34142837       0.34563627 </v>
    <v>       0.99243753       0.34363750       0.32204669 </v>
    <v>       0.00770309       0.33423873       0.67458642 </v>
    <v>       0.47417302       0.31670585       0.00123261 </v>
    <v>       0.24073335       0.17911133       0.82912498 </v>
    <v>       0.50362534       0.99241411       0.32756013 </v>
    <v>       0.99850761       0.99747460       0.30906996 </v>
   </varray>
  </structure>
  <varray name="forces" >
   <v>       0.00196772       0.00584655      -0.01508048 </v>
   <v>       0.02554476      -0.01538280       0.00683374 </v>
   <v>       0.00033953      -0.00482656      -0.04995920 </v>
   <v>       0.00100778       0.00758071       0.04558909 </v>
   <v>      -0.03336696       0.00919788      -0.00289030 </v>
   <v>       0.00515005      -0.04309973      -0.01363444 </v>
   <v>       0.00299606      -0.01689615       0.00081369 </v>
   <v>      -0.01593873       0.03258246       0.00958283 </v>
   <v>      -0.01737340      -0.00681802       0.02372448 </v>
   <v>      -0.04368352      -0.01857381      -0.00171328 </v>
   <v>      -0.00638984      -0.02313822      -0.00256366 </v>
   <v>       0.01950417       0.00072856       0.02403314 </v>
   <v>      -0.00507778      -0.01833507       0.00436750 </v>
   <v>       0.00512703      -0.00747559       0.01228325 </v>
   <v>       0.03450879       0.02796115       0.00920492 </v>
   <v>      -0.01753475      -0.00114681      -0.02841130 </v>
   <v>       0.01995508       0.01275602      -0.00639730 </v>
   <v>      -0.05412843       0.00939359       0.00793655 </v>
   <v>       0.00162106       0.01990077      -0.01063868 </v>
   <v>       0.00305540       0.02545828       0.01884553 </v>
   <v>       0.00103483      -0.01284047       0.01904493 </v>
   <v>       0.04290327      -0.04375515      -0.02193761 </v>
   <v>      -0.00778537      -0.00070975      -0.00909889 </v>
   <v>      -0.00643548      -0.01031177      -0.01180017 </v>
   <v>       0.01505884      -0.00173426       0.00091402 </v>
   <v>      -0.00529132      -0.00241174       0.00184934 </v>
   <v>      -0.00806945       0.01583889       0.01536395 </v>
   <v>       0.01198573      -0.01454305      -0.00736953 </v>
   <v>      -0.00001260       0.01333377      -0.00293255 </v>
   <v>       0.00699753       0.00266452      -0.01124358 </v>
   <v>      -0.01223813       0.00161057      -0.00144562 </v>
   <v>       0.04240361       0.02725994      -0.01706126 </v>
   <v>      -0.03382870       0.01188774      -0.00273058 </v>
   <v>       0.01480189       0.01710968       0.01022871 </v>
   <v>       0.01298170      -0.00697087       0.00077626 </v>
   <v>      -0.00179035       0.00785874       0.00551650 </v>
  </varray>
  <varray name="stress" >
   <v>       0.59531338       0.30448372      -0.29809878 </v>
   <v>       0.30448370      -0.00900723       0.06440369 </v>
   <v>      -0.29809879       0.06440368      -0.18743096 </v>
  </varray>
  <energy>
   <i name="e_fr_energy">   -356.14098836 </i>
   <i name="e_wo_entrp">   -356.14808458 </i>
[...]
       <r>    7.1283    1.0000 </r>
       <r>    7.1892    1.0000 </r>
       <r>    7.2204    1.0000 </r>
       <r>    7.2618    1.0000 </r>
       <r>    7.2770    1.0000 </r>
       <r>    7.3337    1.0001 </r>
       <r>    7.3725    1.0002 </r>
       <r>    7.4040    1.0006 </r>
       <r>    7.4394    1.0018 </r>
       <r>    7.4609    1.0032 </r>
       <r>    7.4852    1.0059 </r>
       <r>    7.5211    1.0125 </r>
       <r>    7.5639    1.0246 </r>
       <r>    7.6207    1.0352 </r>
       <r>    7.6410    1.0297 </r>
       <r>    7.6632    1.0121 </r>
       <r>    7.7075    0.9242 </r>
       <r>    7.7666    0.6776 </r>
       <r>    7.8153    0.4076 </r>
       <r>    7.8256    0.3519 </r>
       <r>    7.8866    0.0868 </r>
       <r>    7.9273   -0.0030 </r>
       <r>    7.9775   -0.0353 </r>
       <r>    8.0119   -0.0310 </r>
       <r>    8.0372   -0.0236 </r>
       <r>    8.0855   -0.0105 </r>
       <r>    8.1116   -0.0060 </r>
       <r>    8.1332   -0.0036 </r>
       <r>    8.1938   -0.0006 </r>
       <r>    8.2228   -0.0002 </r>
       <r>    8.2487   -0.0001 </r>
       <r>    8.2731   -0.0000 </r>
       <r>    8.3118   -0.0000 </r>
       <r>    8.3921   -0.0000 </r>
       <r>    8.4517   -0.0000 </r>
       <r>    8.4819   -0.0000 </r>
       <r>    8.5539   -0.0000 </r>
       <r>    8.5990   -0.0000 </r>
       <r>    8.6701   -0.0000 </r>
       <r>    8.7417   -0.0000 </r>
       <r>    8.8044   -0.0000 </r>
       <r>    8.9418   -0.0000 </r>
       <r>    9.0884   -0.0000 </r>
       <r>    9.1650   -0.0000 </r>
       <r>    9.5348   -0.0000 </r>
       <r>    9.6097   -0.0000 </r>
       <r>    9.6744   -0.0000 </r>
       <r>    9.7142   -0.0000 </r>
       <r>    9.7791   -0.0000 </r>
      </set>
     </set>
    </set>
   </array>
  </eigenvalues>
  <separator name="orbital magnetization" >
   <v name="MAGDIPOLOUT">      0.00000000      0.00000000      0.00000000</v>
  </separator>
  <dos>
   <i name="efermi">      7.79885737 </i>
   <total>
    <array>
     <dimension dim="1">gridpoints</dimension>
     <dimension dim="2">spin</dimension>
     <field>energy</field>
     <field>total</field>
     <field>integrated</field>
     <set>
      <set comment="spin 1">
       <r>   -49.3429     0.0000     0.0000 </r>
       <r>   -49.1362     0.0000     0.0000 </r>
       <r>   -48.9296     0.0000     0.0000 </r>
       <r>   -48.7229     0.0000     0.0000 </r>
       <r>   -48.5163     0.0000     0.0000 </r>
       <r>   -48.3096     0.0000     0.0000 </r>
       <r>   -48.1030     0.0000     0.0000 </r>
       <r>   -47.8963    -0.0000    -0.0000 </r>
       <r>   -47.6897    -0.0000    -0.0000 </r>
       <r>   -47.4830    -0.0000    -0.0000 </r>
       <r>   -47.2764    -0.0000    -0.0000 </r>
       <r>   -47.0697    -0.0000    -0.0000 </r>
       <r>   -46.8631    -0.0572    -0.0118 </r>
       <r>   -46.6564    -2.4480    -0.5177 </r>
       <r>   -46.4498    47.7999     9.3602 </r>
       <r>   -46.2431    51.5537    20.0138 </r>
       <r>   -46.0365     9.5628    21.9900 </r>
       <r>   -45.8298     0.1045    22.0115 </r>
       <r>   -45.6232    -0.0558    22.0000 </r>
       <r>   -45.4165    -0.0000    22.0000 </r>
       <r>   -45.2099    -0.0000    22.0000 </r>
       <r>   -45.0032     0.0000    22.0000 </r>
       <r>   -44.7966     0.0000    22.0000 </r>
       <r>   -44.5899     0.0000    22.0000 </r>
       <r>   -44.3833     0.0000    22.0000 </r>
       <r>   -44.1766     0.0000    22.0000 </r>
       <r>   -43.9700     0.0000    22.0000 </r>
       <r>   -43.7633     0.0000    22.0000 </r>
       <r>   -43.5567     0.0000    22.0000 </r>
       <r>   -43.3500     0.0000    22.0000 </r>
       <r>   -43.1434     0.0000    22.0000 </r>
       <r>   -42.9367     0.0000    22.0000 </r>
       <r>   -42.7301     0.0000    22.0000 </r>
       <r>   -42.5234     0.0000    22.0000 </r>
       <r>   -42.3168     0.0000    22.0000 </r>
       <r>   -42.1101     0.0000    22.0000 </r>
       <r>   -41.9035     0.0000    22.0000 </r>
       <r>   -41.6968    -0.0000    22.0000 </r>
       <r>   -41.4902    -0.0000    22.0000 </r>
       <r>   -41.2835    -0.0000    22.0000 </r>
       <r>   -41.0769    -0.0000    22.0000 </r>
       <r>   -40.8702    -0.0081    21.9983 </r>
       <r>   -40.6636    -1.0255    21.7864 </r>
       <r>   -40.4569    14.0460    24.6890 </r>
       <r>   -40.2503    60.0596    37.1004 </r>
       <r>   -40.0436     4.8773    38.1083 </r>
       <r>   -39.8370    -0.5228    38.0003 </r>
       <r>   -39.6303    -0.0012    38.0000 </r>
       <r>   -39.4236    -0.0000    38.0000 </r>
       <r>   -39.2170    -0.0000    38.0000 </r>
       <r>   -39.0103     0.0000    38.0000 </r>
       <r>   -38.8037     0.0000    38.0000 </r>
       <r>   -38.5970     0.0000    38.0000 </r>
       <r>   -38.3904     0.0000    38.0000 </r>
       <r>   -38.1837     0.0000    38.0000 </r>
       <r>   -37.9771     0.0000    38.0000 </r>
       <r>   -37.7704     0.0000    38.0000 </r>
       <r>   -37.5638     0.0000    38.0000 </r>
       <r>   -37.3571     0.0000    38.0000 </r>
       <r>   -37.1505     0.0000    38.0000 </r>
       <r>   -36.9438     0.0000    38.0000 </r>
       <r>   -36.7372     0.0000    38.0000 </r>
       <r>   -36.5305     0.0000    38.0000 </r>
       <r>   -36.3239     0.0000    38.0000 </r>
       <r>   -36.1172     0.0000    38.0000 </r>
       <r>   -35.9106     0.0000    38.0000 </r>
       <r>   -35.7039     0.0000    38.0000 </r>
       <r>   -35.4973     0.0000    38.0000 </r>
       <r>   -35.2906     0.0000    38.0000 </r>
       <r>   -35.0840     0.0000    38.0000 </r>
       <r>   -34.8773     0.0000    38.0000 </r>
       <r>   -34.6707     0.0000    38.0000 </r>
       <r>   -34.4640     0.0000    38.0000 </r>
       <r>   -34.2574     0.0000    38.0000 </r>
       <r>   -34.0507     0.0000    38.0000 </r>
       <r>   -33.8441     0.0000    38.0000 </r>
       <r>   -33.6374     0.0000    38.0000 </r>
       <r>   -33.4308     0.0000    38.0000 </r>
       <r>   -33.2241     0.0000    38.0000 </r>
       <r>   -33.0175     0.0000    38.0000 </r>
       <r>   -32.8108     0.0000    38.0000 </r>
       <r>   -32.6042     0.0000    38.0000 </r>
       <r>   -32.3975     0.0000    38.0000 </r>
       <r>   -32.1909     0.0000    38.0000 </r>
       <r>   -31.9842     0.0000    38.0000 </r>
       <r>   -31.7776     0.0000    38.0000 </r>
       <r>   -31.5709     0.0000    38.0000 </r>
       <r>   -31.3643     0.0000    38.0000 </r>
       <r>   -31.1576     0.0000    38.0000 </r>
       <r>   -30.9510     0.0000    38.0000 </r>
       <r>   -30.7443     0.0000    38.0000 </r>
       <r>   -30.5377     0.0000    38.0000 </r>
       <r>   -30.3310     0.0000    38.0000 </r>
       <r>   -30.1244     0.0000    38.0000 </r>
       <r>   -29.9177     0.0000    38.0000 </r>
       <r>   -29.7111     0.0000    38.0000 </r>
       <r>   -29.5044     0.0000    38.0000 </r>
       <r>   -29.2978     0.0000    38.0000 </r>
       <r>   -29.0911     0.0000    38.0000 </r>
       <r>   -28.8845     0.0000    38.0000 </r>
       <r>   -28.6778     0.0000    38.0000 </r>
       <r>   -28.4712     0.0000    38.0000 </r>
       <r>   -28.2645     0.0000    38.0000 </r>
       <r>   -28.0579     0.0000    38.0000 </r>
       <r>   -27.8512     0.0000    38.0000 </r>
       <r>   -27.6445     0.0000    38.0000 </r>
       <r>   -27.4379     0.0000    38.0000 </r>
       <r>   -27.2312     0.0000    38.0000 </r>
       <r>   -27.0246     0.0000    38.0000 </r>
       <r>   -26.8179     0.0000    38.0000 </r>
       <r>   -26.6113     0.0000    38.0000 </r>
       <r>   -26.4046     0.0000    38.0000 </r>
       <r>   -26.1980     0.0000    38.0000 </r>
       <r>   -25.9913     0.0000    38.0000 </r>
       <r>   -25.7847     0.0000    38.0000 </r>
       <r>   -25.5780     0.0000    38.0000 </r>
       <r>   -25.3714     0.0000    38.0000 </r>
       <r>   -25.1647     0.0000    38.0000 </r>
       <r>   -24.9581     0.0000    38.0000 </r>
       <r>   -24.7514     0.0000    38.0000 </r>
       <r>   -24.5448     0.0000    38.0000 </r>
       <r>   -24.3381    -0.0000    38.0000 </r>
       <r>   -24.1315    -0.0000    38.0000 </r>
       <r>   -23.9248    -0.0000    38.0000 </r>
       <r>   -23.7182    -0.0000    38.0000 </r>
       <r>   -23.5115    -0.0000    38.0000 </r>
       <r>   -23.3049    -0.0394    37.9919 </r>
       <r>   -23.0982    -0.6110    37.8656 </r>
       <r>   -22.8916    15.5041    41.0695 </r>
       <r>   -22.6849    57.8457    53.0234 </r>
       <r>   -22.4783   147.5675    83.5184 </r>
       <r>   -22.2716    54.1093    94.7001 </r>
       <r>   -22.0650    37.3436   102.4172 </r>
       <r>   -21.8583     8.3029   104.1330 </r>
       <r>   -21.6517    -0.6387   104.0010 </r>
       <r>   -21.4450    -0.0047   104.0000 </r>
       <r>   -21.2384    -0.0000   104.0000 </r>
       <r>   -21.0317    -0.0000   104.0000 </r>
       <r>   -20.8251     0.0000   104.0000 </r>
       <r>   -20.6184     0.0000   104.0000 </r>
       <r>   -20.4118     0.0000   104.0000 </r>
       <r>   -20.2051     0.0000   104.0000 </r>
       <r>   -19.9985    -0.0000   104.0000 </r>
       <r>   -19.7918    -0.0000   104.0000 </r>
       <r>   -19.5852    -0.0000   104.0000 </r>
       <r>   -19.3785    -0.0000   104.0000 </r>
       <r>   -19.1719    -0.0078   103.9984 </r>
       <r>   -18.9652    -0.9430   103.8035 </r>
       <r>   -18.7586    12.2745   106.3400 </r>
       <r>   -18.5519    58.2323   118.3738 </r>
       <r>   -18.3453   112.8539   141.6952 </r>
       <r>   -18.1386    50.7140   152.1752 </r>
       <r>   -17.9320    -0.6654   152.0377 </r>
       <r>   -17.7253    -0.1825   152.0000 </r>
       <r>   -17.5187    -0.0002   152.0000 </r>
       <r>   -17.3120    -0.0000   152.0000 </r>
       <r>   -17.1054    -0.0000   152.0000 </r>
       <r>   -16.8987     0.0000   152.0000 </r>
       <r>   -16.6921     0.0000   152.0000 </r>
       <r>   -16.4854     0.0000   152.0000 </r>
       <r>   -16.2788     0.0000   152.0000 </r>
       <r>   -16.0721     0.0000   152.0000 </r>
       <r>   -15.8655     0.0000   152.0000 </r>
       <r>   -15.6588     0.0000   152.0000 </r>
       <r>   -15.4521     0.0000   152.0000 </r>
       <r>   -15.2455     0.0000   152.0000 </r>
       <r>   -15.0388     0.0000   152.0000 </r>
       <r>   -14.8322     0.0000   152.0000 </r>
       <r>   -14.6255     0.0000   152.0000 </r>
       <r>   -14.4189     0.0000   152.0000 </r>
       <r>   -14.2122     0.0000   152.0000 </r>
       <r>   -14.0056     0.0000   152.0000 </r>
       <r>   -13.7989     0.0000   152.0000 </r>
       <r>   -13.5923     0.0000   152.0000 </r>
       <r>   -13.3856     0.0000   152.0000 </r>
       <r>   -13.1790     0.0000   152.0000 </r>
       <r>   -12.9723     0.0000   152.0000 </r>
       <r>   -12.7657     0.0000   152.0000 </r>
       <r>   -12.5590     0.0000   152.0000 </r>
       <r>   -12.3524     0.0000   152.0000 </r>
       <r>   -12.1457     0.0000   152.0000 </r>
       <r>   -11.9391     0.0000   152.0000 </r>
       <r>   -11.7324     0.0000   152.0000 </r>
       <r>   -11.5258     0.0000   152.0000 </r>
       <r>   -11.3191     0.0000   152.0000 </r>
       <r>   -11.1125     0.0000   152.0000 </r>
       <r>   -10.9058     0.0000   152.0000 </r>
       <r>   -10.6992     0.0000   152.0000 </r>
       <r>   -10.4925     0.0000   152.0000 </r>
       <r>   -10.2859     0.0000   152.0000 </r>
       <r>   -10.0792     0.0000   152.0000 </r>
       <r>    -9.8726     0.0000   152.0000 </r>
       <r>    -9.6659     0.0000   152.0000 </r>
       <r>    -9.4593     0.0000   152.0000 </r>
       <r>    -9.2526     0.0000   152.0000 </r>
       <r>    -9.0460     0.0000   152.0000 </r>
       <r>    -8.8393     0.0000   152.0000 </r>
       <r>    -8.6327     0.0000   152.0000 </r>
       <r>    -8.4260     0.0000   152.0000 </r>
       <r>    -8.2194     0.0000   152.0000 </r>
       <r>    -8.0127     0.0000   152.0000 </r>
       <r>    -7.8061     0.0000   152.0000 </r>
       <r>    -7.5994     0.0000   152.0000 </r>
       <r>    -7.3928     0.0000   152.0000 </r>
       <r>    -7.1861     0.0000   152.0000 </r>
       <r>    -6.9795     0.0000   152.0000 </r>
       <r>    -6.7728     0.0000   152.0000 </r>
       <r>    -6.5662     0.0000   152.0000 </r>
       <r>    -6.3595     0.0000   152.0000 </r>
       <r>    -6.1529     0.0000   152.0000 </r>
       <r>    -5.9462     0.0000   152.0000 </r>
       <r>    -5.7396     0.0000   152.0000 </r>
       <r>    -5.5329     0.0000   152.0000 </r>
       <r>    -5.3263     0.0000   152.0000 </r>
       <r>    -5.1196     0.0000   152.0000 </r>
       <r>    -4.9130     0.0000   152.0000 </r>
       <r>    -4.7063     0.0000   152.0000 </r>
       <r>    -4.4997     0.0000   152.0000 </r>
       <r>    -4.2930     0.0000   152.0000 </r>
       <r>    -4.0864     0.0000   152.0000 </r>
       <r>    -3.8797     0.0000   152.0000 </r>
       <r>    -3.6730     0.0000   152.0000 </r>
       <r>    -3.4664     0.0000   152.0000 </r>
       <r>    -3.2597     0.0000   152.0000 </r>
       <r>    -3.0531     0.0000   152.0000 </r>
       <r>    -2.8464     0.0000   152.0000 </r>
       <r>    -2.6398     0.0000   152.0000 </r>
       <r>    -2.4331     0.0000   152.0000 </r>
       <r>    -2.2265     0.0000   152.0000 </r>
       <r>    -2.0198     0.0000   152.0000 </r>
       <r>    -1.8132     0.0000   152.0000 </r>
       <r>    -1.6065     0.0000   152.0000 </r>
       <r>    -1.3999     0.0000   152.0000 </r>
       <r>    -1.1932     0.0000   152.0000 </r>
       <r>    -0.9866     0.0000   152.0000 </r>
       <r>    -0.7799     0.0000   152.0000 </r>
       <r>    -0.5733     0.0000   152.0000 </r>
       <r>    -0.3666     0.0000   152.0000 </r>
       <r>    -0.1600    -0.0000   152.0000 </r>
       <r>     0.0467    -0.0000   152.0000 </r>
       <r>     0.2533    -0.0000   152.0000 </r>
       <r>     0.4600    -0.0000   152.0000 </r>
       <r>     0.6666    -0.0000   152.0000 </r>
       <r>     0.8733    -0.0045   151.9991 </r>
       <r>     1.0799     0.0401   152.0074 </r>
       <r>     1.2866     0.4689   152.1043 </r>
       <r>     1.4932     1.4862   152.4114 </r>
       <r>     1.6999     1.7635   152.7758 </r>
       <r>     1.9065     2.6425   153.3219 </r>
       <r>     2.1132     4.6551   154.2839 </r>
       <r>     2.3198     1.4676   154.5871 </r>
       <r>     2.5265     4.4931   155.5156 </r>
       <r>     2.7331     3.1353   156.1635 </r>
       <r>     2.9398     3.7926   156.9473 </r>
       <r>     3.1464     6.2844   158.2460 </r>
       <r>     3.3531     6.5991   159.6097 </r>
       <r>     3.5597     8.2194   161.3082 </r>
       <r>     3.7664     9.4557   163.2623 </r>
       <r>     3.9730     7.7702   164.8680 </r>
       <r>     4.1797    13.0948   167.5740 </r>
       <r>     4.3863    20.5093   171.8123 </r>
       <r>     4.5930    22.8072   176.5254 </r>
       <r>     4.7996    26.4620   181.9938 </r>
       <r>     5.0063    34.7608   189.1772 </r>
       <r>     5.2129    37.2407   196.8730 </r>
       <r>     5.4196    41.6309   205.4760 </r>
       <r>     5.6262    35.4741   212.8068 </r>
       <r>     5.8329    36.6372   220.3779 </r>
       <r>     6.0395    34.3055   227.4672 </r>
       <r>     6.2462    23.5588   232.3356 </r>
       <r>     6.4528    32.4206   239.0354 </r>
       <r>     6.6595    59.1057   251.2496 </r>
       <r>     6.8661    59.2159   263.4866 </r>
       <r>     7.0728    54.3280   274.7135 </r>
       <r>     7.2794    52.9505   285.6558 </r>
       <r>     7.4861    56.8970   297.4136 </r>
       <r>     7.6927    49.3059   307.6027 </r>
       <r>     7.8994    43.1637   316.5226 </r>
       <r>     8.1061    51.1281   327.0882 </r>
       <r>     8.3127    51.4867   337.7280 </r>
       <r>     8.5194    36.7550   345.3235 </r>
       <r>     8.7260    32.9266   352.1278 </r>
       <r>     8.9327    27.1690   357.7423 </r>
       <r>     9.1393    18.2703   361.5178 </r>
       <r>     9.3460    16.0350   364.8315 </r>
       <r>     9.5526    23.4312   369.6736 </r>
       <r>     9.7593    25.1812   374.8773 </r>
       <r>     9.9659     5.8034   376.0766 </r>
       <r>    10.1726    -0.3628   376.0016 </r>
       <r>    10.3792    -0.0077   376.0000 </r>
       <r>    10.5859    -0.0000   376.0000 </r>
       <r>    10.7925    -0.0000   376.0000 </r>
       <r>    10.9992     0.0000   376.0000 </r>
       <r>    11.2058     0.0000   376.0000 </r>
       <r>    11.4125     0.0000   376.0000 </r>
       <r>    11.6191     0.0000   376.0000 </r>
       <r>    11.8258     0.0000   376.0000 </r>
       <r>    12.0324     0.0000   376.0000 </r>
       <r>    12.2391     0.0000   376.0000 </r>
       <r>    12.4457     0.0000   376.0000 </r>
       <r>    12.6524     0.0000   376.0000 </r>
      </set>
     </set>
    </array>
   </total>
  </dos>
 </calculation>
 <structure name="finalpos" >
  <crystal>
   <varray name="basis" >
    <v>       7.00385936       0.04660730       0.01620405 </v>
    <v>       0.06821896      10.22515822       0.00251788 </v>
    <v>       0.02409648       0.00161637      10.26625343 </v>
   </varray>
   <i name="volume">    735.18693380 </i>
   <varray name="rec_basis" >
    <v>       0.14278554      -0.00095254      -0.00033499 </v>
    <v>      -0.00065080       0.09780234      -0.00001387 </v>
    <v>      -0.00022521      -0.00002248       0.09740705 </v>
   </varray>
  </crystal>
  <varray name="positions" >
   <v>       0.77414088       0.84397490       0.49779459 </v>
   <v>       0.01463786       0.00559573       0.00799888 </v>
   <v>       0.76922963       0.16488005       0.49795906 </v>
   <v>       0.73533899       0.17249600       0.17037968 </v>
   <v>       0.49235559       0.33111028       0.65465216 </v>
   <v>       0.77217071       0.84185797       0.82416673 </v>
   <v>       0.23492674       0.50727087       0.49437436 </v>
   <v>       0.73288494       0.48926349       0.84014368 </v>
   <v>       0.75794236       0.16787336       0.83089486 </v>
   <v>       0.48641888       0.00319120       0.99708023 </v>
   <v>       0.26998414       0.50772061       0.16945870 </v>
   <v>       0.52657081       0.66828056       0.65267576 </v>
   <v>       0.25414927       0.50863219       0.83790122 </v>
   <v>       0.23629541       0.16469570       0.48268614 </v>
   <v>       0.01261070       0.33307778       0.00829292 </v>
   <v>       0.96599960       0.66020877       0.01871339 </v>
   <v>       0.25864859       0.82006404       0.17429513 </v>
   <v>       0.47429989       0.00059984       0.67075016 </v>
   <v>       0.24026493       0.81046266       0.83371585 </v>
   <v>       0.23850534       0.83146137       0.49014916 </v>
   <v>       0.72447250       0.49390821       0.17412489 </v>
   <v>       0.04307956       0.01204533       0.67804336 </v>
   <v>       0.52672359       0.66706375       0.34137342 </v>
   <v>       0.76641054       0.49527537       0.49128049 </v>
   <v>       0.97101224       0.65900571       0.32161690 </v>
   <v>       0.25847448       0.16977032       0.18378590 </v>
   <v>       0.97252216       0.65200179       0.66174491 </v>
   <v>       0.52813569       0.67739520       0.00832895 </v>
   <v>       0.73760477       0.83516661       0.17637642 </v>
   <v>       0.50716185       0.34138373       0.34553494 </v>
   <v>       0.99213332       0.34360771       0.32222308 </v>
   <v>       0.00830618       0.33462562       0.67429680 </v>
   <v>       0.47348141       0.31678955       0.00132657 </v>
   <v>       0.24055223       0.17938397       0.82921250 </v>
   <v>       0.50400650       0.99227223       0.32750607 </v>
   <v>       0.99854473       0.99759151       0.30914215 </v>
  </varray>
 </structure>
</modeling>
