       N       E                     dE             d eps       ncg     rms          rms(c)
DAV:   1     0.172875000427E+04    0.17288E+04   -0.10532E+05  5208   0.104E+03
DAV:   2    -0.829417330090E+02   -0.18117E+04   -0.17382E+04  5236   0.361E+02
DAV:   3    -0.336487899381E+03   -0.25355E+03   -0.24013E+03  8120   0.105E+02
DAV:   4    -0.368693974743E+03   -0.32206E+02   -0.30692E+02  8224   0.315E+01
DAV:   5    -0.372039345731E+03   -0.33454E+01   -0.32656E+01  7424   0.101E+01    0.665E+01
RMM:   6    -0.362351731597E+03    0.96876E+01   -0.25958E+01  7121   0.979E+00    0.317E+01
RMM:   7    -0.366231261505E+03   -0.38795E+01   -0.34424E+01  7292   0.770E+00    0.144E+01
RMM:   8    -0.357796018856E+03    0.84352E+01   -0.92374E+00  7190   0.448E+00    0.457E+00
RMM:   9    -0.357312580104E+03    0.48344E+00   -0.29799E+00  7367   0.202E+00    0.284E+00
RMM:  10    -0.357329434916E+03   -0.16855E-01   -0.76612E-01  7458   0.119E+00    0.196E+00
RMM:  11    -0.357298266449E+03    0.31168E-01   -0.21136E-01  7297   0.669E-01    0.101E+00
RMM:  12    -0.357289800435E+03    0.84660E-02   -0.10484E-01  7425   0.471E-01    0.485E-01
RMM:  13    -0.357287289632E+03    0.25108E-02   -0.32250E-02  7435   0.248E-01    0.251E-01
RMM:  14    -0.357287364313E+03   -0.74681E-04   -0.12204E-02  7477   0.120E-01    0.158E-01
RMM:  15    -0.357287785030E+03   -0.42072E-03   -0.64398E-03  7482   0.809E-02    0.978E-02
RMM:  16    -0.357287938428E+03   -0.15340E-03   -0.28694E-03  7299   0.516E-02    0.548E-02
RMM:  17    -0.357287929628E+03    0.87994E-05   -0.12192E-03  6216   0.318E-02    0.270E-02
RMM:  18    -0.357287962320E+03   -0.32692E-04   -0.63989E-04  6105   0.243E-02    0.119E-02
RMM:  19    -0.357287984315E+03   -0.21995E-04   -0.26752E-04  5020   0.163E-02    0.877E-03
RMM:  20    -0.357287989135E+03   -0.48199E-05   -0.10099E-04  4147   0.119E-02    0.569E-03
RMM:  21    -0.357287992069E+03   -0.29344E-05   -0.62462E-05  4173   0.114E-02
   1 F= -.35728799E+03 E0= -.35729442E+03  d E =-.357288E+03
       N       E                     dE             d eps       ncg     rms          rms(c)
DAV:   1    -0.357357894272E+03   -0.69905E-01   -0.27530E+00  5728   0.512E+00    0.172E+00
RMM:   2    -0.357343399527E+03    0.14495E-01   -0.20206E-01  7007   0.115E+00    0.564E-01
RMM:   3    -0.357339153098E+03    0.42464E-02   -0.50966E-02  7485   0.409E-01    0.435E-01
RMM:   4    -0.357333381694E+03    0.57714E-02   -0.12270E-02  7513   0.219E-01    0.226E-01
RMM:   5    -0.357333017796E+03    0.36390E-03   -0.40816E-03  7479   0.110E-01    0.174E-01
RMM:   6    -0.357333060172E+03   -0.42376E-04   -0.14976E-03  7685   0.648E-02    0.106E-01
RMM:   7    -0.357333071306E+03   -0.11134E-04   -0.74014E-04  6887   0.450E-02    0.500E-02
RMM:   8    -0.357333093776E+03   -0.22470E-04   -0.35282E-04  6395   0.292E-02    0.380E-02
RMM:   9    -0.357333102951E+03   -0.91751E-05   -0.14919E-04  5369   0.214E-02    0.297E-02
RMM:  10    -0.357333107852E+03   -0.49013E-05   -0.66904E-05  4887   0.152E-02
   2 F= -.35733311E+03 E0= -.35733993E+03  d E =-.451158E-01
       N       E                     dE             d eps       ncg     rms          rms(c)
DAV:   1    -0.357569935346E+03   -0.23683E+00   -0.20430E+01  5324   0.139E+01    0.456E+00
RMM:   2    -0.357463398025E+03    0.10654E+00   -0.14708E+00  7020   0.312E+00    0.154E+00
RMM:   3    -0.357428312864E+03    0.35085E-01   -0.37129E-01  7510   0.110E+00    0.118E+00
RMM:   4    -0.357386907540E+03    0.41405E-01   -0.91156E-02  7515   0.596E-01    0.610E-01
RMM:   5    -0.357383853708E+03    0.30538E-02   -0.29190E-02  7456   0.306E-01    0.468E-01
RMM:   6    -0.357384421382E+03   -0.56767E-03   -0.11580E-02  8024   0.173E-01    0.287E-01
RMM:   7    -0.357384674111E+03   -0.25273E-03   -0.52743E-03  8085   0.127E-01    0.135E-01
RMM:   8    -0.357384938193E+03   -0.26408E-03   -0.28533E-03  7935   0.741E-02    0.108E-01
RMM:   9    -0.357385046238E+03   -0.10805E-03   -0.97219E-04  7401   0.496E-02    0.839E-02
RMM:  10    -0.357385133383E+03   -0.87145E-04   -0.39739E-04  6463   0.301E-02    0.530E-02
RMM:  11    -0.357385170682E+03   -0.37299E-04   -0.23221E-04  6055   0.253E-02    0.240E-02
RMM:  12    -0.357385171328E+03   -0.64621E-06   -0.14223E-04  5486   0.199E-02    0.103E-02
RMM:  13    -0.357385170247E+03    0.10814E-05   -0.60299E-05  4859   0.158E-02
   3 F= -.35738517E+03 E0= -.35739276E+03  d E =-.971782E-01
       N       E                     dE             d eps       ncg     rms          rms(c)
DAV:   1    -0.357425189653E+03   -0.40018E-01   -0.29103E+00  5056   0.491E+00    0.984E-01
RMM:   2    -0.357425710066E+03   -0.52041E-03   -0.12958E-01  7201   0.948E-01    0.382E-01
RMM:   3    -0.357423606918E+03    0.21031E-02   -0.22189E-02  7379   0.258E-01    0.296E-01
RMM:   4    -0.357421701734E+03    0.19052E-02   -0.54996E-03  7449   0.138E-01    0.168E-01
RMM:   5    -0.357421478659E+03    0.22307E-03   -0.21574E-03  7472   0.838E-02    0.116E-01
RMM:   6    -0.357421507621E+03   -0.28961E-04   -0.83212E-04  7575   0.460E-02    0.720E-02
RMM:   7    -0.357421523082E+03   -0.15461E-04   -0.37513E-04  6714   0.309E-02    0.444E-02
RMM:   8    -0.357421539426E+03   -0.16344E-04   -0.15634E-04  5664   0.200E-02    0.236E-02
RMM:   9    -0.357421556144E+03   -0.16717E-04   -0.85416E-05  5069   0.170E-02    0.145E-02
RMM:  10    -0.357421563741E+03   -0.75970E-05   -0.26894E-05  3966   0.123E-02
   4 F= -.35742156E+03 E0= -.35742893E+03  d E =-.363935E-01
       N       E                     dE             d eps       ncg     rms          rms(c)
DAV:   1    -0.357508099485E+03   -0.86543E-01   -0.24867E+01  4928   0.144E+01    0.291E+00
RMM:   2    -0.357511884068E+03   -0.37846E-02   -0.10994E+00  7195   0.277E+00    0.110E+00
RMM:   3    -0.357494146701E+03    0.17737E-01   -0.18526E-01  7377   0.757E-01    0.851E-01
RMM:   4    -0.357478053286E+03    0.16093E-01   -0.46704E-02  7489   0.407E-01    0.480E-01
RMM:   5    -0.357476353990E+03    0.16993E-02   -0.18131E-02  7498   0.238E-01    0.331E-01
RMM:   6    -0.357476600220E+03   -0.24623E-03   -0.67645E-03  7956   0.134E-01    0.207E-01
RMM:   7    -0.357476687032E+03   -0.86812E-04   -0.32504E-03  8433   0.838E-02    0.130E-01
RMM:   8    -0.357476805571E+03   -0.11854E-03   -0.14712E-03  8036   0.534E-02    0.721E-02
RMM:   9    -0.357476896778E+03   -0.91207E-04   -0.62949E-04  7216   0.387E-02    0.483E-02
RMM:  10    -0.357476949546E+03   -0.52768E-04   -0.24587E-04  6266   0.244E-02    0.296E-02
RMM:  11    -0.357476975109E+03   -0.25563E-04   -0.10230E-04  5365   0.180E-02    0.134E-02
RMM:  12    -0.357476985522E+03   -0.10412E-04   -0.54957E-05  4761   0.146E-02    0.548E-03
RMM:  13    -0.357476986363E+03   -0.84129E-06   -0.17138E-05  3576   0.115E-02
   5 F= -.35747699E+03 E0= -.35748340E+03  d E =-.918161E-01
       N       E                     dE             d eps       ncg     rms          rms(c)
DAV:   1    -0.357479869451E+03   -0.28839E-02   -0.11073E+00  5056   0.305E+00    0.610E-01
RMM:   2    -0.357480045198E+03   -0.17575E-03   -0.48401E-02  7182   0.586E-01    0.231E-01
RMM:   3    -0.357479364175E+03    0.68102E-03   -0.82022E-03  7368   0.160E-01    0.176E-01
RMM:   4    -0.357478685340E+03    0.67884E-03   -0.20729E-03  7448   0.837E-02    0.100E-01
RMM:   5    -0.357478619457E+03    0.65883E-04   -0.80655E-04  7420   0.512E-02    0.694E-02
RMM:   6    -0.357478640640E+03   -0.21183E-04   -0.31818E-04  6849   0.284E-02    0.431E-02
RMM:   7    -0.357478653939E+03   -0.13298E-04   -0.13825E-04  5842   0.203E-02    0.269E-02
RMM:   8    -0.357478664703E+03   -0.10764E-04   -0.66679E-05  4548   0.147E-02    0.137E-02
RMM:   9    -0.357478672946E+03   -0.82431E-05   -0.36568E-05  4284   0.127E-02
   6 F= -.35747867E+03 E0= -.35748484E+03  d E =-.935027E-01
       N       E                     dE             d eps       ncg     rms          rms(c)
DAV:   1    -0.357487460775E+03   -0.87961E-02   -0.90284E-01  4928   0.268E+00    0.220E-01
RMM:   2    -0.357489527915E+03   -0.20671E-02   -0.25077E-02  7233   0.436E-01    0.134E-01
RMM:   3    -0.357488890801E+03    0.63711E-03   -0.29584E-03  7256   0.113E-01    0.865E-02
RMM:   4    -0.357488840892E+03    0.49908E-04   -0.74865E-04  8153   0.427E-02    0.565E-02
RMM:   5    -0.357488830263E+03    0.10630E-04   -0.29999E-04  6984   0.272E-02    0.314E-02
RMM:   6    -0.357488823503E+03    0.67591E-05   -0.12002E-04  6053   0.178E-02    0.170E-02
RMM:   7    -0.357488819680E+03    0.38237E-05   -0.34410E-05  3631   0.114E-02
   7 F= -.35748882E+03 E0= -.35749501E+03  d E =-.101467E-01
       N       E                     dE             d eps       ncg     rms          rms(c)
DAV:   1    -0.357501491646E+03   -0.12668E-01   -0.81221E+00  4816   0.803E+00    0.657E-01
RMM:   2    -0.357520463225E+03   -0.18972E-01   -0.22709E-01  7221   0.132E+00    0.407E-01
RMM:   3    -0.357514599314E+03    0.58639E-02   -0.26686E-02  7363   0.337E-01    0.260E-01
RMM:   4    -0.357514187042E+03    0.41227E-03   -0.66217E-03  8236   0.128E-01    0.172E-01
RMM:   5    -0.357514110659E+03    0.76383E-04   -0.26510E-03  7996   0.811E-02    0.962E-02
RMM:   6    -0.357514050771E+03    0.59888E-04   -0.11009E-03  7983   0.534E-02    0.514E-02
RMM:   7    -0.357514033430E+03    0.17340E-04   -0.42566E-04  6828   0.274E-02    0.312E-02
RMM:   8    -0.357514039174E+03   -0.57433E-05   -0.19298E-04  5641   0.202E-02    0.181E-02
RMM:   9    -0.357514040239E+03   -0.10654E-05   -0.82469E-05  4654   0.148E-02
   8 F= -.35751404E+03 E0= -.35752028E+03  d E =-.353673E-01
       N       E                     dE             d eps       ncg     rms          rms(c)
DAV:   1    -0.357487796927E+03    0.26242E-01   -0.32465E+01  4816   0.161E+01    0.131E+00
RMM:   2    -0.357566186684E+03   -0.78390E-01   -0.92650E-01  7222   0.265E+00    0.823E-01
RMM:   3    -0.357542789570E+03    0.23397E-01   -0.10859E-01  7400   0.682E-01    0.527E-01
RMM:   4    -0.357541199793E+03    0.15898E-02   -0.26127E-02  8248   0.262E-01    0.356E-01
RMM:   5    -0.357540914136E+03    0.28566E-03   -0.10504E-02  8053   0.164E-01    0.202E-01
RMM:   6    -0.357540579972E+03    0.33416E-03   -0.43888E-03  8053   0.110E-01    0.104E-01
RMM:   7    -0.357540533694E+03    0.46278E-04   -0.18575E-03  8391   0.553E-02    0.648E-02
RMM:   8    -0.357540559163E+03   -0.25469E-04   -0.73394E-04  7349   0.345E-02    0.375E-02
RMM:   9    -0.357540567887E+03   -0.87240E-05   -0.29846E-04  6859   0.255E-02    0.135E-02
RMM:  10    -0.357540578653E+03   -0.10765E-04   -0.15624E-04  5936   0.177E-02    0.941E-03
RMM:  11    -0.357540579900E+03   -0.12476E-05   -0.50605E-05  4434   0.137E-02
   9 F= -.35754058E+03 E0= -.35754685E+03  d E =-.619070E-01
       N       E                     dE             d eps       ncg     rms          rms(c)
DAV:   1    -0.357537385882E+03    0.31928E-02   -0.30348E+00  4864   0.492E+00    0.391E-01
RMM:   2    -0.357544425728E+03   -0.70398E-02   -0.84724E-02  7216   0.801E-01    0.243E-01
RMM:   3    -0.357542324811E+03    0.21009E-02   -0.99457E-03  7283   0.207E-01    0.154E-01
RMM:   4    -0.357542187933E+03    0.13688E-03   -0.25289E-03  8310   0.780E-02    0.102E-01
RMM:   5    -0.357542165715E+03    0.22219E-04   -0.10284E-03  7794   0.500E-02    0.575E-02
RMM:   6    -0.357542143778E+03    0.21937E-04   -0.41877E-04  7340   0.326E-02    0.305E-02
RMM:   7    -0.357542135290E+03    0.84879E-05   -0.13267E-04  5053   0.169E-02    0.186E-02
RMM:   8    -0.357542139483E+03   -0.41935E-05   -0.98563E-05  4828   0.160E-02
  10 F= -.35754214E+03 E0= -.35754842E+03  d E =-.634665E-01
       N       E                     dE             d eps       ncg     rms          rms(c)
DAV:   1    -0.357579026613E+03   -0.36891E-01   -0.70573E+00  5128   0.801E+00    0.194E+00
RMM:   2    -0.357567893438E+03    0.11133E-01   -0.36546E-01  7147   0.158E+00    0.684E-01
RMM:   3    -0.357562679664E+03    0.52138E-02   -0.70671E-02  7445   0.494E-01    0.487E-01
RMM:   4    -0.357555960436E+03    0.67192E-02   -0.19683E-02  7509   0.270E-01    0.265E-01
RMM:   5    -0.357555665906E+03    0.29453E-03   -0.68423E-03  7533   0.142E-01    0.201E-01
RMM:   6    -0.357555807494E+03   -0.14159E-03   -0.24196E-03  8104   0.813E-02    0.121E-01
RMM:   7    -0.357555911589E+03   -0.10410E-03   -0.11303E-03  7818   0.525E-02    0.663E-02
RMM:   8    -0.357555985298E+03   -0.73709E-04   -0.50504E-04  6657   0.342E-02    0.440E-02
RMM:   9    -0.357556036096E+03   -0.50799E-04   -0.23011E-04  6216   0.259E-02    0.341E-02
RMM:  10    -0.357556078060E+03   -0.41963E-04   -0.11181E-04  5382   0.189E-02    0.190E-02
RMM:  11    -0.357556096940E+03   -0.18880E-04   -0.52224E-05  4494   0.146E-02    0.932E-03
RMM:  12    -0.357556104721E+03   -0.77813E-05   -0.29482E-05  3995   0.129E-02
  11 F= -.35755610E+03 E0= -.35756215E+03  d E =-.139652E-01
       N       E                     dE             d eps       ncg     rms          rms(c)
DAV:   1    -0.357558584259E+03   -0.24873E-02   -0.56199E-01  5208   0.226E+00    0.545E-01
RMM:   2    -0.357557713560E+03    0.87070E-03   -0.28864E-02  7141   0.449E-01    0.191E-01
RMM:   3    -0.357557308659E+03    0.40490E-03   -0.55001E-03  7430   0.139E-01    0.136E-01
RMM:   4    -0.357556783574E+03    0.52509E-03   -0.15586E-03  7491   0.752E-02    0.730E-02
RMM:   5    -0.357556770134E+03    0.13440E-04   -0.53127E-04  7422   0.413E-02    0.557E-02
RMM:   6    -0.357556793737E+03   -0.23602E-04   -0.20129E-04  6679   0.228E-02    0.343E-02
RMM:   7    -0.357556810792E+03   -0.17056E-04   -0.76207E-05  5169   0.168E-02    0.195E-02
RMM:   8    -0.357556823060E+03   -0.12268E-04   -0.46795E-05  4301   0.136E-02    0.118E-02
RMM:   9    -0.357556831702E+03   -0.86421E-05   -0.27689E-05  3858   0.123E-02
  12 F= -.35755683E+03 E0= -.35756281E+03  d E =-.146922E-01
       N       E                     dE             d eps       ncg     rms          rms(c)
DAV:   1    -0.357565375313E+03   -0.85523E-02   -0.32011E+00  4824   0.517E+00    0.637E-01
RMM:   2    -0.357570800303E+03   -0.54250E-02   -0.10835E-01  7277   0.921E-01    0.291E-01
RMM:   3    -0.357569791330E+03    0.10090E-02   -0.13920E-02  7413   0.232E-01    0.206E-01
RMM:   4    -0.357569157222E+03    0.63411E-03   -0.36743E-03  7393   0.101E-01    0.129E-01
RMM:   5    -0.357569043737E+03    0.11349E-03   -0.15072E-03  7432   0.659E-02    0.787E-02
RMM:   6    -0.357569010815E+03    0.32922E-04   -0.57892E-04  7649   0.384E-02    0.481E-02
RMM:   7    -0.357569006765E+03    0.40502E-05   -0.22884E-04  5778   0.214E-02    0.313E-02
RMM:   8    -0.357569001169E+03    0.55961E-05   -0.10558E-04  5129   0.174E-02    0.153E-02
RMM:   9    -0.357569001604E+03   -0.43523E-06   -0.57354E-05  4760   0.142E-02
  13 F= -.35756900E+03 E0= -.35757501E+03  d E =-.121699E-01
       N       E                     dE             d eps       ncg     rms          rms(c)
DAV:   1    -0.357568775463E+03    0.22571E-03   -0.91732E+00  4816   0.875E+00    0.106E+00
RMM:   2    -0.357584563848E+03   -0.15788E-01   -0.30897E-01  7277   0.156E+00    0.487E-01
RMM:   3    -0.357581818092E+03    0.27458E-02   -0.39340E-02  7416   0.390E-01    0.343E-01
RMM:   4    -0.357580100211E+03    0.17179E-02   -0.10386E-02  7417   0.171E-01    0.215E-01
RMM:   5    -0.357579805100E+03    0.29511E-03   -0.42506E-03  7408   0.111E-01    0.131E-01
RMM:   6    -0.357579729834E+03    0.75266E-04   -0.16390E-03  8015   0.643E-02    0.809E-02
RMM:   7    -0.357579741532E+03   -0.11698E-04   -0.73017E-04  7218   0.363E-02    0.530E-02
RMM:   8    -0.357579730788E+03    0.10744E-04   -0.27212E-04  6007   0.244E-02    0.278E-02
RMM:   9    -0.357579738793E+03   -0.80044E-05   -0.16186E-04  5569   0.209E-02    0.180E-02
RMM:  10    -0.357579738243E+03    0.54979E-06   -0.64008E-05  4808   0.154E-02
  14 F= -.35757974E+03 E0= -.35758576E+03  d E =-.229065E-01
       N       E                     dE             d eps       ncg     rms          rms(c)
DAV:   1    -0.357579239084E+03    0.49971E-03   -0.11053E+00  4880   0.304E+00    0.369E-01
RMM:   2    -0.357581117169E+03   -0.18781E-02   -0.37172E-02  7274   0.539E-01    0.167E-01
RMM:   3    -0.357580786976E+03    0.33019E-03   -0.47679E-03  7298   0.135E-01    0.116E-01
RMM:   4    -0.357580589996E+03    0.19698E-03   -0.13055E-03  7451   0.593E-02    0.721E-02
RMM:   5    -0.357580558423E+03    0.31573E-04   -0.53538E-04  7438   0.387E-02    0.446E-02
RMM:   6    -0.357580548384E+03    0.10038E-04   -0.20684E-04  6562   0.228E-02    0.280E-02
RMM:   7    -0.357580545132E+03    0.32522E-05   -0.73184E-05  4714   0.147E-02
  15 F= -.35758055E+03 E0= -.35758655E+03  d E =-.237134E-01
       N       E                     dE             d eps       ncg     rms          rms(c)
DAV:   1    -0.357585112711E+03   -0.45643E-02   -0.12404E+00  4872   0.314E+00    0.223E-01
RMM:   2    -0.357587528073E+03   -0.24154E-02   -0.33472E-02  7083   0.526E-01    0.121E-01
RMM:   3    -0.357587393656E+03    0.13442E-03   -0.45086E-03  7226   0.139E-01    0.938E-02
RMM:   4    -0.357587283435E+03    0.11022E-03   -0.10775E-03  8325   0.517E-02    0.522E-02
RMM:   5    -0.357587288184E+03   -0.47493E-05   -0.45109E-04  7322   0.334E-02    0.280E-02
RMM:   6    -0.357587285464E+03    0.27197E-05   -0.17297E-04  5796   0.196E-02    0.145E-02
RMM:   7    -0.357587287736E+03   -0.22723E-05   -0.61362E-05  4517   0.139E-02
  16 F= -.35758729E+03 E0= -.35759325E+03  d E =-.674260E-02
       N       E                     dE             d eps       ncg     rms          rms(c)
DAV:   1    -0.357583507753E+03    0.37777E-02   -0.96428E+00  4816   0.877E+00    0.621E-01
RMM:   2    -0.357602352171E+03   -0.18844E-01   -0.26058E-01  7054   0.147E+00    0.332E-01
RMM:   3    -0.357601358981E+03    0.99319E-03   -0.35052E-02  7292   0.388E-01    0.257E-01
RMM:   4    -0.357600513016E+03    0.84596E-03   -0.81140E-03  8372   0.143E-01    0.143E-01
RMM:   5    -0.357600554401E+03   -0.41384E-04   -0.34474E-03  8194   0.920E-02    0.781E-02
RMM:   6    -0.357600542855E+03    0.11545E-04   -0.13118E-03  8441   0.533E-02    0.400E-02
RMM:   7    -0.357600570432E+03   -0.27577E-04   -0.53831E-04  7421   0.284E-02    0.270E-02
RMM:   8    -0.357600578079E+03   -0.76471E-05   -0.16647E-04  6312   0.208E-02    0.147E-02
RMM:   9    -0.357600584089E+03   -0.60094E-05   -0.77963E-05  4834   0.157E-02
  17 F= -.35760058E+03 E0= -.35760644E+03  d E =-.200390E-01
       N       E                     dE             d eps       ncg     rms          rms(c)
DAV:   1    -0.357531171087E+03    0.69407E-01   -0.38545E+01  4816   0.175E+01    0.126E+00
RMM:   2    -0.357607788232E+03   -0.76617E-01   -0.10571E+00  7048   0.295E+00    0.657E-01
RMM:   3    -0.357604385497E+03    0.34027E-02   -0.14274E-01  7377   0.786E-01    0.508E-01
RMM:   4    -0.357601163531E+03    0.32220E-02   -0.32281E-02  8344   0.290E-01    0.287E-01
RMM:   5    -0.357601300333E+03   -0.13680E-03   -0.13704E-02  8285   0.183E-01    0.160E-01
RMM:   6    -0.357601238939E+03    0.61394E-04   -0.51065E-03  8499   0.107E-01    0.797E-02
RMM:   7    -0.357601358823E+03   -0.11988E-03   -0.21939E-03  8545   0.573E-02    0.550E-02
RMM:   8    -0.357601389831E+03   -0.31008E-04   -0.72259E-04  7634   0.362E-02    0.307E-02
RMM:   9    -0.357601412509E+03   -0.22678E-04   -0.32068E-04  7097   0.274E-02    0.125E-02
RMM:  10    -0.357601427958E+03   -0.15449E-04   -0.17700E-04  5970   0.186E-02    0.709E-03
RMM:  11    -0.357601431118E+03   -0.31606E-05   -0.56730E-05  4822   0.142E-02
  18 F= -.35760143E+03 E0= -.35760707E+03  d E =-.208860E-01
       N       E                     dE             d eps       ncg     rms          rms(c)
DAV:   1    -0.357588705374E+03    0.12723E-01   -0.95905E+00  4816   0.873E+00    0.619E-01
RMM:   2    -0.357607395636E+03   -0.18690E-01   -0.25788E-01  7007   0.146E+00    0.339E-01
RMM:   3    -0.357606334351E+03    0.10613E-02   -0.33912E-02  7309   0.385E-01    0.259E-01
RMM:   4    -0.357605496936E+03    0.83742E-03   -0.75418E-03  8339   0.138E-01    0.150E-01
RMM:   5    -0.357605509337E+03   -0.12401E-04   -0.33041E-03  8204   0.914E-02    0.781E-02
RMM:   6    -0.357605455572E+03    0.53765E-04   -0.11993E-03  8311   0.514E-02    0.385E-02
RMM:   7    -0.357605481976E+03   -0.26404E-04   -0.48883E-04  7250   0.268E-02    0.257E-02
RMM:   8    -0.357605485628E+03   -0.36524E-05   -0.14956E-04  5945   0.197E-02    0.142E-02
RMM:   9    -0.357605489651E+03   -0.40227E-05   -0.75732E-05  4623   0.146E-02
  19 F= -.35760549E+03 E0= -.35761123E+03  d E =-.249445E-01
       N       E                     dE             d eps       ncg     rms          rms(c)
DAV:   1    -0.357612898837E+03   -0.74132E-02   -0.57348E+00  4816   0.687E+00    0.105E+00
RMM:   2    -0.357619343679E+03   -0.64448E-02   -0.20906E-01  7279   0.124E+00    0.454E-01
RMM:   3    -0.357616335401E+03    0.30083E-02   -0.28295E-02  7396   0.319E-01    0.316E-01
RMM:   4    -0.357614288115E+03    0.20473E-02   -0.73999E-03  7347   0.160E-01    0.185E-01
RMM:   5    -0.357614030096E+03    0.25802E-03   -0.29611E-03  7506   0.932E-02    0.125E-01
RMM:   6    -0.357613973799E+03    0.56297E-04   -0.11068E-03  7846   0.531E-02    0.784E-02
RMM:   7    -0.357613960908E+03    0.12891E-04   -0.51898E-04  6791   0.326E-02    0.464E-02
RMM:   8    -0.357613955803E+03    0.51051E-05   -0.20123E-04  5708   0.236E-02    0.261E-02
RMM:   9    -0.357613962065E+03   -0.62623E-05   -0.12645E-04  5387   0.192E-02    0.188E-02
RMM:  10    -0.357613962518E+03   -0.45339E-06   -0.52722E-05  4797   0.145E-02
  20 F= -.35761396E+03 E0= -.35761956E+03  d E =-.847287E-02
       N       E                     dE             d eps       ncg     rms          rms(c)
DAV:   1    -0.357614931403E+03   -0.96934E-03   -0.20130E+00  4832   0.407E+00    0.618E-01
RMM:   2    -0.357617182692E+03   -0.22513E-02   -0.73303E-02  7279   0.733E-01    0.266E-01
RMM:   3    -0.357616148103E+03    0.10346E-02   -0.99730E-03  7317   0.187E-01    0.184E-01
RMM:   4    -0.357615463984E+03    0.68412E-03   -0.27090E-03  7377   0.949E-02    0.107E-01
RMM:   5    -0.357615385804E+03    0.78181E-04   -0.11033E-03  7556   0.556E-02    0.728E-02
RMM:   6    -0.357615368161E+03    0.17643E-04   -0.41631E-04  7155   0.319E-02    0.463E-02
RMM:   7    -0.357615360970E+03    0.71908E-05   -0.17820E-04  5740   0.206E-02    0.280E-02
RMM:   8    -0.357615359362E+03    0.16078E-05   -0.98679E-05  5013   0.176E-02
  21 F= -.35761536E+03 E0= -.35762084E+03  d E =-.986971E-02
       N       E                     dE             d eps       ncg     rms          rms(c)
DAV:   1    -0.357620368668E+03   -0.50077E-02   -0.18415E+00  5040   0.392E+00    0.637E-01
RMM:   2    -0.357621691480E+03   -0.13228E-02   -0.68091E-02  7273   0.707E-01    0.256E-01
RMM:   3    -0.357620990238E+03    0.70124E-03   -0.98043E-03  7408   0.192E-01    0.167E-01
RMM:   4    -0.357620465572E+03    0.52467E-03   -0.30522E-03  7517   0.970E-02    0.973E-02
RMM:   5    -0.357620438738E+03    0.26834E-04   -0.10658E-03  7744   0.556E-02    0.695E-02
RMM:   6    -0.357620446092E+03   -0.73544E-05   -0.42785E-04  7174   0.320E-02    0.429E-02
RMM:   7    -0.357620461432E+03   -0.15340E-04   -0.15526E-04  5624   0.227E-02    0.229E-02
RMM:   8    -0.357620473045E+03   -0.11613E-04   -0.81105E-05  4951   0.161E-02    0.125E-02
RMM:   9    -0.357620480276E+03   -0.72312E-05   -0.40574E-05  4358   0.132E-02
  22 F= -.35762048E+03 E0= -.35762577E+03  d E =-.512091E-02
       N       E                     dE             d eps       ncg     rms          rms(c)
DAV:   1    -0.357622923694E+03   -0.24506E-02   -0.25755E+00  5040   0.463E+00    0.746E-01
RMM:   2    -0.357624838317E+03   -0.19146E-02   -0.94230E-02  7267   0.834E-01    0.296E-01
RMM:   3    -0.357623883847E+03    0.95447E-03   -0.13205E-02  7409   0.226E-01    0.192E-01
RMM:   4    -0.357623191504E+03    0.69234E-03   -0.41208E-03  7523   0.112E-01    0.112E-01
RMM:   5    -0.357623171386E+03    0.20118E-04   -0.14389E-03  7851   0.652E-02    0.812E-02
RMM:   6    -0.357623189007E+03   -0.17620E-04   -0.58758E-04  7559   0.375E-02    0.513E-02
RMM:   7    -0.357623215403E+03   -0.26396E-04   -0.22076E-04  6150   0.259E-02    0.280E-02
RMM:   8    -0.357623233480E+03   -0.18077E-04   -0.11232E-04  5298   0.184E-02    0.163E-02
RMM:   9    -0.357623244925E+03   -0.11445E-04   -0.59502E-05  4801   0.148E-02    0.113E-02
RMM:  10    -0.357623252419E+03   -0.74944E-05   -0.21173E-05  3681   0.117E-02
  23 F= -.35762325E+03 E0= -.35762831E+03  d E =-.789306E-02
       N       E                     dE             d eps       ncg     rms          rms(c)
DAV:   1    -0.357623319441E+03   -0.74516E-04   -0.13713E-01  5128   0.107E+00    0.170E-01
RMM:   2    -0.357623438211E+03   -0.11877E-03   -0.50179E-03  7246   0.192E-01    0.672E-02
RMM:   3    -0.357623394709E+03    0.43501E-04   -0.70842E-04  7326   0.519E-02    0.433E-02
RMM:   4    -0.357623362472E+03    0.32238E-04   -0.22792E-04  7117   0.254E-02    0.254E-02
RMM:   5    -0.357623364474E+03   -0.20022E-05   -0.76768E-05  4915   0.154E-02
  24 F= -.35762336E+03 E0= -.35762838E+03  d E =-.800511E-02
       N       E                     dE             d eps       ncg     rms          rms(c)
DAV:   1    -0.357624423489E+03   -0.10610E-02   -0.22436E-01  4912   0.134E+00    0.954E-02
RMM:   2    -0.357624882923E+03   -0.45943E-03   -0.61511E-03  7176   0.223E-01    0.505E-02
RMM:   3    -0.357624858322E+03    0.24601E-04   -0.72709E-04  7027   0.604E-02    0.359E-02
RMM:   4    -0.357624853654E+03    0.46673E-05   -0.20529E-04  7272   0.228E-02    0.212E-02
RMM:   5    -0.357624853722E+03   -0.67233E-07   -0.62073E-05  4132   0.130E-02
  25 F= -.35762485E+03 E0= -.35762987E+03  d E =-.148925E-02
       N       E                     dE             d eps       ncg     rms          rms(c)
DAV:   1    -0.357624191483E+03    0.66217E-03   -0.20195E+00  4824   0.403E+00    0.281E-01
RMM:   2    -0.357628290612E+03   -0.40991E-02   -0.55204E-02  7192   0.670E-01    0.147E-01
RMM:   3    -0.357628079402E+03    0.21121E-03   -0.67532E-03  7239   0.180E-01    0.105E-01
RMM:   4    -0.357627993828E+03    0.85574E-04   -0.15608E-03  8292   0.645E-02    0.635E-02
RMM:   5    -0.357627996651E+03   -0.28229E-05   -0.63035E-04  7679   0.397E-02    0.354E-02
RMM:   6    -0.357627985343E+03    0.11307E-04   -0.25128E-04  6749   0.250E-02    0.173E-02
RMM:   7    -0.357627989304E+03   -0.39606E-05   -0.79811E-05  4970   0.154E-02
  26 F= -.35762799E+03 E0= -.35763304E+03  d E =-.462483E-02
       N       E                     dE             d eps       ncg     rms          rms(c)
DAV:   1    -0.357613304378E+03    0.14681E-01   -0.80793E+00  4816   0.807E+00    0.563E-01
RMM:   2    -0.357629736200E+03   -0.16432E-01   -0.22110E-01  7180   0.134E+00    0.294E-01
RMM:   3    -0.357628847302E+03    0.88890E-03   -0.26572E-02  7295   0.358E-01    0.209E-01
RMM:   4    -0.357628509571E+03    0.33773E-03   -0.60498E-03  8359   0.127E-01    0.127E-01
RMM:   5    -0.357628513718E+03   -0.41470E-05   -0.24829E-03  8014   0.789E-02    0.708E-02
RMM:   6    -0.357628471027E+03    0.42691E-04   -0.95548E-04  8144   0.487E-02    0.349E-02
RMM:   7    -0.357628493357E+03   -0.22331E-04   -0.35820E-04  6709   0.251E-02    0.216E-02
RMM:   8    -0.357628500893E+03   -0.75360E-05   -0.14127E-04  5797   0.193E-02    0.119E-02
RMM:   9    -0.357628504059E+03   -0.31661E-05   -0.60774E-05  4887   0.150E-02
  27 F= -.35762850E+03 E0= -.35763356E+03  d E =-.513959E-02
       N       E                     dE             d eps       ncg     rms          rms(c)
DAV:   1    -0.357626286533E+03    0.22144E-02   -0.16737E+00  4824   0.367E+00    0.254E-01
RMM:   2    -0.357629562217E+03   -0.32757E-02   -0.44776E-02  7089   0.607E-01    0.130E-01
RMM:   3    -0.357629321597E+03    0.24062E-03   -0.49958E-03  7222   0.162E-01    0.940E-02
RMM:   4    -0.357629235220E+03    0.86376E-04   -0.11221E-03  8277   0.564E-02    0.554E-02
RMM:   5    -0.357629235914E+03   -0.69345E-06   -0.45759E-04  7663   0.342E-02    0.313E-02
RMM:   6    -0.357629227640E+03    0.82733E-05   -0.16779E-04  6535   0.215E-02    0.150E-02
RMM:   7    -0.357629230375E+03   -0.27350E-05   -0.42321E-05  4123   0.137E-02
  28 F= -.35762923E+03 E0= -.35763429E+03  d E =-.586590E-02
       N       E                     dE             d eps       ncg     rms          rms(c)
DAV:   1    -0.357630013906E+03   -0.78627E-03   -0.63305E-01  4824   0.229E+00    0.257E-01
RMM:   2    -0.357631139846E+03   -0.11259E-02   -0.20421E-02  7275   0.401E-01    0.124E-01
RMM:   3    -0.357630892267E+03    0.24758E-03   -0.24999E-03  7293   0.104E-01    0.873E-02
RMM:   4    -0.357630773222E+03    0.11905E-03   -0.58144E-04  7550   0.446E-02    0.524E-02
RMM:   5    -0.357630764453E+03    0.87684E-05   -0.25199E-04  7310   0.279E-02    0.309E-02
RMM:   6    -0.357630765182E+03   -0.72836E-06   -0.91348E-05  5086   0.161E-02
  29 F= -.35763077E+03 E0= -.35763580E+03  d E =-.153481E-02
       N       E                     dE             d eps       ncg     rms          rms(c)
DAV:   1    -0.357629315185E+03    0.14493E-02   -0.21514E+00  4816   0.422E+00    0.476E-01
RMM:   2    -0.357633164180E+03   -0.38490E-02   -0.70418E-02  7275   0.742E-01    0.231E-01
RMM:   3    -0.357632353019E+03    0.81116E-03   -0.89939E-03  7276   0.192E-01    0.163E-01
RMM:   4    -0.357631961521E+03    0.39150E-03   -0.21709E-03  7696   0.842E-02    0.989E-02
RMM:   5    -0.357631937747E+03    0.23774E-04   -0.95819E-04  7615   0.531E-02    0.585E-02
RMM:   6    -0.357631939631E+03   -0.18834E-05   -0.36134E-04  7106   0.304E-02    0.364E-02
RMM:   7    -0.357631952097E+03   -0.12466E-04   -0.12846E-04  5319   0.184E-02    0.222E-02
RMM:   8    -0.357631961096E+03   -0.89987E-05   -0.78957E-05  4889   0.163E-02
  30 F= -.35763196E+03 E0= -.35763697E+03  d E =-.273072E-02
       N       E                     dE             d eps       ncg     rms          rms(c)
DAV:   1    -0.357633507087E+03   -0.15550E-02   -0.32743E-01  5128   0.169E+00    0.360E-01
RMM:   2    -0.357633336761E+03    0.17033E-03   -0.15270E-02  7238   0.331E-01    0.133E-01
RMM:   3    -0.357633116323E+03    0.22044E-03   -0.25461E-03  7420   0.996E-02    0.908E-02
RMM:   4    -0.357632923095E+03    0.19323E-03   -0.77815E-04  7519   0.512E-02    0.512E-02
RMM:   5    -0.357632901657E+03    0.21438E-04   -0.26360E-04  6885   0.293E-02    0.392E-02
RMM:   6    -0.357632892901E+03    0.87554E-05   -0.11058E-04  6010   0.170E-02    0.233E-02
RMM:   7    -0.357632885406E+03    0.74953E-05   -0.38580E-05  3806   0.134E-02
  31 F= -.35763289E+03 E0= -.35763793E+03  d E =-.924310E-03
       N       E                     dE             d eps       ncg     rms          rms(c)
DAV:   1    -0.357634255687E+03   -0.13628E-02   -0.59626E-01  5040   0.228E+00    0.478E-01
RMM:   2    -0.357633935961E+03    0.31973E-03   -0.27330E-02  7196   0.444E-01    0.174E-01
RMM:   3    -0.357633517167E+03    0.41879E-03   -0.43324E-03  7372   0.132E-01    0.118E-01
RMM:   4    -0.357633179844E+03    0.33732E-03   -0.13191E-03  7511   0.674E-02    0.672E-02
RMM:   5    -0.357633149197E+03    0.30647E-04   -0.45331E-04  7426   0.380E-02    0.521E-02
RMM:   6    -0.357633141499E+03    0.76974E-05   -0.18486E-04  6587   0.217E-02    0.320E-02
RMM:   7    -0.357633134773E+03    0.67267E-05   -0.68003E-05  4829   0.168E-02
  32 F= -.35763313E+03 E0= -.35763824E+03  d E =-.117368E-02
       N       E                     dE             d eps       ncg     rms          rms(c)
DAV:   1    -0.357633193515E+03   -0.52016E-04   -0.13788E-02  5440   0.347E-01    0.782E-02
RMM:   2    -0.357633183459E+03    0.10056E-04   -0.66289E-04  7162   0.673E-02    0.315E-02
RMM:   3    -0.357633172428E+03    0.11031E-04   -0.11547E-04  5929   0.209E-02    0.220E-02
RMM:   4    -0.357633160072E+03    0.12356E-04   -0.31653E-05  3180   0.139E-02    0.127E-02
RMM:   5    -0.357633158381E+03    0.16915E-05   -0.10578E-05  2709   0.109E-02
  33 F= -.35763316E+03 E0= -.35763825E+03  d E =-.119729E-02
       N       E                     dE             d eps       ncg     rms          rms(c)
DAV:   1    -0.357633296851E+03   -0.13678E-03   -0.10733E-01  5112   0.969E-01    0.202E-01
RMM:   2    -0.357633231183E+03    0.65668E-04   -0.49330E-03  7212   0.189E-01    0.744E-02
RMM:   3    -0.357633159634E+03    0.71549E-04   -0.77807E-04  7365   0.566E-02    0.514E-02
RMM:   4    -0.357633101164E+03    0.58470E-04   -0.23753E-04  7384   0.286E-02    0.292E-02
RMM:   5    -0.357633100064E+03    0.11000E-05   -0.76189E-05  5894   0.166E-02
  34 F= -.35763310E+03 E0= -.35763818E+03  d E =-.113897E-02
       N       E                     dE             d eps       ncg     rms          rms(c)
DAV:   1    -0.357633268686E+03   -0.16752E-03   -0.49833E-02  5184   0.659E-01    0.146E-01
RMM:   2    -0.357633251525E+03    0.17161E-04   -0.23164E-03  7114   0.128E-01    0.536E-02
RMM:   3    -0.357633218875E+03    0.32650E-04   -0.37599E-04  7363   0.398E-02    0.354E-02
RMM:   4    -0.357633184796E+03    0.34080E-04   -0.10552E-04  6426   0.195E-02    0.181E-02
RMM:   5    -0.357633177897E+03    0.68989E-05   -0.25215E-05  2963   0.123E-02
  35 F= -.35763318E+03 E0= -.35763826E+03  d E =-.121680E-02
       N       E                     dE             d eps       ncg     rms          rms(c)
DAV:   1    -0.357633414398E+03   -0.22960E-03   -0.84493E-02  4824   0.807E-01    0.613E-02
RMM:   2    -0.357633593770E+03   -0.17937E-03   -0.23100E-03  7092   0.135E-01    0.316E-02
RMM:   3    -0.357633580564E+03    0.13207E-04   -0.27353E-04  6622   0.388E-02    0.238E-02
RMM:   4    -0.357633576802E+03    0.37613E-05   -0.74827E-05  4819   0.140E-02
  36 F= -.35763358E+03 E0= -.35763867E+03  d E =-.398906E-03
       N       E                     dE             d eps       ncg     rms          rms(c)
DAV:   1    -0.357633007910E+03    0.57265E-03   -0.76011E-01  4816   0.242E+00    0.180E-01
RMM:   2    -0.357634646180E+03   -0.16383E-02   -0.20569E-02  7171   0.402E-01    0.953E-02
RMM:   3    -0.357634547782E+03    0.98398E-04   -0.25523E-03  7226   0.110E-01    0.719E-02
RMM:   4    -0.357634503901E+03    0.43881E-04   -0.56175E-04  8136   0.368E-02    0.466E-02
RMM:   5    -0.357634504422E+03   -0.52137E-06   -0.23838E-04  6946   0.255E-02    0.245E-02
RMM:   6    -0.357634502865E+03    0.15570E-05   -0.93979E-05  5456   0.164E-02
  37 F= -.35763450E+03 E0= -.35763961E+03  d E =-.132497E-02
       N       E                     dE             d eps       ncg     rms          rms(c)
DAV:   1    -0.357629069764E+03    0.54347E-02   -0.30435E+00  4816   0.485E+00    0.357E-01
RMM:   2    -0.357635601451E+03   -0.65317E-02   -0.82359E-02  7152   0.808E-01    0.186E-01
RMM:   3    -0.357635175664E+03    0.42579E-03   -0.98885E-03  7233   0.220E-01    0.138E-01
RMM:   4    -0.357635026069E+03    0.14960E-03   -0.22229E-03  8364   0.721E-02    0.907E-02
RMM:   5    -0.357635026414E+03   -0.34433E-06   -0.92734E-04  7788   0.495E-02    0.498E-02
RMM:   6    -0.357635017403E+03    0.90101E-05   -0.35962E-04  7379   0.318E-02    0.252E-02
RMM:   7    -0.357635022629E+03   -0.52257E-05   -0.11280E-04  5198   0.174E-02    0.164E-02
RMM:   8    -0.357635028372E+03   -0.57430E-05   -0.68747E-05  4329   0.154E-02
  38 F= -.35763503E+03 E0= -.35764016E+03  d E =-.185048E-02
       N       E                     dE             d eps       ncg     rms          rms(c)
DAV:   1    -0.357634689013E+03    0.33362E-03   -0.21488E-01  4824   0.129E+00    0.958E-02
RMM:   2    -0.357635138819E+03   -0.44981E-03   -0.56568E-03  6928   0.213E-01    0.476E-02
RMM:   3    -0.357635095240E+03    0.43579E-04   -0.60073E-04  7039   0.591E-02    0.370E-02
RMM:   4    -0.357635080056E+03    0.15184E-04   -0.12234E-04  6321   0.182E-02    0.239E-02
RMM:   5    -0.357635076081E+03    0.39752E-05   -0.40030E-05  4015   0.116E-02
  39 F= -.35763508E+03 E0= -.35764021E+03  d E =-.189818E-02
       N       E                     dE             d eps       ncg     rms          rms(c)
DAV:   1    -0.357635319492E+03   -0.23944E-03   -0.27011E-01  4928   0.145E+00    0.183E-01
RMM:   2    -0.357635756283E+03   -0.43679E-03   -0.85892E-03  7244   0.252E-01    0.835E-02
RMM:   3    -0.357635628936E+03    0.12735E-03   -0.10303E-03  7330   0.645E-02    0.583E-02
RMM:   4    -0.357635576059E+03    0.52878E-04   -0.27037E-04  7304   0.303E-02    0.345E-02
RMM:   5    -0.357635567248E+03    0.88108E-05   -0.10790E-04  6442   0.187E-02    0.223E-02
RMM:   6    -0.357635560430E+03    0.68177E-05   -0.36970E-05  3645   0.112E-02
  40 F= -.35763556E+03 E0= -.35764068E+03  d E =-.484349E-03
       N       E                     dE             d eps       ncg     rms          rms(c)
DAV:   1    -0.357635401610E+03    0.16564E-03   -0.40819E-01  4928   0.179E+00    0.225E-01
RMM:   2    -0.357636054136E+03   -0.65253E-03   -0.13157E-02  7260   0.311E-01    0.104E-01
RMM:   3    -0.357635884994E+03    0.16914E-03   -0.17122E-03  7291   0.813E-02    0.718E-02
RMM:   4    -0.357635814775E+03    0.70219E-04   -0.46473E-04  7502   0.385E-02    0.436E-02
RMM:   5    -0.357635804070E+03    0.10704E-04   -0.18829E-04  6831   0.236E-02    0.285E-02
RMM:   6    -0.357635796588E+03    0.74821E-05   -0.79182E-05  5188   0.144E-02
  41 F= -.35763580E+03 E0= -.35764091E+03  d E =-.720507E-03
       N       E                     dE             d eps       ncg     rms          rms(c)
DAV:   1    -0.357636162153E+03   -0.35808E-03   -0.11592E-01  5096   0.980E-01    0.181E-01
RMM:   2    -0.357636172481E+03   -0.10328E-04   -0.45595E-03  7259   0.183E-01    0.715E-02
RMM:   3    -0.357636125314E+03    0.47167E-04   -0.73666E-04  7395   0.534E-02    0.440E-02
RMM:   4    -0.357636094361E+03    0.30952E-04   -0.23937E-04  7327   0.258E-02    0.273E-02
RMM:   5    -0.357636092470E+03    0.18912E-05   -0.66546E-05  4588   0.152E-02
  42 F= -.35763609E+03 E0= -.35764117E+03  d E =-.295882E-03
       N       E                     dE             d eps       ncg     rms          rms(c)
DAV:   1    -0.357636349362E+03   -0.25500E-03   -0.23802E-01  5040   0.140E+00    0.248E-01
RMM:   2    -0.357636368619E+03   -0.19257E-04   -0.90829E-03  7260   0.259E-01    0.971E-02
RMM:   3    -0.357636266467E+03    0.10215E-03   -0.13861E-03  7412   0.730E-02    0.610E-02
RMM:   4    -0.357636215787E+03    0.50680E-04   -0.45153E-04  7551   0.360E-02    0.398E-02
RMM:   5    -0.357636217370E+03   -0.15825E-05   -0.14767E-04  6423   0.209E-02    0.296E-02
RMM:   6    -0.357636225420E+03   -0.80496E-05   -0.61404E-05  4476   0.129E-02
  43 F= -.35763623E+03 E0= -.35764124E+03  d E =-.428831E-03
       N       E                     dE             d eps       ncg     rms          rms(c)
DAV:   1    -0.357636300305E+03   -0.82935E-04   -0.26998E-02  5040   0.463E-01    0.461E-02
RMM:   2    -0.357636364646E+03   -0.64341E-04   -0.83855E-04  7261   0.800E-02    0.258E-02
RMM:   3    -0.357636354320E+03    0.10326E-04   -0.10736E-04  4946   0.231E-02    0.188E-02
RMM:   4    -0.357636354041E+03    0.27941E-06   -0.47360E-05  4430   0.131E-02
  44 F= -.35763635E+03 E0= -.35764137E+03  d E =-.128621E-03
       N       E                     dE             d eps       ncg     rms          rms(c)
DAV:   1    -0.357636170345E+03    0.18398E-03   -0.24285E-01  4816   0.139E+00    0.125E-01
RMM:   2    -0.357636665753E+03   -0.49541E-03   -0.69773E-03  7267   0.234E-01    0.670E-02
RMM:   3    -0.357636592427E+03    0.73327E-04   -0.92526E-04  7094   0.624E-02    0.485E-02
RMM:   4    -0.357636568999E+03    0.23427E-04   -0.25949E-04  7078   0.267E-02    0.272E-02
RMM:   5    -0.357636566031E+03    0.29678E-05   -0.94152E-05  5011   0.164E-02
  45 F= -.35763657E+03 E0= -.35764155E+03  d E =-.340612E-03
       N       E                     dE             d eps       ncg     rms          rms(c)
DAV:   1    -0.357636532517E+03    0.36482E-04   -0.30113E-02  4944   0.489E-01    0.440E-02
RMM:   2    -0.357636602378E+03   -0.69861E-04   -0.94298E-04  7235   0.838E-02    0.254E-02
RMM:   3    -0.357636591794E+03    0.10585E-04   -0.13064E-04  4906   0.233E-02    0.182E-02
RMM:   4    -0.357636590623E+03    0.11708E-05   -0.56313E-05  4397   0.126E-02
  46 F= -.35763659E+03 E0= -.35764157E+03  d E =-.365203E-03
       N       E                     dE             d eps       ncg     rms          rms(c)
DAV:   1    -0.357636693536E+03   -0.10174E-03   -0.10906E-02  5176   0.317E-01    0.793E-02
RMM:   2    -0.357636676152E+03    0.17384E-04   -0.62281E-04  7162   0.664E-02    0.285E-02
RMM:   3    -0.357636663167E+03    0.12984E-04   -0.11605E-04  6334   0.205E-02    0.211E-02
RMM:   4    -0.357636649640E+03    0.13527E-04   -0.28348E-05  3293   0.134E-02    0.125E-02
RMM:   5    -0.357636647658E+03    0.19821E-05   -0.11006E-05  2714   0.104E-02
  47 F= -.35763665E+03 E0= -.35764163E+03  d E =-.570350E-04
