<?xml version="1.0" encoding="ISO-8859-1"?>
<modeling>
 <generator>
  <i name="program" type="string">vasp </i>
  <i name="version" type="string">5.4.1  </i>
  <i name="subversion" type="string">05Feb16 (build Jan 29 2020 16:04:39) complex                          parallel </i>
  <i name="platform" type="string">IFC91_ompi </i>
  <i name="date" type="string">2020 06 15 </i>
  <i name="time" type="string">13:22:46 </i>
 </generator>
 <incar>
  <i type="string" name="SYSTEM"> automatically generated by mexm</i>
  <i type="int" name="ISTART">     0</i>
  <i type="string" name="PREC">accurate               ! avoid wrap aro</i>
  <i type="string" name="ALGO"> Fast                   ! blocked Davids</i>
  <i type="int" name="ISPIN">     1</i>
  <i type="int" name="ICHARG">     2</i>
  <i type="int" name="NELM">    70</i>
  <i type="int" name="IBRION">     2</i>
  <i name="EDIFF">      0.00001000</i>
  <i name="EDIFFG">     -0.01000000</i>
  <i type="int" name="NSW">   300</i>
  <i type="int" name="ISIF">     3</i>
  <i type="int" name="ISYM">     1</i>
  <i name="ENCUT">    300.00000000</i>
  <i name="POTIM">      0.15000000</i>
  <i type="string" name="LREAL"> Auto                  ! unpublished met</i>
  <i type="int" name="ISMEAR">     1</i>
  <i name="SIGMA">      0.15000000</i>
  <i type="logical" name="LWAVE"> F  </i>
  <i type="logical" name="LCHARG"> F  </i>
  <i type="logical" name="LVTOT"> F  </i>
  <v type="int" name="KPOINT_BSE">    -1     0     0     0</v>
  <i type="int" name="NELM">    70</i>
 </incar>
 <kpoints>
  <generation param="Gamma">
   <v type="int" name="divisions">       3        3        3 </v>
   <v name="usershift">      0.00000000       0.00000000       0.00000000 </v>
   <v name="genvec1">      0.33333333       0.00000000      -0.00000000 </v>
   <v name="genvec2">      0.00000000       0.33333333       0.00000000 </v>
   <v name="genvec3">      0.00000000       0.00000000       0.33333333 </v>
   <v name="shift">      0.00000000       0.00000000       0.00000000 </v>
  </generation>
  <varray name="kpointlist" >
   <v>       0.00000000       0.00000000       0.00000000 </v>
   <v>       0.33333333      -0.00000000       0.00000000 </v>
   <v>       0.00000000       0.33333333       0.00000000 </v>
   <v>       0.33333333       0.33333333       0.00000000 </v>
   <v>      -0.33333333       0.33333333      -0.00000000 </v>
   <v>       0.00000000       0.00000000       0.33333333 </v>
   <v>       0.33333333       0.00000000       0.33333333 </v>
   <v>      -0.33333333      -0.00000000       0.33333333 </v>
   <v>       0.00000000       0.33333333       0.33333333 </v>
   <v>       0.33333333       0.33333333       0.33333333 </v>
   <v>      -0.33333333       0.33333333       0.33333333 </v>
   <v>       0.00000000      -0.33333333       0.33333333 </v>
   <v>       0.33333333      -0.33333333       0.33333333 </v>
   <v>      -0.33333333      -0.33333333       0.33333333 </v>
  </varray>
  <varray name="weights" >
   <v>       0.03703704 </v>
   <v>       0.07407407 </v>
   <v>       0.07407407 </v>
   <v>       0.07407407 </v>
   <v>       0.07407407 </v>
   <v>       0.07407407 </v>
   <v>       0.07407407 </v>
   <v>       0.07407407 </v>
   <v>       0.07407407 </v>
   <v>       0.07407407 </v>
   <v>       0.07407407 </v>
   <v>       0.07407407 </v>
   <v>       0.07407407 </v>
   <v>       0.07407407 </v>
  </varray>
 </kpoints>
 <parameters>
  <separator name="general" >
   <i type="string" name="SYSTEM">automatically generated by mexm</i>
   <i type="logical" name="LCOMPAT"> F  </i>
  </separator>
  <separator name="electronic" >
   <i type="string" name="PREC">accura</i>
   <i name="ENMAX">    300.00000000</i>
   <i name="ENAUG">    461.25700000</i>
   <i name="EDIFF">      0.00001000</i>
   <i type="int" name="IALGO">    68</i>
   <i type="int" name="IWAVPR">    11</i>
   <i type="int" name="NBANDS">   188</i>
   <i name="NELECT">    313.00000000</i>
   <i type="int" name="TURBO">     0</i>
   <i type="int" name="IRESTART">     0</i>
   <i type="int" name="NREBOOT">     0</i>
   <i type="int" name="NMIN">     0</i>
   <i name="EREF">      0.00000000</i>
   <separator name="electronic smearing" >
    <i type="int" name="ISMEAR">     1</i>
    <i name="SIGMA">      0.15000000</i>
    <i name="KSPACING">      0.50000000</i>
    <i type="logical" name="KGAMMA"> T  </i>
   </separator>
   <separator name="electronic projectors" >
    <i type="logical" name="LREAL"> T  </i>
    <v name="ROPT">     -0.00025000     -0.00025000     -0.00025000     -0.00025000</v>
    <i type="int" name="LMAXPAW">  -100</i>
    <i type="int" name="LMAXMIX">     2</i>
    <i type="logical" name="NLSPLINE"> F  </i>
   </separator>
   <separator name="electronic startup" >
    <i type="int" name="ISTART">     0</i>
    <i type="int" name="ICHARG">     2</i>
    <i type="int" name="INIWAV">     1</i>
   </separator>
   <separator name="electronic spin" >
    <i type="int" name="ISPIN">     1</i>
    <i type="logical" name="LNONCOLLINEAR"> F  </i>
    <v name="MAGMOM">      1.00000000      1.00000000      1.00000000      1.00000000      1.00000000      1.00000000      1.00000000      1.00000000      1.00000000      1.00000000      1.00000000      1.00000000      1.00000000      1.00000000      1.00000000      1.00000000      1.00000000      1.00000000      1.00000000      1.00000000
      1.00000000      1.00000000      1.00000000      1.00000000      1.00000000      1.00000000      1.00000000      1.00000000      1.00000000      1.00000000      1.00000000      1.00000000      1.00000000      1.00000000      1.00000000      1.00000000</v>
    <i name="NUPDOWN">     -1.00000000</i>
    <i type="logical" name="LSORBIT"> F  </i>
    <v name="SAXIS">      0.00000000      0.00000000      1.00000000</v>
    <i type="logical" name="LSPIRAL"> F  </i>
    <v name="QSPIRAL">      0.00000000      0.00000000      0.00000000</v>
    <i type="logical" name="LZEROZ"> F  </i>
   </separator>
   <separator name="electronic exchange-correlation" >
    <i type="logical" name="LASPH"> F  </i>
    <i type="logical" name="LMETAGGA"> F  </i>
   </separator>
   <separator name="electronic convergence" >
    <i type="int" name="NELM">    70</i>
    <i type="int" name="NELMDL">    -5</i>
    <i type="int" name="NELMIN">     2</i>
    <i name="ENINI">    300.00000000</i>
    <separator name="electronic convergence detail" >
     <i type="logical" name="LDIAG"> T  </i>
     <i type="logical" name="LSUBROT"> F  </i>
     <i name="WEIMIN">      0.00100000</i>
     <i name="EBREAK">      0.00000001</i>
     <i name="DEPER">      0.30000000</i>
     <i type="int" name="NRMM">     4</i>
     <i name="TIME">      0.40000000</i>
    </separator>
   </separator>
   <separator name="electronic mixer" >
    <i name="AMIX">      0.40000000</i>
    <i name="BMIX">      1.00000000</i>
    <i name="AMIN">      0.10000000</i>
    <i name="AMIX_MAG">      1.60000000</i>
    <i name="BMIX_MAG">      1.00000000</i>
    <separator name="electronic mixer details" >
     <i type="int" name="IMIX">     4</i>
     <i type="logical" name="MIXFIRST"> F  </i>
     <i type="int" name="MAXMIX">   -45</i>
     <i name="WC">    100.00000000</i>
     <i type="int" name="INIMIX">     1</i>
     <i type="int" name="MIXPRE">     1</i>
     <i type="int" name="MREMOVE">     5</i>
    </separator>
   </separator>
   <separator name="electronic dipolcorrection" >
    <i type="logical" name="LDIPOL"> F  </i>
    <i type="logical" name="LMONO"> F  </i>
    <i type="int" name="IDIPOL">     0</i>
    <i name="EPSILON">      1.00000000</i>
    <v name="DIPOL">   -100.00000000   -100.00000000   -100.00000000</v>
    <i name="EFIELD">      0.00000000</i>
   </separator>
  </separator>
  <separator name="grids" >
   <i type="int" name="NGX">    40</i>
   <i type="int" name="NGY">    60</i>
   <i type="int" name="NGZ">    60</i>
   <i type="int" name="NGXF">    80</i>
   <i type="int" name="NGYF">   120</i>
   <i type="int" name="NGZF">   120</i>
   <i type="logical" name="ADDGRID"> F  </i>
  </separator>
  <separator name="ionic" >
   <i type="int" name="NSW">   300</i>
   <i type="int" name="IBRION">     2</i>
   <i type="int" name="ISIF">     3</i>
   <i name="PSTRESS">      0.00000000</i>
   <i name="EDIFFG">     -0.01000000</i>
   <i type="int" name="NFREE">     1</i>
   <i name="POTIM">      0.15000000</i>
   <i name="SMASS">     -3.00000000</i>
   <i name="SCALEE">      1.00000000</i>
  </separator>
  <separator name="ionic md" >
   <i name="TEBEG">      0.00010000</i>
   <i name="TEEND">      0.00010000</i>
   <i type="int" name="NBLOCK">     1</i>
   <i type="int" name="KBLOCK">   300</i>
   <i type="int" name="NPACO">   256</i>
   <i name="APACO">     16.00000000</i>
  </separator>
  <separator name="symmetry" >
   <i type="int" name="ISYM">     1</i>
   <i name="SYMPREC">      0.00001000</i>
  </separator>
  <separator name="dos" >
   <i type="logical" name="LORBIT"> F  </i>
   <v name="RWIGS">     -1.00000000     -1.00000000     -1.00000000     -1.00000000</v>
   <i type="int" name="NEDOS">   301</i>
   <i name="EMIN">     10.00000000</i>
   <i name="EMAX">    -10.00000000</i>
   <i name="EFERMI">      0.00000000</i>
  </separator>
  <separator name="writing" >
   <i type="int" name="NWRITE">     2</i>
   <i type="logical" name="LWAVE"> F  </i>
   <i type="logical" name="LCHARG"> F  </i>
   <i type="logical" name="LPARD"> F  </i>
   <i type="logical" name="LVTOT"> F  </i>
   <i type="logical" name="LVHAR"> F  </i>
   <i type="logical" name="LELF"> F  </i>
   <i type="logical" name="LOPTICS"> F  </i>
   <v name="STM">      0.00000000      0.00000000      0.00000000      0.00000000      0.00000000      0.00000000      0.00000000</v>
  </separator>
  <separator name="performance" >
   <i type="int" name="NPAR">     4</i>
   <i type="int" name="NSIM">     4</i>
   <i type="int" name="NBLK">    -1</i>
   <i type="logical" name="LPLANE"> T  </i>
   <i type="logical" name="LSCALAPACK"> T  </i>
   <i type="logical" name="LSCAAWARE"> F  </i>
   <i type="logical" name="LSCALU"> F  </i>
   <i type="logical" name="LASYNC"> F  </i>
   <i type="logical" name="LORBITALREAL"> F  </i>
  </separator>
  <separator name="miscellaneous" >
   <i type="int" name="IDIOT">     3</i>
   <i type="logical" name="LMUSIC"> F  </i>
   <v name="POMASS">    180.94800000    178.49000000     92.91000000     91.22400000</v>
   <v name="DARWINR">      0.00000000      0.00000000      0.00000000      0.00000000</v>
   <v name="DARWINV">      1.00000000      1.00000000      1.00000000      1.00000000</v>
   <i type="logical" name="LCORR"> T  </i>
  </separator>
  <i type="logical" name="GGA_COMPAT"> T  </i>
  <i type="logical" name="LBERRY"> F  </i>
  <i type="int" name="ICORELEVEL">     0</i>
  <i type="logical" name="LDAU"> F  </i>
  <i type="int" name="I_CONSTRAINED_M">     0</i>
  <separator name="electronic exchange-correlation" >
   <i type="string" name="GGA">--</i>
   <i type="int" name="VOSKOWN">     0</i>
   <i type="logical" name="LHFCALC"> F  </i>
   <i type="string" name="PRECFOCK"></i>
   <i type="logical" name="LSYMGRAD"> F  </i>
   <i type="logical" name="LHFONE"> F  </i>
   <i type="logical" name="LRHFCALC"> F  </i>
   <i type="logical" name="LTHOMAS"> F  </i>
   <i type="logical" name="LMODELHF"> F  </i>
   <i name="ENCUT4O">     -1.00000000</i>
   <i type="int" name="EXXOEP">     0</i>
   <i type="int" name="FOURORBIT">     0</i>
   <i name="AEXX">      0.00000000</i>
   <i name="HFALPHA">      0.00000000</i>
   <i name="MCALPHA">      0.00000000</i>
   <i name="ALDAX">      1.00000000</i>
   <i name="AGGAX">      1.00000000</i>
   <i name="ALDAC">      1.00000000</i>
   <i name="AGGAC">      1.00000000</i>
   <i type="int" name="NKREDX">     1</i>
   <i type="int" name="NKREDY">     1</i>
   <i type="int" name="NKREDZ">     1</i>
   <i type="logical" name="SHIFTRED"> F  </i>
   <i type="logical" name="ODDONLY"> F  </i>
   <i type="logical" name="EVENONLY"> F  </i>
   <i type="int" name="LMAXFOCK">     0</i>
   <i type="int" name="NMAXFOCKAE">     0</i>
   <i type="logical" name="LFOCKAEDFT"> F  </i>
   <i name="HFSCREEN">      0.00000000</i>
   <i name="HFSCREENC">      0.00000000</i>
   <i type="int" name="NBANDSGWLOW">     0</i>
  </separator>
  <separator name="vdW DFT" >
   <i type="logical" name="LUSE_VDW"> F  </i>
   <i name="Zab_VDW">     -0.84910000</i>
   <i name="PARAM1">      0.12340000</i>
   <i name="PARAM2">      1.00000000</i>
   <i name="PARAM3">      0.00000000</i>
  </separator>
  <separator name="model GW" >
   <i type="int" name="MODEL_GW">     0</i>
   <i name="MODEL_EPS0">     12.25311611</i>
   <i name="MODEL_ALPHA">      1.00000000</i>
  </separator>
  <separator name="linear response parameters" >
   <i type="logical" name="LEPSILON"> F  </i>
   <i type="logical" name="LRPA"> F  </i>
   <i type="logical" name="LNABLA"> F  </i>
   <i type="logical" name="LVEL"> F  </i>
   <i type="int" name="KINTER">     0</i>
   <i name="CSHIFT">      0.10000000</i>
   <i name="OMEGAMAX">     -1.00000000</i>
   <i name="DEG_THRESHOLD">      0.00200000</i>
  </separator>
  <separator name="orbital magnetization" >
   <i type="logical" name="NUCIND"> F  </i>
   <v name="MAGPOS">      0.00000000      0.00000000      0.00000000</v>
   <i type="logical" name="LNICSALL"> T  </i>
   <i type="logical" name="ORBITALMAG"> F  </i>
   <i type="logical" name="LMAGBLOCH"> F  </i>
   <i type="logical" name="LCHIMAG"> F  </i>
   <i type="logical" name="LGAUGE"> T  </i>
   <i type="int" name="MAGATOM">     0</i>
   <v name="MAGDIPOL">      0.00000000      0.00000000      0.00000000</v>
   <v name="AVECCONST">      0.00000000      0.00000000      0.00000000</v>
  </separator>
  <separator name="response functions" >
   <i type="logical" name="LADDER"> F  </i>
   <i type="logical" name="LFXC"> F  </i>
   <i type="logical" name="LHARTREE"> T  </i>
   <i type="int" name="IBSE">     0</i>
   <v type="int" name="KPOINT">    -1     0     0     0</v>
   <i type="logical" name="LTCTE"> F  </i>
   <i type="logical" name="LTETE"> F  </i>
   <i type="logical" name="LTRIPLET"> F  </i>
   <i type="logical" name="LFXCEPS"> F  </i>
   <i type="logical" name="LFXHEG"> F  </i>
   <i type="int" name="NATURALO">     0</i>
   <i type="logical" name="L2ORDER"> F  </i>
   <i type="logical" name="LUSEW"> F  </i>
   <i name="ENCUTGW">     -2.00000000</i>
   <i name="ENCUTGWSOFT">     -2.00000000</i>
   <i name="ENCUTLF">     -1.00000000</i>
   <i type="int" name="LMAXMP2">    -1</i>
   <i name="SCISSOR">      0.00000000</i>
   <i type="int" name="NOMEGA">     0</i>
   <i type="int" name="NOMEGAR">     0</i>
   <i type="int" name="NBANDSGW">    -1</i>
   <i type="int" name="NBANDSO">    -1</i>
   <i type="int" name="NBANDSV">    -1</i>
   <i type="int" name="NELM">    70</i>
   <i type="int" name="NELMHF">     1</i>
   <i type="int" name="DIM">     3</i>
   <i type="int" name="ANTIRES">     0</i>
   <i name="OMEGAMAX">    -30.00000000</i>
   <i name="OMEGAMIN">    -30.00000000</i>
   <i name="OMEGATL">   -200.00000000</i>
   <i type="int" name="OMEGAGRID">     0</i>
   <i name="CSHIFT">     -0.10000000</i>
   <i type="logical" name="SELFENERGY"> F  </i>
   <i type="logical" name="LSPECTRAL"> F  </i>
   <i type="logical" name="LSPECTRALGW"> F  </i>
   <i type="logical" name="LSINGLES"> F  </i>
   <i type="logical" name="LFERMIGW"> F  </i>
   <i type="logical" name="ODDONLYGW"> F  </i>
   <i type="logical" name="EVENONLYGW"> F  </i>
   <i type="int" name="NKREDLFX">     1</i>
   <i type="int" name="NKREDLFY">     1</i>
   <i type="int" name="NKREDLFZ">     1</i>
   <i type="int" name="MAXMEM">  1800</i>
   <i type="int" name="TELESCOPE">     0</i>
   <i type="int" name="TAUPAR">     1</i>
   <i type="int" name="OMEGAPAR">    -1</i>
   <i name="LAMBDA">      1.00000000</i>
  </separator>
  <separator name="External order field" >
   <i name="OFIELD_KAPPA">      0.00000000</i>
   <v name="OFIELD_K">      0.00000000      0.00000000      0.00000000</v>
   <i name="OFIELD_Q6_NEAR">      0.00000000</i>
   <i name="OFIELD_Q6_FAR">      0.00000000</i>
   <i name="OFIELD_A">      0.00000000</i>
  </separator>
 </parameters>
 <atominfo>
  <atoms>      36 </atoms>
  <types>       4 </types>
  <array name="atoms" >
   <dimension dim="1">ion</dimension>
   <field type="string">element</field>
   <field type="int">atomtype</field>
   <set>
    <rc><c>Ta</c><c>   1</c></rc>
    <rc><c>Ta</c><c>   1</c></rc>
    <rc><c>Ta</c><c>   1</c></rc>
    <rc><c>Ta</c><c>   1</c></rc>
    <rc><c>Ta</c><c>   1</c></rc>
    <rc><c>Ta</c><c>   1</c></rc>
    <rc><c>Hf</c><c>   2</c></rc>
    <rc><c>Hf</c><c>   2</c></rc>
    <rc><c>Hf</c><c>   2</c></rc>
    <rc><c>Hf</c><c>   2</c></rc>
    <rc><c>Hf</c><c>   2</c></rc>
    <rc><c>Hf</c><c>   2</c></rc>
    <rc><c>Hf</c><c>   2</c></rc>
    <rc><c>Hf</c><c>   2</c></rc>
    <rc><c>Hf</c><c>   2</c></rc>
    <rc><c>Hf</c><c>   2</c></rc>
    <rc><c>Hf</c><c>   2</c></rc>
    <rc><c>Nb</c><c>   3</c></rc>
    <rc><c>Nb</c><c>   3</c></rc>
    <rc><c>Nb</c><c>   3</c></rc>
    <rc><c>Nb</c><c>   3</c></rc>
    <rc><c>Nb</c><c>   3</c></rc>
    <rc><c>Nb</c><c>   3</c></rc>
    <rc><c>Nb</c><c>   3</c></rc>
    <rc><c>Nb</c><c>   3</c></rc>
    <rc><c>Nb</c><c>   3</c></rc>
    <rc><c>Nb</c><c>   3</c></rc>
    <rc><c>Nb</c><c>   3</c></rc>
    <rc><c>Zr</c><c>   4</c></rc>
    <rc><c>Zr</c><c>   4</c></rc>
    <rc><c>Zr</c><c>   4</c></rc>
    <rc><c>Zr</c><c>   4</c></rc>
    <rc><c>Zr</c><c>   4</c></rc>
    <rc><c>Zr</c><c>   4</c></rc>
    <rc><c>Zr</c><c>   4</c></rc>
    <rc><c>Zr</c><c>   4</c></rc>
   </set>
  </array>
  <array name="atomtypes" >
   <dimension dim="1">type</dimension>
   <field type="int">atomspertype</field>
   <field type="string">element</field>
   <field>mass</field>
   <field>valence</field>
   <field type="string">pseudopotential</field>
   <set>
    <rc><c>   6</c><c>Ta</c><c>    180.94800000</c><c>      5.00000000</c><c>  PAW_PBE Ta 17Jan2003                  </c></rc>
    <rc><c>  11</c><c>Hf</c><c>    178.49000000</c><c>      4.00000000</c><c>  PAW_PBE Hf 20Jan2003                  </c></rc>
    <rc><c>  11</c><c>Nb</c><c>     92.91000000</c><c>     13.00000000</c><c>  PAW_PBE Nb_sv 25May2007               </c></rc>
    <rc><c>   8</c><c>Zr</c><c>     91.22400000</c><c>     12.00000000</c><c>  PAW_PBE Zr_sv 04Jan2005               </c></rc>
   </set>
  </array>
 </atominfo>
 <structure name="initialpos" >
  <crystal>
   <varray name="basis" >
    <v>       7.00386160       0.04660578       0.01620203 </v>
    <v>       0.06822013      10.22515756       0.00251910 </v>
    <v>       0.02409853       0.00161621      10.26625126 </v>
   </varray>
   <i name="volume">    735.18696637 </i>
   <varray name="rec_basis" >
    <v>       0.14278549      -0.00095255      -0.00033502 </v>
    <v>      -0.00065077       0.09780235      -0.00001387 </v>
    <v>      -0.00022518      -0.00002250       0.09740707 </v>
   </varray>
  </crystal>
  <varray name="positions" >
   <v>       0.48641900       0.00319100       0.99708000 </v>
   <v>       0.72447200       0.49390800       0.17412500 </v>
   <v>       0.04308000       0.01204500       0.67804300 </v>
   <v>       0.52672400       0.66706400       0.34137300 </v>
   <v>       0.76641100       0.49527500       0.49128000 </v>
   <v>       0.97101200       0.65900600       0.32161700 </v>
   <v>       0.75794200       0.16787300       0.83089500 </v>
   <v>       0.26998400       0.50772100       0.16945900 </v>
   <v>       0.52657100       0.66828100       0.65267600 </v>
   <v>       0.25414900       0.50863200       0.83790100 </v>
   <v>       0.23629500       0.16469600       0.48268600 </v>
   <v>       0.01261100       0.33307800       0.00829300 </v>
   <v>       0.96600000       0.66020900       0.01871300 </v>
   <v>       0.25864900       0.82006400       0.17429500 </v>
   <v>       0.47430000       0.00060000       0.67075000 </v>
   <v>       0.24026500       0.81046300       0.83371600 </v>
   <v>       0.23850500       0.83146100       0.49014900 </v>
   <v>       0.25847400       0.16977000       0.18378600 </v>
   <v>       0.97252200       0.65200200       0.66174500 </v>
   <v>       0.52813600       0.67739500       0.00832900 </v>
   <v>       0.73760500       0.83516700       0.17637600 </v>
   <v>       0.50716200       0.34138400       0.34553500 </v>
   <v>       0.99213300       0.34360800       0.32222300 </v>
   <v>       0.00830600       0.33462600       0.67429700 </v>
   <v>       0.47348100       0.31679000       0.00132700 </v>
   <v>       0.24055200       0.17938400       0.82921300 </v>
   <v>       0.50400600       0.99227200       0.32750600 </v>
   <v>       0.99854500       0.99759200       0.30914200 </v>
   <v>       0.77414100       0.84397500       0.49779500 </v>
   <v>       0.01463800       0.00559600       0.00799900 </v>
   <v>       0.76923000       0.16488000       0.49795900 </v>
   <v>       0.73533900       0.17249600       0.17038000 </v>
   <v>       0.49235600       0.33111000       0.65465200 </v>
   <v>       0.77217100       0.84185800       0.82416700 </v>
   <v>       0.23492700       0.50727100       0.49437400 </v>
   <v>       0.73288500       0.48926300       0.84014400 </v>
  </varray>
 </structure>
 <calculation>
  <scstep>
   <time name="dav">    1.23    1.26</time>
   <time name="total">    1.40    1.86</time>
   <energy>
    <i name="alphaZ">   1583.91980651 </i>
    <i name="ewald"> -21654.63403774 </i>
    <i name="hartreedc">  -7966.40833341 </i>
    <i name="XCdc">     39.74105151 </i>
    <i name="pawpsdc">  24099.02981456 </i>
    <i name="pawaedc"> -22649.18008911 </i>
    <i name="eentropy">     -0.00664946 </i>
    <i name="bandstr">   -320.10908675 </i>
    <i name="atom">  28998.43763117 </i>
    <i name="e_fr_energy">   2130.79010728 </i>
    <i name="e_wo_entrp">   2130.79675674 </i>
    <i name="e_0_energy">   2130.79232377 </i>
   </energy>
  </scstep>
  <scstep>
   <time name="dav">    1.04    1.10</time>
   <time name="total">    1.04    1.30</time>
   <energy>
    <i name="e_fr_energy">    -63.38102071 </i>
    <i name="e_wo_entrp">    -63.39437347 </i>
    <i name="e_0_energy">    -63.38547163 </i>
   </energy>
  </scstep>
  <scstep>
   <time name="dav">    1.54    1.62</time>
   <time name="total">    1.54    1.67</time>
   <energy>
    <i name="e_fr_energy">   -336.52692156 </i>
    <i name="e_wo_entrp">   -336.53309721 </i>
    <i name="e_0_energy">   -336.52898011 </i>
   </energy>
  </scstep>
  <scstep>
   <time name="dav">    1.55    1.63</time>
   <time name="total">    1.55    1.66</time>
   <energy>
    <i name="e_fr_energy">   -369.18198785 </i>
    <i name="e_wo_entrp">   -369.19139559 </i>
    <i name="e_0_energy">   -369.18512377 </i>
   </energy>
  </scstep>
  <scstep>
   <time name="dav">    1.55    1.62</time>
   <time name="total">    1.59    1.69</time>
   <energy>
    <i name="e_fr_energy">   -372.55824368 </i>
    <i name="e_wo_entrp">   -372.56817495 </i>
    <i name="e_0_energy">   -372.56155410 </i>
   </energy>
  </scstep>
  <scstep>
   <time name="diag">    0.21    0.21</time>
   <time name="diis">    0.81    0.85</time>
   <time name="orth">    0.02    0.02</time>
   <time name="total">    1.11    1.19</time>
   <energy>
    <i name="e_fr_energy">   -361.86017077 </i>
    <i name="e_wo_entrp">   -361.87309714 </i>
    <i name="e_0_energy">   -361.86447956 </i>
   </energy>
  </scstep>
  <scstep>
   <time name="diag">    0.08    0.18</time>
   <time name="diis">    0.89    0.95</time>
   <time name="orth">    0.01    0.01</time>
   <time name="total">    1.15    1.37</time>
   <energy>
    <i name="e_fr_energy">   -360.76087487 </i>
    <i name="e_wo_entrp">   -360.77450019 </i>
    <i name="e_0_energy">   -360.76541665 </i>
   </energy>
  </scstep>
  <scstep>
   <time name="diag">    0.23    0.23</time>
   <time name="diis">    1.19    1.24</time>
   <time name="orth">    0.03    0.03</time>
   <time name="total">    1.55    1.65</time>
   <energy>
    <i name="e_fr_energy">   -357.96367933 </i>
    <i name="e_wo_entrp">   -357.97952954 </i>
    <i name="e_0_energy">   -357.96896273 </i>
   </energy>
  </scstep>
  <scstep>
   <time name="diag">    0.09    0.09</time>
   <time name="diis">    0.87    0.91</time>
   <time name="orth">    0.01    0.01</time>
   <time name="total">    1.06    1.13</time>
   <energy>
    <i name="e_fr_energy">   -357.78029678 </i>
    <i name="e_wo_entrp">   -357.79608684 </i>
    <i name="e_0_energy">   -357.78556014 </i>
   </energy>
  </scstep>
  <scstep>
   <time name="diag">    0.09    0.09</time>
   <time name="diis">    0.89    0.93</time>
   <time name="orth">    0.01    0.01</time>
   <time name="total">    1.07    1.15</time>
   <energy>
    <i name="e_fr_energy">   -357.72184508 </i>
    <i name="e_wo_entrp">   -357.73645425 </i>
    <i name="e_0_energy">   -357.72671480 </i>
   </energy>
  </scstep>
  <scstep>
   <time name="diag">    0.10    0.11</time>
   <time name="diis">    1.04    1.08</time>
   <time name="orth">    0.01    0.01</time>
   <time name="total">    1.25    1.34</time>
   <energy>
    <i name="e_fr_energy">   -357.69189838 </i>
    <i name="e_wo_entrp">   -357.70785128 </i>
    <i name="e_0_energy">   -357.69721601 </i>
   </energy>
  </scstep>
  <scstep>
   <time name="diag">    0.10    0.11</time>
   <time name="diis">    0.82    0.86</time>
   <time name="orth">    0.01    0.01</time>
   <time name="total">    1.00    1.10</time>
   <energy>
    <i name="e_fr_energy">   -357.69205525 </i>
    <i name="e_wo_entrp">   -357.70745484 </i>
    <i name="e_0_energy">   -357.69718844 </i>
   </energy>
  </scstep>
  <scstep>
   <time name="diag">    0.09    0.09</time>
   <time name="diis">    0.84    0.86</time>
   <time name="orth">    0.01    0.01</time>
   <time name="total">    1.00    1.11</time>
   <energy>
    <i name="e_fr_energy">   -357.69073012 </i>
    <i name="e_wo_entrp">   -357.70616907 </i>
    <i name="e_0_energy">   -357.69587643 </i>
   </energy>
  </scstep>
  <scstep>
   <time name="diag">    0.09    0.09</time>
   <time name="diis">    0.81    0.86</time>
   <time name="orth">    0.01    0.01</time>
   <time name="total">    1.00    1.12</time>
   <energy>
    <i name="e_fr_energy">   -357.69123496 </i>
    <i name="e_wo_entrp">   -357.70693459 </i>
    <i name="e_0_energy">   -357.69646817 </i>
   </energy>
  </scstep>
  <scstep>
   <time name="diag">    0.09    0.10</time>
   <time name="diis">    0.81    0.86</time>
   <time name="orth">    0.01    0.01</time>
   <time name="total">    0.99    1.07</time>
   <energy>
    <i name="e_fr_energy">   -357.69129835 </i>
    <i name="e_wo_entrp">   -357.70683880 </i>
    <i name="e_0_energy">   -357.69647850 </i>
   </energy>
  </scstep>
  <scstep>
   <time name="diag">    0.09    0.10</time>
   <time name="diis">    0.77    0.81</time>
   <time name="orth">    0.01    0.01</time>
   <time name="total">    1.10    1.18</time>
   <energy>
    <i name="e_fr_energy">   -357.69141522 </i>
    <i name="e_wo_entrp">   -357.70700541 </i>
    <i name="e_0_energy">   -357.69661195 </i>
   </energy>
  </scstep>
  <scstep>
   <time name="diag">    0.14    0.14</time>
   <time name="diis">    0.70    0.71</time>
   <time name="orth">    0.02    0.02</time>
   <time name="total">    0.93    0.98</time>
   <energy>
    <i name="e_fr_energy">   -357.69144956 </i>
    <i name="e_wo_entrp">   -357.70701941 </i>
    <i name="e_0_energy">   -357.69663951 </i>
   </energy>
  </scstep>
  <scstep>
   <time name="diag">    0.08    0.09</time>
   <time name="diis">    0.53    0.62</time>
   <time name="orth">    0.01    0.01</time>
   <time name="total">    0.70    0.83</time>
   <energy>
    <i name="e_fr_energy">   -357.69147061 </i>
    <i name="e_wo_entrp">   -357.70706267 </i>
    <i name="e_0_energy">   -357.69666796 </i>
   </energy>
  </scstep>
  <scstep>
   <time name="diag">    0.08    0.09</time>
   <time name="diis">    0.59    0.61</time>
   <time name="orth">    0.01    0.01</time>
   <time name="total">    0.75    0.81</time>
   <energy>
    <i name="e_fr_energy">   -357.69148302 </i>
    <i name="e_wo_entrp">   -357.70707884 </i>
    <i name="e_0_energy">   -357.69668163 </i>
   </energy>
  </scstep>
  <scstep>
   <time name="diag">    0.09    0.10</time>
   <time name="diis">    0.46    0.48</time>
   <time name="orth">    0.01    0.01</time>
   <time name="total">    0.60    0.65</time>
   <energy>
    <i name="alphaZ">   1583.91980651 </i>
    <i name="ewald"> -21654.63403774 </i>
    <i name="hartreedc">  -7706.31721666 </i>
    <i name="XCdc">     36.26730852 </i>
    <i name="pawpsdc">  35867.25422471 </i>
    <i name="pawaedc"> -34389.85940648 </i>
    <i name="eentropy">      0.01559289 </i>
    <i name="bandstr">  -3092.77539031 </i>
    <i name="atom">  28998.43763117 </i>
    <i name="e_fr_energy">   -357.69148738 </i>
    <i name="e_wo_entrp">   -357.70708027 </i>
    <i name="e_0_energy">   -357.69668501 </i>
   </energy>
  </scstep>
  <structure>
   <crystal>
    <varray name="basis" >
     <v>       7.00386160       0.04660578       0.01620203 </v>
     <v>       0.06822013      10.22515756       0.00251910 </v>
     <v>       0.02409853       0.00161621      10.26625126 </v>
    </varray>
    <i name="volume">    735.18696637 </i>
    <varray name="rec_basis" >
     <v>       0.14278549      -0.00095255      -0.00033502 </v>
     <v>      -0.00065077       0.09780235      -0.00001387 </v>
     <v>      -0.00022518      -0.00002250       0.09740707 </v>
    </varray>
   </crystal>
   <varray name="positions" >
    <v>       0.48641900       0.00319100       0.99708000 </v>
    <v>       0.72447200       0.49390800       0.17412500 </v>
    <v>       0.04308000       0.01204500       0.67804300 </v>
    <v>       0.52672400       0.66706400       0.34137300 </v>
    <v>       0.76641100       0.49527500       0.49128000 </v>
    <v>       0.97101200       0.65900600       0.32161700 </v>
    <v>       0.75794200       0.16787300       0.83089500 </v>
    <v>       0.26998400       0.50772100       0.16945900 </v>
    <v>       0.52657100       0.66828100       0.65267600 </v>
    <v>       0.25414900       0.50863200       0.83790100 </v>
    <v>       0.23629500       0.16469600       0.48268600 </v>
    <v>       0.01261100       0.33307800       0.00829300 </v>
    <v>       0.96600000       0.66020900       0.01871300 </v>
    <v>       0.25864900       0.82006400       0.17429500 </v>
    <v>       0.47430000       0.00060000       0.67075000 </v>
    <v>       0.24026500       0.81046300       0.83371600 </v>
    <v>       0.23850500       0.83146100       0.49014900 </v>
    <v>       0.25847400       0.16977000       0.18378600 </v>
    <v>       0.97252200       0.65200200       0.66174500 </v>
    <v>       0.52813600       0.67739500       0.00832900 </v>
    <v>       0.73760500       0.83516700       0.17637600 </v>
    <v>       0.50716200       0.34138400       0.34553500 </v>
    <v>       0.99213300       0.34360800       0.32222300 </v>
    <v>       0.00830600       0.33462600       0.67429700 </v>
    <v>       0.47348100       0.31679000       0.00132700 </v>
    <v>       0.24055200       0.17938400       0.82921300 </v>
    <v>       0.50400600       0.99227200       0.32750600 </v>
    <v>       0.99854500       0.99759200       0.30914200 </v>
    <v>       0.77414100       0.84397500       0.49779500 </v>
    <v>       0.01463800       0.00559600       0.00799900 </v>
    <v>       0.76923000       0.16488000       0.49795900 </v>
    <v>       0.73533900       0.17249600       0.17038000 </v>
    <v>       0.49235600       0.33111000       0.65465200 </v>
    <v>       0.77217100       0.84185800       0.82416700 </v>
    <v>       0.23492700       0.50727100       0.49437400 </v>
    <v>       0.73288500       0.48926300       0.84014400 </v>
   </varray>
  </structure>
  <varray name="forces" >
   <v>      -0.02157082       0.09592144       0.02089168 </v>
   <v>      -0.02593875       0.00071756      -0.00704154 </v>
   <v>      -0.06014471       0.04484075      -0.08352958 </v>
   <v>      -0.01895112      -0.00849736      -0.00173644 </v>
   <v>      -0.00698413       0.00189156      -0.00852295 </v>
   <v>       0.03575303      -0.04708659       0.01769139 </v>
   <v>      -0.21961664      -0.17136848       0.15041364 </v>
   <v>       0.00498346      -0.00554123       0.02428435 </v>
   <v>       0.02269345      -0.02392884      -0.03102807 </v>
   <v>      -0.00906552       0.02143963      -0.00997465 </v>
   <v>       0.01509143      -0.01443316       0.01110694 </v>
   <v>      -0.03015551       0.02526840       0.00517726 </v>
   <v>      -0.00758431      -0.04391785      -0.00083326 </v>
   <v>       0.13841913       0.28565578      -0.20658761 </v>
   <v>      -0.01938277       0.00101018       0.16016624 </v>
   <v>       0.20769609       0.35070146       0.14452481 </v>
   <v>      -0.00371045       0.00407337       0.00510922 </v>
   <v>       0.15083984      -0.29477355      -0.38167115 </v>
   <v>       0.00042022      -0.04182281      -0.00377766 </v>
   <v>       0.06850458       0.07617557       0.02543809 </v>
   <v>      -0.20600354       0.27451487      -0.31795456 </v>
   <v>      -0.00408334       0.00519668      -0.01139693 </v>
   <v>      -0.02887959       0.03832841       0.01802285 </v>
   <v>      -0.00390373       0.03448780       0.00352175 </v>
   <v>      -0.00562121      -0.10049403       0.01783241 </v>
   <v>       0.27880570      -0.42922873       0.32283183 </v>
   <v>       0.00868071      -0.00018706       0.01069578 </v>
   <v>       0.02233870       0.00242883       0.03351156 </v>
   <v>      -0.01350949       0.00401616       0.00029401 </v>
   <v>       0.10338118       0.02527681       0.05567101 </v>
   <v>      -0.00628930      -0.02473845       0.00947897 </v>
   <v>      -0.13632511      -0.24774796      -0.18829382 </v>
   <v>       0.00337798       0.04258178      -0.02256877 </v>
   <v>      -0.25746491       0.12085105       0.23462350 </v>
   <v>       0.02166366       0.00158765       0.00621039 </v>
   <v>       0.00253577      -0.00319965      -0.00258066 </v>
  </varray>
  <varray name="stress" >
   <v>      -7.75837698      -0.44804134       0.30703798 </v>
   <v>      -0.44804136      -7.96099158       0.10726285 </v>
   <v>       0.30703790       0.10726280      -7.06153960 </v>
  </varray>
  <energy>
   <i name="e_fr_energy">   -357.69148738 </i>
   <i name="e_wo_entrp">   -357.69668501 </i>
   <i name="e_0_energy">      0.01559289 </i>
  </energy>
  <time name="totalsc">   24.22   26.83</time>
 </calculation>
 <calculation>
  <scstep>
   <time name="dav">    1.27    1.33</time>
   <time name="total">    1.41    1.68</time>
   <energy>
    <i name="alphaZ">   1590.59495825 </i>
    <i name="ewald"> -21685.46475919 </i>
    <i name="hartreedc">  -7716.76495396 </i>
    <i name="XCdc">     37.66326165 </i>
    <i name="pawpsdc">  35867.27824336 </i>
    <i name="pawaedc"> -34389.88341205 </i>
    <i name="eentropy">      0.01466361 </i>
    <i name="bandstr">  -3059.64088903 </i>
    <i name="atom">  28998.43763117 </i>
    <i name="e_fr_energy">   -357.76525620 </i>
    <i name="e_wo_entrp">   -357.77991981 </i>
    <i name="e_0_energy">   -357.77014407 </i>
   </energy>
  </scstep>
  <scstep>
   <time name="diag">    0.09    0.09</time>
   <time name="diis">    0.84    0.87</time>
   <time name="orth">    0.01    0.01</time>
   <time name="total">    1.00    1.08</time>
   <energy>
    <i name="e_fr_energy">   -357.75017036 </i>
    <i name="e_wo_entrp">   -357.76646337 </i>
    <i name="e_0_energy">   -357.75560136 </i>
   </energy>
  </scstep>
  <scstep>
   <time name="diag">    0.12    0.13</time>
   <time name="diis">    0.82    0.86</time>
   <time name="orth">    0.01    0.01</time>
   <time name="total">    1.03    1.13</time>
   <energy>
    <i name="e_fr_energy">   -357.72979319 </i>
    <i name="e_wo_entrp">   -357.74492418 </i>
    <i name="e_0_energy">   -357.73483685 </i>
   </energy>
  </scstep>
  <scstep>
   <time name="diag">    0.09    0.10</time>
   <time name="diis">    0.91    0.94</time>
   <time name="orth">    0.01    0.01</time>
   <time name="total">    1.11    1.18</time>
   <energy>
    <i name="e_fr_energy">   -357.72423514 </i>
    <i name="e_wo_entrp">   -357.73954573 </i>
    <i name="e_0_energy">   -357.72933867 </i>
   </energy>
  </scstep>
  <scstep>
   <time name="diag">    0.09    0.09</time>
   <time name="diis">    0.86    0.91</time>
   <time name="orth">    0.01    0.01</time>
   <time name="total">    1.03    1.11</time>
   <energy>
    <i name="e_fr_energy">   -357.72285645 </i>
    <i name="e_wo_entrp">   -357.73819399 </i>
    <i name="e_0_energy">   -357.72796896 </i>
   </energy>
  </scstep>
  <scstep>
   <time name="diag">    0.09    0.10</time>
   <time name="diis">    0.86    0.90</time>
   <time name="orth">    0.01    0.01</time>
   <time name="total">    1.03    1.12</time>
   <energy>
    <i name="e_fr_energy">   -357.72302232 </i>
    <i name="e_wo_entrp">   -357.73836521 </i>
    <i name="e_0_energy">   -357.72813662 </i>
   </energy>
  </scstep>
  <scstep>
   <time name="diag">    0.11    0.11</time>
   <time name="diis">    1.01    1.05</time>
   <time name="orth">    0.01    0.01</time>
   <time name="total">    1.21    1.30</time>
   <energy>
    <i name="e_fr_energy">   -357.72316787 </i>
    <i name="e_wo_entrp">   -357.73856230 </i>
    <i name="e_0_energy">   -357.72829934 </i>
   </energy>
  </scstep>
  <scstep>
   <time name="diag">    0.09    0.10</time>
   <time name="diis">    0.78    0.82</time>
   <time name="orth">    0.01    0.01</time>
   <time name="total">    0.96    1.04</time>
   <energy>
    <i name="e_fr_energy">   -357.72325176 </i>
    <i name="e_wo_entrp">   -357.73855672 </i>
    <i name="e_0_energy">   -357.72835341 </i>
   </energy>
  </scstep>
  <scstep>
   <time name="diag">    0.11    0.12</time>
   <time name="diis">    0.68    0.71</time>
   <time name="orth">    0.01    0.01</time>
   <time name="total">    0.87    0.95</time>
   <energy>
    <i name="e_fr_energy">   -357.72331646 </i>
    <i name="e_wo_entrp">   -357.73863407 </i>
    <i name="e_0_energy">   -357.72842233 </i>
   </energy>
  </scstep>
  <scstep>
   <time name="diag">    0.09    0.10</time>
   <time name="diis">    0.64    0.67</time>
   <time name="orth">    0.01    0.01</time>
   <time name="total">    0.81    0.88</time>
   <energy>
    <i name="e_fr_energy">   -357.72338386 </i>
    <i name="e_wo_entrp">   -357.73869760 </i>
    <i name="e_0_energy">   -357.72848844 </i>
   </energy>
  </scstep>
  <scstep>
   <time name="diag">    0.12    0.12</time>
   <time name="diis">    0.56    0.59</time>
   <time name="orth">    0.01    0.01</time>
   <time name="total">    0.79    0.86</time>
   <energy>
    <i name="e_fr_energy">   -357.72341118 </i>
    <i name="e_wo_entrp">   -357.73872941 </i>
    <i name="e_0_energy">   -357.72851725 </i>
   </energy>
  </scstep>
  <scstep>
   <time name="diag">    0.24    0.24</time>
   <time name="diis">    1.02    1.03</time>
   <time name="orth">    0.01    0.01</time>
   <time name="total">    1.39    1.44</time>
   <energy>
    <i name="alphaZ">   1590.59495825 </i>
    <i name="ewald"> -21685.46475919 </i>
    <i name="hartreedc">  -7696.69320006 </i>
    <i name="XCdc">     36.77006270 </i>
    <i name="pawpsdc">  36045.76251979 </i>
    <i name="pawaedc"> -34568.04358078 </i>
    <i name="eentropy">      0.01531982 </i>
    <i name="bandstr">  -3079.10236916 </i>
    <i name="atom">  28998.43763117 </i>
    <i name="e_fr_energy">   -357.72341747 </i>
    <i name="e_wo_entrp">   -357.73873729 </i>
    <i name="e_0_energy">   -357.72852408 </i>
   </energy>
  </scstep>
  <structure>
   <crystal>
    <varray name="basis" >
     <v>       6.99383456       0.04595877       0.01657855 </v>
     <v>       0.06727750      10.21013527       0.00272201 </v>
     <v>       0.02464539       0.00181499      10.25287905 </v>
    </varray>
    <i name="volume">    732.10165259 </i>
    <varray name="rec_basis" >
     <v>       0.14299008      -0.00094211      -0.00034355 </v>
     <v>      -0.00064360       0.09794614      -0.00001579 </v>
     <v>      -0.00023104      -0.00002448       0.09753414 </v>
    </varray>
   </crystal>
   <varray name="positions" >
    <v>       0.48637300       0.00332697       0.99710949 </v>
    <v>       0.72441842       0.49390926       0.17411516 </v>
    <v>       0.04295550       0.01210905       0.67792543 </v>
    <v>       0.52668496       0.66705215       0.34137062 </v>
    <v>       0.76639658       0.49527774       0.49126801 </v>
    <v>       0.97108645       0.65893901       0.32164184 </v>
    <v>       0.75748979       0.16763247       0.83110782 </v>
    <v>       0.26999426       0.50771310       0.16949322 </v>
    <v>       0.52661838       0.66824692       0.65263219 </v>
    <v>       0.25413002       0.50866243       0.83788696 </v>
    <v>       0.23632633       0.16467543       0.48270161 </v>
    <v>       0.01254831       0.33311405       0.00830039 </v>
    <v>       0.96598494       0.66014691       0.01871186 </v>
    <v>       0.25893211       0.82046708       0.17400322 </v>
    <v>       0.47425915       0.00060158       0.67097586 </v>
    <v>       0.24068867       0.81095742       0.83391895 </v>
    <v>       0.23849725       0.83146680       0.49015621 </v>
    <v>       0.25879163       0.16935141       0.18324754 </v>
    <v>       0.97252346       0.65194280       0.66173969 </v>
    <v>       0.52827639       0.67750217       0.00836461 </v>
    <v>       0.73717705       0.83555757       0.17592834 </v>
    <v>       0.50715355       0.34139140       0.34551894 </v>
    <v>       0.99207270       0.34366252       0.32224849 </v>
    <v>       0.00829744       0.33467485       0.67430197 </v>
    <v>       0.47347068       0.31664780       0.00135219 </v>
    <v>       0.24113251       0.17877375       0.82966734 </v>
    <v>       0.50402389       0.99227165       0.32752105 </v>
    <v>       0.99859097       0.99759522       0.30918917 </v>
    <v>       0.77411303       0.84398081       0.49779546 </v>
    <v>       0.01485102       0.00563079       0.00807714 </v>
    <v>       0.76921730       0.16484504       0.49797239 </v>
    <v>       0.73506161       0.17214664       0.17011508 </v>
    <v>       0.49236250       0.33117025       0.65462016 </v>
    <v>       0.77163614       0.84203144       0.82449856 </v>
    <v>       0.23497172       0.50727304       0.49438268 </v>
    <v>       0.73289030       0.48925845       0.84014035 </v>
   </varray>
  </structure>
  <varray name="forces" >
   <v>      -0.02244336       0.08040645       0.01012098 </v>
   <v>      -0.01458501      -0.01096048      -0.01037189 </v>
   <v>      -0.07551169       0.03352013      -0.07956590 </v>
   <v>      -0.02791337       0.00390493      -0.00560239 </v>
   <v>      -0.01489868      -0.00580057       0.00097115 </v>
   <v>       0.04379275      -0.02612998       0.01475859 </v>
   <v>      -0.20595000      -0.14872327       0.13792811 </v>
   <v>      -0.00340791      -0.00095408       0.02256767 </v>
   <v>       0.01125764      -0.01663212      -0.01997767 </v>
   <v>      -0.01093035       0.03341630      -0.00843866 </v>
   <v>       0.01897263      -0.00292567       0.00768583 </v>
   <v>      -0.03313314       0.01688574      -0.00361037 </v>
   <v>       0.00592330      -0.03520810      -0.01194922 </v>
   <v>       0.12099611       0.25818007      -0.19367663 </v>
   <v>      -0.00430556       0.00049407       0.13552835 </v>
   <v>       0.19435126       0.31609481       0.13588620 </v>
   <v>      -0.00468646      -0.00335249       0.01064303 </v>
   <v>       0.13262538      -0.27053484      -0.34803764 </v>
   <v>       0.01275935      -0.02491033       0.01121121 </v>
   <v>       0.05134479       0.06704954       0.00798364 </v>
   <v>      -0.17526763       0.24342575      -0.28662567 </v>
   <v>      -0.00914787      -0.00756283      -0.02034754 </v>
   <v>      -0.02090931       0.02310183       0.01257050 </v>
   <v>      -0.00573752       0.02012695       0.01228680 </v>
   <v>       0.00257407      -0.08251620       0.01333367 </v>
   <v>       0.26416358      -0.38743803       0.30511431 </v>
   <v>       0.00576397       0.00570275       0.01183539 </v>
   <v>       0.01737431       0.00227502       0.03736939 </v>
   <v>      -0.01256152       0.00723246       0.00416112 </v>
   <v>       0.08318157       0.02442585       0.04578846 </v>
   <v>      -0.00823410      -0.02045143       0.01175703 </v>
   <v>      -0.11301159      -0.22069685      -0.17073849 </v>
   <v>       0.00209179       0.03335906      -0.01328178 </v>
   <v>      -0.24006877       0.10513946       0.21896928 </v>
   <v>       0.02835417      -0.00356957       0.00784059 </v>
   <v>       0.00717717      -0.00637431      -0.00408748 </v>
  </varray>
  <varray name="stress" >
   <v>      -2.32054645      -0.35418516       0.25927299 </v>
   <v>      -0.35418511      -2.44363826       0.11549164 </v>
   <v>       0.25927313       0.11549165      -1.68147296 </v>
  </varray>
  <energy>
   <i name="e_fr_energy">   -357.72341747 </i>
   <i name="e_wo_entrp">   -357.72852408 </i>
   <i name="e_0_energy">      0.01531982 </i>
  </energy>
  <time name="totalsc">   14.77   16.09</time>
 </calculation>
 <calculation>
  <scstep>
   <time name="dav">    1.30    1.32</time>
   <time name="total">    1.46    1.64</time>
   <energy>
    <i name="alphaZ">   1604.08600226 </i>
    <i name="ewald"> -21747.02450830 </i>
    <i name="hartreedc">  -7718.12557513 </i>
    <i name="XCdc">     39.57978381 </i>
    <i name="pawpsdc">  36045.72341109 </i>
    <i name="pawaedc"> -34567.98366964 </i>
    <i name="eentropy">      0.01365152 </i>
    <i name="bandstr">  -3012.62440368 </i>
    <i name="atom">  28998.43763117 </i>
    <i name="e_fr_energy">   -357.91767689 </i>
    <i name="e_wo_entrp">   -357.93132842 </i>
    <i name="e_0_energy">   -357.92222740 </i>
   </energy>
  </scstep>
  <scstep>
   <time name="diag">    0.09    0.10</time>
   <time name="diis">    0.92    0.93</time>
   <time name="orth">    0.01    0.01</time>
   <time name="total">    1.11    1.15</time>
   <energy>
    <i name="e_fr_energy">   -357.85438740 </i>
    <i name="e_wo_entrp">   -357.87108101 </i>
    <i name="e_0_energy">   -357.85995194 </i>
   </energy>
  </scstep>
  <scstep>
   <time name="diag">    0.10    0.10</time>
   <time name="diis">    0.86    0.90</time>
   <time name="orth">    0.02    0.02</time>
   <time name="total">    1.06    1.15</time>
   <energy>
    <i name="e_fr_energy">   -357.77396743 </i>
    <i name="e_wo_entrp">   -357.78864834 </i>
    <i name="e_0_energy">   -357.77886106 </i>
   </energy>
  </scstep>
  <scstep>
   <time name="diag">    0.10    0.10</time>
   <time name="diis">    0.89    0.93</time>
   <time name="orth">    0.01    0.01</time>
   <time name="total">    1.08    1.16</time>
   <energy>
    <i name="e_fr_energy">   -357.75152242 </i>
    <i name="e_wo_entrp">   -357.76623594 </i>
    <i name="e_0_energy">   -357.75642692 </i>
   </energy>
  </scstep>
  <scstep>
   <time name="diag">    0.09    0.09</time>
   <time name="diis">    0.82    0.87</time>
   <time name="orth">    0.01    0.01</time>
   <time name="total">    1.00    1.08</time>
   <energy>
    <i name="e_fr_energy">   -357.74613399 </i>
    <i name="e_wo_entrp">   -357.76099464 </i>
    <i name="e_0_energy">   -357.75108754 </i>
   </energy>
  </scstep>
  <scstep>
   <time name="diag">    0.09    0.09</time>
   <time name="diis">    0.91    0.96</time>
   <time name="orth">    0.01    0.01</time>
   <time name="total">    1.09    1.18</time>
   <energy>
    <i name="e_fr_energy">   -357.74676693 </i>
    <i name="e_wo_entrp">   -357.76163091 </i>
    <i name="e_0_energy">   -357.75172159 </i>
   </energy>
  </scstep>
  <scstep>
   <time name="diag">    0.10    0.10</time>
   <time name="diis">    0.95    1.00</time>
   <time name="orth">    0.01    0.01</time>
   <time name="total">    1.13    1.22</time>
   <energy>
    <i name="e_fr_energy">   -357.74724427 </i>
    <i name="e_wo_entrp">   -357.76218948 </i>
    <i name="e_0_energy">   -357.75222600 </i>
   </energy>
  </scstep>
  <scstep>
   <time name="diag">    0.13    0.14</time>
   <time name="diis">    1.04    1.09</time>
   <time name="orth">    0.01    0.01</time>
   <time name="total">    1.27    1.36</time>
   <energy>
    <i name="e_fr_energy">   -357.74757899 </i>
    <i name="e_wo_entrp">   -357.76235319 </i>
    <i name="e_0_energy">   -357.75250373 </i>
   </energy>
  </scstep>
  <scstep>
   <time name="diag">    0.09    0.09</time>
   <time name="diis">    1.00    1.04</time>
   <time name="orth">    0.01    0.01</time>
   <time name="total">    1.17    1.28</time>
   <energy>
    <i name="e_fr_energy">   -357.74780252 </i>
    <i name="e_wo_entrp">   -357.76261191 </i>
    <i name="e_0_energy">   -357.75273898 </i>
   </energy>
  </scstep>
  <scstep>
   <time name="diag">    0.09    0.09</time>
   <time name="diis">    1.22    1.27</time>
   <time name="orth">    0.01    0.01</time>
   <time name="total">    1.46    1.55</time>
   <energy>
    <i name="e_fr_energy">   -357.74802322 </i>
    <i name="e_wo_entrp">   -357.76282078 </i>
    <i name="e_0_energy">   -357.75295574 </i>
   </energy>
  </scstep>
  <scstep>
   <time name="diag">    0.17    0.17</time>
   <time name="diis">    0.69    0.72</time>
   <time name="orth">    0.02    0.02</time>
   <time name="total">    0.99    1.06</time>
   <energy>
    <i name="e_fr_energy">   -357.74810982 </i>
    <i name="e_wo_entrp">   -357.76292251 </i>
    <i name="e_0_energy">   -357.75304738 </i>
   </energy>
  </scstep>
  <scstep>
   <time name="diag">    0.11    0.12</time>
   <time name="diis">    0.93    0.96</time>
   <time name="orth">    0.01    0.01</time>
   <time name="total">    1.14    1.23</time>
   <energy>
    <i name="e_fr_energy">   -357.74812872 </i>
    <i name="e_wo_entrp">   -357.76293791 </i>
    <i name="e_0_energy">   -357.75306512 </i>
   </energy>
  </scstep>
  <scstep>
   <time name="diag">    0.09    0.09</time>
   <time name="diis">    0.52    0.54</time>
   <time name="orth">    0.01    0.01</time>
   <time name="total">    0.67    0.71</time>
   <energy>
    <i name="alphaZ">   1604.08600226 </i>
    <i name="ewald"> -21747.02450830 </i>
    <i name="hartreedc">  -7678.06870497 </i>
    <i name="XCdc">     37.79587599 </i>
    <i name="pawpsdc">  36415.37465873 </i>
    <i name="pawaedc"> -34936.80183939 </i>
    <i name="eentropy">      0.01479875 </i>
    <i name="bandstr">  -3051.56204733 </i>
    <i name="atom">  28998.43763117 </i>
    <i name="e_fr_energy">   -357.74813308 </i>
    <i name="e_wo_entrp">   -357.76293183 </i>
    <i name="e_0_energy">   -357.75306599 </i>
   </energy>
  </scstep>
  <structure>
   <crystal>
    <varray name="basis" >
     <v>       6.97373957       0.04466211       0.01733313 </v>
     <v>       0.06538839      10.18002942       0.00312866 </v>
     <v>       0.02574135       0.00221335      10.22608008 </v>
    </varray>
    <i name="volume">    725.94436700 </i>
    <varray name="rec_basis" >
     <v>       0.14340188      -0.00092099      -0.00036078 </v>
     <v>      -0.00062908       0.09823559      -0.00001968 </v>
     <v>      -0.00024287      -0.00002849       0.09778980 </v>
    </varray>
   </crystal>
   <varray name="positions" >
    <v>       0.48628071       0.00359987       0.99716867 </v>
    <v>       0.72431089       0.49391179       0.17409541 </v>
    <v>       0.04270566       0.01223760       0.67768950 </v>
    <v>       0.52660662       0.66702837       0.34136584 </v>
    <v>       0.76636765       0.49528325       0.49124394 </v>
    <v>       0.97123584       0.65880457       0.32169168 </v>
    <v>       0.75658215       0.16714966       0.83153492 </v>
    <v>       0.27001483       0.50769726       0.16956189 </v>
    <v>       0.52671346       0.66817853       0.65254428 </v>
    <v>       0.25409193       0.50872352       0.83785879 </v>
    <v>       0.23638921       0.16463414       0.48273294 </v>
    <v>       0.01242250       0.33318640       0.00831522 </v>
    <v>       0.96595469       0.66002228       0.01870959 </v>
    <v>       0.25950044       0.82127610       0.17341766 </v>
    <v>       0.47417714       0.00060474       0.67142909 </v>
    <v>       0.24153904       0.81194979       0.83432616 </v>
    <v>       0.23848170       0.83147844       0.49017069 </v>
    <v>       0.25942907       0.16851135       0.18216702 </v>
    <v>       0.97252639       0.65182398       0.66172903 </v>
    <v>       0.52855817       0.67771729       0.00843606 </v>
    <v>       0.73631834       0.83634143       0.17503006 </v>
    <v>       0.50713658       0.34140624       0.34548673 </v>
    <v>       0.99195170       0.34377194       0.32229964 </v>
    <v>       0.00828027       0.33477290       0.67431193 </v>
    <v>       0.47344994       0.31636241       0.00140275 </v>
    <v>       0.24229733       0.17754900       0.83057905 </v>
    <v>       0.50405979       0.99227095       0.32755125 </v>
    <v>       0.99868321       0.99760169       0.30928382 </v>
    <v>       0.77405688       0.84399247       0.49779638 </v>
    <v>       0.01527853       0.00570065       0.00823392 </v>
    <v>       0.76919180       0.16477487       0.49799927 </v>
    <v>       0.73450487       0.17144545       0.16958349 </v>
    <v>       0.49237557       0.33129116       0.65455626 </v>
    <v>       0.77056270       0.84237946       0.82516394 </v>
    <v>       0.23506146       0.50727715       0.49440011 </v>
    <v>       0.73290093       0.48924931       0.84013304 </v>
   </varray>
  </structure>
  <varray name="forces" >
   <v>      -0.02351372       0.04626948      -0.01295750 </v>
   <v>       0.00886752      -0.03451513      -0.01806985 </v>
   <v>      -0.10622591       0.01038319      -0.07134914 </v>
   <v>      -0.04601731       0.02950102      -0.01228035 </v>
   <v>      -0.03109716      -0.02028809       0.02061016 </v>
   <v>       0.06057024       0.01656623       0.00899746 </v>
   <v>      -0.17625066      -0.10213619       0.11215299 </v>
   <v>      -0.02134515       0.00785119       0.01926181 </v>
   <v>      -0.01101806      -0.00138861       0.00340983 </v>
   <v>      -0.01580965       0.05750554      -0.00533988 </v>
   <v>       0.02789044       0.02037079      -0.00039442 </v>
   <v>      -0.03833892      -0.00035030      -0.02119050 </v>
   <v>       0.03487119      -0.01532820      -0.03559325 </v>
   <v>       0.08441947       0.20133239      -0.16573472 </v>
   <v>       0.02825063      -0.00136685       0.08223200 </v>
   <v>       0.16735941       0.24447410       0.11774153 </v>
   <v>      -0.00745686      -0.01847538       0.02082559 </v>
   <v>       0.09366455      -0.21841815      -0.27660385 </v>
   <v>       0.03812973       0.00819936       0.04140384 </v>
   <v>       0.01384258       0.04697142      -0.02683139 </v>
   <v>      -0.11002648       0.17944197      -0.22079967 </v>
   <v>      -0.01956671      -0.03324573      -0.03874265 </v>
   <v>      -0.00464067      -0.00758238       0.00296614 </v>
   <v>      -0.00915040      -0.00818645       0.02996777 </v>
   <v>       0.01795890      -0.04449226       0.00373215 </v>
   <v>       0.23341391      -0.29939656       0.26721227 </v>
   <v>      -0.00075795       0.01797082       0.01519856 </v>
   <v>       0.00695978       0.00112280       0.04613333 </v>
   <v>      -0.01146672       0.01263505       0.01156171 </v>
   <v>       0.04034625       0.02169454       0.02420051 </v>
   <v>      -0.01274770      -0.01129207       0.01516063 </v>
   <v>      -0.06371232      -0.16417646      -0.13215882 </v>
   <v>      -0.00127815       0.01414442       0.00567772 </v>
   <v>      -0.20334385       0.07069835       0.18571606 </v>
   <v>       0.04128459      -0.01396007       0.01142538 </v>
   <v>       0.01593513      -0.01253380      -0.00754144 </v>
  </varray>
  <varray name="stress" >
   <v>       9.02562914      -0.16108788       0.15921989 </v>
   <v>      -0.16108780       9.03013829       0.13609760 </v>
   <v>       0.15921985       0.13609759       9.56448227 </v>
  </varray>
  <energy>
   <i name="e_fr_energy">   -357.74813308 </i>
   <i name="e_wo_entrp">   -357.75306599 </i>
   <i name="e_0_energy">      0.01479875 </i>
  </energy>
  <time name="totalsc">   16.44   17.78</time>
 </calculation>
 <calculation>
  <scstep>
   <time name="dav">    1.06    1.12</time>
   <time name="total">    1.19    1.40</time>
   <energy>
    <i name="alphaZ">   1602.37471872 </i>
    <i name="ewald"> -21739.71026344 </i>
    <i name="hartreedc">  -7675.06866418 </i>
    <i name="XCdc">     37.43751442 </i>
    <i name="pawpsdc">  36415.86427642 </i>
    <i name="pawaedc"> -34937.25515762 </i>
    <i name="eentropy">      0.01570750 </i>
    <i name="bandstr">  -3059.86298306 </i>
    <i name="atom">  28998.43763117 </i>
    <i name="e_fr_energy">   -357.76722006 </i>
    <i name="e_wo_entrp">   -357.78292756 </i>
    <i name="e_0_energy">   -357.77245589 </i>
   </energy>
  </scstep>
  <scstep>
   <time name="diag">    0.09    0.09</time>
   <time name="diis">    0.75    0.79</time>
   <time name="orth">    0.01    0.01</time>
   <time name="total">    0.91    1.01</time>
   <energy>
    <i name="e_fr_energy">   -357.77753094 </i>
    <i name="e_wo_entrp">   -357.79212072 </i>
    <i name="e_0_energy">   -357.78239420 </i>
   </energy>
  </scstep>
  <scstep>
   <time name="diag">    0.08    0.09</time>
   <time name="diis">    0.81    0.85</time>
   <time name="orth">    0.01    0.01</time>
   <time name="total">    0.97    1.06</time>
   <energy>
    <i name="e_fr_energy">   -357.77398984 </i>
    <i name="e_wo_entrp">   -357.78939789 </i>
    <i name="e_0_energy">   -357.77912586 </i>
   </energy>
  </scstep>
  <scstep>
   <time name="diag">    0.08    0.09</time>
   <time name="diis">    0.95    1.00</time>
   <time name="orth">    0.01    0.01</time>
   <time name="total">    1.12    1.22</time>
   <energy>
    <i name="e_fr_energy">   -357.77348195 </i>
    <i name="e_wo_entrp">   -357.78881681 </i>
    <i name="e_0_energy">   -357.77859357 </i>
   </energy>
  </scstep>
  <scstep>
   <time name="diag">    0.09    0.09</time>
   <time name="diis">    0.85    0.89</time>
   <time name="orth">    0.01    0.01</time>
   <time name="total">    1.02    1.10</time>
   <energy>
    <i name="e_fr_energy">   -357.77337233 </i>
    <i name="e_wo_entrp">   -357.78856491 </i>
    <i name="e_0_energy">   -357.77843652 </i>
   </energy>
  </scstep>
  <scstep>
   <time name="diag">    0.09    0.16</time>
   <time name="diis">    0.86    0.95</time>
   <time name="orth">    0.01    0.01</time>
   <time name="total">    1.03    1.25</time>
   <energy>
    <i name="e_fr_energy">   -357.77334708 </i>
    <i name="e_wo_entrp">   -357.78865550 </i>
    <i name="e_0_energy">   -357.77844989 </i>
   </energy>
  </scstep>
  <scstep>
   <time name="diag">    0.09    0.09</time>
   <time name="diis">    0.77    0.81</time>
   <time name="orth">    0.02    0.02</time>
   <time name="total">    0.94    1.02</time>
   <energy>
    <i name="e_fr_energy">   -357.77333609 </i>
    <i name="e_wo_entrp">   -357.78857850 </i>
    <i name="e_0_energy">   -357.77841689 </i>
   </energy>
  </scstep>
  <scstep>
   <time name="diag">    0.09    0.10</time>
   <time name="diis">    0.63    0.66</time>
   <time name="orth">    0.01    0.01</time>
   <time name="total">    0.77    0.84</time>
   <energy>
    <i name="alphaZ">   1602.37471872 </i>
    <i name="ewald"> -21739.71026344 </i>
    <i name="hartreedc">  -7680.19804924 </i>
    <i name="XCdc">     37.66615305 </i>
    <i name="pawpsdc">  36368.15814848 </i>
    <i name="pawaedc"> -34889.42268084 </i>
    <i name="eentropy">      0.01526304 </i>
    <i name="bandstr">  -3055.09425507 </i>
    <i name="atom">  28998.43763117 </i>
    <i name="e_fr_energy">   -357.77333413 </i>
    <i name="e_wo_entrp">   -357.78859717 </i>
    <i name="e_0_energy">   -357.77842181 </i>
   </energy>
  </scstep>
  <structure>
   <crystal>
    <varray name="basis" >
     <v>       6.97586087       0.04406048       0.01781713 </v>
     <v>       0.06451133      10.18284068       0.00350326 </v>
     <v>       0.02644398       0.00258200      10.23105511 </v>
    </varray>
    <i name="volume">    726.71965173 </i>
    <varray name="rec_basis" >
     <v>       0.14335816      -0.00090809      -0.00037031 </v>
     <v>      -0.00062024       0.09820836      -0.00002318 </v>
     <v>      -0.00024944      -0.00003205       0.09774228 </v>
    </varray>
   </crystal>
   <varray name="positions" >
    <v>       0.48620345       0.00376039       0.99717575 </v>
    <v>       0.72428590       0.49387094       0.17406609 </v>
    <v>       0.04242280       0.01230016       0.67751370 </v>
    <v>       0.52649513       0.66705530       0.34134936 </v>
    <v>       0.76630182       0.49526106       0.49125965 </v>
    <v>       0.97139967       0.65877271       0.32172138 </v>
    <v>       0.75592442       0.16684275       0.83183386 </v>
    <v>       0.26998484       0.50770085       0.16961140 </v>
    <v>       0.52673037       0.66815078       0.65251480 </v>
    <v>       0.25404884       0.50881655       0.83784161 </v>
    <v>       0.23646226       0.16464276       0.48274436 </v>
    <v>       0.01230680       0.33321394       0.00829550 </v>
    <v>       0.96600500       0.65995581       0.01866577 </v>
    <v>       0.25986541       0.82182847       0.17299388 </v>
    <v>       0.47419527       0.00060404       0.67170131 </v>
    <v>       0.24215652       0.81262374       0.83462300 </v>
    <v>       0.23846271       0.83146060       0.49020133 </v>
    <v>       0.25984194       0.16792525       0.18142063 </v>
    <v>       0.97259453       0.65178814       0.66177468 </v>
    <v>       0.52868999       0.67785629       0.00843101 </v>
    <v>       0.73579474       0.83685916       0.17442103 </v>
    <v>       0.50709610       0.34137187       0.34542784 </v>
    <v>       0.99189731       0.34380465       0.32232279 </v>
    <v>       0.00825752       0.33480057       0.67435185 </v>
    <v>       0.47347417       0.31619929       0.00142654 </v>
    <v>       0.24315696       0.17671661       0.83124876 </v>
    <v>       0.50407191       0.99229242       0.32758109 </v>
    <v>       0.99873056       0.99760546       0.30937553 </v>
    <v>       0.77401497       0.84401230       0.49781068 </v>
    <v>       0.01551292       0.00575330       0.00832286 </v>
    <v>       0.76915959       0.16473447       0.49802784 </v>
    <v>       0.73418186       0.17097919       0.16922140 </v>
    <v>       0.49237815       0.33135453       0.65453866 </v>
    <v>       0.76979150       0.84259956       0.82564256 </v>
    <v>       0.23516877       0.50726151       0.49442040 </v>
    <v>       0.73293330       0.48923054       0.84012112 </v>
   </varray>
  </structure>
  <varray name="forces" >
   <v>      -0.03046435       0.03360680      -0.02100127 </v>
   <v>       0.01521904      -0.03306090       0.00045905 </v>
   <v>      -0.09154393       0.01476734      -0.04973528 </v>
   <v>      -0.02491386       0.03588529      -0.02292664 </v>
   <v>      -0.02674105      -0.01459163       0.00945874 </v>
   <v>       0.03549320       0.02501642      -0.00366419 </v>
   <v>      -0.14741825      -0.07074304       0.09175351 </v>
   <v>      -0.01974919       0.01576541       0.02290108 </v>
   <v>      -0.00498401       0.00214912       0.00532763 </v>
   <v>      -0.01581455       0.06484945      -0.00461631 </v>
   <v>       0.02046582       0.02919997      -0.01079111 </v>
   <v>      -0.02447116      -0.01476848      -0.02905016 </v>
   <v>       0.03068094      -0.00556957      -0.02882209 </v>
   <v>       0.06882464       0.15707777      -0.13555345 </v>
   <v>       0.02158402       0.00285030       0.05424628 </v>
   <v>       0.13923868       0.19727789       0.10114872 </v>
   <v>      -0.01343473      -0.02016566       0.01923279 </v>
   <v>       0.07390548      -0.18071896      -0.21593398 </v>
   <v>       0.03120814       0.01217448       0.04778541 </v>
   <v>       0.00938330       0.03234783      -0.02667633 </v>
   <v>      -0.07675345       0.12338360      -0.15321223 </v>
   <v>      -0.01149548      -0.03379999      -0.04525247 </v>
   <v>      -0.00967909      -0.00995094      -0.00712893 </v>
   <v>      -0.00569987      -0.02801122       0.04415462 </v>
   <v>       0.00825203      -0.03119603       0.00327432 </v>
   <v>       0.19808655      -0.23987988       0.22346962 </v>
   <v>      -0.00342267       0.01420302       0.00234238 </v>
   <v>       0.00278871      -0.00074975       0.03439067 </v>
   <v>      -0.00387285       0.00294465       0.00621316 </v>
   <v>       0.02249516       0.02140322       0.01513103 </v>
   <v>      -0.00383645      -0.00041163       0.00894516 </v>
   <v>      -0.04133947      -0.12200871      -0.09788970 </v>
   <v>      -0.00703673       0.00248962       0.01268765 </v>
   <v>      -0.17116510       0.04711658       0.15325961 </v>
   <v>       0.03522304      -0.01722781       0.00454412 </v>
   <v>       0.02098749      -0.01165457      -0.00847140 </v>
  </varray>
  <varray name="stress" >
   <v>       7.58875115      -0.06809852       0.06195155 </v>
   <v>      -0.06809859       7.62905730       0.13465943 </v>
   <v>       0.06195154       0.13465934       7.91176857 </v>
  </varray>
  <energy>
   <i name="e_fr_energy">   -357.77333413 </i>
   <i name="e_wo_entrp">   -357.77842181 </i>
   <i name="e_0_energy">      0.01526304 </i>
  </energy>
  <time name="totalsc">    9.67   10.84</time>
 </calculation>
 <calculation>
  <scstep>
   <time name="dav">    1.02    1.09</time>
   <time name="total">    1.13    1.37</time>
   <energy>
    <i name="alphaZ">   1597.25596009 </i>
    <i name="ewald"> -21715.98507310 </i>
    <i name="hartreedc">  -7672.67461714 </i>
    <i name="XCdc">     36.59546731 </i>
    <i name="pawpsdc">  36368.32345965 </i>
    <i name="pawaedc"> -34889.63740929 </i>
    <i name="eentropy">      0.01846192 </i>
    <i name="bandstr">  -3080.09150362 </i>
    <i name="atom">  28998.43763117 </i>
    <i name="e_fr_energy">   -357.75762298 </i>
    <i name="e_wo_entrp">   -357.77608490 </i>
    <i name="e_0_energy">   -357.76377695 </i>
   </energy>
  </scstep>
  <scstep>
   <time name="diag">    0.09    0.10</time>
   <time name="diis">    0.71    0.75</time>
   <time name="orth">    0.01    0.01</time>
   <time name="total">    0.89    0.97</time>
   <energy>
    <i name="e_fr_energy">   -357.84859524 </i>
    <i name="e_wo_entrp">   -357.86331799 </i>
    <i name="e_0_energy">   -357.85350282 </i>
   </energy>
  </scstep>
  <scstep>
   <time name="diag">    0.08    0.09</time>
   <time name="diis">    0.82    0.86</time>
   <time name="orth">    0.01    0.01</time>
   <time name="total">    0.99    1.09</time>
   <energy>
    <i name="e_fr_energy">   -357.82059271 </i>
    <i name="e_wo_entrp">   -357.83809088 </i>
    <i name="e_0_energy">   -357.82642543 </i>
   </energy>
  </scstep>
  <scstep>
   <time name="diag">    0.11    0.11</time>
   <time name="diis">    0.96    0.97</time>
   <time name="orth">    0.01    0.01</time>
   <time name="total">    1.15    1.22</time>
   <energy>
    <i name="e_fr_energy">   -357.81586373 </i>
    <i name="e_wo_entrp">   -357.83294716 </i>
    <i name="e_0_energy">   -357.82155821 </i>
   </energy>
  </scstep>
  <scstep>
   <time name="diag">    0.11    0.11</time>
   <time name="diis">    0.77    0.90</time>
   <time name="orth">    0.01    0.01</time>
   <time name="total">    0.97    1.14</time>
   <energy>
    <i name="e_fr_energy">   -357.81501602 </i>
    <i name="e_wo_entrp">   -357.83169796 </i>
    <i name="e_0_energy">   -357.82057667 </i>
   </energy>
  </scstep>
  <scstep>
   <time name="diag">    0.10    0.10</time>
   <time name="diis">    0.86    0.91</time>
   <time name="orth">    0.02    0.02</time>
   <time name="total">    1.04    1.12</time>
   <energy>
    <i name="e_fr_energy">   -357.81479577 </i>
    <i name="e_wo_entrp">   -357.83182146 </i>
    <i name="e_0_energy">   -357.82047100 </i>
   </energy>
  </scstep>
  <scstep>
   <time name="diag">    0.14    0.15</time>
   <time name="diis">    1.00    1.01</time>
   <time name="orth">    0.01    0.01</time>
   <time name="total">    1.25    1.29</time>
   <energy>
    <i name="e_fr_energy">   -357.81478444 </i>
    <i name="e_wo_entrp">   -357.83160579 </i>
    <i name="e_0_energy">   -357.82039156 </i>
   </energy>
  </scstep>
  <scstep>
   <time name="diag">    0.19    0.19</time>
   <time name="diis">    1.34    1.35</time>
   <time name="orth">    0.01    0.01</time>
   <time name="total">    1.66    1.70</time>
   <energy>
    <i name="e_fr_energy">   -357.81482901 </i>
    <i name="e_wo_entrp">   -357.83172329 </i>
    <i name="e_0_energy">   -357.82046044 </i>
   </energy>
  </scstep>
  <scstep>
   <time name="diag">    0.14    0.14</time>
   <time name="diis">    0.84    0.85</time>
   <time name="orth">    0.01    0.01</time>
   <time name="total">    1.06    1.13</time>
   <energy>
    <i name="e_fr_energy">   -357.81485551 </i>
    <i name="e_wo_entrp">   -357.83176491 </i>
    <i name="e_0_energy">   -357.82049198 </i>
   </energy>
  </scstep>
  <scstep>
   <time name="diag">    0.09    0.17</time>
   <time name="diis">    0.79    0.82</time>
   <time name="orth">    0.01    0.01</time>
   <time name="total">    1.01    1.17</time>
   <energy>
    <i name="e_fr_energy">   -357.81486097 </i>
    <i name="e_wo_entrp">   -357.83174185 </i>
    <i name="e_0_energy">   -357.82048793 </i>
   </energy>
  </scstep>
  <scstep>
   <time name="diag">    0.10    0.10</time>
   <time name="diis">    0.59    0.63</time>
   <time name="orth">    0.01    0.01</time>
   <time name="total">    0.74    0.82</time>
   <energy>
    <i name="alphaZ">   1597.25596009 </i>
    <i name="ewald"> -21715.98507310 </i>
    <i name="hartreedc">  -7687.45439202 </i>
    <i name="XCdc">     37.25277801 </i>
    <i name="pawpsdc">  36226.61148123 </i>
    <i name="pawaedc"> -34748.29905635 </i>
    <i name="eentropy">      0.01688425 </i>
    <i name="bandstr">  -3065.65107402 </i>
    <i name="atom">  28998.43763117 </i>
    <i name="e_fr_energy">   -357.81486074 </i>
    <i name="e_wo_entrp">   -357.83174499 </i>
    <i name="e_0_energy">   -357.82048882 </i>
   </energy>
  </scstep>
  <structure>
   <crystal>
    <varray name="basis" >
     <v>       6.98222476       0.04225559       0.01926912 </v>
     <v>       0.06188012      10.19127447       0.00462707 </v>
     <v>       0.02855189       0.00368794      10.24598021 </v>
    </varray>
    <i name="volume">    729.04858496 </i>
    <varray name="rec_basis" >
     <v>       0.14322719      -0.00086948      -0.00039881 </v>
     <v>      -0.00059376       0.09812678      -0.00003367 </v>
     <v>      -0.00026909      -0.00004268       0.09760002 </v>
    </varray>
   </crystal>
   <varray name="positions" >
    <v>       0.48597181       0.00424181       0.99719698 </v>
    <v>       0.72421091       0.49374844       0.17397820 </v>
    <v>       0.04157454       0.01248776       0.67698662 </v>
    <v>       0.52616078       0.66713607       0.34129995 </v>
    <v>       0.76610440       0.49519448       0.49130677 </v>
    <v>       0.97189098       0.65867719       0.32181042 </v>
    <v>       0.75395163       0.16592213       0.83273035 </v>
    <v>       0.26989488       0.50771162       0.16975985 </v>
    <v>       0.52678110       0.66806757       0.65242641 </v>
    <v>       0.25391962       0.50909556       0.83779011 </v>
    <v>       0.23668134       0.16466866       0.48277857 </v>
    <v>       0.01195982       0.33329654       0.00823637 </v>
    <v>       0.96615589       0.65975647       0.01853439 </v>
    <v>       0.26096035       0.82348523       0.17172303 </v>
    <v>       0.47424956       0.00060194       0.67251758 </v>
    <v>       0.24400858       0.81464513       0.83551290 </v>
    <v>       0.23840572       0.83140709       0.49029319 </v>
    <v>       0.26108015       0.16616761       0.17918257 </v>
    <v>       0.97279888       0.65168066       0.66191157 </v>
    <v>       0.52908537       0.67827320       0.00841583 </v>
    <v>       0.73422477       0.83841188       0.17259484 </v>
    <v>       0.50697471       0.34126880       0.34525126 </v>
    <v>       0.99173418       0.34390275       0.32239221 </v>
    <v>       0.00818928       0.33488353       0.67447154 </v>
    <v>       0.47354676       0.31571008       0.00149789 </v>
    <v>       0.24573456       0.17422019       0.83325688 </v>
    <v>       0.50410826       0.99235681       0.32767056 </v>
    <v>       0.99887253       0.99761676       0.30965051 </v>
    <v>       0.77388928       0.84407175       0.49785357 </v>
    <v>       0.01621587       0.00591125       0.00858952 </v>
    <v>       0.76906297       0.16461329       0.49811352 </v>
    <v>       0.73321306       0.16958079       0.16813573 </v>
    <v>       0.49238589       0.33154459       0.65448587 </v>
    <v>       0.76747856       0.84325948       0.82707780 </v>
    <v>       0.23549061       0.50721465       0.49448125 </v>
    <v>       0.73303039       0.48917424       0.84008538 </v>
   </varray>
  </structure>
  <varray name="forces" >
   <v>      -0.04800365      -0.01073412      -0.04498123 </v>
   <v>       0.03424652      -0.02847084       0.05604126 </v>
   <v>      -0.04883791       0.02555250       0.00760166 </v>
   <v>       0.03351133       0.05154976      -0.05167062 </v>
   <v>      -0.01496047       0.00329653      -0.02274627 </v>
   <v>      -0.03271953       0.04585219      -0.03411524 </v>
   <v>      -0.06632549       0.02162085       0.03010116 </v>
   <v>      -0.01627275       0.03782210       0.03681345 </v>
   <v>       0.01051832       0.01224475       0.00907580 </v>
   <v>      -0.01916024       0.08932436      -0.00329924 </v>
   <v>      -0.00044148       0.05464498      -0.04183874 </v>
   <v>       0.01616476      -0.05455948      -0.04770319 </v>
   <v>       0.02160781       0.02366491      -0.00920068 </v>
   <v>       0.02274704       0.02599237      -0.04367488 </v>
   <v>       0.00635850       0.01472137      -0.03281257 </v>
   <v>       0.05787178       0.05321564       0.05160657 </v>
   <v>      -0.03215880      -0.02531395       0.01397427 </v>
   <v>       0.01642547      -0.06798397      -0.03736467 </v>
   <v>       0.01508215       0.02300423       0.06420577 </v>
   <v>      -0.00718634      -0.01336689      -0.02501304 </v>
   <v>       0.01796538      -0.03614764       0.03913349 </v>
   <v>       0.01308728      -0.03231697      -0.06315926 </v>
   <v>      -0.02651364      -0.01236147      -0.03163447 </v>
   <v>      -0.00196863      -0.07970187       0.07584003 </v>
   <v>      -0.02053256       0.01011642       0.00326127 </v>
   <v>       0.10088921      -0.06662314       0.09741127 </v>
   <v>      -0.01194069       0.00481249      -0.03430323 </v>
   <v>      -0.00888244      -0.00637356       0.00523351 </v>
   <v>       0.01815251      -0.02523815      -0.00848958 </v>
   <v>      -0.03422048       0.01733321      -0.01459066 </v>
   <v>       0.02288904       0.03215387      -0.00812064 </v>
   <v>       0.02611149       0.00724935       0.00522009 </v>
   <v>      -0.02278976      -0.03201642       0.03247854 </v>
   <v>      -0.07534510      -0.02411236       0.05463784 </v>
   <v>       0.01697623      -0.02774004      -0.01552177 </v>
   <v>       0.03765513      -0.01111102      -0.01239600 </v>
  </varray>
  <varray name="stress" >
   <v>       2.86506829       0.23245855      -0.19290396 </v>
   <v>       0.23245854       2.98263428       0.07367392 </v>
   <v>      -0.19290392       0.07367392       2.66304135 </v>
  </varray>
  <energy>
   <i name="e_fr_energy">   -357.81486074 </i>
   <i name="e_wo_entrp">   -357.82048882 </i>
   <i name="e_0_energy">      0.01688425 </i>
  </energy>
  <time name="totalsc">   13.65   14.94</time>
 </calculation>
 <calculation>
  <scstep>
   <time name="dav">    0.99    1.10</time>
   <time name="total">    1.08    1.37</time>
   <energy>
    <i name="alphaZ">   1595.63504336 </i>
    <i name="ewald"> -21707.89024760 </i>
    <i name="hartreedc">  -7685.54602315 </i>
    <i name="XCdc">     36.91365721 </i>
    <i name="pawpsdc">  36225.89741646 </i>
    <i name="pawaedc"> -34747.63696023 </i>
    <i name="eentropy">      0.01799814 </i>
    <i name="bandstr">  -3073.64043069 </i>
    <i name="atom">  28998.43763117 </i>
    <i name="e_fr_energy">   -357.81191533 </i>
    <i name="e_wo_entrp">   -357.82991348 </i>
    <i name="e_0_energy">   -357.81791471 </i>
   </energy>
  </scstep>
  <scstep>
   <time name="diag">    0.09    0.09</time>
   <time name="diis">    0.71    0.75</time>
   <time name="orth">    0.01    0.01</time>
   <time name="total">    0.88    0.96</time>
   <energy>
    <i name="e_fr_energy">   -357.82091324 </i>
    <i name="e_wo_entrp">   -357.83764255 </i>
    <i name="e_0_energy">   -357.82648968 </i>
   </energy>
  </scstep>
  <scstep>
   <time name="diag">    0.09    0.09</time>
   <time name="diis">    0.87    0.91</time>
   <time name="orth">    0.01    0.01</time>
   <time name="total">    1.04    1.12</time>
   <energy>
    <i name="e_fr_energy">   -357.81804296 </i>
    <i name="e_wo_entrp">   -357.83570864 </i>
    <i name="e_0_energy">   -357.82393152 </i>
   </energy>
  </scstep>
  <scstep>
   <time name="diag">    0.08    0.09</time>
   <time name="diis">    0.84    0.87</time>
   <time name="orth">    0.01    0.01</time>
   <time name="total">    1.01    1.09</time>
   <energy>
    <i name="e_fr_energy">   -357.81759791 </i>
    <i name="e_wo_entrp">   -357.83512342 </i>
    <i name="e_0_energy">   -357.82343975 </i>
   </energy>
  </scstep>
  <scstep>
   <time name="diag">    0.09    0.09</time>
   <time name="diis">    0.89    0.93</time>
   <time name="orth">    0.01    0.01</time>
   <time name="total">    1.05    1.14</time>
   <energy>
    <i name="e_fr_energy">   -357.81751329 </i>
    <i name="e_wo_entrp">   -357.83491788 </i>
    <i name="e_0_energy">   -357.82331482 </i>
   </energy>
  </scstep>
  <scstep>
   <time name="diag">    0.09    0.09</time>
   <time name="diis">    0.81    0.87</time>
   <time name="orth">    0.01    0.02</time>
   <time name="total">    0.98    1.08</time>
   <energy>
    <i name="e_fr_energy">   -357.81749707 </i>
    <i name="e_wo_entrp">   -357.83500348 </i>
    <i name="e_0_energy">   -357.82333254 </i>
   </energy>
  </scstep>
  <scstep>
   <time name="diag">    0.09    0.10</time>
   <time name="diis">    0.74    0.78</time>
   <time name="orth">    0.01    0.01</time>
   <time name="total">    0.91    1.00</time>
   <energy>
    <i name="e_fr_energy">   -357.81748851 </i>
    <i name="e_wo_entrp">   -357.83493315 </i>
    <i name="e_0_energy">   -357.82330339 </i>
   </energy>
  </scstep>
  <scstep>
   <time name="diag">    0.09    0.09</time>
   <time name="diis">    0.61    0.62</time>
   <time name="orth">    0.01    0.01</time>
   <time name="total">    0.75    0.81</time>
   <energy>
    <i name="alphaZ">   1595.63504336 </i>
    <i name="ewald"> -21707.89024760 </i>
    <i name="hartreedc">  -7690.35173122 </i>
    <i name="XCdc">     37.12720421 </i>
    <i name="pawpsdc">  36183.19611458 </i>
[...]
       <r>    7.1434    1.0000 </r>
       <r>    7.2091    1.0000 </r>
       <r>    7.2349    1.0000 </r>
       <r>    7.2561    1.0000 </r>
       <r>    7.3070    1.0000 </r>
       <r>    7.3516    1.0000 </r>
       <r>    7.3874    1.0001 </r>
       <r>    7.4343    1.0006 </r>
       <r>    7.4641    1.0014 </r>
       <r>    7.4910    1.0030 </r>
       <r>    7.5268    1.0072 </r>
       <r>    7.5331    1.0082 </r>
       <r>    7.5837    1.0206 </r>
       <r>    7.6149    1.0299 </r>
       <r>    7.6461    1.0354 </r>
       <r>    7.6901    1.0185 </r>
       <r>    7.7176    0.9797 </r>
       <r>    7.7755    0.7944 </r>
       <r>    7.8193    0.5707 </r>
       <r>    7.8428    0.4389 </r>
       <r>    7.8933    0.1835 </r>
       <r>    7.9331    0.0492 </r>
       <r>    7.9829   -0.0258 </r>
       <r>    8.0176   -0.0354 </r>
       <r>    8.0693   -0.0239 </r>
       <r>    8.0995   -0.0151 </r>
       <r>    8.1028   -0.0142 </r>
       <r>    8.1349   -0.0075 </r>
       <r>    8.1908   -0.0018 </r>
       <r>    8.2305   -0.0006 </r>
       <r>    8.2548   -0.0002 </r>
       <r>    8.2887   -0.0001 </r>
       <r>    8.3190   -0.0000 </r>
       <r>    8.4044   -0.0000 </r>
       <r>    8.4529   -0.0000 </r>
       <r>    8.4934   -0.0000 </r>
       <r>    8.5398   -0.0000 </r>
       <r>    8.6321   -0.0000 </r>
       <r>    8.6874   -0.0000 </r>
       <r>    8.7357   -0.0000 </r>
       <r>    8.8310   -0.0000 </r>
       <r>    8.9456   -0.0000 </r>
       <r>    9.1012   -0.0000 </r>
       <r>    9.1701   -0.0000 </r>
       <r>    9.5741   -0.0000 </r>
       <r>    9.6484   -0.0000 </r>
       <r>    9.7275   -0.0000 </r>
       <r>    9.7573   -0.0000 </r>
       <r>    9.7966   -0.0000 </r>
      </set>
     </set>
    </set>
   </array>
  </eigenvalues>
  <separator name="orbital magnetization" >
   <v name="MAGDIPOLOUT">      0.00000000      0.00000000      0.00000000</v>
  </separator>
  <dos>
   <i name="efermi">      7.83190159 </i>
   <total>
    <array>
     <dimension dim="1">gridpoints</dimension>
     <dimension dim="2">spin</dimension>
     <field>energy</field>
     <field>total</field>
     <field>integrated</field>
     <set>
      <set comment="spin 1">
       <r>   -49.3356     0.0000     0.0000 </r>
       <r>   -49.1288     0.0000     0.0000 </r>
       <r>   -48.9221     0.0000     0.0000 </r>
       <r>   -48.7154     0.0000     0.0000 </r>
       <r>   -48.5087     0.0000     0.0000 </r>
       <r>   -48.3019     0.0000     0.0000 </r>
       <r>   -48.0952     0.0000     0.0000 </r>
       <r>   -47.8885    -0.0000    -0.0000 </r>
       <r>   -47.6817    -0.0000    -0.0000 </r>
       <r>   -47.4750    -0.0000    -0.0000 </r>
       <r>   -47.2683    -0.0000    -0.0000 </r>
       <r>   -47.0616    -0.0000    -0.0000 </r>
       <r>   -46.8548    -0.0481    -0.0100 </r>
       <r>   -46.6481    -1.8216    -0.3865 </r>
       <r>   -46.4414    36.5236     7.1639 </r>
       <r>   -46.2347    60.4990    19.6707 </r>
       <r>   -46.0279     8.6596    21.4609 </r>
       <r>   -45.8212     2.8256    22.0450 </r>
       <r>   -45.6145    -0.2169    22.0002 </r>
       <r>   -45.4077    -0.0009    22.0000 </r>
       <r>   -45.2010    -0.0000    22.0000 </r>
       <r>   -44.9943    -0.0000    22.0000 </r>
       <r>   -44.7876     0.0000    22.0000 </r>
       <r>   -44.5808     0.0000    22.0000 </r>
       <r>   -44.3741     0.0000    22.0000 </r>
       <r>   -44.1674     0.0000    22.0000 </r>
       <r>   -43.9606     0.0000    22.0000 </r>
       <r>   -43.7539     0.0000    22.0000 </r>
       <r>   -43.5472     0.0000    22.0000 </r>
       <r>   -43.3405     0.0000    22.0000 </r>
       <r>   -43.1337     0.0000    22.0000 </r>
       <r>   -42.9270     0.0000    22.0000 </r>
       <r>   -42.7203     0.0000    22.0000 </r>
       <r>   -42.5136     0.0000    22.0000 </r>
       <r>   -42.3068     0.0000    22.0000 </r>
       <r>   -42.1001     0.0000    22.0000 </r>
       <r>   -41.8934     0.0000    22.0000 </r>
       <r>   -41.6866    -0.0000    22.0000 </r>
       <r>   -41.4799    -0.0000    22.0000 </r>
       <r>   -41.2732    -0.0000    22.0000 </r>
       <r>   -41.0665    -0.0000    22.0000 </r>
       <r>   -40.8597    -0.0013    21.9997 </r>
       <r>   -40.6530    -0.4974    21.8969 </r>
       <r>   -40.4463     4.2993    22.7857 </r>
       <r>   -40.2395    61.8568    35.5732 </r>
       <r>   -40.0328    12.7281    38.2045 </r>
       <r>   -39.8261    -0.9847    38.0009 </r>
       <r>   -39.6194    -0.0043    38.0000 </r>
       <r>   -39.4126    -0.0000    38.0000 </r>
       <r>   -39.2059    -0.0000    38.0000 </r>
       <r>   -38.9992     0.0000    38.0000 </r>
       <r>   -38.7925     0.0000    38.0000 </r>
       <r>   -38.5857     0.0000    38.0000 </r>
       <r>   -38.3790     0.0000    38.0000 </r>
       <r>   -38.1723     0.0000    38.0000 </r>
       <r>   -37.9655     0.0000    38.0000 </r>
       <r>   -37.7588     0.0000    38.0000 </r>
       <r>   -37.5521     0.0000    38.0000 </r>
       <r>   -37.3454     0.0000    38.0000 </r>
       <r>   -37.1386     0.0000    38.0000 </r>
       <r>   -36.9319     0.0000    38.0000 </r>
       <r>   -36.7252     0.0000    38.0000 </r>
       <r>   -36.5184     0.0000    38.0000 </r>
       <r>   -36.3117     0.0000    38.0000 </r>
       <r>   -36.1050     0.0000    38.0000 </r>
       <r>   -35.8983     0.0000    38.0000 </r>
       <r>   -35.6915     0.0000    38.0000 </r>
       <r>   -35.4848     0.0000    38.0000 </r>
       <r>   -35.2781     0.0000    38.0000 </r>
       <r>   -35.0714     0.0000    38.0000 </r>
       <r>   -34.8646     0.0000    38.0000 </r>
       <r>   -34.6579     0.0000    38.0000 </r>
       <r>   -34.4512     0.0000    38.0000 </r>
       <r>   -34.2444     0.0000    38.0000 </r>
       <r>   -34.0377     0.0000    38.0000 </r>
       <r>   -33.8310     0.0000    38.0000 </r>
       <r>   -33.6243     0.0000    38.0000 </r>
       <r>   -33.4175     0.0000    38.0000 </r>
       <r>   -33.2108     0.0000    38.0000 </r>
       <r>   -33.0041     0.0000    38.0000 </r>
       <r>   -32.7974     0.0000    38.0000 </r>
       <r>   -32.5906     0.0000    38.0000 </r>
       <r>   -32.3839     0.0000    38.0000 </r>
       <r>   -32.1772     0.0000    38.0000 </r>
       <r>   -31.9704     0.0000    38.0000 </r>
       <r>   -31.7637     0.0000    38.0000 </r>
       <r>   -31.5570     0.0000    38.0000 </r>
       <r>   -31.3503     0.0000    38.0000 </r>
       <r>   -31.1435     0.0000    38.0000 </r>
       <r>   -30.9368     0.0000    38.0000 </r>
       <r>   -30.7301     0.0000    38.0000 </r>
       <r>   -30.5233     0.0000    38.0000 </r>
       <r>   -30.3166     0.0000    38.0000 </r>
       <r>   -30.1099     0.0000    38.0000 </r>
       <r>   -29.9032     0.0000    38.0000 </r>
       <r>   -29.6964     0.0000    38.0000 </r>
       <r>   -29.4897     0.0000    38.0000 </r>
       <r>   -29.2830     0.0000    38.0000 </r>
       <r>   -29.0763     0.0000    38.0000 </r>
       <r>   -28.8695     0.0000    38.0000 </r>
       <r>   -28.6628     0.0000    38.0000 </r>
       <r>   -28.4561     0.0000    38.0000 </r>
       <r>   -28.2493     0.0000    38.0000 </r>
       <r>   -28.0426     0.0000    38.0000 </r>
       <r>   -27.8359     0.0000    38.0000 </r>
       <r>   -27.6292     0.0000    38.0000 </r>
       <r>   -27.4224     0.0000    38.0000 </r>
       <r>   -27.2157     0.0000    38.0000 </r>
       <r>   -27.0090     0.0000    38.0000 </r>
       <r>   -26.8022     0.0000    38.0000 </r>
       <r>   -26.5955     0.0000    38.0000 </r>
       <r>   -26.3888     0.0000    38.0000 </r>
       <r>   -26.1821     0.0000    38.0000 </r>
       <r>   -25.9753     0.0000    38.0000 </r>
       <r>   -25.7686     0.0000    38.0000 </r>
       <r>   -25.5619     0.0000    38.0000 </r>
       <r>   -25.3552     0.0000    38.0000 </r>
       <r>   -25.1484     0.0000    38.0000 </r>
       <r>   -24.9417     0.0000    38.0000 </r>
       <r>   -24.7350     0.0000    38.0000 </r>
       <r>   -24.5282     0.0000    38.0000 </r>
       <r>   -24.3215    -0.0000    38.0000 </r>
       <r>   -24.1148    -0.0000    38.0000 </r>
       <r>   -23.9081    -0.0000    38.0000 </r>
       <r>   -23.7013    -0.0000    38.0000 </r>
       <r>   -23.4946    -0.0000    38.0000 </r>
       <r>   -23.2879    -0.0348    37.9928 </r>
       <r>   -23.0811    -0.5747    37.8740 </r>
       <r>   -22.8744    13.7572    40.7180 </r>
       <r>   -22.6677    54.3901    51.9619 </r>
       <r>   -22.4610   144.1629    81.7644 </r>
       <r>   -22.2542    56.0623    93.3540 </r>
       <r>   -22.0475    40.2195   101.6685 </r>
       <r>   -21.8408    12.1002   104.1700 </r>
       <r>   -21.6341    -0.8116   104.0022 </r>
       <r>   -21.4273    -0.0106   104.0000 </r>
       <r>   -21.2206    -0.0000   104.0000 </r>
       <r>   -21.0139    -0.0000   104.0000 </r>
       <r>   -20.8071     0.0000   104.0000 </r>
       <r>   -20.6004     0.0000   104.0000 </r>
       <r>   -20.3937     0.0000   104.0000 </r>
       <r>   -20.1870     0.0000   104.0000 </r>
       <r>   -19.9802    -0.0000   104.0000 </r>
       <r>   -19.7735    -0.0000   104.0000 </r>
       <r>   -19.5668    -0.0000   104.0000 </r>
       <r>   -19.3600    -0.0000   104.0000 </r>
       <r>   -19.1533    -0.0034   103.9993 </r>
       <r>   -18.9466    -0.6641   103.8620 </r>
       <r>   -18.7399     7.7123   105.4564 </r>
       <r>   -18.5331    48.7657   115.5376 </r>
       <r>   -18.3264   110.5117   138.3834 </r>
       <r>   -18.1197    64.9787   151.8163 </r>
       <r>   -17.9130     1.2371   152.0720 </r>
       <r>   -17.7062    -0.3478   152.0001 </r>
       <r>   -17.4995    -0.0005   152.0000 </r>
       <r>   -17.2928    -0.0000   152.0000 </r>
       <r>   -17.0860    -0.0000   152.0000 </r>
       <r>   -16.8793     0.0000   152.0000 </r>
       <r>   -16.6726     0.0000   152.0000 </r>
       <r>   -16.4659     0.0000   152.0000 </r>
       <r>   -16.2591     0.0000   152.0000 </r>
       <r>   -16.0524     0.0000   152.0000 </r>
       <r>   -15.8457     0.0000   152.0000 </r>
       <r>   -15.6390     0.0000   152.0000 </r>
       <r>   -15.4322     0.0000   152.0000 </r>
       <r>   -15.2255     0.0000   152.0000 </r>
       <r>   -15.0188     0.0000   152.0000 </r>
       <r>   -14.8120     0.0000   152.0000 </r>
       <r>   -14.6053     0.0000   152.0000 </r>
       <r>   -14.3986     0.0000   152.0000 </r>
       <r>   -14.1919     0.0000   152.0000 </r>
       <r>   -13.9851     0.0000   152.0000 </r>
       <r>   -13.7784     0.0000   152.0000 </r>
       <r>   -13.5717     0.0000   152.0000 </r>
       <r>   -13.3649     0.0000   152.0000 </r>
       <r>   -13.1582     0.0000   152.0000 </r>
       <r>   -12.9515     0.0000   152.0000 </r>
       <r>   -12.7448     0.0000   152.0000 </r>
       <r>   -12.5380     0.0000   152.0000 </r>
       <r>   -12.3313     0.0000   152.0000 </r>
       <r>   -12.1246     0.0000   152.0000 </r>
       <r>   -11.9179     0.0000   152.0000 </r>
       <r>   -11.7111     0.0000   152.0000 </r>
       <r>   -11.5044     0.0000   152.0000 </r>
       <r>   -11.2977     0.0000   152.0000 </r>
       <r>   -11.0909     0.0000   152.0000 </r>
       <r>   -10.8842     0.0000   152.0000 </r>
       <r>   -10.6775     0.0000   152.0000 </r>
       <r>   -10.4708     0.0000   152.0000 </r>
       <r>   -10.2640     0.0000   152.0000 </r>
       <r>   -10.0573     0.0000   152.0000 </r>
       <r>    -9.8506     0.0000   152.0000 </r>
       <r>    -9.6438     0.0000   152.0000 </r>
       <r>    -9.4371     0.0000   152.0000 </r>
       <r>    -9.2304     0.0000   152.0000 </r>
       <r>    -9.0237     0.0000   152.0000 </r>
       <r>    -8.8169     0.0000   152.0000 </r>
       <r>    -8.6102     0.0000   152.0000 </r>
       <r>    -8.4035     0.0000   152.0000 </r>
       <r>    -8.1968     0.0000   152.0000 </r>
       <r>    -7.9900     0.0000   152.0000 </r>
       <r>    -7.7833     0.0000   152.0000 </r>
       <r>    -7.5766     0.0000   152.0000 </r>
       <r>    -7.3698     0.0000   152.0000 </r>
       <r>    -7.1631     0.0000   152.0000 </r>
       <r>    -6.9564     0.0000   152.0000 </r>
       <r>    -6.7497     0.0000   152.0000 </r>
       <r>    -6.5429     0.0000   152.0000 </r>
       <r>    -6.3362     0.0000   152.0000 </r>
       <r>    -6.1295     0.0000   152.0000 </r>
       <r>    -5.9227     0.0000   152.0000 </r>
       <r>    -5.7160     0.0000   152.0000 </r>
       <r>    -5.5093     0.0000   152.0000 </r>
       <r>    -5.3026     0.0000   152.0000 </r>
       <r>    -5.0958     0.0000   152.0000 </r>
       <r>    -4.8891     0.0000   152.0000 </r>
       <r>    -4.6824     0.0000   152.0000 </r>
       <r>    -4.4757     0.0000   152.0000 </r>
       <r>    -4.2689     0.0000   152.0000 </r>
       <r>    -4.0622     0.0000   152.0000 </r>
       <r>    -3.8555     0.0000   152.0000 </r>
       <r>    -3.6487     0.0000   152.0000 </r>
       <r>    -3.4420     0.0000   152.0000 </r>
       <r>    -3.2353     0.0000   152.0000 </r>
       <r>    -3.0286     0.0000   152.0000 </r>
       <r>    -2.8218     0.0000   152.0000 </r>
       <r>    -2.6151     0.0000   152.0000 </r>
       <r>    -2.4084     0.0000   152.0000 </r>
       <r>    -2.2017     0.0000   152.0000 </r>
       <r>    -1.9949     0.0000   152.0000 </r>
       <r>    -1.7882     0.0000   152.0000 </r>
       <r>    -1.5815     0.0000   152.0000 </r>
       <r>    -1.3747     0.0000   152.0000 </r>
       <r>    -1.1680     0.0000   152.0000 </r>
       <r>    -0.9613     0.0000   152.0000 </r>
       <r>    -0.7546     0.0000   152.0000 </r>
       <r>    -0.5478     0.0000   152.0000 </r>
       <r>    -0.3411     0.0000   152.0000 </r>
       <r>    -0.1344    -0.0000   152.0000 </r>
       <r>     0.0724    -0.0000   152.0000 </r>
       <r>     0.2791    -0.0000   152.0000 </r>
       <r>     0.4858    -0.0000   152.0000 </r>
       <r>     0.6925    -0.0000   152.0000 </r>
       <r>     0.8993    -0.0048   151.9990 </r>
       <r>     1.1060     0.0465   152.0086 </r>
       <r>     1.3127     0.4735   152.1065 </r>
       <r>     1.5194     1.4715   152.4107 </r>
       <r>     1.7262     1.7701   152.7766 </r>
       <r>     1.9329     2.6110   153.3164 </r>
       <r>     2.1396     4.7190   154.2920 </r>
       <r>     2.3464     1.4290   154.5874 </r>
       <r>     2.5531     4.6252   155.5435 </r>
       <r>     2.7598     2.9983   156.1634 </r>
       <r>     2.9665     3.9213   156.9740 </r>
       <r>     3.1733     6.2708   158.2703 </r>
       <r>     3.3800     6.9590   159.7089 </r>
       <r>     3.5867     8.0931   161.3820 </r>
       <r>     3.7935     9.1895   163.2817 </r>
       <r>     4.0002     7.9910   164.9337 </r>
       <r>     4.2069    13.4380   167.7117 </r>
       <r>     4.4136    20.8254   172.0169 </r>
       <r>     4.6204    22.9386   176.7589 </r>
       <r>     4.8271    26.7286   182.2845 </r>
       <r>     5.0338    34.9580   189.5113 </r>
       <r>     5.2405    38.2406   197.4167 </r>
       <r>     5.4473    41.5797   206.0123 </r>
       <r>     5.6540    35.0894   213.2663 </r>
       <r>     5.8607    36.0801   220.7250 </r>
       <r>     6.0675    34.1735   227.7896 </r>
       <r>     6.2742    22.7119   232.4848 </r>
       <r>     6.4809    33.7189   239.4554 </r>
       <r>     6.6876    58.9416   251.6403 </r>
       <r>     6.8944    60.3067   264.1074 </r>
       <r>     7.1011    54.1172   275.2949 </r>
       <r>     7.3078    52.4521   286.1382 </r>
       <r>     7.5146    57.1119   297.9448 </r>
       <r>     7.7213    50.2168   308.3260 </r>
       <r>     7.9280    43.9514   317.4120 </r>
       <r>     8.1347    52.0644   328.1751 </r>
       <r>     8.3415    50.8776   338.6929 </r>
       <r>     8.5482    34.1182   345.7461 </r>
       <r>     8.7549    33.6178   352.6959 </r>
       <r>     8.9616    25.8728   358.0445 </r>
       <r>     9.1684    17.5335   361.6691 </r>
       <r>     9.3751    15.9694   364.9704 </r>
       <r>     9.5818    23.0461   369.7347 </r>
       <r>     9.7886    24.7777   374.8569 </r>
       <r>     9.9953     5.8999   376.0766 </r>
       <r>    10.2020    -0.3628   376.0016 </r>
       <r>    10.4087    -0.0078   376.0000 </r>
       <r>    10.6155    -0.0000   376.0000 </r>
       <r>    10.8222    -0.0000   376.0000 </r>
       <r>    11.0289     0.0000   376.0000 </r>
       <r>    11.2357     0.0000   376.0000 </r>
       <r>    11.4424     0.0000   376.0000 </r>
       <r>    11.6491     0.0000   376.0000 </r>
       <r>    11.8558     0.0000   376.0000 </r>
       <r>    12.0626     0.0000   376.0000 </r>
       <r>    12.2693     0.0000   376.0000 </r>
       <r>    12.4760     0.0000   376.0000 </r>
       <r>    12.6827     0.0000   376.0000 </r>
      </set>
     </set>
    </array>
   </total>
  </dos>
 </calculation>
 <structure name="finalpos" >
  <crystal>
   <varray name="basis" >
    <v>       6.99006055       0.03951370       0.02024300 </v>
    <v>       0.05788574      10.19860006       0.01044118 </v>
    <v>       0.02995967       0.00951336      10.25198179 </v>
   </varray>
   <i name="volume">    730.82150203 </i>
   <varray name="rec_basis" >
    <v>       0.14306607      -0.00081159      -0.00041733 </v>
    <v>      -0.00055404       0.09805591      -0.00008937 </v>
    <v>      -0.00028193      -0.00009826       0.09754303 </v>
   </varray>
  </crystal>
  <varray name="positions" >
   <v>       0.48450078       0.00376885       0.99748817 </v>
   <v>       0.72658499       0.49353000       0.17462087 </v>
   <v>       0.03967698       0.01483231       0.67788374 </v>
   <v>       0.52612511       0.66791921       0.34112924 </v>
   <v>       0.76605555       0.49500432       0.49127098 </v>
   <v>       0.97105453       0.65958393       0.32170635 </v>
   <v>       0.74839165       0.16672015       0.83404555 </v>
   <v>       0.26819936       0.50869596       0.17095608 </v>
   <v>       0.52726571       0.66757035       0.65190007 </v>
   <v>       0.25377891       0.51187629       0.83800372 </v>
   <v>       0.23585211       0.16600508       0.48064275 </v>
   <v>       0.01601551       0.33192832       0.00636359 </v>
   <v>       0.96611373       0.66116887       0.01827915 </v>
   <v>       0.26110401       0.82389185       0.17058321 </v>
   <v>       0.47516967       0.00170212       0.66932921 </v>
   <v>       0.24670164       0.81668563       0.83571147 </v>
   <v>       0.23585373       0.83103995       0.49125046 </v>
   <v>       0.26143538       0.16395192       0.17772792 </v>
   <v>       0.97303194       0.65208162       0.66321916 </v>
   <v>       0.52989058       0.67614569       0.00868932 </v>
   <v>       0.73371292       0.83787894       0.17315171 </v>
   <v>       0.50788440       0.34119803       0.34372506 </v>
   <v>       0.99046747       0.34427135       0.32133766 </v>
   <v>       0.01059465       0.33132299       0.67768515 </v>
   <v>       0.47176732       0.31777943       0.00225496 </v>
   <v>       0.25260178       0.17102588       0.83615229 </v>
   <v>       0.50387150       0.99201441       0.32778381 </v>
   <v>       0.99801677       0.99696961       0.30951957 </v>
   <v>       0.77536266       0.84382474       0.49823836 </v>
   <v>       0.01380370       0.00517828       0.00738784 </v>
   <v>       0.77016624       0.16583507       0.49786374 </v>
   <v>       0.73352538       0.17003166       0.16738772 </v>
   <v>       0.49058848       0.33129557       0.65522206 </v>
   <v>       0.76327474       0.84310503       0.82740643 </v>
   <v>       0.23517147       0.50608087       0.49440701 </v>
   <v>       0.73638664       0.48809170       0.83967564 </v>
  </varray>
 </structure>
</modeling>
