<?xml version="1.0" encoding="ISO-8859-1"?>
<modeling>
 <generator>
  <i name="program" type="string">vasp </i>
  <i name="version" type="string">5.4.1  </i>
  <i name="subversion" type="string">05Feb16 (build Jan 29 2020 16:04:39) complex                          parallel </i>
  <i name="platform" type="string">IFC91_ompi </i>
  <i name="date" type="string">2020 06 09 </i>
  <i name="time" type="string">01:53:17 </i>
 </generator>
 <incar>
  <i type="string" name="SYSTEM"> automatically generated by mexm</i>
  <i type="int" name="ISTART">     0</i>
  <i type="string" name="PREC">accurate               ! avoid wrap aro</i>
  <i type="string" name="ALGO"> Fast                   ! blocked Davids</i>
  <i type="int" name="ISPIN">     1</i>
  <i type="int" name="ICHARG">     2</i>
  <i type="int" name="NELM">    70</i>
  <i type="int" name="IBRION">     2</i>
  <i name="EDIFF">      0.00001000</i>
  <i name="EDIFFG">     -0.01000000</i>
  <i type="int" name="NSW">   300</i>
  <i type="int" name="ISIF">     3</i>
  <i type="int" name="ISYM">     1</i>
  <i name="ENCUT">    300.00000000</i>
  <i name="POTIM">      0.15000000</i>
  <i type="string" name="LREAL"> Auto                  ! unpublished met</i>
  <i type="int" name="ISMEAR">     1</i>
  <i name="SIGMA">      0.15000000</i>
  <i type="logical" name="LWAVE"> F  </i>
  <i type="logical" name="LCHARG"> F  </i>
  <i type="logical" name="LVTOT"> F  </i>
  <v type="int" name="KPOINT_BSE">    -1     0     0     0</v>
  <i type="int" name="NELM">    70</i>
 </incar>
 <kpoints>
  <generation param="Gamma">
   <v type="int" name="divisions">       3        3        3 </v>
   <v name="usershift">      0.00000000       0.00000000       0.00000000 </v>
   <v name="genvec1">      0.33333333      -0.00000000       0.00000000 </v>
   <v name="genvec2">      0.00000000       0.33333333       0.00000000 </v>
   <v name="genvec3">      0.00000000       0.00000000       0.33333333 </v>
   <v name="shift">      0.00000000       0.00000000       0.00000000 </v>
  </generation>
  <varray name="kpointlist" >
   <v>       0.00000000       0.00000000       0.00000000 </v>
   <v>       0.33333333       0.00000000       0.00000000 </v>
   <v>      -0.00000000       0.33333333       0.00000000 </v>
   <v>       0.33333333       0.33333333       0.00000000 </v>
   <v>      -0.33333333       0.33333333      -0.00000000 </v>
   <v>      -0.00000000      -0.00000000       0.33333333 </v>
   <v>       0.33333333       0.00000000       0.33333333 </v>
   <v>      -0.33333333      -0.00000000       0.33333333 </v>
   <v>      -0.00000000       0.33333333       0.33333333 </v>
   <v>       0.33333333       0.33333333       0.33333333 </v>
   <v>      -0.33333333       0.33333333       0.33333333 </v>
   <v>       0.00000000      -0.33333333       0.33333333 </v>
   <v>       0.33333333      -0.33333333       0.33333333 </v>
   <v>      -0.33333333      -0.33333333       0.33333333 </v>
  </varray>
  <varray name="weights" >
   <v>       0.03703704 </v>
   <v>       0.07407407 </v>
   <v>       0.07407407 </v>
   <v>       0.07407407 </v>
   <v>       0.07407407 </v>
   <v>       0.07407407 </v>
   <v>       0.07407407 </v>
   <v>       0.07407407 </v>
   <v>       0.07407407 </v>
   <v>       0.07407407 </v>
   <v>       0.07407407 </v>
   <v>       0.07407407 </v>
   <v>       0.07407407 </v>
   <v>       0.07407407 </v>
  </varray>
 </kpoints>
 <parameters>
  <separator name="general" >
   <i type="string" name="SYSTEM">automatically generated by mexm</i>
   <i type="logical" name="LCOMPAT"> F  </i>
  </separator>
  <separator name="electronic" >
   <i type="string" name="PREC">accura</i>
   <i name="ENMAX">    300.00000000</i>
   <i name="ENAUG">    461.25700000</i>
   <i name="EDIFF">      0.00001000</i>
   <i type="int" name="IALGO">    68</i>
   <i type="int" name="IWAVPR">    11</i>
   <i type="int" name="NBANDS">   188</i>
   <i name="NELECT">    314.00000000</i>
   <i type="int" name="TURBO">     0</i>
   <i type="int" name="IRESTART">     0</i>
   <i type="int" name="NREBOOT">     0</i>
   <i type="int" name="NMIN">     0</i>
   <i name="EREF">      0.00000000</i>
   <separator name="electronic smearing" >
    <i type="int" name="ISMEAR">     1</i>
    <i name="SIGMA">      0.15000000</i>
    <i name="KSPACING">      0.50000000</i>
    <i type="logical" name="KGAMMA"> T  </i>
   </separator>
   <separator name="electronic projectors" >
    <i type="logical" name="LREAL"> T  </i>
    <v name="ROPT">     -0.00025000     -0.00025000     -0.00025000     -0.00025000</v>
    <i type="int" name="LMAXPAW">  -100</i>
    <i type="int" name="LMAXMIX">     2</i>
    <i type="logical" name="NLSPLINE"> F  </i>
   </separator>
   <separator name="electronic startup" >
    <i type="int" name="ISTART">     0</i>
    <i type="int" name="ICHARG">     2</i>
    <i type="int" name="INIWAV">     1</i>
   </separator>
   <separator name="electronic spin" >
    <i type="int" name="ISPIN">     1</i>
    <i type="logical" name="LNONCOLLINEAR"> F  </i>
    <v name="MAGMOM">      1.00000000      1.00000000      1.00000000      1.00000000      1.00000000      1.00000000      1.00000000      1.00000000      1.00000000      1.00000000      1.00000000      1.00000000      1.00000000      1.00000000      1.00000000      1.00000000      1.00000000      1.00000000      1.00000000      1.00000000
      1.00000000      1.00000000      1.00000000      1.00000000      1.00000000      1.00000000      1.00000000      1.00000000      1.00000000      1.00000000      1.00000000      1.00000000      1.00000000      1.00000000      1.00000000      1.00000000</v>
    <i name="NUPDOWN">     -1.00000000</i>
    <i type="logical" name="LSORBIT"> F  </i>
    <v name="SAXIS">      0.00000000      0.00000000      1.00000000</v>
    <i type="logical" name="LSPIRAL"> F  </i>
    <v name="QSPIRAL">      0.00000000      0.00000000      0.00000000</v>
    <i type="logical" name="LZEROZ"> F  </i>
   </separator>
   <separator name="electronic exchange-correlation" >
    <i type="logical" name="LASPH"> F  </i>
    <i type="logical" name="LMETAGGA"> F  </i>
   </separator>
   <separator name="electronic convergence" >
    <i type="int" name="NELM">    70</i>
    <i type="int" name="NELMDL">    -5</i>
    <i type="int" name="NELMIN">     2</i>
    <i name="ENINI">    300.00000000</i>
    <separator name="electronic convergence detail" >
     <i type="logical" name="LDIAG"> T  </i>
     <i type="logical" name="LSUBROT"> F  </i>
     <i name="WEIMIN">      0.00100000</i>
     <i name="EBREAK">      0.00000001</i>
     <i name="DEPER">      0.30000000</i>
     <i type="int" name="NRMM">     4</i>
     <i name="TIME">      0.40000000</i>
    </separator>
   </separator>
   <separator name="electronic mixer" >
    <i name="AMIX">      0.40000000</i>
    <i name="BMIX">      1.00000000</i>
    <i name="AMIN">      0.10000000</i>
    <i name="AMIX_MAG">      1.60000000</i>
    <i name="BMIX_MAG">      1.00000000</i>
    <separator name="electronic mixer details" >
     <i type="int" name="IMIX">     4</i>
     <i type="logical" name="MIXFIRST"> F  </i>
     <i type="int" name="MAXMIX">   -45</i>
     <i name="WC">    100.00000000</i>
     <i type="int" name="INIMIX">     1</i>
     <i type="int" name="MIXPRE">     1</i>
     <i type="int" name="MREMOVE">     5</i>
    </separator>
   </separator>
   <separator name="electronic dipolcorrection" >
    <i type="logical" name="LDIPOL"> F  </i>
    <i type="logical" name="LMONO"> F  </i>
    <i type="int" name="IDIPOL">     0</i>
    <i name="EPSILON">      1.00000000</i>
    <v name="DIPOL">   -100.00000000   -100.00000000   -100.00000000</v>
    <i name="EFIELD">      0.00000000</i>
   </separator>
  </separator>
  <separator name="grids" >
   <i type="int" name="NGX">    40</i>
   <i type="int" name="NGY">    60</i>
   <i type="int" name="NGZ">    60</i>
   <i type="int" name="NGXF">    80</i>
   <i type="int" name="NGYF">   120</i>
   <i type="int" name="NGZF">   120</i>
   <i type="logical" name="ADDGRID"> F  </i>
  </separator>
  <separator name="ionic" >
   <i type="int" name="NSW">   300</i>
   <i type="int" name="IBRION">     2</i>
   <i type="int" name="ISIF">     3</i>
   <i name="PSTRESS">      0.00000000</i>
   <i name="EDIFFG">     -0.01000000</i>
   <i type="int" name="NFREE">     1</i>
   <i name="POTIM">      0.15000000</i>
   <i name="SMASS">     -3.00000000</i>
   <i name="SCALEE">      1.00000000</i>
  </separator>
  <separator name="ionic md" >
   <i name="TEBEG">      0.00010000</i>
   <i name="TEEND">      0.00010000</i>
   <i type="int" name="NBLOCK">     1</i>
   <i type="int" name="KBLOCK">   300</i>
   <i type="int" name="NPACO">   256</i>
   <i name="APACO">     16.00000000</i>
  </separator>
  <separator name="symmetry" >
   <i type="int" name="ISYM">     1</i>
   <i name="SYMPREC">      0.00001000</i>
  </separator>
  <separator name="dos" >
   <i type="logical" name="LORBIT"> F  </i>
   <v name="RWIGS">     -1.00000000     -1.00000000     -1.00000000     -1.00000000</v>
   <i type="int" name="NEDOS">   301</i>
   <i name="EMIN">     10.00000000</i>
   <i name="EMAX">    -10.00000000</i>
   <i name="EFERMI">      0.00000000</i>
  </separator>
  <separator name="writing" >
   <i type="int" name="NWRITE">     2</i>
   <i type="logical" name="LWAVE"> F  </i>
   <i type="logical" name="LCHARG"> F  </i>
   <i type="logical" name="LPARD"> F  </i>
   <i type="logical" name="LVTOT"> F  </i>
   <i type="logical" name="LVHAR"> F  </i>
   <i type="logical" name="LELF"> F  </i>
   <i type="logical" name="LOPTICS"> F  </i>
   <v name="STM">      0.00000000      0.00000000      0.00000000      0.00000000      0.00000000      0.00000000      0.00000000</v>
  </separator>
  <separator name="performance" >
   <i type="int" name="NPAR">     4</i>
   <i type="int" name="NSIM">     4</i>
   <i type="int" name="NBLK">    -1</i>
   <i type="logical" name="LPLANE"> T  </i>
   <i type="logical" name="LSCALAPACK"> T  </i>
   <i type="logical" name="LSCAAWARE"> F  </i>
   <i type="logical" name="LSCALU"> F  </i>
   <i type="logical" name="LASYNC"> F  </i>
   <i type="logical" name="LORBITALREAL"> F  </i>
  </separator>
  <separator name="miscellaneous" >
   <i type="int" name="IDIOT">     3</i>
   <i type="logical" name="LMUSIC"> F  </i>
   <v name="POMASS">    178.49000000     91.22400000     92.91000000    180.94800000</v>
   <v name="DARWINR">      0.00000000      0.00000000      0.00000000      0.00000000</v>
   <v name="DARWINV">      1.00000000      1.00000000      1.00000000      1.00000000</v>
   <i type="logical" name="LCORR"> T  </i>
  </separator>
  <i type="logical" name="GGA_COMPAT"> T  </i>
  <i type="logical" name="LBERRY"> F  </i>
  <i type="int" name="ICORELEVEL">     0</i>
  <i type="logical" name="LDAU"> F  </i>
  <i type="int" name="I_CONSTRAINED_M">     0</i>
  <separator name="electronic exchange-correlation" >
   <i type="string" name="GGA">--</i>
   <i type="int" name="VOSKOWN">     0</i>
   <i type="logical" name="LHFCALC"> F  </i>
   <i type="string" name="PRECFOCK"></i>
   <i type="logical" name="LSYMGRAD"> F  </i>
   <i type="logical" name="LHFONE"> F  </i>
   <i type="logical" name="LRHFCALC"> F  </i>
   <i type="logical" name="LTHOMAS"> F  </i>
   <i type="logical" name="LMODELHF"> F  </i>
   <i name="ENCUT4O">     -1.00000000</i>
   <i type="int" name="EXXOEP">     0</i>
   <i type="int" name="FOURORBIT">     0</i>
   <i name="AEXX">      0.00000000</i>
   <i name="HFALPHA">      0.00000000</i>
   <i name="MCALPHA">      0.00000000</i>
   <i name="ALDAX">      1.00000000</i>
   <i name="AGGAX">      1.00000000</i>
   <i name="ALDAC">      1.00000000</i>
   <i name="AGGAC">      1.00000000</i>
   <i type="int" name="NKREDX">     1</i>
   <i type="int" name="NKREDY">     1</i>
   <i type="int" name="NKREDZ">     1</i>
   <i type="logical" name="SHIFTRED"> F  </i>
   <i type="logical" name="ODDONLY"> F  </i>
   <i type="logical" name="EVENONLY"> F  </i>
   <i type="int" name="LMAXFOCK">     0</i>
   <i type="int" name="NMAXFOCKAE">     0</i>
   <i type="logical" name="LFOCKAEDFT"> F  </i>
   <i name="HFSCREEN">      0.00000000</i>
   <i name="HFSCREENC">      0.00000000</i>
   <i type="int" name="NBANDSGWLOW">     0</i>
  </separator>
  <separator name="vdW DFT" >
   <i type="logical" name="LUSE_VDW"> F  </i>
   <i name="Zab_VDW">     -0.84910000</i>
   <i name="PARAM1">      0.12340000</i>
   <i name="PARAM2">      1.00000000</i>
   <i name="PARAM3">      0.00000000</i>
  </separator>
  <separator name="model GW" >
   <i type="int" name="MODEL_GW">     0</i>
   <i name="MODEL_EPS0">     12.17434085</i>
   <i name="MODEL_ALPHA">      1.00000000</i>
  </separator>
  <separator name="linear response parameters" >
   <i type="logical" name="LEPSILON"> F  </i>
   <i type="logical" name="LRPA"> F  </i>
   <i type="logical" name="LNABLA"> F  </i>
   <i type="logical" name="LVEL"> F  </i>
   <i type="int" name="KINTER">     0</i>
   <i name="CSHIFT">      0.10000000</i>
   <i name="OMEGAMAX">     -1.00000000</i>
   <i name="DEG_THRESHOLD">      0.00200000</i>
  </separator>
  <separator name="orbital magnetization" >
   <i type="logical" name="NUCIND"> F  </i>
   <v name="MAGPOS">      0.00000000      0.00000000      0.00000000</v>
   <i type="logical" name="LNICSALL"> T  </i>
   <i type="logical" name="ORBITALMAG"> F  </i>
   <i type="logical" name="LMAGBLOCH"> F  </i>
   <i type="logical" name="LCHIMAG"> F  </i>
   <i type="logical" name="LGAUGE"> T  </i>
   <i type="int" name="MAGATOM">     0</i>
   <v name="MAGDIPOL">      0.00000000      0.00000000      0.00000000</v>
   <v name="AVECCONST">      0.00000000      0.00000000      0.00000000</v>
  </separator>
  <separator name="response functions" >
   <i type="logical" name="LADDER"> F  </i>
   <i type="logical" name="LFXC"> F  </i>
   <i type="logical" name="LHARTREE"> T  </i>
   <i type="int" name="IBSE">     0</i>
   <v type="int" name="KPOINT">    -1     0     0     0</v>
   <i type="logical" name="LTCTE"> F  </i>
   <i type="logical" name="LTETE"> F  </i>
   <i type="logical" name="LTRIPLET"> F  </i>
   <i type="logical" name="LFXCEPS"> F  </i>
   <i type="logical" name="LFXHEG"> F  </i>
   <i type="int" name="NATURALO">     0</i>
   <i type="logical" name="L2ORDER"> F  </i>
   <i type="logical" name="LUSEW"> F  </i>
   <i name="ENCUTGW">     -2.00000000</i>
   <i name="ENCUTGWSOFT">     -2.00000000</i>
   <i name="ENCUTLF">     -1.00000000</i>
   <i type="int" name="LMAXMP2">    -1</i>
   <i name="SCISSOR">      0.00000000</i>
   <i type="int" name="NOMEGA">     0</i>
   <i type="int" name="NOMEGAR">     0</i>
   <i type="int" name="NBANDSGW">    -1</i>
   <i type="int" name="NBANDSO">    -1</i>
   <i type="int" name="NBANDSV">    -1</i>
   <i type="int" name="NELM">    70</i>
   <i type="int" name="NELMHF">     1</i>
   <i type="int" name="DIM">     3</i>
   <i type="int" name="ANTIRES">     0</i>
   <i name="OMEGAMAX">    -30.00000000</i>
   <i name="OMEGAMIN">    -30.00000000</i>
   <i name="OMEGATL">   -200.00000000</i>
   <i type="int" name="OMEGAGRID">     0</i>
   <i name="CSHIFT">     -0.10000000</i>
   <i type="logical" name="SELFENERGY"> F  </i>
   <i type="logical" name="LSPECTRAL"> F  </i>
   <i type="logical" name="LSPECTRALGW"> F  </i>
   <i type="logical" name="LSINGLES"> F  </i>
   <i type="logical" name="LFERMIGW"> F  </i>
   <i type="logical" name="ODDONLYGW"> F  </i>
   <i type="logical" name="EVENONLYGW"> F  </i>
   <i type="int" name="NKREDLFX">     1</i>
   <i type="int" name="NKREDLFY">     1</i>
   <i type="int" name="NKREDLFZ">     1</i>
   <i type="int" name="MAXMEM">  1800</i>
   <i type="int" name="TELESCOPE">     0</i>
   <i type="int" name="TAUPAR">     1</i>
   <i type="int" name="OMEGAPAR">    -1</i>
   <i name="LAMBDA">      1.00000000</i>
  </separator>
  <separator name="External order field" >
   <i name="OFIELD_KAPPA">      0.00000000</i>
   <v name="OFIELD_K">      0.00000000      0.00000000      0.00000000</v>
   <i name="OFIELD_Q6_NEAR">      0.00000000</i>
   <i name="OFIELD_Q6_FAR">      0.00000000</i>
   <i name="OFIELD_A">      0.00000000</i>
  </separator>
 </parameters>
 <atominfo>
  <atoms>      36 </atoms>
  <types>       4 </types>
  <array name="atoms" >
   <dimension dim="1">ion</dimension>
   <field type="string">element</field>
   <field type="int">atomtype</field>
   <set>
    <rc><c>Hf</c><c>   1</c></rc>
    <rc><c>Hf</c><c>   1</c></rc>
    <rc><c>Hf</c><c>   1</c></rc>
    <rc><c>Hf</c><c>   1</c></rc>
    <rc><c>Hf</c><c>   1</c></rc>
    <rc><c>Hf</c><c>   1</c></rc>
    <rc><c>Hf</c><c>   1</c></rc>
    <rc><c>Hf</c><c>   1</c></rc>
    <rc><c>Hf</c><c>   1</c></rc>
    <rc><c>Zr</c><c>   2</c></rc>
    <rc><c>Zr</c><c>   2</c></rc>
    <rc><c>Zr</c><c>   2</c></rc>
    <rc><c>Zr</c><c>   2</c></rc>
    <rc><c>Zr</c><c>   2</c></rc>
    <rc><c>Zr</c><c>   2</c></rc>
    <rc><c>Zr</c><c>   2</c></rc>
    <rc><c>Zr</c><c>   2</c></rc>
    <rc><c>Zr</c><c>   2</c></rc>
    <rc><c>Nb</c><c>   3</c></rc>
    <rc><c>Nb</c><c>   3</c></rc>
    <rc><c>Nb</c><c>   3</c></rc>
    <rc><c>Nb</c><c>   3</c></rc>
    <rc><c>Nb</c><c>   3</c></rc>
    <rc><c>Nb</c><c>   3</c></rc>
    <rc><c>Nb</c><c>   3</c></rc>
    <rc><c>Nb</c><c>   3</c></rc>
    <rc><c>Nb</c><c>   3</c></rc>
    <rc><c>Nb</c><c>   3</c></rc>
    <rc><c>Ta</c><c>   4</c></rc>
    <rc><c>Ta</c><c>   4</c></rc>
    <rc><c>Ta</c><c>   4</c></rc>
    <rc><c>Ta</c><c>   4</c></rc>
    <rc><c>Ta</c><c>   4</c></rc>
    <rc><c>Ta</c><c>   4</c></rc>
    <rc><c>Ta</c><c>   4</c></rc>
    <rc><c>Ta</c><c>   4</c></rc>
   </set>
  </array>
  <array name="atomtypes" >
   <dimension dim="1">type</dimension>
   <field type="int">atomspertype</field>
   <field type="string">element</field>
   <field>mass</field>
   <field>valence</field>
   <field type="string">pseudopotential</field>
   <set>
    <rc><c>   9</c><c>Hf</c><c>    178.49000000</c><c>      4.00000000</c><c>  PAW_PBE Hf 20Jan2003                  </c></rc>
    <rc><c>   9</c><c>Zr</c><c>     91.22400000</c><c>     12.00000000</c><c>  PAW_PBE Zr_sv 04Jan2005               </c></rc>
    <rc><c>  10</c><c>Nb</c><c>     92.91000000</c><c>     13.00000000</c><c>  PAW_PBE Nb_sv 25May2007               </c></rc>
    <rc><c>   8</c><c>Ta</c><c>    180.94800000</c><c>      5.00000000</c><c>  PAW_PBE Ta 17Jan2003                  </c></rc>
   </set>
  </array>
 </atominfo>
 <structure name="initialpos" >
  <crystal>
   <varray name="basis" >
    <v>       6.93193516       0.02886735       0.01003648 </v>
    <v>       0.04275481      10.21936613       0.01869619 </v>
    <v>       0.01511957       0.01845675      10.31164986 </v>
   </varray>
   <i name="volume">    730.46045107 </i>
   <varray name="rec_basis" >
    <v>       0.14426268      -0.00060317      -0.00021045 </v>
    <v>      -0.00040726       0.09785545      -0.00017455 </v>
    <v>      -0.00013967      -0.00017684       0.09697821 </v>
   </varray>
  </crystal>
  <varray name="positions" >
   <v>       0.99485500       0.33132000       0.00559800 </v>
   <v>       0.26483700       0.49180100       0.83690900 </v>
   <v>       0.97285900       0.66431400       0.98837200 </v>
   <v>       0.24530600       0.81301400       0.16933000 </v>
   <v>       0.76216000       0.17019800       0.49962400 </v>
   <v>       0.47448700       0.99725600       0.67011000 </v>
   <v>       0.75402300       0.16824100       0.81734800 </v>
   <v>       0.76626600       0.83409900       0.18784200 </v>
   <v>       0.76810400       0.84370400       0.49446500 </v>
   <v>       0.01352000       0.00351200       0.99710000 </v>
   <v>       0.22785400       0.17426200       0.50080000 </v>
   <v>       0.25816900       0.50090800       0.16658900 </v>
   <v>       0.49420100       0.00409400       0.99352100 </v>
   <v>       0.75052200       0.16447800       0.18160100 </v>
   <v>       0.47174900       0.99660700       0.33752300 </v>
   <v>       0.72683900       0.47835300       0.82205000 </v>
   <v>       0.53456400       0.67512100       0.99510500 </v>
   <v>       0.49583900       0.67449000       0.65861600 </v>
   <v>       0.99404700       0.34279200       0.32573400 </v>
   <v>       0.24338200       0.49801800       0.49431300 </v>
   <v>       0.00540400       0.34823400       0.66310300 </v>
   <v>       0.99951400       0.65726700       0.34743500 </v>
   <v>       0.23234500       0.82880800       0.49360900 </v>
   <v>       0.24740500       0.82208600       0.84459100 </v>
   <v>       0.49667700       0.31639000       0.00896000 </v>
   <v>       0.74303100       0.49568200       0.18145400 </v>
   <v>       0.76180300       0.85588300       0.81720100 </v>
   <v>       0.99879200       0.66627500       0.66872100 </v>
   <v>       0.25195100       0.18202800       0.17378100 </v>
   <v>       0.03450100       0.00052700       0.32802900 </v>
   <v>       0.02894200       0.98869100       0.67686000 </v>
   <v>       0.24742000       0.18422800       0.82269000 </v>
   <v>       0.49984600       0.34225100       0.34019800 </v>
   <v>       0.74918200       0.49527100       0.49626900 </v>
   <v>       0.48461900       0.33147400       0.64740000 </v>
   <v>       0.50499000       0.65832400       0.34715000 </v>
  </varray>
 </structure>
 <calculation>
  <scstep>
   <time name="dav">    1.64    1.67</time>
   <time name="total">    2.66    2.88</time>
   <energy>
    <i name="alphaZ">   1621.96633243 </i>
    <i name="ewald"> -22175.54544795 </i>
    <i name="hartreedc">  -7381.24251252 </i>
    <i name="XCdc">      6.24180731 </i>
    <i name="pawpsdc">  24000.71214941 </i>
    <i name="pawaedc"> -22519.22940413 </i>
    <i name="eentropy">     -0.00337983 </i>
    <i name="bandstr">   -253.73229698 </i>
    <i name="atom">  28836.97442152 </i>
    <i name="e_fr_energy">   2136.14166925 </i>
    <i name="e_wo_entrp">   2136.14504908 </i>
    <i name="e_0_energy">   2136.14279586 </i>
   </energy>
  </scstep>
  <scstep>
   <time name="dav">    1.21    1.22</time>
   <time name="total">    1.22    1.34</time>
   <energy>
    <i name="e_fr_energy">    -61.80181122 </i>
    <i name="e_wo_entrp">    -61.80168445 </i>
    <i name="e_0_energy">    -61.80176897 </i>
   </energy>
  </scstep>
  <scstep>
   <time name="dav">    1.58    1.59</time>
   <time name="total">    1.58    1.61</time>
   <energy>
    <i name="e_fr_energy">   -338.34229302 </i>
    <i name="e_wo_entrp">   -338.34254334 </i>
    <i name="e_0_energy">   -338.34237646 </i>
   </energy>
  </scstep>
  <scstep>
   <time name="dav">    1.77    1.78</time>
   <time name="total">    1.77    1.81</time>
   <energy>
    <i name="e_fr_energy">   -371.08431056 </i>
    <i name="e_wo_entrp">   -371.08586572 </i>
    <i name="e_0_energy">   -371.08482895 </i>
   </energy>
  </scstep>
  <scstep>
   <time name="dav">    1.70    1.71</time>
   <time name="total">    1.73    1.77</time>
   <energy>
    <i name="e_fr_energy">   -374.48650480 </i>
    <i name="e_wo_entrp">   -374.48577506 </i>
    <i name="e_0_energy">   -374.48626156 </i>
   </energy>
  </scstep>
  <scstep>
   <time name="diag">    0.09    0.09</time>
   <time name="diis">    0.75    0.76</time>
   <time name="orth">    0.01    0.01</time>
   <time name="total">    0.93    0.95</time>
   <energy>
    <i name="e_fr_energy">   -363.90799793 </i>
    <i name="e_wo_entrp">   -363.91823688 </i>
    <i name="e_0_energy">   -363.91141091 </i>
   </energy>
  </scstep>
  <scstep>
   <time name="diag">    0.08    0.08</time>
   <time name="diis">    0.79    0.79</time>
   <time name="orth">    0.02    0.02</time>
   <time name="total">    0.95    0.99</time>
   <energy>
    <i name="e_fr_energy">   -364.55355063 </i>
    <i name="e_wo_entrp">   -364.57088082 </i>
    <i name="e_0_energy">   -364.55932736 </i>
   </energy>
  </scstep>
  <scstep>
   <time name="diag">    0.08    0.08</time>
   <time name="diis">    0.83    0.84</time>
   <time name="orth">    0.01    0.01</time>
   <time name="total">    1.00    1.02</time>
   <energy>
    <i name="e_fr_energy">   -359.98168345 </i>
    <i name="e_wo_entrp">   -360.00233678 </i>
    <i name="e_0_energy">   -359.98856789 </i>
   </energy>
  </scstep>
  <scstep>
   <time name="diag">    0.10    0.10</time>
   <time name="diis">    0.89    0.91</time>
   <time name="orth">    0.01    0.01</time>
   <time name="total">    1.12    1.16</time>
   <energy>
    <i name="e_fr_energy">   -359.81957262 </i>
    <i name="e_wo_entrp">   -359.83836208 </i>
    <i name="e_0_energy">   -359.82583577 </i>
   </energy>
  </scstep>
  <scstep>
   <time name="diag">    0.08    0.08</time>
   <time name="diis">    0.80    0.80</time>
   <time name="orth">    0.01    0.01</time>
   <time name="total">    0.97    0.99</time>
   <energy>
    <i name="e_fr_energy">   -359.75675284 </i>
    <i name="e_wo_entrp">   -359.77569267 </i>
    <i name="e_0_energy">   -359.76306611 </i>
   </energy>
  </scstep>
  <scstep>
   <time name="diag">    0.08    0.08</time>
   <time name="diis">    0.85    0.86</time>
   <time name="orth">    0.01    0.01</time>
   <time name="total">    1.03    1.07</time>
   <energy>
    <i name="e_fr_energy">   -359.72644882 </i>
    <i name="e_wo_entrp">   -359.74671607 </i>
    <i name="e_0_energy">   -359.73320457 </i>
   </energy>
  </scstep>
  <scstep>
   <time name="diag">    0.11    0.11</time>
   <time name="diis">    0.84    0.85</time>
   <time name="orth">    0.01    0.01</time>
   <time name="total">    1.06    1.08</time>
   <energy>
    <i name="e_fr_energy">   -359.72430519 </i>
    <i name="e_wo_entrp">   -359.74442344 </i>
    <i name="e_0_energy">   -359.73101127 </i>
   </energy>
  </scstep>
  <scstep>
   <time name="diag">    0.08    0.08</time>
   <time name="diis">    0.81    0.82</time>
   <time name="orth">    0.01    0.01</time>
   <time name="total">    0.97    1.01</time>
   <energy>
    <i name="e_fr_energy">   -359.72235007 </i>
    <i name="e_wo_entrp">   -359.74249489 </i>
    <i name="e_0_energy">   -359.72906501 </i>
   </energy>
  </scstep>
  <scstep>
   <time name="diag">    0.09    0.09</time>
   <time name="diis">    0.87    0.88</time>
   <time name="orth">    0.03    0.06</time>
   <time name="total">    1.44    1.51</time>
   <energy>
    <i name="e_fr_energy">   -359.72256302 </i>
    <i name="e_wo_entrp">   -359.74282106 </i>
    <i name="e_0_energy">   -359.72931570 </i>
   </energy>
  </scstep>
  <scstep>
   <time name="diag">    0.08    0.13</time>
   <time name="diis">    0.81    0.84</time>
   <time name="orth">    0.01    0.01</time>
   <time name="total">    0.97    1.07</time>
   <energy>
    <i name="e_fr_energy">   -359.72279027 </i>
    <i name="e_wo_entrp">   -359.74286343 </i>
    <i name="e_0_energy">   -359.72948133 </i>
   </energy>
  </scstep>
  <scstep>
   <time name="diag">    0.08    0.08</time>
   <time name="diis">    0.72    0.73</time>
   <time name="orth">    0.01    0.01</time>
   <time name="total">    0.89    0.91</time>
   <energy>
    <i name="e_fr_energy">   -359.72281339 </i>
    <i name="e_wo_entrp">   -359.74299989 </i>
    <i name="e_0_energy">   -359.72954222 </i>
   </energy>
  </scstep>
  <scstep>
   <time name="diag">    0.08    0.08</time>
   <time name="diis">    0.67    0.67</time>
   <time name="orth">    0.01    0.01</time>
   <time name="total">    0.83    0.85</time>
   <energy>
    <i name="e_fr_energy">   -359.72284367 </i>
    <i name="e_wo_entrp">   -359.74302474 </i>
    <i name="e_0_energy">   -359.72957070 </i>
   </energy>
  </scstep>
  <scstep>
   <time name="diag">    0.08    0.08</time>
   <time name="diis">    0.60    0.61</time>
   <time name="orth">    0.01    0.01</time>
   <time name="total">    0.81    0.84</time>
   <energy>
    <i name="e_fr_energy">   -359.72286613 </i>
    <i name="e_wo_entrp">   -359.74306756 </i>
    <i name="e_0_energy">   -359.72959994 </i>
   </energy>
  </scstep>
  <scstep>
   <time name="diag">    0.12    0.13</time>
   <time name="diis">    0.54    0.55</time>
   <time name="orth">    0.01    0.01</time>
   <time name="total">    0.75    0.79</time>
   <energy>
    <i name="e_fr_energy">   -359.72287608 </i>
    <i name="e_wo_entrp">   -359.74308020 </i>
    <i name="e_0_energy">   -359.72961079 </i>
   </energy>
  </scstep>
  <scstep>
   <time name="diag">    0.08    0.08</time>
   <time name="diis">    0.49    0.50</time>
   <time name="orth">    0.01    0.01</time>
   <time name="total">    0.64    0.66</time>
   <energy>
    <i name="alphaZ">   1621.96633243 </i>
    <i name="ewald"> -22175.54544795 </i>
    <i name="hartreedc">  -7112.85611111 </i>
    <i name="XCdc">      2.63628096 </i>
    <i name="pawpsdc">  36371.78042599 </i>
    <i name="pawaedc"> -34864.40776583 </i>
    <i name="eentropy">      0.02019976 </i>
    <i name="bandstr">  -3040.29121493 </i>
    <i name="atom">  28836.97442152 </i>
    <i name="e_fr_energy">   -359.72287917 </i>
    <i name="e_wo_entrp">   -359.74307892 </i>
    <i name="e_0_energy">   -359.72961242 </i>
   </energy>
  </scstep>
  <structure>
   <crystal>
    <varray name="basis" >
     <v>       6.93193516       0.02886735       0.01003648 </v>
     <v>       0.04275481      10.21936613       0.01869619 </v>
     <v>       0.01511957       0.01845675      10.31164986 </v>
    </varray>
    <i name="volume">    730.46045107 </i>
    <varray name="rec_basis" >
     <v>       0.14426268      -0.00060317      -0.00021045 </v>
     <v>      -0.00040726       0.09785545      -0.00017455 </v>
     <v>      -0.00013967      -0.00017684       0.09697821 </v>
    </varray>
   </crystal>
   <varray name="positions" >
    <v>       0.99485500       0.33132000       0.00559800 </v>
    <v>       0.26483700       0.49180100       0.83690900 </v>
    <v>       0.97285900       0.66431400       0.98837200 </v>
    <v>       0.24530600       0.81301400       0.16933000 </v>
    <v>       0.76216000       0.17019800       0.49962400 </v>
    <v>       0.47448700       0.99725600       0.67011000 </v>
    <v>       0.75402300       0.16824100       0.81734800 </v>
    <v>       0.76626600       0.83409900       0.18784200 </v>
    <v>       0.76810400       0.84370400       0.49446500 </v>
    <v>       0.01352000       0.00351200       0.99710000 </v>
    <v>       0.22785400       0.17426200       0.50080000 </v>
    <v>       0.25816900       0.50090800       0.16658900 </v>
    <v>       0.49420100       0.00409400       0.99352100 </v>
    <v>       0.75052200       0.16447800       0.18160100 </v>
    <v>       0.47174900       0.99660700       0.33752300 </v>
    <v>       0.72683900       0.47835300       0.82205000 </v>
    <v>       0.53456400       0.67512100       0.99510500 </v>
    <v>       0.49583900       0.67449000       0.65861600 </v>
    <v>       0.99404700       0.34279200       0.32573400 </v>
    <v>       0.24338200       0.49801800       0.49431300 </v>
    <v>       0.00540400       0.34823400       0.66310300 </v>
    <v>       0.99951400       0.65726700       0.34743500 </v>
    <v>       0.23234500       0.82880800       0.49360900 </v>
    <v>       0.24740500       0.82208600       0.84459100 </v>
    <v>       0.49667700       0.31639000       0.00896000 </v>
    <v>       0.74303100       0.49568200       0.18145400 </v>
    <v>       0.76180300       0.85588300       0.81720100 </v>
    <v>       0.99879200       0.66627500       0.66872100 </v>
    <v>       0.25195100       0.18202800       0.17378100 </v>
    <v>       0.03450100       0.00052700       0.32802900 </v>
    <v>       0.02894200       0.98869100       0.67686000 </v>
    <v>       0.24742000       0.18422800       0.82269000 </v>
    <v>       0.49984600       0.34225100       0.34019800 </v>
    <v>       0.74918200       0.49527100       0.49626900 </v>
    <v>       0.48461900       0.33147400       0.64740000 </v>
    <v>       0.50499000       0.65832400       0.34715000 </v>
   </varray>
  </structure>
  <varray name="forces" >
   <v>      -0.00218786      -0.00340551       0.02612556 </v>
   <v>      -0.18843908       0.16795429      -0.16336386 </v>
   <v>      -0.00075358      -0.01008960      -0.04328530 </v>
   <v>      -0.01629234      -0.00534646      -0.00344766 </v>
   <v>       0.01684352      -0.01659412       0.02005354 </v>
   <v>      -0.01737018      -0.01440665      -0.00692080 </v>
   <v>      -0.00968787       0.00711340       0.01042799 </v>
   <v>       0.03474043       0.01317383       0.00791474 </v>
   <v>       0.10308291      -0.28665830       0.19672380 </v>
   <v>       0.01918164      -0.02232206      -0.03776471 </v>
   <v>      -0.03414501       0.00104668       0.02308722 </v>
   <v>      -0.00604370      -0.00380572      -0.00729743 </v>
   <v>      -0.01946148       0.00382410       0.02497967 </v>
   <v>      -0.01375926       0.01600180      -0.01823579 </v>
   <v>      -0.03049137      -0.00141090      -0.03153305 </v>
   <v>       0.25805888       0.29893940      -0.10880377 </v>
   <v>      -0.02959828      -0.00163215       0.04169166 </v>
   <v>      -0.03377748       0.03384144      -0.03223303 </v>
   <v>      -0.01227582       0.01020691       0.01143635 </v>
   <v>      -0.17840346       0.25305150       0.28035001 </v>
   <v>       0.01939605      -0.13902329      -0.04159273 </v>
   <v>      -0.03460066      -0.04350569      -0.10689965 </v>
   <v>      -0.15596768      -0.33041608       0.44694159 </v>
   <v>      -0.25441136      -0.08458613      -0.45393827 </v>
   <v>      -0.01260541      -0.03174653       0.01069991 </v>
   <v>       0.02596881       0.01461897      -0.02624579 </v>
   <v>       0.25692241      -0.42634477      -0.17643408 </v>
   <v>       0.06590393       0.23776422      -0.08458337 </v>
   <v>       0.03063152       0.00663848      -0.01259334 </v>
   <v>       0.00837036       0.02349705       0.00222293 </v>
   <v>       0.05218324       0.07959196       0.07051073 </v>
   <v>      -0.02029011      -0.00612755      -0.01735795 </v>
   <v>       0.00893489       0.00137001       0.00715573 </v>
   <v>       0.17964638       0.25458858       0.22680123 </v>
   <v>       0.00580239       0.02430198      -0.05654920 </v>
   <v>      -0.01510538      -0.02010309       0.02195713 </v>
  </varray>
  <varray name="stress" >
   <v>      -7.44028184      -0.28579235       0.40860188 </v>
   <v>      -0.28579237      -6.95312802      -0.32898267 </v>
   <v>       0.40860191      -0.32898263      -8.15216184 </v>
  </varray>
  <energy>
   <i name="e_fr_energy">   -359.72287917 </i>
   <i name="e_wo_entrp">   -359.72961242 </i>
   <i name="e_0_energy">      0.02019976 </i>
  </energy>
  <time name="totalsc">   25.18   26.23</time>
 </calculation>
 <calculation>
  <scstep>
   <time name="dav">    1.26    1.33</time>
   <time name="total">    2.05    2.24</time>
   <energy>
    <i name="alphaZ">   1628.68741532 </i>
    <i name="ewald"> -22200.00688669 </i>
    <i name="hartreedc">  -7128.71287170 </i>
    <i name="XCdc">      4.01291524 </i>
    <i name="pawpsdc">  36371.84634625 </i>
    <i name="pawaedc"> -34864.47019256 </i>
    <i name="eentropy">      0.02022531 </i>
    <i name="bandstr">  -3008.14172011 </i>
    <i name="atom">  28836.97442152 </i>
    <i name="e_fr_energy">   -359.79034742 </i>
    <i name="e_wo_entrp">   -359.81057272 </i>
    <i name="e_0_energy">   -359.79708919 </i>
   </energy>
  </scstep>
  <scstep>
   <time name="diag">    0.09    0.09</time>
   <time name="diis">    0.80    0.81</time>
   <time name="orth">    0.01    0.01</time>
   <time name="total">    1.00    1.05</time>
   <energy>
    <i name="e_fr_energy">   -359.76912094 </i>
    <i name="e_wo_entrp">   -359.78949433 </i>
    <i name="e_0_energy">   -359.77591207 </i>
   </energy>
  </scstep>
  <scstep>
   <time name="diag">    0.09    0.09</time>
   <time name="diis">    0.83    0.84</time>
   <time name="orth">    0.01    0.01</time>
   <time name="total">    1.00    1.03</time>
   <energy>
    <i name="e_fr_energy">   -359.75921197 </i>
    <i name="e_wo_entrp">   -359.77967609 </i>
    <i name="e_0_energy">   -359.76603334 </i>
   </energy>
  </scstep>
  <scstep>
   <time name="diag">    0.08    0.08</time>
   <time name="diis">    0.82    0.82</time>
   <time name="orth">    0.01    0.02</time>
   <time name="total">    0.98    1.02</time>
   <energy>
    <i name="e_fr_energy">   -359.75623960 </i>
    <i name="e_wo_entrp">   -359.77669452 </i>
    <i name="e_0_energy">   -359.76305791 </i>
   </energy>
  </scstep>
  <scstep>
   <time name="diag">    0.08    0.08</time>
   <time name="diis">    0.82    0.83</time>
   <time name="orth">    0.01    0.01</time>
   <time name="total">    0.99    1.01</time>
   <energy>
    <i name="e_fr_energy">   -359.75565393 </i>
    <i name="e_wo_entrp">   -359.77606715 </i>
    <i name="e_0_energy">   -359.76245834 </i>
   </energy>
  </scstep>
  <scstep>
   <time name="diag">    0.09    0.09</time>
   <time name="diis">    0.95    0.96</time>
   <time name="orth">    0.01    0.01</time>
   <time name="total">    1.13    1.17</time>
   <energy>
    <i name="e_fr_energy">   -359.75585409 </i>
    <i name="e_wo_entrp">   -359.77633647 </i>
    <i name="e_0_energy">   -359.76268155 </i>
   </energy>
  </scstep>
  <scstep>
   <time name="diag">    0.08    0.08</time>
   <time name="diis">    0.83    0.83</time>
   <time name="orth">    0.01    0.01</time>
   <time name="total">    0.99    1.03</time>
   <energy>
    <i name="e_fr_energy">   -359.75595446 </i>
    <i name="e_wo_entrp">   -359.77639838 </i>
    <i name="e_0_energy">   -359.76276910 </i>
   </energy>
  </scstep>
  <scstep>
   <time name="diag">    0.09    0.09</time>
   <time name="diis">    0.76    0.77</time>
   <time name="orth">    0.01    0.01</time>
   <time name="total">    0.95    0.98</time>
   <energy>
    <i name="e_fr_energy">   -359.75603467 </i>
    <i name="e_wo_entrp">   -359.77643918 </i>
    <i name="e_0_energy">   -359.76283617 </i>
   </energy>
  </scstep>
  <scstep>
   <time name="diag">    0.12    0.12</time>
   <time name="diis">    0.57    0.58</time>
   <time name="orth">    0.01    0.01</time>
   <time name="total">    0.78    0.80</time>
   <energy>
    <i name="e_fr_energy">   -359.75608286 </i>
    <i name="e_wo_entrp">   -359.77652834 </i>
    <i name="e_0_energy">   -359.76289802 </i>
   </energy>
  </scstep>
  <scstep>
   <time name="diag">    0.08    0.08</time>
   <time name="diis">    0.55    0.55</time>
   <time name="orth">    0.01    0.01</time>
   <time name="total">    0.71    0.75</time>
   <energy>
    <i name="e_fr_energy">   -359.75613236 </i>
    <i name="e_wo_entrp">   -359.77656175 </i>
    <i name="e_0_energy">   -359.76294216 </i>
   </energy>
  </scstep>
  <scstep>
   <time name="diag">    0.08    0.08</time>
   <time name="diis">    0.49    0.49</time>
   <time name="orth">    0.01    0.01</time>
   <time name="total">    0.65    0.68</time>
   <energy>
    <i name="e_fr_energy">   -359.75615606 </i>
    <i name="e_wo_entrp">   -359.77658836 </i>
    <i name="e_0_energy">   -359.76296683 </i>
   </energy>
  </scstep>
  <scstep>
   <time name="diag">    0.09    0.09</time>
   <time name="diis">    0.46    0.47</time>
   <time name="orth">    0.01    0.01</time>
   <time name="total">    0.61    0.65</time>
   <energy>
    <i name="alphaZ">   1628.68741532 </i>
    <i name="ewald"> -22200.00688669 </i>
    <i name="hartreedc">  -7109.71440517 </i>
    <i name="XCdc">      3.15537918 </i>
    <i name="pawpsdc">  36552.76021179 </i>
    <i name="pawaedc"> -35045.03821325 </i>
    <i name="eentropy">      0.02043001 </i>
    <i name="bandstr">  -3026.59451434 </i>
    <i name="atom">  28836.97442152 </i>
    <i name="e_fr_energy">   -359.75616163 </i>
    <i name="e_wo_entrp">   -359.77659164 </i>
    <i name="e_0_energy">   -359.76297163 </i>
   </energy>
  </scstep>
  <structure>
   <crystal>
    <varray name="basis" >
     <v>       6.92248117       0.02846684       0.01053889 </v>
     <v>       0.04216258      10.20633889       0.01805524 </v>
     <v>       0.01587024       0.01781065      10.29624221 </v>
    </varray>
    <i name="volume">    727.44606955 </i>
    <varray name="rec_basis" >
     <v>       0.14445967      -0.00059637      -0.00022163 </v>
     <v>      -0.00040266       0.09798029      -0.00016887 </v>
     <v>      -0.00014716      -0.00017121       0.09712334 </v>
    </varray>
   </crystal>
   <varray name="positions" >
    <v>       0.99485038       0.33131512       0.00563468 </v>
    <v>       0.26444259       0.49204039       0.83667966 </v>
    <v>       0.97285765       0.66429982       0.98831127 </v>
    <v>       0.24527204       0.81300653       0.16932521 </v>
    <v>       0.76219525       0.17017435       0.49965215 </v>
    <v>       0.47445088       0.99723572       0.67010036 </v>
    <v>       0.75400268       0.16825111       0.81736264 </v>
    <v>       0.76633839       0.83411743       0.18785300 </v>
    <v>       0.76832113       0.84329692       0.49474164 </v>
    <v>       0.01356036       0.00348037       0.99704701 </v>
    <v>       0.22778263       0.17426363       0.50083247 </v>
    <v>       0.25815644       0.50090266       0.16657878 </v>
    <v>       0.49416026       0.00409947       0.99355609 </v>
    <v>       0.75049319       0.16450079       0.18157539 </v>
    <v>       0.47168545       0.99660526       0.33747881 </v>
    <v>       0.72737552       0.47877512       0.82189600 </v>
    <v>       0.53450209       0.67511876       0.99516358 </v>
    <v>       0.49576828       0.67453821       0.65857074 </v>
    <v>       0.99402125       0.34280650       0.32575005 </v>
    <v>       0.24300645       0.49837673       0.49470620 </v>
    <v>       0.00544584       0.34803710       0.66304494 </v>
    <v>       0.99944246       0.65720586       0.34728514 </v>
    <v>       0.23202088       0.82833984       0.49423746 </v>
    <v>       0.24687594       0.82196885       0.84395461 </v>
    <v>       0.49665093       0.31634509       0.00897512 </v>
    <v>       0.74308517       0.49570262       0.18141707 </v>
    <v>       0.76234368       0.85527812       0.81695394 </v>
    <v>       0.99892778       0.66661156       0.66860154 </v>
    <v>       0.25201494       0.18203725       0.17376325 </v>
    <v>       0.03451826       0.00056022       0.32803204 </v>
    <v>       0.02905004       0.98880324       0.67695866 </v>
    <v>       0.24737774       0.18421949       0.82266569 </v>
    <v>       0.49986462       0.34225287       0.34020802 </v>
    <v>       0.74955417       0.49562993       0.49658631 </v>
    <v>       0.48463107       0.33150853       0.64732056 </v>
    <v>       0.50495857       0.65829556       0.34718090 </v>
   </varray>
  </structure>
  <varray name="forces" >
   <v>      -0.00898640       0.00433335       0.02053024 </v>
   <v>      -0.17240943       0.15886885      -0.14663300 </v>
   <v>       0.00330613      -0.01348697      -0.02582825 </v>
   <v>      -0.01107248      -0.00688325      -0.00720884 </v>
   <v>       0.01171189      -0.02654843       0.01622600 </v>
   <v>       0.00290026      -0.01777930      -0.00614129 </v>
   <v>      -0.01499332       0.01304592       0.01474837 </v>
   <v>       0.02369808       0.02047738      -0.00243425 </v>
   <v>       0.07709570      -0.25552426       0.17963514 </v>
   <v>       0.01668855      -0.02619319      -0.03200399 </v>
   <v>      -0.02570577       0.00045008       0.01053026 </v>
   <v>      -0.00585660       0.00258864      -0.01672839 </v>
   <v>      -0.01506324      -0.00983796       0.01914952 </v>
   <v>      -0.01500704       0.00406603      -0.02341862 </v>
   <v>      -0.02232701      -0.01274310      -0.01689924 </v>
   <v>       0.24320150       0.28151289      -0.10086416 </v>
   <v>      -0.04111240      -0.00385561       0.04134231 </v>
   <v>      -0.02890649       0.03052818      -0.01806084 </v>
   <v>      -0.01036574       0.00688967       0.01324070 </v>
   <v>      -0.16220431       0.22495816       0.25400487 </v>
   <v>       0.01090023      -0.14079926      -0.03153816 </v>
   <v>      -0.03083652      -0.04229316      -0.11071271 </v>
   <v>      -0.12983851      -0.28598702       0.40177910 </v>
   <v>      -0.22896798      -0.08116650      -0.42777405 </v>
   <v>      -0.00186986      -0.00799355      -0.00081953 </v>
   <v>       0.02226093       0.01405677      -0.03465842 </v>
   <v>       0.22094480      -0.39998826      -0.15882973 </v>
   <v>       0.06530663       0.21951825      -0.06243276 </v>
   <v>       0.03031861      -0.00350131      -0.01727500 </v>
   <v>       0.00280143       0.01795645       0.01160816 </v>
   <v>       0.03516845       0.09006596       0.05188237 </v>
   <v>      -0.00997512      -0.01250694       0.00078606 </v>
   <v>       0.00728460       0.00264624       0.01840958 </v>
   <v>       0.16546118       0.23619598       0.21127623 </v>
   <v>       0.01391094       0.03016521      -0.04421905 </v>
   <v>      -0.01746167      -0.01123596       0.01933138 </v>
  </varray>
  <varray name="stress" >
   <v>      -2.02589392      -0.18020247       0.24805638 </v>
   <v>      -0.18020250      -1.48617585      -0.40509275 </v>
   <v>       0.24805630      -0.40509272      -2.62625871 </v>
  </varray>
  <energy>
   <i name="e_fr_energy">   -359.75616163 </i>
   <i name="e_wo_entrp">   -359.76297163 </i>
   <i name="e_0_energy">      0.02043001 </i>
  </energy>
  <time name="totalsc">   13.53   14.24</time>
 </calculation>
 <calculation>
  <scstep>
   <time name="dav">    1.20    1.34</time>
   <time name="total">    2.61    2.85</time>
   <energy>
    <i name="alphaZ">   1643.26592368 </i>
    <i name="ewald"> -22252.12348292 </i>
    <i name="hartreedc">  -7144.55338394 </i>
    <i name="XCdc">      6.13000873 </i>
    <i name="pawpsdc">  36552.94348954 </i>
    <i name="pawaedc"> -35045.20343640 </i>
    <i name="eentropy">      0.02042176 </i>
    <i name="bandstr">  -2957.39725522 </i>
    <i name="atom">  28836.97442152 </i>
    <i name="e_fr_energy">   -359.94329325 </i>
    <i name="e_wo_entrp">   -359.96371501 </i>
    <i name="e_0_energy">   -359.95010050 </i>
   </energy>
  </scstep>
  <scstep>
   <time name="diag">    0.09    0.09</time>
   <time name="diis">    0.80    0.81</time>
   <time name="orth">    0.01    0.01</time>
   <time name="total">    0.97    0.99</time>
   <energy>
    <i name="e_fr_energy">   -359.84358985 </i>
    <i name="e_wo_entrp">   -359.86397252 </i>
    <i name="e_0_energy">   -359.85038407 </i>
   </energy>
  </scstep>
  <scstep>
   <time name="diag">    0.08    0.08</time>
   <time name="diis">    0.88    0.89</time>
   <time name="orth">    0.01    0.01</time>
   <time name="total">    1.04    1.08</time>
   <energy>
    <i name="e_fr_energy">   -359.79850547 </i>
    <i name="e_wo_entrp">   -359.81934457 </i>
    <i name="e_0_energy">   -359.80545184 </i>
   </energy>
  </scstep>
  <scstep>
   <time name="diag">    0.08    0.08</time>
   <time name="diis">    0.88    0.89</time>
   <time name="orth">    0.01    0.01</time>
   <time name="total">    1.07    1.10</time>
   <energy>
    <i name="e_fr_energy">   -359.78453407 </i>
    <i name="e_wo_entrp">   -359.80527062 </i>
    <i name="e_0_energy">   -359.79144625 </i>
   </energy>
  </scstep>
  <scstep>
   <time name="diag">    0.09    0.09</time>
   <time name="diis">    0.84    0.84</time>
   <time name="orth">    0.02    0.02</time>
   <time name="total">    1.06    1.09</time>
   <energy>
    <i name="e_fr_energy">   -359.78199469 </i>
    <i name="e_wo_entrp">   -359.80268427 </i>
    <i name="e_0_energy">   -359.78889121 </i>
   </energy>
  </scstep>
  <scstep>
   <time name="diag">    0.08    0.08</time>
   <time name="diis">    0.94    0.94</time>
   <time name="orth">    0.01    0.01</time>
   <time name="total">    1.11    1.13</time>
   <energy>
    <i name="e_fr_energy">   -359.78279715 </i>
    <i name="e_wo_entrp">   -359.80361935 </i>
    <i name="e_0_energy">   -359.78973789 </i>
   </energy>
  </scstep>
  <scstep>
   <time name="diag">    0.09    0.09</time>
   <time name="diis">    0.89    0.90</time>
   <time name="orth">    0.01    0.01</time>
   <time name="total">    1.54    1.57</time>
   <energy>
    <i name="e_fr_energy">   -359.78318874 </i>
    <i name="e_wo_entrp">   -359.80394416 </i>
    <i name="e_0_energy">   -359.79010721 </i>
   </energy>
  </scstep>
  <scstep>
   <time name="diag">    0.09    0.09</time>
   <time name="diis">    0.91    0.91</time>
   <time name="orth">    0.01    0.01</time>
   <time name="total">    1.08    1.10</time>
   <energy>
    <i name="e_fr_energy">   -359.78352107 </i>
    <i name="e_wo_entrp">   -359.80419597 </i>
    <i name="e_0_energy">   -359.79041270 </i>
   </energy>
  </scstep>
  <scstep>
   <time name="diag">    0.13    0.13</time>
   <time name="diis">    0.81    0.81</time>
   <time name="orth">    0.01    0.01</time>
   <time name="total">    1.02    1.04</time>
   <energy>
    <i name="e_fr_energy">   -359.78370824 </i>
    <i name="e_wo_entrp">   -359.80446243 </i>
    <i name="e_0_energy">   -359.79062630 </i>
   </energy>
  </scstep>
  <scstep>
   <time name="diag">    0.08    0.08</time>
   <time name="diis">    0.88    0.88</time>
   <time name="orth">    0.01    0.01</time>
   <time name="total">    1.04    1.08</time>
   <energy>
    <i name="e_fr_energy">   -359.78389781 </i>
    <i name="e_wo_entrp">   -359.80461634 </i>
    <i name="e_0_energy">   -359.79080399 </i>
   </energy>
  </scstep>
  <scstep>
   <time name="diag">    0.08    0.08</time>
   <time name="diis">    0.63    0.63</time>
   <time name="orth">    0.01    0.01</time>
   <time name="total">    0.79    0.82</time>
   <energy>
    <i name="e_fr_energy">   -359.78397692 </i>
    <i name="e_wo_entrp">   -359.80470221 </i>
    <i name="e_0_energy">   -359.79088535 </i>
   </energy>
  </scstep>
  <scstep>
   <time name="diag">    0.08    0.08</time>
   <time name="diis">    0.61    0.61</time>
   <time name="orth">    0.01    0.02</time>
   <time name="total">    0.77    0.82</time>
   <energy>
    <i name="e_fr_energy">   -359.78399460 </i>
    <i name="e_wo_entrp">   -359.80471746 </i>
    <i name="e_0_energy">   -359.79090222 </i>
   </energy>
  </scstep>
  <scstep>
   <time name="diag">    0.08    0.08</time>
   <time name="diis">    0.55    0.55</time>
   <time name="orth">    0.01    0.01</time>
   <time name="total">    0.70    0.73</time>
   <energy>
    <i name="alphaZ">   1643.26592368 </i>
    <i name="ewald"> -22252.12348292 </i>
    <i name="hartreedc">  -7103.87863347 </i>
    <i name="XCdc">      4.29315283 </i>
    <i name="pawpsdc">  36955.27397709 </i>
    <i name="pawaedc"> -35446.61579546 </i>
    <i name="eentropy">      0.02072045 </i>
    <i name="bandstr">  -2996.99428231 </i>
    <i name="atom">  28836.97442152 </i>
    <i name="e_fr_energy">   -359.78399859 </i>
    <i name="e_wo_entrp">   -359.80471903 </i>
    <i name="e_0_energy">   -359.79090540 </i>
   </energy>
  </scstep>
  <structure>
   <crystal>
    <varray name="basis" >
     <v>       6.90215281       0.02760566       0.01161919 </v>
     <v>       0.04088916      10.17832716       0.01667704 </v>
     <v>       0.01748438       0.01642139      10.26311202 </v>
    </varray>
    <i name="volume">    720.99241013 </i>
    <varray name="rec_basis" >
     <v>       0.14488507      -0.00058164      -0.00024590 </v>
     <v>      -0.00039269       0.09824981      -0.00015653 </v>
     <v>      -0.00016339      -0.00015899       0.09743687 </v>
    </varray>
   </crystal>
   <varray name="positions" >
    <v>       0.99484043       0.33130463       0.00571367 </v>
    <v>       0.26359346       0.49255572       0.83618587 </v>
    <v>       0.97285474       0.66426930       0.98818050 </v>
    <v>       0.24519892       0.81299045       0.16931489 </v>
    <v>       0.76227114       0.17012343       0.49971278 </v>
    <v>       0.47437311       0.99719204       0.67007960 </v>
    <v>       0.75395892       0.16827286       0.81739416 </v>
    <v>       0.76649427       0.83415712       0.18787670 </v>
    <v>       0.76878851       0.84242053       0.49533729 </v>
    <v>       0.01364727       0.00341226       0.99693290 </v>
    <v>       0.22762895       0.17426712       0.50090240 </v>
    <v>       0.25812939       0.50089117       0.16655677 </v>
    <v>       0.49407252       0.00411124       0.99363166 </v>
    <v>       0.75043116       0.16454985       0.18152025 </v>
    <v>       0.47154861       0.99660151       0.33738365 </v>
    <v>       0.72853085       0.47968397       0.82156437 </v>
    <v>       0.53436877       0.67511393       0.99528974 </v>
    <v>       0.49561602       0.67464199       0.65847329 </v>
    <v>       0.99396579       0.34283772       0.32578462 </v>
    <v>       0.24219779       0.49914908       0.49555302 </v>
    <v>       0.00553590       0.34761317       0.66291988 </v>
    <v>       0.99928846       0.65707420       0.34696243 </v>
    <v>       0.23132276       0.82733196       0.49559081 </v>
    <v>       0.24573691       0.82171651       0.84258420 </v>
    <v>       0.49659477       0.31624839       0.00900769 </v>
    <v>       0.74320183       0.49574701       0.18133755 </v>
    <v>       0.76350783       0.85397584       0.81642176 </v>
    <v>       0.99922023       0.66733615       0.66834432 </v>
    <v>       0.25215261       0.18205718       0.17372501 </v>
    <v>       0.03455544       0.00063175       0.32803860 </v>
    <v>       0.02928267       0.98904490       0.67717111 </v>
    <v>       0.24728676       0.18420115       0.82261336 </v>
    <v>       0.49990471       0.34225690       0.34022960 </v>
    <v>       0.75035549       0.49640276       0.49726963 </v>
    <v>       0.48465710       0.33158285       0.64714948 </v>
    <v>       0.50489088       0.65823434       0.34724744 </v>
   </varray>
  </structure>
  <varray name="forces" >
   <v>      -0.02285406       0.02161038       0.00911929 </v>
   <v>      -0.13838331       0.13776450      -0.11113504 </v>
   <v>       0.01383484      -0.02134342       0.01412387 </v>
   <v>       0.00035723      -0.00878357      -0.01363739 </v>
   <v>      -0.00052647      -0.04749603       0.00656969 </v>
   <v>       0.04817289      -0.02510999      -0.00489291 </v>
   <v>      -0.02801214       0.02568554       0.02325240 </v>
   <v>      -0.00014489       0.03661955      -0.02288665 </v>
   <v>       0.02028856      -0.18597392       0.13933649 </v>
   <v>       0.01106145      -0.03426465      -0.01894949 </v>
   <v>      -0.00755733      -0.00123614      -0.01853163 </v>
   <v>      -0.00546229       0.01530293      -0.03659933 </v>
   <v>      -0.00538432      -0.03832180       0.00643945 </v>
   <v>      -0.01804472      -0.02177139      -0.03390039 </v>
   <v>      -0.00409163      -0.03657474       0.01404745 </v>
   <v>       0.20964890       0.24114862      -0.08179725 </v>
   <v>      -0.06528608      -0.00751572       0.04013796 </v>
   <v>      -0.01724308       0.02148613       0.01493235 </v>
   <v>      -0.00534065      -0.00312643       0.01867462 </v>
   <v>      -0.12769399       0.16131273       0.19643799 </v>
   <v>      -0.00746702      -0.14441692      -0.00950728 </v>
   <v>      -0.02235762      -0.03832537      -0.12169147 </v>
   <v>      -0.06972883      -0.18399534       0.29814692 </v>
   <v>      -0.17115682      -0.07157758      -0.36707600 </v>
   <v>       0.02152169       0.04234848      -0.02654609 </v>
   <v>       0.01360203       0.01116691      -0.05279949 </v>
   <v>       0.14040245      -0.33985984      -0.11907586 </v>
   <v>       0.06351069       0.17148607      -0.01263174 </v>
   <v>       0.02924678      -0.02557411      -0.02542982 </v>
   <v>      -0.00976887       0.00688394       0.03199315 </v>
   <v>      -0.00485518       0.11588502       0.00929280 </v>
   <v>       0.01391290      -0.02425718       0.04073827 </v>
   <v>       0.00366450       0.00480029       0.04232526 </v>
   <v>       0.13294195       0.19563639       0.17705885 </v>
   <v>       0.03252396       0.04275566      -0.01832172 </v>
   <v>      -0.02333152       0.00763097       0.01278276 </v>
  </varray>
  <varray name="stress" >
   <v>      10.08571581       0.02954250      -0.11539091 </v>
   <v>       0.02954254      10.75512115      -0.56053956 </v>
   <v>      -0.11539086      -0.56053952       9.75392594 </v>
  </varray>
  <energy>
   <i name="e_fr_energy">   -359.78399859 </i>
   <i name="e_wo_entrp">   -359.79090540 </i>
   <i name="e_0_energy">      0.02072045 </i>
  </energy>
  <time name="totalsc">   16.49   17.32</time>
 </calculation>
 <calculation>
  <scstep>
   <time name="dav">    0.99    1.00</time>
   <time name="total">    1.89    2.08</time>
   <energy>
    <i name="alphaZ">   1641.67877272 </i>
    <i name="ewald"> -22237.02288816 </i>
    <i name="hartreedc">  -7109.41897950 </i>
    <i name="XCdc">      3.98518014 </i>
    <i name="pawpsdc">  36956.12851384 </i>
    <i name="pawaedc"> -35447.41777430 </i>
    <i name="eentropy">      0.02109518 </i>
    <i name="bandstr">  -3004.73110545 </i>
    <i name="atom">  28836.97442152 </i>
    <i name="e_fr_energy">   -359.80276401 </i>
    <i name="e_wo_entrp">   -359.82385918 </i>
    <i name="e_0_energy">   -359.80979573 </i>
   </energy>
  </scstep>
  <scstep>
   <time name="diag">    0.08    0.08</time>
   <time name="diis">    0.76    0.77</time>
   <time name="orth">    0.01    0.01</time>
   <time name="total">    0.96    1.02</time>
   <energy>
    <i name="e_fr_energy">   -359.81459112 </i>
    <i name="e_wo_entrp">   -359.83553749 </i>
    <i name="e_0_energy">   -359.82157324 </i>
   </energy>
  </scstep>
  <scstep>
   <time name="diag">    0.09    0.09</time>
   <time name="diis">    0.80    0.80</time>
   <time name="orth">    0.01    0.01</time>
   <time name="total">    0.96    1.00</time>
   <energy>
    <i name="e_fr_energy">   -359.81020354 </i>
    <i name="e_wo_entrp">   -359.83123186 </i>
    <i name="e_0_energy">   -359.81721298 </i>
   </energy>
  </scstep>
  <scstep>
   <time name="diag">    0.08    0.08</time>
   <time name="diis">    0.89    0.90</time>
   <time name="orth">    0.01    0.01</time>
   <time name="total">    1.08    1.11</time>
   <energy>
    <i name="e_fr_energy">   -359.80979384 </i>
    <i name="e_wo_entrp">   -359.83082949 </i>
    <i name="e_0_energy">   -359.81680572 </i>
   </energy>
  </scstep>
  <scstep>
   <time name="diag">    0.09    0.10</time>
   <time name="diis">    0.82    0.83</time>
   <time name="orth">    0.01    0.01</time>
   <time name="total">    1.01    1.03</time>
   <energy>
    <i name="e_fr_energy">   -359.80964942 </i>
    <i name="e_wo_entrp">   -359.83069280 </i>
    <i name="e_0_energy">   -359.81666388 </i>
   </energy>
  </scstep>
  <scstep>
   <time name="diag">    0.08    0.08</time>
   <time name="diis">    0.83    0.84</time>
   <time name="orth">    0.02    0.02</time>
   <time name="total">    1.03    1.05</time>
   <energy>
    <i name="e_fr_energy">   -359.80961715 </i>
    <i name="e_wo_entrp">   -359.83064823 </i>
    <i name="e_0_energy">   -359.81662751 </i>
   </energy>
  </scstep>
  <scstep>
   <time name="diag">    0.09    0.11</time>
   <time name="diis">    0.82    0.83</time>
   <time name="orth">    0.01    0.01</time>
   <time name="total">    0.99    1.05</time>
   <energy>
    <i name="e_fr_energy">   -359.80960517 </i>
    <i name="e_wo_entrp">   -359.83063722 </i>
    <i name="e_0_energy">   -359.81661585 </i>
   </energy>
  </scstep>
  <scstep>
   <time name="diag">    0.08    0.08</time>
   <time name="diis">    0.55    0.56</time>
   <time name="orth">    0.01    0.01</time>
   <time name="total">    0.68    0.72</time>
   <energy>
    <i name="alphaZ">   1641.67877272 </i>
    <i name="ewald"> -22237.02288816 </i>
    <i name="hartreedc">  -7114.44699390 </i>
    <i name="XCdc">      4.19715993 </i>
    <i name="pawpsdc">  36909.43108655 </i>
    <i name="pawaedc"> -35400.57270969 </i>
    <i name="eentropy">      0.02104967 </i>
    <i name="bandstr">  -3000.06950095 </i>
    <i name="atom">  28836.97442152 </i>
    <i name="e_fr_energy">   -359.80960230 </i>
    <i name="e_wo_entrp">   -359.83065198 </i>
    <i name="e_0_energy">   -359.81661886 </i>
   </energy>
  </scstep>
  <structure>
   <crystal>
    <varray name="basis" >
     <v>       6.90434401       0.02737860       0.01189327 </v>
     <v>       0.04055084      10.18311334       0.01548547 </v>
     <v>       0.01789864       0.01522237      10.26494184 </v>
    </varray>
    <i name="volume">    721.68945502 </i>
    <varray name="rec_basis" >
     <v>       0.14483907      -0.00057639      -0.00025170 </v>
     <v>      -0.00038917       0.09820356      -0.00014495 </v>
     <v>      -0.00016723      -0.00014748       0.09741947 </v>
    </varray>
   </crystal>
   <varray name="positions" >
    <v>       0.99480224       0.33132332       0.00575002 </v>
    <v>       0.26309266       0.49287434       0.83590362 </v>
    <v>       0.97287481       0.66423684       0.98815013 </v>
    <v>       0.24517452       0.81297594       0.16929748 </v>
    <v>       0.76229659       0.17005721       0.49974030 </v>
    <v>       0.47441963       0.99715111       0.67006746 </v>
    <v>       0.75390129       0.16830677       0.81742866 </v>
    <v>       0.76654725       0.83420837       0.18786143 </v>
    <v>       0.76897991       0.84192925       0.49568342 </v>
    <v>       0.01369404       0.00335374       0.99687455 </v>
    <v>       0.22756494       0.17426711       0.50090749 </v>
    <v>       0.25811186       0.50090304       0.16651193 </v>
    <v>       0.49403454       0.00407591       0.99366417 </v>
    <v>       0.75038282       0.16454440       0.18146690 </v>
    <v>       0.47149577       0.99656263       0.33736545 </v>
    <v>       0.72924277       0.48024206       0.82136672 </v>
    <v>       0.53422416       0.67510476       0.99537396 </v>
    <v>       0.49553763       0.67469962       0.65845514 </v>
    <v>       0.99393869       0.34284518       0.32581550 </v>
    <v>       0.24172601       0.49957936       0.49604313 </v>
    <v>       0.00555631       0.34731976       0.66286760 </v>
    <v>       0.99920243       0.65699004       0.34672805 </v>
    <v>       0.23097834       0.82679783       0.49635838 </v>
    <v>       0.24508918       0.82155782       0.84174141 </v>
    <v>       0.49660796       0.31625876       0.00899169 </v>
    <v>       0.74326244       0.49577370       0.18125648 </v>
    <v>       0.76412138       0.85318061       0.81611845 </v>
    <v>       0.99941561       0.66776008       0.66824301 </v>
    <v>       0.25224427       0.18203764       0.17368599 </v>
    <v>       0.03455325       0.00066329       0.32807345 </v>
    <v>       0.02935422       0.98924668       0.67725314 </v>
    <v>       0.24727674       0.18416982       0.82263696 </v>
    <v>       0.49992385       0.34226313       0.34028010 </v>
    <v>       0.75082955       0.49686747       0.49768346 </v>
    <v>       0.48471509       0.33165210       0.64707211 </v>
    <v>       0.50483228       0.65822130       0.34728328 </v>
   </varray>
  </structure>
  <varray name="forces" >
   <v>      -0.02076729       0.02387819       0.00785600 </v>
   <v>      -0.11526539       0.10737004      -0.09608443 </v>
   <v>       0.01354021      -0.01532384       0.03015425 </v>
   <v>      -0.00305382      -0.01220853      -0.00556914 </v>
   <v>      -0.00162076      -0.04417641       0.00048608 </v>
   <v>       0.05691807      -0.03361383       0.00758911 </v>
   <v>      -0.03226668       0.03178075       0.02145026 </v>
   <v>      -0.00367132       0.03952731      -0.01631549 </v>
   <v>       0.00955857      -0.14905025       0.11132465 </v>
   <v>       0.01532084      -0.04067960      -0.02363398 </v>
   <v>      -0.00359849       0.00663560      -0.02725925 </v>
   <v>       0.00000929       0.00887597      -0.03004801 </v>
   <v>      -0.00737987      -0.04666295      -0.00849512 </v>
   <v>      -0.01730486      -0.02423355      -0.03026455 </v>
   <v>      -0.01536710      -0.05108171       0.02703952 </v>
   <v>       0.18399940       0.20407215      -0.07926185 </v>
   <v>      -0.07004021      -0.00355732       0.03283895 </v>
   <v>      -0.01375510       0.01656851       0.02539616 </v>
   <v>      -0.00751074       0.00138716       0.01685125 </v>
   <v>      -0.10434107       0.11742795       0.15065666 </v>
   <v>      -0.00553861      -0.13759314      -0.00049476 </v>
   <v>      -0.01764991      -0.04071045      -0.10724876 </v>
   <v>      -0.05729183      -0.11964901       0.22436753 </v>
   <v>      -0.15129149      -0.05983781      -0.33013645 </v>
   <v>       0.01867258       0.05377480      -0.03497541 </v>
   <v>       0.00252516       0.00236809      -0.03520690 </v>
   <v>       0.11064518      -0.28644113      -0.10980146 </v>
   <v>       0.06275789       0.14535413       0.00468886 </v>
   <v>       0.03066561      -0.02150270      -0.01964383 </v>
   <v>       0.00586295      -0.00485704       0.04201757 </v>
   <v>      -0.01612713       0.11107396       0.00333661 </v>
   <v>       0.02626535      -0.01652623       0.04702239 </v>
   <v>       0.00703951       0.02284953       0.05925204 </v>
   <v>       0.11237786       0.16285628       0.13983686 </v>
   <v>       0.03071839       0.05080042      -0.01613719 </v>
   <v>      -0.02303517       0.00110467       0.01841185 </v>
  </varray>
  <varray name="stress" >
   <v>       8.89417457       0.10090110      -0.23206392 </v>
   <v>       0.10090109       9.45411326      -0.53003671 </v>
   <v>      -0.23206398      -0.53003673       8.52556451 </v>
  </varray>
  <energy>
   <i name="e_fr_energy">   -359.80960230 </i>
   <i name="e_wo_entrp">   -359.81661886 </i>
   <i name="e_0_energy">      0.02104967 </i>
  </energy>
  <time name="totalsc">   10.26   10.87</time>
 </calculation>
 <calculation>
  <scstep>
   <time name="dav">    0.96    0.96</time>
   <time name="total">    1.94    2.07</time>
   <energy>
    <i name="alphaZ">   1636.93030967 </i>
    <i name="ewald"> -22189.94101677 </i>
    <i name="hartreedc">  -7132.61388486 </i>
    <i name="XCdc">      3.27945154 </i>
    <i name="pawpsdc">  36909.62282907 </i>
    <i name="pawaedc"> -35400.80267694 </i>
    <i name="eentropy">      0.02156665 </i>
    <i name="bandstr">  -3023.26473592 </i>
    <i name="atom">  28836.97442152 </i>
    <i name="e_fr_energy">   -359.79373604 </i>
    <i name="e_wo_entrp">   -359.81530269 </i>
    <i name="e_0_energy">   -359.80092493 </i>
   </energy>
  </scstep>
  <scstep>
   <time name="diag">    0.08    0.08</time>
   <time name="diis">    0.74    0.75</time>
   <time name="orth">    0.01    0.01</time>
   <time name="total">    0.92    0.98</time>
   <energy>
    <i name="e_fr_energy">   -359.89731517 </i>
    <i name="e_wo_entrp">   -359.91826719 </i>
    <i name="e_0_energy">   -359.90429917 </i>
   </energy>
  </scstep>
  <scstep>
   <time name="diag">    0.09    0.09</time>
   <time name="diis">    0.80    0.81</time>
   <time name="orth">    0.01    0.01</time>
   <time name="total">    0.97    1.00</time>
   <energy>
    <i name="e_fr_energy">   -359.86473462 </i>
    <i name="e_wo_entrp">   -359.88610851 </i>
    <i name="e_0_energy">   -359.87185925 </i>
   </energy>
  </scstep>
  <scstep>
   <time name="diag">    0.09    0.14</time>
   <time name="diis">    0.85    0.88</time>
   <time name="orth">    0.02    0.02</time>
   <time name="total">    1.03    1.13</time>
   <energy>
    <i name="e_fr_energy">   -359.86075642 </i>
    <i name="e_wo_entrp">   -359.88219725 </i>
    <i name="e_0_energy">   -359.86790336 </i>
   </energy>
  </scstep>
  <scstep>
   <time name="diag">    0.08    0.08</time>
   <time name="diis">    0.82    0.83</time>
   <time name="orth">    0.01    0.01</time>
   <time name="total">    0.98    1.03</time>
   <energy>
    <i name="e_fr_energy">   -359.85958095 </i>
    <i name="e_wo_entrp">   -359.88104111 </i>
    <i name="e_0_energy">   -359.86673434 </i>
   </energy>
  </scstep>
  <scstep>
   <time name="diag">    0.12    0.12</time>
   <time name="diis">    0.88    0.90</time>
   <time name="orth">    0.01    0.01</time>
   <time name="total">    1.11    1.14</time>
   <energy>
    <i name="e_fr_energy">   -359.85928304 </i>
    <i name="e_wo_entrp">   -359.88070652 </i>
    <i name="e_0_energy">   -359.86642420 </i>
   </energy>
  </scstep>
  <scstep>
   <time name="diag">    0.08    0.08</time>
   <time name="diis">    0.90    0.92</time>
   <time name="orth">    0.01    0.01</time>
   <time name="total">    1.08    1.13</time>
   <energy>
    <i name="e_fr_energy">   -359.85924415 </i>
    <i name="e_wo_entrp">   -359.88068981 </i>
    <i name="e_0_energy">   -359.86639270 </i>
   </energy>
  </scstep>
  <scstep>
   <time name="diag">    0.08    0.08</time>
   <time name="diis">    0.84    0.85</time>
   <time name="orth">    0.01    0.01</time>
   <time name="total">    1.00    1.03</time>
   <energy>
    <i name="e_fr_energy">   -359.85926923 </i>
    <i name="e_wo_entrp">   -359.88074998 </i>
    <i name="e_0_energy">   -359.86642948 </i>
   </energy>
  </scstep>
  <scstep>
   <time name="diag">    0.08    0.08</time>
   <time name="diis">    0.88    0.89</time>
   <time name="orth">    0.01    0.01</time>
   <time name="total">    1.05    1.07</time>
   <energy>
    <i name="e_fr_energy">   -359.85928813 </i>
    <i name="e_wo_entrp">   -359.88075299 </i>
    <i name="e_0_energy">   -359.86644308 </i>
   </energy>
  </scstep>
  <scstep>
   <time name="diag">    0.11    0.12</time>
   <time name="diis">    0.63    0.73</time>
   <time name="orth">    0.01    0.01</time>
   <time name="total">    1.25    1.49</time>
   <energy>
    <i name="e_fr_energy">   -359.85929494 </i>
    <i name="e_wo_entrp">   -359.88075119 </i>
    <i name="e_0_energy">   -359.86644702 </i>
   </energy>
  </scstep>
  <scstep>
   <time name="diag">    0.11    0.11</time>
   <time name="diis">    0.74    0.75</time>
   <time name="orth">    0.01    0.01</time>
   <time name="total">    0.92    0.96</time>
   <energy>
    <i name="alphaZ">   1636.93030967 </i>
    <i name="ewald"> -22189.94101677 </i>
    <i name="hartreedc">  -7147.14776200 </i>
    <i name="XCdc">      3.88835493 </i>
    <i name="pawpsdc">  36769.22456830 </i>
    <i name="pawaedc"> -35260.67700774 </i>
    <i name="eentropy">      0.02147714 </i>
    <i name="bandstr">  -3009.13263982 </i>
    <i name="atom">  28836.97442152 </i>
    <i name="e_fr_energy">   -359.85929478 </i>
    <i name="e_wo_entrp">   -359.88077192 </i>
    <i name="e_0_energy">   -359.86645382 </i>
   </energy>
  </scstep>
  <structure>
   <crystal>
    <varray name="basis" >
     <v>       6.91091759       0.02669743       0.01271550 </v>
     <v>       0.03953586      10.19747189       0.01191075 </v>
     <v>       0.01914142       0.01162532      10.27043130 </v>
    </varray>
    <i name="volume">    723.78295631 </i>
    <varray name="rec_basis" >
     <v>       0.14470125      -0.00056070      -0.00026905 </v>
     <v>      -0.00037863       0.09806512      -0.00011030 </v>
     <v>      -0.00017871      -0.00011303       0.09736736 </v>
    </varray>
   </crystal>
   <varray name="positions" >
    <v>       0.99468769       0.33137939       0.00585903 </v>
    <v>       0.26159083       0.49382959       0.83505717 </v>
    <v>       0.97293500       0.66413949       0.98805901 </v>
    <v>       0.24510134       0.81293243       0.16924525 </v>
    <v>       0.76237288       0.16985864       0.49982284 </v>
    <v>       0.47455916       0.99702835       0.67003105 </v>
    <v>       0.75372844       0.16840847       0.81753213 </v>
    <v>       0.76670614       0.83436205       0.18781564 </v>
    <v>       0.76955378       0.84045626       0.49672146 </v>
    <v>       0.01383430       0.00317821       0.99669952 </v>
    <v>       0.22737299       0.17426707       0.50092274 </v>
    <v>       0.25805928       0.50093862       0.16637743 </v>
    <v>       0.49392063       0.00396998       0.99376168 </v>
    <v>       0.75023784       0.16452803       0.18130689 </v>
    <v>       0.47133729       0.99644605       0.33731086 </v>
    <v>       0.73137799       0.48191550       0.82077400 </v>
    <v>       0.53379043       0.67507729       0.99562658 </v>
    <v>       0.49530252       0.67487242       0.65840073 </v>
    <v>       0.99385740       0.34286756       0.32590813 </v>
    <v>       0.24031109       0.50086973       0.49751340 </v>
    <v>       0.00561747       0.34643992       0.66271069 </v>
    <v>       0.99894447       0.65673758       0.34602499 </v>
    <v>       0.22994516       0.82519644       0.49866053 </v>
    <v>       0.24314675       0.82108164       0.83921347 </v>
    <v>       0.49664751       0.31628985       0.00894368 </v>
    <v>       0.74344425       0.49585372       0.18101332 </v>
    <v>       0.76596139       0.85079597       0.81520833 </v>
    <v>       0.00000165       0.66903123       0.66793925 </v>
    <v>       0.25251917       0.18197907       0.17356895 </v>
    <v>       0.03454666       0.00075789       0.32817799 </v>
    <v>       0.02956879       0.98985179       0.67749925 </v>
    <v>       0.24724669       0.18407589       0.82270776 </v>
    <v>       0.49998123       0.34228182       0.34043157 </v>
    <v>       0.75225125       0.49826110       0.49892484 </v>
    <v>       0.48488902       0.33185974       0.64684007 </v>
    <v>       0.50465651       0.65818222       0.34739076 </v>
   </varray>
  </structure>
  <varray name="forces" >
   <v>      -0.01289746       0.03070854       0.00324014 </v>
   <v>      -0.05134298       0.01762189      -0.05311018 </v>
   <v>       0.01361612      -0.00142136       0.08257810 </v>
   <v>      -0.01343994      -0.01891766       0.02178900 </v>
   <v>      -0.00665938      -0.03454036      -0.01732771 </v>
   <v>       0.08533888      -0.05535988       0.04097844 </v>
   <v>      -0.04690783       0.05267269       0.01271273 </v>
   <v>      -0.01403474       0.04940677       0.00658322 </v>
   <v>      -0.02514509      -0.03707134       0.02526805 </v>
   <v>       0.02758556      -0.05616295      -0.03344649 </v>
   <v>       0.00831235       0.02839080      -0.05447474 </v>
   <v>       0.01687109      -0.00968527      -0.01300485 </v>
   <v>      -0.01290779      -0.06588894      -0.04705870 </v>
   <v>      -0.01718881      -0.03226727      -0.02115809 </v>
   <v>      -0.04363817      -0.09102557       0.06198957 </v>
   <v>       0.10893819       0.09596480      -0.07230000 </v>
   <v>      -0.07961418       0.00579790       0.01165821 </v>
   <v>       0.00126687      -0.00384964       0.05759323 </v>
   <v>      -0.01328145       0.01173495       0.00914794 </v>
   <v>      -0.03740236      -0.00707361       0.02056037 </v>
   <v>       0.00013252      -0.11893201       0.02750931 </v>
   <v>      -0.00464714      -0.04810672      -0.06831829 </v>
   <v>      -0.01579321       0.07125686       0.00010906 </v>
   <v>      -0.09253113      -0.02671457      -0.21485543 </v>
   <v>       0.00960654       0.08612901      -0.05885915 </v>
   <v>      -0.03240238      -0.02265841       0.01660250 </v>
   <v>       0.02540497      -0.13633671      -0.08111256 </v>
   <v>       0.05979752       0.05733103       0.05749874 </v>
   <v>       0.03480079      -0.01041337       0.00100253 </v>
   <v>       0.04560193      -0.03468967       0.06842950 </v>
   <v>      -0.05465268       0.10279532      -0.01846215 </v>
   <v>       0.06258237       0.00830967       0.06589049 </v>
   <v>       0.01772667       0.06914886       0.10489189 </v>
   <v>       0.04864633       0.06733037       0.03375767 </v>
   <v>       0.02870469       0.07542907      -0.01118919 </v>
   <v>      -0.02044668      -0.01891324       0.03488685 </v>
  </varray>
  <varray name="stress" >
   <v>       4.69882177       0.26439770      -0.57326677 </v>
   <v>       0.26439774       4.92208831      -0.37576848 </v>
   <v>      -0.57326689      -0.37576845       4.28202313 </v>
  </varray>
  <energy>
   <i name="e_fr_energy">   -359.85929478 </i>
   <i name="e_wo_entrp">   -359.86645382 </i>
   <i name="e_0_energy">      0.02147714 </i>
  </energy>
  <time name="totalsc">   13.84   16.73</time>
 </calculation>
 <calculation>
  <scstep>
   <time name="dav">    1.03    1.04</time>
   <time name="total">    2.18    2.35</time>
   <energy>
    <i name="alphaZ">   1627.49148938 </i>
    <i name="ewald"> -22087.68715746 </i>
    <i name="hartreedc">  -7191.05722721 </i>
    <i name="XCdc">      2.10430031 </i>
    <i name="pawpsdc">  36768.36777781 </i>
    <i name="pawaedc"> -35259.86590572 </i>
    <i name="eentropy">      0.01967047 </i>
    <i name="bandstr">  -3055.89048000 </i>
    <i name="atom">  28836.97442152 </i>
    <i name="e_fr_energy">   -359.54311091 </i>
    <i name="e_wo_entrp">   -359.56278138 </i>
    <i name="e_0_energy">   -359.54966773 </i>
   </energy>
  </scstep>
  <scstep>
   <time name="diag">    0.09    0.09</time>
   <time name="diis">    0.68    0.75</time>
   <time name="orth">    0.01    0.01</time>
   <time name="total">    0.85    0.94</time>
   <energy>
    <i name="e_fr_energy">   -359.94435790 </i>
    <i name="e_wo_entrp">   -359.96376890 </i>
    <i name="e_0_energy">   -359.95082823 </i>
   </energy>
  </scstep>
  <scstep>
   <time name="diag">    0.09    0.09</time>
   <time name="diis">    0.81    0.82</time>
   <time name="orth">    0.01    0.01</time>
   <time name="total">    0.98    1.00</time>
   <energy>
    <i name="e_fr_energy">   -359.86021327 </i>
    <i name="e_wo_entrp">   -359.87994810 </i>
    <i name="e_0_energy">   -359.86679155 </i>
   </energy>
  </scstep>
  <scstep>
   <time name="diag">    0.11    0.11</time>
   <time name="diis">    0.85    0.86</time>
   <time name="orth">    0.01    0.01</time>
   <time name="total">    1.04    1.10</time>
   <energy>
    <i name="e_fr_energy">   -359.84199040 </i>
    <i name="e_wo_entrp">   -359.86219887 </i>
    <i name="e_0_energy">   -359.84872656 </i>
   </energy>
  </scstep>
  <scstep>
   <time name="diag">    0.09    0.09</time>
   <time name="diis">    0.81    0.81</time>
   <time name="orth">    0.01    0.01</time>
   <time name="total">    1.01    1.07</time>
   <energy>
    <i name="e_fr_energy">   -359.83759411 </i>
    <i name="e_wo_entrp">   -359.85778704 </i>
    <i name="e_0_energy">   -359.84432509 </i>
   </energy>
  </scstep>
  <scstep>
   <time name="diag">    0.09    0.09</time>
   <time name="diis">    0.85    0.86</time>
   <time name="orth">    0.01    0.01</time>
   <time name="total">    1.04    1.09</time>
   <energy>
    <i name="e_fr_energy">   -359.83598679 </i>
    <i name="e_wo_entrp">   -359.85615195 </i>
    <i name="e_0_energy">   -359.84270851 </i>
   </energy>
  </scstep>
  <scstep>
   <time name="diag">    0.13    0.13</time>
   <time name="diis">    0.90    0.91</time>
   <time name="orth">    0.01    0.01</time>
   <time name="total">    1.11    1.15</time>
   <energy>
    <i name="e_fr_energy">   -359.83598476 </i>
    <i name="e_wo_entrp">   -359.85627344 </i>
    <i name="e_0_energy">   -359.84274765 </i>
   </energy>
  </scstep>
  <scstep>
   <time name="diag">    0.09    0.09</time>
   <time name="diis">    0.87    0.98</time>
   <time name="orth">    0.02    0.02</time>
   <time name="total">    1.03    1.18</time>
   <energy>
    <i name="e_fr_energy">   -359.83604573 </i>
    <i name="e_wo_entrp">   -359.85629228 </i>
    <i name="e_0_energy">   -359.84279458 </i>
   </energy>
  </scstep>
  <scstep>
[...]
       <r>    7.1776    1.0000 </r>
       <r>    7.2213    1.0000 </r>
       <r>    7.2977    1.0000 </r>
       <r>    7.3177    1.0000 </r>
       <r>    7.3694    1.0000 </r>
       <r>    7.3861    1.0001 </r>
       <r>    7.4298    1.0003 </r>
       <r>    7.4641    1.0009 </r>
       <r>    7.5071    1.0032 </r>
       <r>    7.5173    1.0041 </r>
       <r>    7.5502    1.0087 </r>
       <r>    7.5726    1.0135 </r>
       <r>    7.6237    1.0284 </r>
       <r>    7.6679    1.0352 </r>
       <r>    7.6856    1.0310 </r>
       <r>    7.7002    1.0221 </r>
       <r>    7.7470    0.9457 </r>
       <r>    7.7768    0.8487 </r>
       <r>    7.8281    0.6013 </r>
       <r>    7.8407    0.5308 </r>
       <r>    7.8789    0.3200 </r>
       <r>    7.9185    0.1399 </r>
       <r>    7.9545    0.0327 </r>
       <r>    7.9757   -0.0045 </r>
       <r>    8.0101   -0.0323 </r>
       <r>    8.0388   -0.0350 </r>
       <r>    8.0680   -0.0286 </r>
       <r>    8.1142   -0.0149 </r>
       <r>    8.1693   -0.0047 </r>
       <r>    8.1957   -0.0024 </r>
       <r>    8.2562   -0.0004 </r>
       <r>    8.3040   -0.0001 </r>
       <r>    8.3327   -0.0000 </r>
       <r>    8.3827   -0.0000 </r>
       <r>    8.4320   -0.0000 </r>
       <r>    8.4934   -0.0000 </r>
       <r>    8.5517   -0.0000 </r>
       <r>    8.6166   -0.0000 </r>
       <r>    8.7013   -0.0000 </r>
       <r>    8.7318   -0.0000 </r>
       <r>    8.8433   -0.0000 </r>
       <r>    8.9835   -0.0000 </r>
       <r>    9.0878   -0.0000 </r>
       <r>    9.1337   -0.0000 </r>
       <r>    9.6931   -0.0000 </r>
       <r>    9.7278   -0.0000 </r>
       <r>    9.7817   -0.0000 </r>
       <r>    9.8378   -0.0000 </r>
       <r>    9.8636   -0.0000 </r>
      </set>
     </set>
    </set>
   </array>
  </eigenvalues>
  <separator name="orbital magnetization" >
   <v name="MAGDIPOLOUT">      0.00000000      0.00000000      0.00000000</v>
  </separator>
  <dos>
   <i name="efermi">      7.84616482 </i>
   <total>
    <array>
     <dimension dim="1">gridpoints</dimension>
     <dimension dim="2">spin</dimension>
     <field>energy</field>
     <field>total</field>
     <field>integrated</field>
     <set>
      <set comment="spin 1">
       <r>   -49.2450     0.0000     0.0000 </r>
       <r>   -49.0383     0.0000     0.0000 </r>
       <r>   -48.8317     0.0000     0.0000 </r>
       <r>   -48.6251     0.0000     0.0000 </r>
       <r>   -48.4185     0.0000     0.0000 </r>
       <r>   -48.2118     0.0000     0.0000 </r>
       <r>   -48.0052     0.0000     0.0000 </r>
       <r>   -47.7986    -0.0000    -0.0000 </r>
       <r>   -47.5920    -0.0000    -0.0000 </r>
       <r>   -47.3853    -0.0000    -0.0000 </r>
       <r>   -47.1787    -0.0000    -0.0000 </r>
       <r>   -46.9721    -0.0000    -0.0000 </r>
       <r>   -46.7655    -0.0596    -0.0123 </r>
       <r>   -46.5588    -1.7122    -0.3661 </r>
       <r>   -46.3522    37.6114     7.4054 </r>
       <r>   -46.1456    60.7139    19.9504 </r>
       <r>   -45.9390     0.5181    20.0575 </r>
       <r>   -45.7323    -0.2776    20.0001 </r>
       <r>   -45.5257    -0.0005    20.0000 </r>
       <r>   -45.3191    -0.0000    20.0000 </r>
       <r>   -45.1125    -0.0000    20.0000 </r>
       <r>   -44.9058     0.0000    20.0000 </r>
       <r>   -44.6992     0.0000    20.0000 </r>
       <r>   -44.4926     0.0000    20.0000 </r>
       <r>   -44.2860     0.0000    20.0000 </r>
       <r>   -44.0793     0.0000    20.0000 </r>
       <r>   -43.8727     0.0000    20.0000 </r>
       <r>   -43.6661     0.0000    20.0000 </r>
       <r>   -43.4595     0.0000    20.0000 </r>
       <r>   -43.2528     0.0000    20.0000 </r>
       <r>   -43.0462     0.0000    20.0000 </r>
       <r>   -42.8396     0.0000    20.0000 </r>
       <r>   -42.6330     0.0000    20.0000 </r>
       <r>   -42.4263     0.0000    20.0000 </r>
       <r>   -42.2197     0.0000    20.0000 </r>
       <r>   -42.0131     0.0000    20.0000 </r>
       <r>   -41.8064    -0.0000    20.0000 </r>
       <r>   -41.5998    -0.0000    20.0000 </r>
       <r>   -41.3932    -0.0000    20.0000 </r>
       <r>   -41.1866    -0.0000    20.0000 </r>
       <r>   -40.9799    -0.0001    20.0000 </r>
       <r>   -40.7733    -0.0881    19.9818 </r>
       <r>   -40.5667    -0.4609    19.8866 </r>
       <r>   -40.3601    26.8331    25.4310 </r>
       <r>   -40.1534    50.0757    35.7779 </r>
       <r>   -39.9468    11.1764    38.0872 </r>
       <r>   -39.7402    -0.3898    38.0066 </r>
       <r>   -39.5336    -0.0322    38.0000 </r>
       <r>   -39.3269    -0.0000    38.0000 </r>
       <r>   -39.1203    -0.0000    38.0000 </r>
       <r>   -38.9137     0.0000    38.0000 </r>
       <r>   -38.7071     0.0000    38.0000 </r>
       <r>   -38.5004     0.0000    38.0000 </r>
       <r>   -38.2938     0.0000    38.0000 </r>
       <r>   -38.0872     0.0000    38.0000 </r>
       <r>   -37.8806     0.0000    38.0000 </r>
       <r>   -37.6739     0.0000    38.0000 </r>
       <r>   -37.4673     0.0000    38.0000 </r>
       <r>   -37.2607     0.0000    38.0000 </r>
       <r>   -37.0541     0.0000    38.0000 </r>
       <r>   -36.8474     0.0000    38.0000 </r>
       <r>   -36.6408     0.0000    38.0000 </r>
       <r>   -36.4342     0.0000    38.0000 </r>
       <r>   -36.2276     0.0000    38.0000 </r>
       <r>   -36.0209     0.0000    38.0000 </r>
       <r>   -35.8143     0.0000    38.0000 </r>
       <r>   -35.6077     0.0000    38.0000 </r>
       <r>   -35.4011     0.0000    38.0000 </r>
       <r>   -35.1944     0.0000    38.0000 </r>
       <r>   -34.9878     0.0000    38.0000 </r>
       <r>   -34.7812     0.0000    38.0000 </r>
       <r>   -34.5746     0.0000    38.0000 </r>
       <r>   -34.3679     0.0000    38.0000 </r>
       <r>   -34.1613     0.0000    38.0000 </r>
       <r>   -33.9547     0.0000    38.0000 </r>
       <r>   -33.7481     0.0000    38.0000 </r>
       <r>   -33.5414     0.0000    38.0000 </r>
       <r>   -33.3348     0.0000    38.0000 </r>
       <r>   -33.1282     0.0000    38.0000 </r>
       <r>   -32.9216     0.0000    38.0000 </r>
       <r>   -32.7149     0.0000    38.0000 </r>
       <r>   -32.5083     0.0000    38.0000 </r>
       <r>   -32.3017     0.0000    38.0000 </r>
       <r>   -32.0951     0.0000    38.0000 </r>
       <r>   -31.8884     0.0000    38.0000 </r>
       <r>   -31.6818     0.0000    38.0000 </r>
       <r>   -31.4752     0.0000    38.0000 </r>
       <r>   -31.2686     0.0000    38.0000 </r>
       <r>   -31.0619     0.0000    38.0000 </r>
       <r>   -30.8553     0.0000    38.0000 </r>
       <r>   -30.6487     0.0000    38.0000 </r>
       <r>   -30.4421     0.0000    38.0000 </r>
       <r>   -30.2354     0.0000    38.0000 </r>
       <r>   -30.0288     0.0000    38.0000 </r>
       <r>   -29.8222     0.0000    38.0000 </r>
       <r>   -29.6155     0.0000    38.0000 </r>
       <r>   -29.4089     0.0000    38.0000 </r>
       <r>   -29.2023     0.0000    38.0000 </r>
       <r>   -28.9957     0.0000    38.0000 </r>
       <r>   -28.7890     0.0000    38.0000 </r>
       <r>   -28.5824     0.0000    38.0000 </r>
       <r>   -28.3758     0.0000    38.0000 </r>
       <r>   -28.1692     0.0000    38.0000 </r>
       <r>   -27.9625     0.0000    38.0000 </r>
       <r>   -27.7559     0.0000    38.0000 </r>
       <r>   -27.5493     0.0000    38.0000 </r>
       <r>   -27.3427     0.0000    38.0000 </r>
       <r>   -27.1360     0.0000    38.0000 </r>
       <r>   -26.9294     0.0000    38.0000 </r>
       <r>   -26.7228     0.0000    38.0000 </r>
       <r>   -26.5162     0.0000    38.0000 </r>
       <r>   -26.3095     0.0000    38.0000 </r>
       <r>   -26.1029     0.0000    38.0000 </r>
       <r>   -25.8963     0.0000    38.0000 </r>
       <r>   -25.6897     0.0000    38.0000 </r>
       <r>   -25.4830     0.0000    38.0000 </r>
       <r>   -25.2764     0.0000    38.0000 </r>
       <r>   -25.0698     0.0000    38.0000 </r>
       <r>   -24.8632     0.0000    38.0000 </r>
       <r>   -24.6565     0.0000    38.0000 </r>
       <r>   -24.4499     0.0000    38.0000 </r>
       <r>   -24.2433    -0.0000    38.0000 </r>
       <r>   -24.0367    -0.0000    38.0000 </r>
       <r>   -23.8300    -0.0000    38.0000 </r>
       <r>   -23.6234    -0.0000    38.0000 </r>
       <r>   -23.4168    -0.0000    38.0000 </r>
       <r>   -23.2102    -0.0457    37.9906 </r>
       <r>   -23.0035    -1.0228    37.7792 </r>
       <r>   -22.7969    23.6846    42.6731 </r>
       <r>   -22.5903    47.9536    52.5815 </r>
       <r>   -22.3837   111.7871    75.6795 </r>
       <r>   -22.1770    75.4732    91.2742 </r>
       <r>   -21.9704    33.8470    98.2679 </r>
       <r>   -21.7638    -1.2151    98.0168 </r>
       <r>   -21.5572    -0.0813    98.0000 </r>
       <r>   -21.3505    -0.0000    98.0000 </r>
       <r>   -21.1439    -0.0000    98.0000 </r>
       <r>   -20.9373     0.0000    98.0000 </r>
       <r>   -20.7307     0.0000    98.0000 </r>
       <r>   -20.5240     0.0000    98.0000 </r>
       <r>   -20.3174     0.0000    98.0000 </r>
       <r>   -20.1108    -0.0000    98.0000 </r>
       <r>   -19.9042    -0.0000    98.0000 </r>
       <r>   -19.6975    -0.0000    98.0000 </r>
       <r>   -19.4909    -0.0000    98.0000 </r>
       <r>   -19.2843    -0.0000    98.0000 </r>
       <r>   -19.0777    -0.0310    97.9936 </r>
       <r>   -18.8710    -1.3246    97.7199 </r>
       <r>   -18.6644    22.5126   102.3716 </r>
       <r>   -18.4578    80.6517   119.0363 </r>
       <r>   -18.2512    99.6723   139.6311 </r>
       <r>   -18.0445    58.2368   151.6643 </r>
       <r>   -17.8379     1.9970   152.0770 </r>
       <r>   -17.6313    -0.3710   152.0003 </r>
       <r>   -17.4246    -0.0014   152.0000 </r>
       <r>   -17.2180    -0.0000   152.0000 </r>
       <r>   -17.0114    -0.0000   152.0000 </r>
       <r>   -16.8048     0.0000   152.0000 </r>
       <r>   -16.5981     0.0000   152.0000 </r>
       <r>   -16.3915     0.0000   152.0000 </r>
       <r>   -16.1849     0.0000   152.0000 </r>
       <r>   -15.9783     0.0000   152.0000 </r>
       <r>   -15.7716     0.0000   152.0000 </r>
       <r>   -15.5650     0.0000   152.0000 </r>
       <r>   -15.3584     0.0000   152.0000 </r>
       <r>   -15.1518     0.0000   152.0000 </r>
       <r>   -14.9451     0.0000   152.0000 </r>
       <r>   -14.7385     0.0000   152.0000 </r>
       <r>   -14.5319     0.0000   152.0000 </r>
       <r>   -14.3253     0.0000   152.0000 </r>
       <r>   -14.1186     0.0000   152.0000 </r>
       <r>   -13.9120     0.0000   152.0000 </r>
       <r>   -13.7054     0.0000   152.0000 </r>
       <r>   -13.4988     0.0000   152.0000 </r>
       <r>   -13.2921     0.0000   152.0000 </r>
       <r>   -13.0855     0.0000   152.0000 </r>
       <r>   -12.8789     0.0000   152.0000 </r>
       <r>   -12.6723     0.0000   152.0000 </r>
       <r>   -12.4656     0.0000   152.0000 </r>
       <r>   -12.2590     0.0000   152.0000 </r>
       <r>   -12.0524     0.0000   152.0000 </r>
       <r>   -11.8458     0.0000   152.0000 </r>
       <r>   -11.6391     0.0000   152.0000 </r>
       <r>   -11.4325     0.0000   152.0000 </r>
       <r>   -11.2259     0.0000   152.0000 </r>
       <r>   -11.0193     0.0000   152.0000 </r>
       <r>   -10.8126     0.0000   152.0000 </r>
       <r>   -10.6060     0.0000   152.0000 </r>
       <r>   -10.3994     0.0000   152.0000 </r>
       <r>   -10.1928     0.0000   152.0000 </r>
       <r>    -9.9861     0.0000   152.0000 </r>
       <r>    -9.7795     0.0000   152.0000 </r>
       <r>    -9.5729     0.0000   152.0000 </r>
       <r>    -9.3663     0.0000   152.0000 </r>
       <r>    -9.1596     0.0000   152.0000 </r>
       <r>    -8.9530     0.0000   152.0000 </r>
       <r>    -8.7464     0.0000   152.0000 </r>
       <r>    -8.5398     0.0000   152.0000 </r>
       <r>    -8.3331     0.0000   152.0000 </r>
       <r>    -8.1265     0.0000   152.0000 </r>
       <r>    -7.9199     0.0000   152.0000 </r>
       <r>    -7.7133     0.0000   152.0000 </r>
       <r>    -7.5066     0.0000   152.0000 </r>
       <r>    -7.3000     0.0000   152.0000 </r>
       <r>    -7.0934     0.0000   152.0000 </r>
       <r>    -6.8868     0.0000   152.0000 </r>
       <r>    -6.6801     0.0000   152.0000 </r>
       <r>    -6.4735     0.0000   152.0000 </r>
       <r>    -6.2669     0.0000   152.0000 </r>
       <r>    -6.0603     0.0000   152.0000 </r>
       <r>    -5.8536     0.0000   152.0000 </r>
       <r>    -5.6470     0.0000   152.0000 </r>
       <r>    -5.4404     0.0000   152.0000 </r>
       <r>    -5.2337     0.0000   152.0000 </r>
       <r>    -5.0271     0.0000   152.0000 </r>
       <r>    -4.8205     0.0000   152.0000 </r>
       <r>    -4.6139     0.0000   152.0000 </r>
       <r>    -4.4072     0.0000   152.0000 </r>
       <r>    -4.2006     0.0000   152.0000 </r>
       <r>    -3.9940     0.0000   152.0000 </r>
       <r>    -3.7874     0.0000   152.0000 </r>
       <r>    -3.5807     0.0000   152.0000 </r>
       <r>    -3.3741     0.0000   152.0000 </r>
       <r>    -3.1675     0.0000   152.0000 </r>
       <r>    -2.9609     0.0000   152.0000 </r>
       <r>    -2.7542     0.0000   152.0000 </r>
       <r>    -2.5476     0.0000   152.0000 </r>
       <r>    -2.3410     0.0000   152.0000 </r>
       <r>    -2.1344     0.0000   152.0000 </r>
       <r>    -1.9277     0.0000   152.0000 </r>
       <r>    -1.7211     0.0000   152.0000 </r>
       <r>    -1.5145     0.0000   152.0000 </r>
       <r>    -1.3079     0.0000   152.0000 </r>
       <r>    -1.1012     0.0000   152.0000 </r>
       <r>    -0.8946     0.0000   152.0000 </r>
       <r>    -0.6880     0.0000   152.0000 </r>
       <r>    -0.4814     0.0000   152.0000 </r>
       <r>    -0.2747     0.0000   152.0000 </r>
       <r>    -0.0681    -0.0000   152.0000 </r>
       <r>     0.1385    -0.0000   152.0000 </r>
       <r>     0.3451    -0.0000   152.0000 </r>
       <r>     0.5518    -0.0000   152.0000 </r>
       <r>     0.7584    -0.0000   152.0000 </r>
       <r>     0.9650    -0.0084   151.9983 </r>
       <r>     1.1716     0.0986   152.0186 </r>
       <r>     1.3783     0.5773   152.1379 </r>
       <r>     1.5849     1.4275   152.4329 </r>
       <r>     1.7915     1.8020   152.8052 </r>
       <r>     1.9981     2.6794   153.3588 </r>
       <r>     2.2048     4.7100   154.3321 </r>
       <r>     2.4114     1.8242   154.7090 </r>
       <r>     2.6180     4.8347   155.7080 </r>
       <r>     2.8246     3.6694   156.4661 </r>
       <r>     3.0313     3.7493   157.2408 </r>
       <r>     3.2379     6.3320   158.5492 </r>
       <r>     3.4445     7.4083   160.0799 </r>
       <r>     3.6511     8.3494   161.8052 </r>
       <r>     3.8578     8.1364   163.4863 </r>
       <r>     4.0644    10.4506   165.6457 </r>
       <r>     4.2710    15.0843   168.7625 </r>
       <r>     4.4776    20.1081   172.9173 </r>
       <r>     4.6843    23.4710   177.7670 </r>
       <r>     4.8909    30.4739   184.0637 </r>
       <r>     5.0975    34.0362   191.0965 </r>
       <r>     5.3041    39.8919   199.3392 </r>
       <r>     5.5108    41.1800   207.8480 </r>
       <r>     5.7174    37.2012   215.5347 </r>
       <r>     5.9240    34.0656   222.5735 </r>
       <r>     6.1306    34.2374   229.6478 </r>
       <r>     6.3373    17.3628   233.2354 </r>
       <r>     6.5439    40.8474   241.6756 </r>
       <r>     6.7505    60.6742   254.2124 </r>
       <r>     6.9572    58.6359   266.3281 </r>
       <r>     7.1638    54.8239   277.6561 </r>
       <r>     7.3704    51.5124   288.2998 </r>
       <r>     7.5770    56.9072   300.0583 </r>
       <r>     7.7837    53.2378   311.0586 </r>
       <r>     7.9903    46.2789   320.6210 </r>
       <r>     8.1969    50.5329   331.0624 </r>
       <r>     8.4035    46.4132   340.6525 </r>
       <r>     8.6102    36.1127   348.1144 </r>
       <r>     8.8168    28.8930   354.0844 </r>
       <r>     9.0234    22.4881   358.7310 </r>
       <r>     9.2300    17.9060   362.4308 </r>
       <r>     9.4367    13.0516   365.1276 </r>
       <r>     9.6433    22.5816   369.7936 </r>
       <r>     9.8499    23.1405   374.5750 </r>
       <r>    10.0565     7.3071   376.0848 </r>
       <r>    10.2632    -0.3993   376.0023 </r>
       <r>    10.4698    -0.0111   376.0000 </r>
       <r>    10.6764    -0.0000   376.0000 </r>
       <r>    10.8830    -0.0000   376.0000 </r>
       <r>    11.0897     0.0000   376.0000 </r>
       <r>    11.2963     0.0000   376.0000 </r>
       <r>    11.5029     0.0000   376.0000 </r>
       <r>    11.7095     0.0000   376.0000 </r>
       <r>    11.9162     0.0000   376.0000 </r>
       <r>    12.1228     0.0000   376.0000 </r>
       <r>    12.3294     0.0000   376.0000 </r>
       <r>    12.5360     0.0000   376.0000 </r>
       <r>    12.7427     0.0000   376.0000 </r>
      </set>
     </set>
    </array>
   </total>
  </dos>
 </calculation>
 <structure name="finalpos" >
  <crystal>
   <varray name="basis" >
    <v>       6.91770584       0.03698223       0.00416496 </v>
    <v>       0.05466210      10.22344725       0.00564448 </v>
    <v>       0.00649594       0.00540737      10.27136660 </v>
   </varray>
   <i name="volume">    726.39856469 </i>
   <varray name="rec_basis" >
    <v>       0.14456078      -0.00077288      -0.00009102 </v>
    <v>      -0.00052290       0.09781719      -0.00005117 </v>
    <v>      -0.00005833      -0.00005344       0.09735809 </v>
   </varray>
  </crystal>
  <varray name="positions" >
   <v>       0.99634631       0.33032748       0.00686371 </v>
   <v>       0.25685888       0.49440429       0.83404811 </v>
   <v>       0.97083282       0.66380102       0.99207041 </v>
   <v>       0.23872853       0.81243677       0.17162134 </v>
   <v>       0.76297285       0.16891532       0.50047918 </v>
   <v>       0.47711642       0.99392326       0.67251125 </v>
   <v>       0.74648261       0.17139548       0.81967436 </v>
   <v>       0.76611085       0.83706642       0.18752009 </v>
   <v>       0.77013662       0.84026025       0.49794268 </v>
   <v>       0.01561039       0.00138924       0.99398040 </v>
   <v>       0.23208791       0.17514131       0.50065696 </v>
   <v>       0.25842982       0.50059296       0.16710419 </v>
   <v>       0.49177747      -0.00085837       0.99181202 </v>
   <v>       0.74607578       0.16196650       0.17880253 </v>
   <v>       0.46922483       0.99142529       0.33858001 </v>
   <v>       0.74152399       0.48538986       0.81833542 </v>
   <v>       0.52700360       0.67523827       0.99588548 </v>
   <v>       0.49460040       0.67406356       0.65866112 </v>
   <v>       0.99406839       0.34106809       0.32515325 </v>
   <v>       0.23972861       0.50140626       0.49744902 </v>
   <v>       0.00854582       0.34103761       0.66349890 </v>
   <v>       0.99652137       0.65441069       0.34400160 </v>
   <v>       0.22689978       0.82702179       0.49942683 </v>
   <v>       0.23489575       0.81833116       0.83211618 </v>
   <v>       0.49878220       0.32208812       0.00881837 </v>
   <v>       0.74075351       0.49535960       0.18171624 </v>
   <v>       0.76851985       0.84640024       0.81302427 </v>
   <v>       0.00262661       0.67110983       0.66730815 </v>
   <v>       0.25968999       0.18013342       0.17280704 </v>
   <v>       0.03509699       0.00338168       0.33090650 </v>
   <v>       0.02556833       0.99506674       0.67642641 </v>
   <v>       0.25754858       0.18568147       0.82535011 </v>
   <v>       0.50239481       0.34367631       0.34251484 </v>
   <v>       0.75587446       0.49971815       0.49999199 </v>
   <v>       0.48762466       0.33750976       0.64514004 </v>
   <v>       0.50294518       0.65972119       0.34780200 </v>
  </varray>
 </structure>
</modeling>
