       N       E                     dE             d eps       ncg     rms          rms(c)
DAV:   1     0.161380212061E+04    0.16138E+04   -0.12158E+05  5736   0.101E+03
DAV:   2    -0.883286105436E+02   -0.17021E+04   -0.16054E+04  6168   0.273E+02
DAV:   3    -0.159330009507E+03   -0.71001E+02   -0.66786E+02  6148   0.507E+01
DAV:   4    -0.160614107552E+03   -0.12841E+01   -0.12726E+01  6164   0.669E+00
DAV:   5    -0.160638915364E+03   -0.24808E-01   -0.24791E-01  6068   0.861E-01    0.554E+01
RMM:   6    -0.151361710377E+03    0.92772E+01   -0.28064E+01  5712   0.120E+01    0.355E+01
RMM:   7    -0.151967976425E+03   -0.60627E+00   -0.10014E+01  5712   0.650E+00    0.178E+01
RMM:   8    -0.151389353300E+03    0.57862E+00   -0.46283E+00  5712   0.383E+00    0.125E+01
RMM:   9    -0.150467184459E+03    0.92217E+00   -0.20691E+00  5712   0.253E+00    0.667E+00
RMM:  10    -0.150138872568E+03    0.32831E+00   -0.65436E-01  5712   0.156E+00    0.290E+00
RMM:  11    -0.150044243489E+03    0.94629E-01   -0.12548E-01  5712   0.643E-01    0.113E+00
RMM:  12    -0.150038645826E+03    0.55977E-02   -0.98364E-03  5712   0.174E-01    0.766E-01
RMM:  13    -0.150036527439E+03    0.21184E-02   -0.19659E-03  5712   0.814E-02    0.451E-01
RMM:  14    -0.150037042012E+03   -0.51457E-03   -0.16549E-03  5712   0.699E-02    0.368E-01
RMM:  15    -0.150036197099E+03    0.84491E-03   -0.10545E-03  5712   0.594E-02    0.119E-01
RMM:  16    -0.150036155786E+03    0.41313E-04   -0.25116E-04  5712   0.277E-02    0.759E-02
RMM:  17    -0.150036102425E+03    0.53361E-04   -0.51067E-05  4550   0.131E-02    0.223E-02
RMM:  18    -0.150036098816E+03    0.36084E-05   -0.11122E-05  3084   0.630E-03
   1 F= -.15003610E+03 E0= -.15004310E+03  d E =-.150036E+03
       N       E                     dE             d eps       ncg     rms          rms(c)
DAV:   1    -0.150098164982E+03   -0.62063E-01   -0.17081E+00  5840   0.318E+00    0.142E+00
RMM:   2    -0.150052884418E+03    0.45281E-01   -0.13990E-01  5712   0.895E-01    0.572E-01
RMM:   3    -0.150053658492E+03   -0.77407E-03   -0.13615E-02  5712   0.235E-01    0.662E-01
RMM:   4    -0.150051006482E+03    0.26520E-02   -0.35203E-03  5712   0.105E-01    0.414E-01
RMM:   5    -0.150050892131E+03    0.11435E-03   -0.10381E-03  5712   0.595E-02    0.252E-01
RMM:   6    -0.150051013436E+03   -0.12130E-03   -0.93299E-04  5712   0.553E-02    0.149E-01
RMM:   7    -0.150050783433E+03    0.23000E-03   -0.31143E-04  5712   0.316E-02    0.538E-02
RMM:   8    -0.150050750846E+03    0.32586E-04   -0.38531E-05  4163   0.111E-02    0.147E-02
RMM:   9    -0.150050749091E+03    0.17552E-05   -0.62011E-06  2977   0.483E-03
   2 F= -.15005075E+03 E0= -.15005771E+03  d E =-.146503E-01
       N       E                     dE             d eps       ncg     rms          rms(c)
DAV:   1    -0.150103644528E+03   -0.52894E-01   -0.17541E+00  5808   0.322E+00    0.144E+00
RMM:   2    -0.150057068983E+03    0.46576E-01   -0.14345E-01  5712   0.907E-01    0.586E-01
RMM:   3    -0.150057872745E+03   -0.80376E-03   -0.14046E-02  5712   0.239E-01    0.673E-01
RMM:   4    -0.150055160507E+03    0.27122E-02   -0.36530E-03  5712   0.107E-01    0.423E-01
RMM:   5    -0.150055029127E+03    0.13138E-03   -0.10749E-03  5712   0.605E-02    0.256E-01
RMM:   6    -0.150055132791E+03   -0.10366E-03   -0.94925E-04  5712   0.559E-02    0.141E-01
RMM:   7    -0.150054917643E+03    0.21515E-03   -0.30541E-04  5712   0.314E-02    0.496E-02
RMM:   8    -0.150054890468E+03    0.27175E-04   -0.32483E-05  3982   0.102E-02    0.148E-02
RMM:   9    -0.150054888566E+03    0.19019E-05   -0.62872E-06  2974   0.489E-03
   3 F= -.15005489E+03 E0= -.15006182E+03  d E =-.187897E-01
       N       E                     dE             d eps       ncg     rms          rms(c)
DAV:   1    -0.150066200844E+03   -0.11310E-01   -0.16530E+00  5736   0.236E+00    0.435E-01
RMM:   2    -0.150064603679E+03    0.15972E-02   -0.25630E-02  5712   0.381E-01    0.269E-01
RMM:   3    -0.150065100112E+03   -0.49643E-03   -0.28438E-03  5712   0.101E-01    0.320E-01
RMM:   4    -0.150063964717E+03    0.11354E-02   -0.10096E-03  5712   0.560E-02    0.133E-01
RMM:   5    -0.150063933188E+03    0.31529E-04   -0.25072E-04  5712   0.280E-02    0.928E-02
RMM:   6    -0.150063871801E+03    0.61386E-04   -0.15167E-04  5711   0.223E-02    0.423E-02
RMM:   7    -0.150063864139E+03    0.76627E-05   -0.37952E-05  4171   0.112E-02
   4 F= -.15006386E+03 E0= -.15007077E+03  d E =-.897557E-02
       N       E                     dE             d eps       ncg     rms          rms(c)
DAV:   1    -0.150078885492E+03   -0.15014E-01   -0.60549E+00  5720   0.452E+00    0.830E-01
RMM:   2    -0.150073149191E+03    0.57363E-02   -0.93808E-02  5712   0.729E-01    0.518E-01
RMM:   3    -0.150074969851E+03   -0.18207E-02   -0.10302E-02  5712   0.192E-01    0.610E-01
RMM:   4    -0.150070834023E+03    0.41358E-02   -0.36883E-03  5712   0.107E-01    0.257E-01
RMM:   5    -0.150070721041E+03    0.11298E-03   -0.90909E-04  5712   0.537E-02    0.171E-01
RMM:   6    -0.150070530127E+03    0.19091E-03   -0.55240E-04  5712   0.424E-02    0.816E-02
RMM:   7    -0.150070501765E+03    0.28362E-04   -0.13723E-04  5693   0.211E-02    0.621E-02
RMM:   8    -0.150070469595E+03    0.32170E-04   -0.42720E-05  4329   0.118E-02    0.295E-02
RMM:   9    -0.150070464692E+03    0.49032E-05   -0.11384E-05  3070   0.626E-03
   5 F= -.15007046E+03 E0= -.15007736E+03  d E =-.155761E-01
       N       E                     dE             d eps       ncg     rms          rms(c)
DAV:   1    -0.150077944780E+03   -0.74752E-02   -0.27344E-01  5808   0.124E+00    0.518E-01
RMM:   2    -0.150071920003E+03    0.60248E-02   -0.19168E-02  5712   0.333E-01    0.208E-01
RMM:   3    -0.150071876455E+03    0.43548E-04   -0.16852E-03  5712   0.836E-02    0.221E-01
RMM:   4    -0.150071642066E+03    0.23439E-03   -0.40150E-04  5712   0.358E-02    0.151E-01
RMM:   5    -0.150071625638E+03    0.16428E-04   -0.16403E-04  5705   0.234E-02    0.986E-02
RMM:   6    -0.150071600473E+03    0.25164E-04   -0.13321E-04  5702   0.209E-02    0.541E-02
RMM:   7    -0.150071567610E+03    0.32864E-04   -0.39810E-05  4243   0.115E-02    0.213E-02
RMM:   8    -0.150071562249E+03    0.53605E-05   -0.63711E-06  2909   0.484E-03
   6 F= -.15007156E+03 E0= -.15007851E+03  d E =-.109756E-02
       N       E                     dE             d eps       ncg     rms          rms(c)
DAV:   1    -0.150072131044E+03   -0.56343E-03   -0.21988E-02  5816   0.350E-01    0.148E-01
RMM:   2    -0.150071643440E+03    0.48760E-03   -0.15660E-03  5712   0.951E-02    0.589E-02
RMM:   3    -0.150071637354E+03    0.60857E-05   -0.13781E-04  5707   0.239E-02    0.626E-02
RMM:   4    -0.150071617642E+03    0.19712E-04   -0.31632E-05  3937   0.102E-02    0.426E-02
RMM:   5    -0.150071614523E+03    0.31193E-05   -0.12698E-05  3066   0.699E-03
   7 F= -.15007161E+03 E0= -.15007859E+03  d E =-.114983E-02
       N       E                     dE             d eps       ncg     rms          rms(c)
DAV:   1    -0.150072932215E+03   -0.13146E-02   -0.25029E-01  5744   0.961E-01    0.164E-01
RMM:   2    -0.150072613749E+03    0.31847E-03   -0.34926E-03  5712   0.146E-01    0.861E-02
RMM:   3    -0.150072645561E+03   -0.31812E-04   -0.39787E-04  5712   0.376E-02    0.118E-01
RMM:   4    -0.150072500806E+03    0.14476E-03   -0.12997E-04  5712   0.207E-02    0.457E-02
RMM:   5    -0.150072497133E+03    0.36725E-05   -0.36883E-05  4083   0.108E-02
   8 F= -.15007250E+03 E0= -.15007950E+03  d E =-.882610E-03
       N       E                     dE             d eps       ncg     rms          rms(c)
DAV:   1    -0.150075727919E+03   -0.32271E-02   -0.14546E+00  5720   0.231E+00    0.395E-01
RMM:   2    -0.150073738617E+03    0.19893E-02   -0.19995E-02  5712   0.349E-01    0.194E-01
RMM:   3    -0.150073775765E+03   -0.37148E-04   -0.19527E-03  5712   0.860E-02    0.255E-01
RMM:   4    -0.150073165219E+03    0.61055E-03   -0.63378E-04  5712   0.451E-02    0.111E-01
RMM:   5    -0.150073168517E+03   -0.32981E-05   -0.20450E-04  5712   0.255E-02    0.952E-02
RMM:   6    -0.150073098685E+03    0.69832E-04   -0.13214E-04  5712   0.209E-02    0.382E-02
RMM:   7    -0.150073090392E+03    0.82935E-05   -0.30009E-05  3894   0.100E-02
   9 F= -.15007309E+03 E0= -.15008023E+03  d E =-.147587E-02
       N       E                     dE             d eps       ncg     rms          rms(c)
DAV:   1    -0.150073255596E+03   -0.15691E-03   -0.59062E-02  5776   0.467E-01    0.808E-02
RMM:   2    -0.150073182848E+03    0.72748E-04   -0.80533E-04  5712   0.706E-02    0.450E-02
RMM:   3    -0.150073190813E+03   -0.79655E-05   -0.10179E-04  5686   0.189E-02    0.611E-02
RMM:   4    -0.150073150320E+03    0.40493E-04   -0.33860E-05  4019   0.108E-02    0.223E-02
RMM:   5    -0.150073148270E+03    0.20500E-05   -0.92784E-06  2907   0.581E-03
  10 F= -.15007315E+03 E0= -.15008027E+03  d E =-.153375E-02
       N       E                     dE             d eps       ncg     rms          rms(c)
DAV:   1    -0.150073867921E+03   -0.71760E-03   -0.18147E-01  5720   0.807E-01    0.107E-01
RMM:   2    -0.150073815302E+03    0.52619E-04   -0.19808E-03  5712   0.111E-01    0.610E-02
RMM:   3    -0.150073809222E+03    0.60793E-05   -0.18589E-04  5712   0.256E-02    0.820E-02
RMM:   4    -0.150073726962E+03    0.82261E-04   -0.73401E-05  5078   0.153E-02    0.234E-02
RMM:   5    -0.150073724325E+03    0.26363E-05   -0.20234E-05  3405   0.842E-03
  11 F= -.15007372E+03 E0= -.15008089E+03  d E =-.576055E-03
       N       E                     dE             d eps       ncg     rms          rms(c)
DAV:   1    -0.150076001397E+03   -0.22744E-02   -0.16324E+00  5712   0.242E+00    0.321E-01
RMM:   2    -0.150075490540E+03    0.51086E-03   -0.17740E-02  5712   0.331E-01    0.185E-01
RMM:   3    -0.150075442326E+03    0.48214E-04   -0.17154E-03  5712   0.777E-02    0.250E-01
RMM:   4    -0.150074689672E+03    0.75265E-03   -0.68539E-04  5712   0.466E-02    0.720E-02
RMM:   5    -0.150074685609E+03    0.40628E-05   -0.19460E-04  5712   0.244E-02    0.797E-02
RMM:   6    -0.150074624071E+03    0.61538E-04   -0.69345E-05  4918   0.150E-02    0.271E-02
RMM:   7    -0.150074621860E+03    0.22105E-05   -0.12378E-05  3118   0.667E-03
  12 F= -.15007462E+03 E0= -.15008199E+03  d E =-.147359E-02
       N       E                     dE             d eps       ncg     rms          rms(c)
DAV:   1    -0.150074728214E+03   -0.10414E-03   -0.91950E-02  5776   0.574E-01    0.768E-02
RMM:   2    -0.150074708479E+03    0.19735E-04   -0.10227E-03  5712   0.791E-02    0.549E-02
RMM:   3    -0.150074703489E+03    0.49897E-05   -0.10340E-04  5569   0.186E-02    0.595E-02
RMM:   4    -0.150074653321E+03    0.50169E-04   -0.43219E-05  4331   0.122E-02    0.187E-02
RMM:   5    -0.150074650848E+03    0.24725E-05   -0.13944E-05  3051   0.728E-03
  13 F= -.15007465E+03 E0= -.15008206E+03  d E =-.150258E-02
       N       E                     dE             d eps       ncg     rms          rms(c)
DAV:   1    -0.150075149249E+03   -0.49593E-03   -0.13448E-01  5720   0.721E-01    0.121E-01
RMM:   2    -0.150074957613E+03    0.19164E-03   -0.16005E-03  5712   0.100E-01    0.689E-02
RMM:   3    -0.150074968277E+03   -0.10664E-04   -0.21758E-04  5712   0.273E-02    0.953E-02
RMM:   4    -0.150074853366E+03    0.11491E-03   -0.94112E-05  5595   0.174E-02    0.268E-02
RMM:   5    -0.150074852323E+03    0.10431E-05   -0.17613E-05  3370   0.773E-03
  14 F= -.15007485E+03 E0= -.15008231E+03  d E =-.201475E-03
       N       E                     dE             d eps       ncg     rms          rms(c)
DAV:   1    -0.150075029582E+03   -0.17622E-03   -0.68250E-02  5752   0.514E-01    0.874E-02
RMM:   2    -0.150074929926E+03    0.99657E-04   -0.81763E-04  5712   0.715E-02    0.508E-02
RMM:   3    -0.150074934573E+03   -0.46472E-05   -0.11661E-04  5697   0.199E-02    0.699E-02
RMM:   4    -0.150074874366E+03    0.60207E-04   -0.50904E-05  4525   0.130E-02    0.188E-02
RMM:   5    -0.150074874610E+03   -0.24424E-06   -0.10390E-05  3065   0.622E-03
  15 F= -.15007487E+03 E0= -.15008241E+03  d E =-.223762E-03
       N       E                     dE             d eps       ncg     rms          rms(c)
DAV:   1    -0.150076168958E+03   -0.12946E-02   -0.13136E-01  5776   0.780E-01    0.226E-01
RMM:   2    -0.150075074309E+03    0.10946E-02   -0.34825E-03  5712   0.143E-01    0.941E-02
RMM:   3    -0.150074987661E+03    0.86648E-04   -0.37227E-04  5712   0.391E-02    0.920E-02
RMM:   4    -0.150074943899E+03    0.43762E-04   -0.87808E-05  5149   0.165E-02    0.624E-02
RMM:   5    -0.150074934854E+03    0.90451E-05   -0.40800E-05  4233   0.120E-02
  16 F= -.15007493E+03 E0= -.15008253E+03  d E =-.602442E-04
       N       E                     dE             d eps       ncg     rms          rms(c)
DAV:   1    -0.150074934119E+03    0.97800E-05   -0.11707E-03  5936   0.780E-02    0.308E-02
RMM:   2    -0.150074943480E+03   -0.93608E-05   -0.83934E-05  5595   0.196E-02
  17 F= -.15007494E+03 E0= -.15008250E+03  d E =-.688701E-04
       N       E                     dE             d eps       ncg     rms          rms(c)
DAV:   1    -0.150075555590E+03   -0.62147E-03   -0.77416E-02  5772   0.591E-01    0.146E-01
RMM:   2    -0.150075142899E+03    0.41269E-03   -0.12172E-03  5712   0.852E-02    0.754E-02
RMM:   3    -0.150075165244E+03   -0.22345E-04   -0.28520E-04  5712   0.312E-02    0.118E-01
RMM:   4    -0.150075016031E+03    0.14921E-03   -0.12403E-04  5673   0.200E-02    0.324E-02
RMM:   5    -0.150075011169E+03    0.48626E-05   -0.22080E-05  3533   0.865E-03
  18 F= -.15007501E+03 E0= -.15008272E+03  d E =-.676887E-04
