       N       E                     dE             d eps       ncg     rms          rms(c)
DAV:   1     0.171415562504E+04    0.17142E+04   -0.10576E+05  5304   0.104E+03
DAV:   2    -0.115800285485E+03   -0.18300E+04   -0.17645E+04  5496   0.377E+02
DAV:   3    -0.356526877658E+03   -0.24073E+03   -0.22834E+03  8208   0.958E+01
DAV:   4    -0.384388483955E+03   -0.27862E+02   -0.26474E+02  8112   0.296E+01
DAV:   5    -0.387126364267E+03   -0.27379E+01   -0.26806E+01  7648   0.961E+00    0.668E+01
RMM:   6    -0.376606184546E+03    0.10520E+02   -0.24852E+01  6842   0.101E+01    0.325E+01
RMM:   7    -0.378446738227E+03   -0.18406E+01   -0.30780E+01  7353   0.940E+00    0.119E+01
RMM:   8    -0.372168044334E+03    0.62787E+01   -0.72158E+00  7276   0.405E+00    0.431E+00
RMM:   9    -0.371850298751E+03    0.31775E+00   -0.29333E+00  7478   0.226E+00    0.287E+00
RMM:  10    -0.371809158029E+03    0.41141E-01   -0.50287E-01  7410   0.119E+00    0.152E+00
RMM:  11    -0.371782661396E+03    0.26497E-01   -0.14605E-01  7372   0.585E-01    0.850E-01
RMM:  12    -0.371775543854E+03    0.71175E-02   -0.61925E-02  7521   0.397E-01    0.441E-01
RMM:  13    -0.371774025690E+03    0.15182E-02   -0.19411E-02  7472   0.210E-01    0.265E-01
RMM:  14    -0.371773798637E+03    0.22705E-03   -0.71825E-03  7560   0.112E-01    0.156E-01
RMM:  15    -0.371773866464E+03   -0.67827E-04   -0.40272E-03  7453   0.761E-02    0.847E-02
RMM:  16    -0.371773883217E+03   -0.16753E-04   -0.14924E-03  7039   0.422E-02    0.518E-02
RMM:  17    -0.371773851481E+03    0.31736E-04   -0.52761E-04  6323   0.258E-02    0.250E-02
RMM:  18    -0.371773862632E+03   -0.11151E-04   -0.32555E-04  6303   0.214E-02    0.132E-02
RMM:  19    -0.371773868002E+03   -0.53705E-05   -0.10223E-04  4158   0.127E-02    0.661E-03
RMM:  20    -0.371773868619E+03   -0.61703E-06   -0.42517E-05  3670   0.106E-02
   1 F= -.37177387E+03 E0= -.37178072E+03  d E =-.371774E+03
       N       E                     dE             d eps       ncg     rms          rms(c)
DAV:   1    -0.371774711321E+03   -0.84332E-03   -0.58625E-02  5272   0.710E-01    0.736E-02
RMM:   2    -0.371774921290E+03   -0.20997E-03   -0.29742E-03  6902   0.147E-01    0.345E-02
RMM:   3    -0.371774902005E+03    0.19285E-04   -0.28048E-04  6677   0.408E-02    0.281E-02
RMM:   4    -0.371774891675E+03    0.10330E-04   -0.73986E-05  5049   0.145E-02    0.177E-02
RMM:   5    -0.371774888306E+03    0.33694E-05   -0.21410E-05  3106   0.102E-02
   2 F= -.37177489E+03 E0= -.37178175E+03  d E =-.101969E-02
       N       E                     dE             d eps       ncg     rms          rms(c)
DAV:   1    -0.371775734825E+03   -0.84315E-03   -0.52717E-01  5152   0.213E+00    0.222E-01
RMM:   2    -0.371777507993E+03   -0.17732E-02   -0.25603E-02  6947   0.436E-01    0.106E-01
RMM:   3    -0.371777347955E+03    0.16004E-03   -0.24895E-03  7279   0.115E-01    0.856E-02
RMM:   4    -0.371777261396E+03    0.86559E-04   -0.64220E-04  7349   0.400E-02    0.544E-02
RMM:   5    -0.371777246303E+03    0.15093E-04   -0.23353E-04  6993   0.275E-02    0.294E-02
RMM:   6    -0.371777240998E+03    0.53051E-05   -0.10870E-04  6431   0.180E-02    0.173E-02
RMM:   7    -0.371777236582E+03    0.44166E-05   -0.29062E-05  3307   0.110E-02
   3 F= -.37177724E+03 E0= -.37178412E+03  d E =-.336796E-02
       N       E                     dE             d eps       ncg     rms          rms(c)
DAV:   1    -0.371772800388E+03    0.44406E-02   -0.21109E+00  4944   0.426E+00    0.444E-01
RMM:   2    -0.371779847544E+03   -0.70472E-02   -0.10196E-01  6900   0.872E-01    0.209E-01
RMM:   3    -0.371779216066E+03    0.63148E-03   -0.97478E-03  7257   0.231E-01    0.171E-01
RMM:   4    -0.371778867886E+03    0.34818E-03   -0.25267E-03  7644   0.792E-02    0.109E-01
RMM:   5    -0.371778809949E+03    0.57936E-04   -0.90464E-04  7380   0.546E-02    0.587E-02
RMM:   6    -0.371778798181E+03    0.11768E-04   -0.42944E-04  7333   0.357E-02    0.341E-02
RMM:   7    -0.371778787404E+03    0.10777E-04   -0.14190E-04  5906   0.183E-02    0.204E-02
RMM:   8    -0.371778786605E+03    0.79870E-06   -0.48548E-05  4218   0.140E-02
   4 F= -.37177879E+03 E0= -.37178567E+03  d E =-.491799E-02
       N       E                     dE             d eps       ncg     rms          rms(c)
DAV:   1    -0.371781626617E+03   -0.28392E-02   -0.24099E-01  5472   0.162E+00    0.486E-01
RMM:   2    -0.371780595815E+03    0.10308E-02   -0.21902E-02  6724   0.411E-01    0.170E-01
RMM:   3    -0.371780179422E+03    0.41639E-03   -0.43654E-03  7429   0.128E-01    0.133E-01
RMM:   4    -0.371779633609E+03    0.54581E-03   -0.11669E-03  7528   0.698E-02    0.684E-02
RMM:   5    -0.371779596515E+03    0.37094E-04   -0.36694E-04  7321   0.360E-02    0.479E-02
RMM:   6    -0.371779607603E+03   -0.11088E-04   -0.17317E-04  6684   0.224E-02    0.297E-02
RMM:   7    -0.371779618244E+03   -0.10641E-04   -0.58275E-05  4673   0.151E-02    0.158E-02
RMM:   8    -0.371779625985E+03   -0.77409E-05   -0.25954E-05  3513   0.122E-02
   5 F= -.37177963E+03 E0= -.37178648E+03  d E =-.839379E-03
       N       E                     dE             d eps       ncg     rms          rms(c)
DAV:   1    -0.371779877153E+03   -0.25891E-03   -0.28519E-02  5472   0.560E-01    0.163E-01
RMM:   2    -0.371779754249E+03    0.12290E-03   -0.24956E-03  6312   0.141E-01    0.559E-02
RMM:   3    -0.371779709983E+03    0.44266E-04   -0.47634E-04  7260   0.442E-02    0.418E-02
RMM:   4    -0.371779657504E+03    0.52479E-04   -0.12918E-04  6156   0.228E-02    0.222E-02
RMM:   5    -0.371779657421E+03    0.82873E-07   -0.33366E-05  3490   0.142E-02
   6 F= -.37177966E+03 E0= -.37178650E+03  d E =-.870815E-03
       N       E                     dE             d eps       ncg     rms          rms(c)
DAV:   1    -0.371780066003E+03   -0.40850E-03   -0.35556E-02  5008   0.512E-01    0.569E-02
RMM:   2    -0.371780134842E+03   -0.68840E-04   -0.11428E-03  7173   0.992E-02    0.316E-02
RMM:   3    -0.371780129527E+03    0.53150E-05   -0.16581E-04  5966   0.266E-02    0.237E-02
RMM:   4    -0.371780127438E+03    0.20894E-05   -0.51786E-05  4442   0.135E-02
   7 F= -.37178013E+03 E0= -.37178699E+03  d E =-.470017E-03
       N       E                     dE             d eps       ncg     rms          rms(c)
DAV:   1    -0.371780423372E+03   -0.29384E-03   -0.31932E-01  4920   0.153E+00    0.169E-01
RMM:   2    -0.371780989771E+03   -0.56640E-03   -0.99941E-03  7227   0.295E-01    0.899E-02
RMM:   3    -0.371780944364E+03    0.45408E-04   -0.14896E-03  7311   0.740E-02    0.648E-02
RMM:   4    -0.371780902744E+03    0.41620E-04   -0.40296E-04  7216   0.308E-02    0.421E-02
RMM:   5    -0.371780893239E+03    0.95044E-05   -0.16306E-04  6523   0.202E-02    0.216E-02
RMM:   6    -0.371780888273E+03    0.49667E-05   -0.60747E-05  4859   0.133E-02
   8 F= -.37178089E+03 E0= -.37178781E+03  d E =-.123085E-02
       N       E                     dE             d eps       ncg     rms          rms(c)
DAV:   1    -0.371780891509E+03    0.17306E-05   -0.30045E-02  5040   0.470E-01    0.523E-02
RMM:   2    -0.371780950366E+03   -0.58857E-04   -0.98792E-04  7098   0.911E-02    0.274E-02
RMM:   3    -0.371780944128E+03    0.62376E-05   -0.14983E-04  5796   0.241E-02    0.210E-02
RMM:   4    -0.371780942599E+03    0.15288E-05   -0.58894E-05  4542   0.125E-02
   9 F= -.37178094E+03 E0= -.37178788E+03  d E =-.128518E-02
       N       E                     dE             d eps       ncg     rms          rms(c)
DAV:   1    -0.371781080189E+03   -0.13606E-03   -0.35633E-02  4928   0.551E-01    0.667E-02
RMM:   2    -0.371781178959E+03   -0.98769E-04   -0.15654E-03  7114   0.110E-01    0.334E-02
RMM:   3    -0.371781158465E+03    0.20494E-04   -0.18434E-04  6668   0.295E-02    0.254E-02
RMM:   4    -0.371781147313E+03    0.11152E-04   -0.40477E-05  4068   0.131E-02    0.154E-02
RMM:   5    -0.371781144235E+03    0.30777E-05   -0.14858E-05  2873   0.101E-02
  10 F= -.37178114E+03 E0= -.37178812E+03  d E =-.201636E-03
       N       E                     dE             d eps       ncg     rms          rms(c)
DAV:   1    -0.371781004914E+03    0.14240E-03   -0.19352E-01  4888   0.128E+00    0.156E-01
RMM:   2    -0.371781519129E+03   -0.51421E-03   -0.84278E-03  7111   0.255E-01    0.758E-02
RMM:   3    -0.371781422296E+03    0.96833E-04   -0.96338E-04  7215   0.666E-02    0.578E-02
RMM:   4    -0.371781371432E+03    0.50864E-04   -0.25070E-04  7029   0.265E-02    0.351E-02
RMM:   5    -0.371781362427E+03    0.90051E-05   -0.98331E-05  6298   0.183E-02
  11 F= -.37178136E+03 E0= -.37178841E+03  d E =-.419828E-03
       N       E                     dE             d eps       ncg     rms          rms(c)
DAV:   1    -0.371781517182E+03   -0.14575E-03   -0.17279E-02  5384   0.411E-01    0.992E-02
RMM:   2    -0.371781504431E+03    0.12751E-04   -0.12606E-03  7122   0.952E-02    0.384E-02
RMM:   3    -0.371781489762E+03    0.14668E-04   -0.22188E-04  6708   0.303E-02    0.296E-02
RMM:   4    -0.371781467553E+03    0.22210E-04   -0.63364E-05  5486   0.165E-02    0.155E-02
RMM:   5    -0.371781465251E+03    0.23023E-05   -0.17569E-05  2914   0.109E-02
  12 F= -.37178147E+03 E0= -.37178853E+03  d E =-.102824E-03
       N       E                     dE             d eps       ncg     rms          rms(c)
DAV:   1    -0.371781712347E+03   -0.24479E-03   -0.63843E-02  5024   0.793E-01    0.174E-01
RMM:   2    -0.371781686743E+03    0.25605E-04   -0.43178E-03  6377   0.181E-01    0.678E-02
RMM:   3    -0.371781610713E+03    0.76030E-04   -0.63603E-04  7237   0.575E-02    0.489E-02
RMM:   4    -0.371781551862E+03    0.58851E-04   -0.17799E-04  6892   0.256E-02    0.277E-02
RMM:   5    -0.371781548173E+03    0.36896E-05   -0.57159E-05  4518   0.145E-02
  13 F= -.37178155E+03 E0= -.37178862E+03  d E =-.185746E-03
       N       E                     dE             d eps       ncg     rms          rms(c)
DAV:   1    -0.371781551309E+03    0.55340E-06   -0.83250E-04  5448   0.899E-02    0.187E-02
RMM:   2    -0.371781554687E+03   -0.33784E-05   -0.69230E-05  4751   0.212E-02
  14 F= -.37178155E+03 E0= -.37178863E+03  d E =-.192260E-03
       N       E                     dE             d eps       ncg     rms          rms(c)
DAV:   1    -0.371781557264E+03   -0.59554E-05   -0.34091E-04  5336   0.579E-02    0.167E-02
RMM:   2    -0.371781561802E+03   -0.45376E-05   -0.26941E-05  2897   0.145E-02
  15 F= -.37178156E+03 E0= -.37178863E+03  d E =-.199375E-03
       N       E                     dE             d eps       ncg     rms          rms(c)
DAV:   1    -0.371781589215E+03   -0.31951E-04   -0.11287E-02  4920   0.313E-01    0.196E-02
RMM:   2    -0.371781630016E+03   -0.40801E-04   -0.41493E-04  6084   0.592E-02    0.132E-02
RMM:   3    -0.371781622967E+03    0.70486E-05   -0.28963E-05  3315   0.193E-02
  16 F= -.37178162E+03 E0= -.37178870E+03  d E =-.611654E-04
       N       E                     dE             d eps       ncg     rms          rms(c)
DAV:   1    -0.371781628350E+03    0.16655E-05   -0.23196E-02  4904   0.445E-01    0.271E-02
RMM:   2    -0.371781706742E+03   -0.78392E-04   -0.85473E-04  5987   0.819E-02    0.176E-02
RMM:   3    -0.371781698491E+03    0.82510E-05   -0.83164E-05  4589   0.265E-02
  17 F= -.37178170E+03 E0= -.37178877E+03  d E =-.136690E-03
       N       E                     dE             d eps       ncg     rms          rms(c)
DAV:   1    -0.371781527055E+03    0.17969E-03   -0.92334E-02  4864   0.889E-01    0.533E-02
RMM:   2    -0.371781826851E+03   -0.29980E-03   -0.32961E-03  5959   0.166E-01    0.328E-02
RMM:   3    -0.371781809577E+03    0.17274E-04   -0.39095E-04  6658   0.524E-02    0.285E-02
RMM:   4    -0.371781807407E+03    0.21699E-05   -0.82068E-05  5009   0.137E-02
  18 F= -.37178181E+03 E0= -.37178889E+03  d E =-.245606E-03
       N       E                     dE             d eps       ncg     rms          rms(c)
DAV:   1    -0.371780766623E+03    0.10430E-02   -0.36816E-01  4824   0.178E+00    0.104E-01
RMM:   2    -0.371781955536E+03   -0.11889E-02   -0.12845E-02  5743   0.332E-01    0.619E-02
RMM:   3    -0.371781880911E+03    0.74625E-04   -0.14559E-03  7077   0.107E-01    0.541E-02
RMM:   4    -0.371781874322E+03    0.65888E-05   -0.30360E-04  7086   0.246E-02    0.365E-02
RMM:   5    -0.371781871141E+03    0.31811E-05   -0.96963E-05  6006   0.183E-02
  19 F= -.37178187E+03 E0= -.37178896E+03  d E =-.309340E-03
       N       E                     dE             d eps       ncg     rms          rms(c)
DAV:   1    -0.371782060635E+03   -0.18631E-03   -0.40216E-02  4944   0.607E-01    0.126E-01
RMM:   2    -0.371782054164E+03    0.64711E-05   -0.22496E-03  7181   0.129E-01    0.533E-02
RMM:   3    -0.371782003566E+03    0.50598E-04   -0.37828E-04  7265   0.403E-02    0.393E-02
RMM:   4    -0.371781961539E+03    0.42028E-04   -0.10785E-04  6452   0.203E-02    0.204E-02
RMM:   5    -0.371781954595E+03    0.69439E-05   -0.33936E-05  3650   0.114E-02
  20 F= -.37178195E+03 E0= -.37178907E+03  d E =-.834534E-04
       N       E                     dE             d eps       ncg     rms          rms(c)
DAV:   1    -0.371781968579E+03   -0.70406E-05   -0.39059E-03  5216   0.190E-01    0.377E-02
RMM:   2    -0.371781967499E+03    0.10799E-05   -0.22878E-04  7246   0.402E-02    0.171E-02
RMM:   3    -0.371781960098E+03    0.74016E-05   -0.33939E-05  4022   0.124E-02
  21 F= -.37178196E+03 E0= -.37178908E+03  d E =-.889564E-04
       N       E                     dE             d eps       ncg     rms          rms(c)
DAV:   1    -0.371781984348E+03   -0.16849E-04   -0.15612E-02  4912   0.377E-01    0.788E-02
RMM:   2    -0.371781975438E+03    0.89100E-05   -0.91007E-04  7266   0.805E-02    0.336E-02
RMM:   3    -0.371781951811E+03    0.23627E-04   -0.15398E-04  6512   0.240E-02    0.250E-02
RMM:   4    -0.371781934943E+03    0.16868E-04   -0.41983E-05  4527   0.155E-02    0.148E-02
RMM:   5    -0.371781931145E+03    0.37979E-05   -0.13938E-05  2782   0.103E-02
  22 F= -.37178193E+03 E0= -.37178906E+03  d E =-.600034E-04
