<?xml version="1.0" encoding="ISO-8859-1"?>
<modeling>
 <generator>
  <i name="program" type="string">vasp </i>
  <i name="version" type="string">5.4.1  </i>
  <i name="subversion" type="string">05Feb16 (build Jan 29 2020 16:04:39) complex                          parallel </i>
  <i name="platform" type="string">IFC91_ompi </i>
  <i name="date" type="string">2020 06 15 </i>
  <i name="time" type="string">04:54:37 </i>
 </generator>
 <incar>
  <i type="string" name="SYSTEM"> automatically generated by mexm</i>
  <i type="int" name="ISTART">     0</i>
  <i type="string" name="PREC">accurate               ! avoid wrap aro</i>
  <i type="string" name="ALGO"> Fast                   ! blocked Davids</i>
  <i type="int" name="ISPIN">     1</i>
  <i type="int" name="ICHARG">     2</i>
  <i type="int" name="NELM">    70</i>
  <i type="int" name="IBRION">     2</i>
  <i name="EDIFF">      0.00001000</i>
  <i name="EDIFFG">     -0.01000000</i>
  <i type="int" name="NSW">   300</i>
  <i type="int" name="ISIF">     3</i>
  <i type="int" name="ISYM">     1</i>
  <i name="ENCUT">    300.00000000</i>
  <i name="POTIM">      0.15000000</i>
  <i type="string" name="LREAL"> Auto                  ! unpublished met</i>
  <i type="int" name="ISMEAR">     1</i>
  <i name="SIGMA">      0.15000000</i>
  <i type="logical" name="LWAVE"> F  </i>
  <i type="logical" name="LCHARG"> F  </i>
  <i type="logical" name="LVTOT"> F  </i>
  <v type="int" name="KPOINT_BSE">    -1     0     0     0</v>
  <i type="int" name="NELM">    70</i>
 </incar>
 <kpoints>
  <generation param="Gamma">
   <v type="int" name="divisions">       3        3        3 </v>
   <v name="usershift">      0.00000000       0.00000000       0.00000000 </v>
   <v name="genvec1">      0.33333333       0.00000000      -0.00000000 </v>
   <v name="genvec2">     -0.00000000       0.33333333       0.00000000 </v>
   <v name="genvec3">      0.00000000       0.00000000       0.33333333 </v>
   <v name="shift">      0.00000000       0.00000000       0.00000000 </v>
  </generation>
  <varray name="kpointlist" >
   <v>       0.00000000       0.00000000       0.00000000 </v>
   <v>       0.33333333       0.00000000       0.00000000 </v>
   <v>      -0.00000000       0.33333333       0.00000000 </v>
   <v>       0.33333333       0.33333333       0.00000000 </v>
   <v>      -0.33333333       0.33333333       0.00000000 </v>
   <v>       0.00000000      -0.00000000       0.33333333 </v>
   <v>       0.33333333      -0.00000000       0.33333333 </v>
   <v>      -0.33333333      -0.00000000       0.33333333 </v>
   <v>       0.00000000       0.33333333       0.33333333 </v>
   <v>       0.33333333       0.33333333       0.33333333 </v>
   <v>      -0.33333333       0.33333333       0.33333333 </v>
   <v>      -0.00000000      -0.33333333       0.33333333 </v>
   <v>       0.33333333      -0.33333333       0.33333333 </v>
   <v>      -0.33333333      -0.33333333       0.33333333 </v>
  </varray>
  <varray name="weights" >
   <v>       0.03703704 </v>
   <v>       0.07407407 </v>
   <v>       0.07407407 </v>
   <v>       0.07407407 </v>
   <v>       0.07407407 </v>
   <v>       0.07407407 </v>
   <v>       0.07407407 </v>
   <v>       0.07407407 </v>
   <v>       0.07407407 </v>
   <v>       0.07407407 </v>
   <v>       0.07407407 </v>
   <v>       0.07407407 </v>
   <v>       0.07407407 </v>
   <v>       0.07407407 </v>
  </varray>
 </kpoints>
 <parameters>
  <separator name="general" >
   <i type="string" name="SYSTEM">automatically generated by mexm</i>
   <i type="logical" name="LCOMPAT"> F  </i>
  </separator>
  <separator name="electronic" >
   <i type="string" name="PREC">accura</i>
   <i name="ENMAX">    300.00000000</i>
   <i name="ENAUG">    461.25700000</i>
   <i name="EDIFF">      0.00001000</i>
   <i type="int" name="IALGO">    68</i>
   <i type="int" name="IWAVPR">    11</i>
   <i type="int" name="NBANDS">   172</i>
   <i name="NELECT">    285.00000000</i>
   <i type="int" name="TURBO">     0</i>
   <i type="int" name="IRESTART">     0</i>
   <i type="int" name="NREBOOT">     0</i>
   <i type="int" name="NMIN">     0</i>
   <i name="EREF">      0.00000000</i>
   <separator name="electronic smearing" >
    <i type="int" name="ISMEAR">     1</i>
    <i name="SIGMA">      0.15000000</i>
    <i name="KSPACING">      0.50000000</i>
    <i type="logical" name="KGAMMA"> T  </i>
   </separator>
   <separator name="electronic projectors" >
    <i type="logical" name="LREAL"> T  </i>
    <v name="ROPT">     -0.00025000     -0.00025000     -0.00025000     -0.00025000</v>
    <i type="int" name="LMAXPAW">  -100</i>
    <i type="int" name="LMAXMIX">     2</i>
    <i type="logical" name="NLSPLINE"> F  </i>
   </separator>
   <separator name="electronic startup" >
    <i type="int" name="ISTART">     0</i>
    <i type="int" name="ICHARG">     2</i>
    <i type="int" name="INIWAV">     1</i>
   </separator>
   <separator name="electronic spin" >
    <i type="int" name="ISPIN">     1</i>
    <i type="logical" name="LNONCOLLINEAR"> F  </i>
    <v name="MAGMOM">      1.00000000      1.00000000      1.00000000      1.00000000      1.00000000      1.00000000      1.00000000      1.00000000      1.00000000      1.00000000      1.00000000      1.00000000      1.00000000      1.00000000      1.00000000      1.00000000      1.00000000      1.00000000      1.00000000      1.00000000
      1.00000000      1.00000000      1.00000000      1.00000000      1.00000000      1.00000000      1.00000000      1.00000000      1.00000000      1.00000000      1.00000000      1.00000000      1.00000000      1.00000000      1.00000000      1.00000000</v>
    <i name="NUPDOWN">     -1.00000000</i>
    <i type="logical" name="LSORBIT"> F  </i>
    <v name="SAXIS">      0.00000000      0.00000000      1.00000000</v>
    <i type="logical" name="LSPIRAL"> F  </i>
    <v name="QSPIRAL">      0.00000000      0.00000000      0.00000000</v>
    <i type="logical" name="LZEROZ"> F  </i>
   </separator>
   <separator name="electronic exchange-correlation" >
    <i type="logical" name="LASPH"> F  </i>
    <i type="logical" name="LMETAGGA"> F  </i>
   </separator>
   <separator name="electronic convergence" >
    <i type="int" name="NELM">    70</i>
    <i type="int" name="NELMDL">    -5</i>
    <i type="int" name="NELMIN">     2</i>
    <i name="ENINI">    300.00000000</i>
    <separator name="electronic convergence detail" >
     <i type="logical" name="LDIAG"> T  </i>
     <i type="logical" name="LSUBROT"> F  </i>
     <i name="WEIMIN">      0.00100000</i>
     <i name="EBREAK">      0.00000001</i>
     <i name="DEPER">      0.30000000</i>
     <i type="int" name="NRMM">     4</i>
     <i name="TIME">      0.40000000</i>
    </separator>
   </separator>
   <separator name="electronic mixer" >
    <i name="AMIX">      0.40000000</i>
    <i name="BMIX">      1.00000000</i>
    <i name="AMIN">      0.10000000</i>
    <i name="AMIX_MAG">      1.60000000</i>
    <i name="BMIX_MAG">      1.00000000</i>
    <separator name="electronic mixer details" >
     <i type="int" name="IMIX">     4</i>
     <i type="logical" name="MIXFIRST"> F  </i>
     <i type="int" name="MAXMIX">   -45</i>
     <i name="WC">    100.00000000</i>
     <i type="int" name="INIMIX">     1</i>
     <i type="int" name="MIXPRE">     1</i>
     <i type="int" name="MREMOVE">     5</i>
    </separator>
   </separator>
   <separator name="electronic dipolcorrection" >
    <i type="logical" name="LDIPOL"> F  </i>
    <i type="logical" name="LMONO"> F  </i>
    <i type="int" name="IDIPOL">     0</i>
    <i name="EPSILON">      1.00000000</i>
    <v name="DIPOL">   -100.00000000   -100.00000000   -100.00000000</v>
    <i name="EFIELD">      0.00000000</i>
   </separator>
  </separator>
  <separator name="grids" >
   <i type="int" name="NGX">    40</i>
   <i type="int" name="NGY">    60</i>
   <i type="int" name="NGZ">    60</i>
   <i type="int" name="NGXF">    80</i>
   <i type="int" name="NGYF">   120</i>
   <i type="int" name="NGZF">   120</i>
   <i type="logical" name="ADDGRID"> F  </i>
  </separator>
  <separator name="ionic" >
   <i type="int" name="NSW">   300</i>
   <i type="int" name="IBRION">     2</i>
   <i type="int" name="ISIF">     3</i>
   <i name="PSTRESS">      0.00000000</i>
   <i name="EDIFFG">     -0.01000000</i>
   <i type="int" name="NFREE">     1</i>
   <i name="POTIM">      0.15000000</i>
   <i name="SMASS">     -3.00000000</i>
   <i name="SCALEE">      1.00000000</i>
  </separator>
  <separator name="ionic md" >
   <i name="TEBEG">      0.00010000</i>
   <i name="TEEND">      0.00010000</i>
   <i type="int" name="NBLOCK">     1</i>
   <i type="int" name="KBLOCK">   300</i>
   <i type="int" name="NPACO">   256</i>
   <i name="APACO">     16.00000000</i>
  </separator>
  <separator name="symmetry" >
   <i type="int" name="ISYM">     1</i>
   <i name="SYMPREC">      0.00001000</i>
  </separator>
  <separator name="dos" >
   <i type="logical" name="LORBIT"> F  </i>
   <v name="RWIGS">     -1.00000000     -1.00000000     -1.00000000     -1.00000000</v>
   <i type="int" name="NEDOS">   301</i>
   <i name="EMIN">     10.00000000</i>
   <i name="EMAX">    -10.00000000</i>
   <i name="EFERMI">      0.00000000</i>
  </separator>
  <separator name="writing" >
   <i type="int" name="NWRITE">     2</i>
   <i type="logical" name="LWAVE"> F  </i>
   <i type="logical" name="LCHARG"> F  </i>
   <i type="logical" name="LPARD"> F  </i>
   <i type="logical" name="LVTOT"> F  </i>
   <i type="logical" name="LVHAR"> F  </i>
   <i type="logical" name="LELF"> F  </i>
   <i type="logical" name="LOPTICS"> F  </i>
   <v name="STM">      0.00000000      0.00000000      0.00000000      0.00000000      0.00000000      0.00000000      0.00000000</v>
  </separator>
  <separator name="performance" >
   <i type="int" name="NPAR">     4</i>
   <i type="int" name="NSIM">     4</i>
   <i type="int" name="NBLK">    -1</i>
   <i type="logical" name="LPLANE"> T  </i>
   <i type="logical" name="LSCALAPACK"> T  </i>
   <i type="logical" name="LSCAAWARE"> F  </i>
   <i type="logical" name="LSCALU"> F  </i>
   <i type="logical" name="LASYNC"> F  </i>
   <i type="logical" name="LORBITALREAL"> F  </i>
  </separator>
  <separator name="miscellaneous" >
   <i type="int" name="IDIOT">     3</i>
   <i type="logical" name="LMUSIC"> F  </i>
   <v name="POMASS">     91.22400000    178.49000000    180.94800000     92.91000000</v>
   <v name="DARWINR">      0.00000000      0.00000000      0.00000000      0.00000000</v>
   <v name="DARWINV">      1.00000000      1.00000000      1.00000000      1.00000000</v>
   <i type="logical" name="LCORR"> T  </i>
  </separator>
  <i type="logical" name="GGA_COMPAT"> T  </i>
  <i type="logical" name="LBERRY"> F  </i>
  <i type="int" name="ICORELEVEL">     0</i>
  <i type="logical" name="LDAU"> F  </i>
  <i type="int" name="I_CONSTRAINED_M">     0</i>
  <separator name="electronic exchange-correlation" >
   <i type="string" name="GGA">--</i>
   <i type="int" name="VOSKOWN">     0</i>
   <i type="logical" name="LHFCALC"> F  </i>
   <i type="string" name="PRECFOCK"></i>
   <i type="logical" name="LSYMGRAD"> F  </i>
   <i type="logical" name="LHFONE"> F  </i>
   <i type="logical" name="LRHFCALC"> F  </i>
   <i type="logical" name="LTHOMAS"> F  </i>
   <i type="logical" name="LMODELHF"> F  </i>
   <i name="ENCUT4O">     -1.00000000</i>
   <i type="int" name="EXXOEP">     0</i>
   <i type="int" name="FOURORBIT">     0</i>
   <i name="AEXX">      0.00000000</i>
   <i name="HFALPHA">      0.00000000</i>
   <i name="MCALPHA">      0.00000000</i>
   <i name="ALDAX">      1.00000000</i>
   <i name="AGGAX">      1.00000000</i>
   <i name="ALDAC">      1.00000000</i>
   <i name="AGGAC">      1.00000000</i>
   <i type="int" name="NKREDX">     1</i>
   <i type="int" name="NKREDY">     1</i>
   <i type="int" name="NKREDZ">     1</i>
   <i type="logical" name="SHIFTRED"> F  </i>
   <i type="logical" name="ODDONLY"> F  </i>
   <i type="logical" name="EVENONLY"> F  </i>
   <i type="int" name="LMAXFOCK">     0</i>
   <i type="int" name="NMAXFOCKAE">     0</i>
   <i type="logical" name="LFOCKAEDFT"> F  </i>
   <i name="HFSCREEN">      0.00000000</i>
   <i name="HFSCREENC">      0.00000000</i>
   <i type="int" name="NBANDSGWLOW">     0</i>
  </separator>
  <separator name="vdW DFT" >
   <i type="logical" name="LUSE_VDW"> F  </i>
   <i name="Zab_VDW">     -0.84910000</i>
   <i name="PARAM1">      0.12340000</i>
   <i name="PARAM2">      1.00000000</i>
   <i name="PARAM3">      0.00000000</i>
  </separator>
  <separator name="model GW" >
   <i type="int" name="MODEL_GW">     0</i>
   <i name="MODEL_EPS0">     11.87595974</i>
   <i name="MODEL_ALPHA">      1.00000000</i>
  </separator>
  <separator name="linear response parameters" >
   <i type="logical" name="LEPSILON"> F  </i>
   <i type="logical" name="LRPA"> F  </i>
   <i type="logical" name="LNABLA"> F  </i>
   <i type="logical" name="LVEL"> F  </i>
   <i type="int" name="KINTER">     0</i>
   <i name="CSHIFT">      0.10000000</i>
   <i name="OMEGAMAX">     -1.00000000</i>
   <i name="DEG_THRESHOLD">      0.00200000</i>
  </separator>
  <separator name="orbital magnetization" >
   <i type="logical" name="NUCIND"> F  </i>
   <v name="MAGPOS">      0.00000000      0.00000000      0.00000000</v>
   <i type="logical" name="LNICSALL"> T  </i>
   <i type="logical" name="ORBITALMAG"> F  </i>
   <i type="logical" name="LMAGBLOCH"> F  </i>
   <i type="logical" name="LCHIMAG"> F  </i>
   <i type="logical" name="LGAUGE"> T  </i>
   <i type="int" name="MAGATOM">     0</i>
   <v name="MAGDIPOL">      0.00000000      0.00000000      0.00000000</v>
   <v name="AVECCONST">      0.00000000      0.00000000      0.00000000</v>
  </separator>
  <separator name="response functions" >
   <i type="logical" name="LADDER"> F  </i>
   <i type="logical" name="LFXC"> F  </i>
   <i type="logical" name="LHARTREE"> T  </i>
   <i type="int" name="IBSE">     0</i>
   <v type="int" name="KPOINT">    -1     0     0     0</v>
   <i type="logical" name="LTCTE"> F  </i>
   <i type="logical" name="LTETE"> F  </i>
   <i type="logical" name="LTRIPLET"> F  </i>
   <i type="logical" name="LFXCEPS"> F  </i>
   <i type="logical" name="LFXHEG"> F  </i>
   <i type="int" name="NATURALO">     0</i>
   <i type="logical" name="L2ORDER"> F  </i>
   <i type="logical" name="LUSEW"> F  </i>
   <i name="ENCUTGW">     -2.00000000</i>
   <i name="ENCUTGWSOFT">     -2.00000000</i>
   <i name="ENCUTLF">     -1.00000000</i>
   <i type="int" name="LMAXMP2">    -1</i>
   <i name="SCISSOR">      0.00000000</i>
   <i type="int" name="NOMEGA">     0</i>
   <i type="int" name="NOMEGAR">     0</i>
   <i type="int" name="NBANDSGW">    -1</i>
   <i type="int" name="NBANDSO">    -1</i>
   <i type="int" name="NBANDSV">    -1</i>
   <i type="int" name="NELM">    70</i>
   <i type="int" name="NELMHF">     1</i>
   <i type="int" name="DIM">     3</i>
   <i type="int" name="ANTIRES">     0</i>
   <i name="OMEGAMAX">    -30.00000000</i>
   <i name="OMEGAMIN">    -30.00000000</i>
   <i name="OMEGATL">   -200.00000000</i>
   <i type="int" name="OMEGAGRID">     0</i>
   <i name="CSHIFT">     -0.10000000</i>
   <i type="logical" name="SELFENERGY"> F  </i>
   <i type="logical" name="LSPECTRAL"> F  </i>
   <i type="logical" name="LSPECTRALGW"> F  </i>
   <i type="logical" name="LSINGLES"> F  </i>
   <i type="logical" name="LFERMIGW"> F  </i>
   <i type="logical" name="ODDONLYGW"> F  </i>
   <i type="logical" name="EVENONLYGW"> F  </i>
   <i type="int" name="NKREDLFX">     1</i>
   <i type="int" name="NKREDLFY">     1</i>
   <i type="int" name="NKREDLFZ">     1</i>
   <i type="int" name="MAXMEM">  1800</i>
   <i type="int" name="TELESCOPE">     0</i>
   <i type="int" name="TAUPAR">     1</i>
   <i type="int" name="OMEGAPAR">    -1</i>
   <i name="LAMBDA">      1.00000000</i>
  </separator>
  <separator name="External order field" >
   <i name="OFIELD_KAPPA">      0.00000000</i>
   <v name="OFIELD_K">      0.00000000      0.00000000      0.00000000</v>
   <i name="OFIELD_Q6_NEAR">      0.00000000</i>
   <i name="OFIELD_Q6_FAR">      0.00000000</i>
   <i name="OFIELD_A">      0.00000000</i>
  </separator>
 </parameters>
 <atominfo>
  <atoms>      36 </atoms>
  <types>       4 </types>
  <array name="atoms" >
   <dimension dim="1">ion</dimension>
   <field type="string">element</field>
   <field type="int">atomtype</field>
   <set>
    <rc><c>Zr</c><c>   1</c></rc>
    <rc><c>Zr</c><c>   1</c></rc>
    <rc><c>Zr</c><c>   1</c></rc>
    <rc><c>Zr</c><c>   1</c></rc>
    <rc><c>Zr</c><c>   1</c></rc>
    <rc><c>Zr</c><c>   1</c></rc>
    <rc><c>Zr</c><c>   1</c></rc>
    <rc><c>Hf</c><c>   2</c></rc>
    <rc><c>Hf</c><c>   2</c></rc>
    <rc><c>Hf</c><c>   2</c></rc>
    <rc><c>Hf</c><c>   2</c></rc>
    <rc><c>Hf</c><c>   2</c></rc>
    <rc><c>Hf</c><c>   2</c></rc>
    <rc><c>Hf</c><c>   2</c></rc>
    <rc><c>Hf</c><c>   2</c></rc>
    <rc><c>Ta</c><c>   3</c></rc>
    <rc><c>Ta</c><c>   3</c></rc>
    <rc><c>Ta</c><c>   3</c></rc>
    <rc><c>Ta</c><c>   3</c></rc>
    <rc><c>Ta</c><c>   3</c></rc>
    <rc><c>Ta</c><c>   3</c></rc>
    <rc><c>Ta</c><c>   3</c></rc>
    <rc><c>Ta</c><c>   3</c></rc>
    <rc><c>Ta</c><c>   3</c></rc>
    <rc><c>Ta</c><c>   3</c></rc>
    <rc><c>Ta</c><c>   3</c></rc>
    <rc><c>Ta</c><c>   3</c></rc>
    <rc><c>Ta</c><c>   3</c></rc>
    <rc><c>Nb</c><c>   4</c></rc>
    <rc><c>Nb</c><c>   4</c></rc>
    <rc><c>Nb</c><c>   4</c></rc>
    <rc><c>Nb</c><c>   4</c></rc>
    <rc><c>Nb</c><c>   4</c></rc>
    <rc><c>Nb</c><c>   4</c></rc>
    <rc><c>Nb</c><c>   4</c></rc>
    <rc><c>Nb</c><c>   4</c></rc>
   </set>
  </array>
  <array name="atomtypes" >
   <dimension dim="1">type</dimension>
   <field type="int">atomspertype</field>
   <field type="string">element</field>
   <field>mass</field>
   <field>valence</field>
   <field type="string">pseudopotential</field>
   <set>
    <rc><c>   7</c><c>Zr</c><c>     91.22400000</c><c>     12.00000000</c><c>  PAW_PBE Zr_sv 04Jan2005               </c></rc>
    <rc><c>   8</c><c>Hf</c><c>    178.49000000</c><c>      4.00000000</c><c>  PAW_PBE Hf 20Jan2003                  </c></rc>
    <rc><c>  13</c><c>Ta</c><c>    180.94800000</c><c>      5.00000000</c><c>  PAW_PBE Ta 17Jan2003                  </c></rc>
    <rc><c>   8</c><c>Nb</c><c>     92.91000000</c><c>     13.00000000</c><c>  PAW_PBE Nb_sv 25May2007               </c></rc>
   </set>
  </array>
 </atominfo>
 <structure name="initialpos" >
  <crystal>
   <varray name="basis" >
    <v>       6.86382477      -0.00499829       0.00971224 </v>
    <v>      -0.00702853      10.15110610       0.01114887 </v>
    <v>       0.01457584       0.01136337      10.22685358 </v>
   </varray>
   <i name="volume">    712.55758437 </i>
   <varray name="rec_basis" >
    <v>       0.14569173       0.00010110      -0.00020776 </v>
    <v>       0.00007189       0.09851160      -0.00010956 </v>
    <v>      -0.00013844      -0.00010749       0.09778210 </v>
   </varray>
  </crystal>
  <varray name="positions" >
   <v>       0.75671200       0.49089000       0.17338400 </v>
   <v>       0.50257500       0.66811400       0.33644600 </v>
   <v>       0.25921200       0.14015400       0.82735500 </v>
   <v>       0.00351400       0.33321200       0.98916700 </v>
   <v>       0.50467200       0.99121900       0.01497400 </v>
   <v>       0.49515600       0.34959100       0.67299400 </v>
   <v>       0.49326700       0.66735400       0.00345200 </v>
   <v>       0.73991400       0.16335800       0.49519100 </v>
   <v>       0.76614600       0.83462100       0.82775000 </v>
   <v>       0.49633500       0.34298200       0.99053000 </v>
   <v>       0.24497700       0.17231700       0.17615500 </v>
   <v>       0.00508300       0.33456900       0.66517700 </v>
   <v>       0.23268900       0.83630200       0.49831800 </v>
   <v>       0.74253400       0.14735000       0.82422900 </v>
   <v>       0.50255500       0.66609500       0.66224500 </v>
   <v>       0.76746600       0.84049700       0.50083600 </v>
   <v>       0.24108900       0.49150600       0.17742600 </v>
   <v>       0.23262500       0.50409400       0.49023900 </v>
   <v>       0.22852500       0.52570800       0.83386900 </v>
   <v>       0.00986000       0.67256000       0.00489100 </v>
   <v>       0.22979700       0.83895400       0.17557800 </v>
   <v>       0.76280800       0.49539400       0.49201600 </v>
   <v>       0.77180000       0.83716200       0.17217200 </v>
   <v>       0.99559800       0.99499200       0.01176100 </v>
   <v>       0.75377600       0.16668500       0.17923000 </v>
   <v>       0.23933900       0.83263500       0.82776300 </v>
   <v>       0.77300400       0.51958600       0.83580800 </v>
   <v>       0.99603400       0.66670000       0.33184200 </v>
   <v>       0.50374600       0.99464300       0.32522800 </v>
   <v>       0.99492400       0.00077100       0.32920300 </v>
   <v>       0.25427700       0.16260300       0.49100600 </v>
   <v>       0.00507500       0.00726500       0.65715200 </v>
   <v>       0.00004400       0.66234400       0.66492700 </v>
   <v>       0.50024700       0.97605900       0.65681900 </v>
   <v>       0.00290500       0.33477700       0.34313000 </v>
   <v>       0.49171300       0.33693900       0.34173100 </v>
  </varray>
 </structure>
 <calculation>
  <scstep>
   <time name="dav">    1.05    1.05</time>
   <time name="total">    1.11    1.56</time>
   <energy>
    <i name="alphaZ">   1517.66017205 </i>
    <i name="ewald"> -18785.91846356 </i>
    <i name="hartreedc">  -6017.57502089 </i>
    <i name="XCdc">   -486.91491986 </i>
    <i name="pawpsdc">  20347.80458923 </i>
    <i name="pawaedc"> -18629.37954554 </i>
    <i name="eentropy">      0.00047416 </i>
    <i name="bandstr">     32.80400356 </i>
    <i name="atom">  23735.67433589 </i>
    <i name="e_fr_energy">   1714.15562504 </i>
    <i name="e_wo_entrp">   1714.15515088 </i>
    <i name="e_0_energy">   1714.15546698 </i>
   </energy>
  </scstep>
  <scstep>
   <time name="dav">    1.05    1.08</time>
   <time name="total">    1.05    1.25</time>
   <energy>
    <i name="e_fr_energy">   -115.80028548 </i>
    <i name="e_wo_entrp">   -115.80095663 </i>
    <i name="e_0_energy">   -115.80050920 </i>
   </energy>
  </scstep>
  <scstep>
   <time name="dav">    1.43    1.44</time>
   <time name="total">    1.43    1.48</time>
   <energy>
    <i name="e_fr_energy">   -356.52687766 </i>
    <i name="e_wo_entrp">   -356.53161458 </i>
    <i name="e_0_energy">   -356.52845663 </i>
   </energy>
  </scstep>
  <scstep>
   <time name="dav">    1.34    1.34</time>
   <time name="total">    1.34    1.38</time>
   <energy>
    <i name="e_fr_energy">   -384.38848395 </i>
    <i name="e_wo_entrp">   -384.39995829 </i>
    <i name="e_0_energy">   -384.39230873 </i>
   </energy>
  </scstep>
  <scstep>
   <time name="dav">    1.48    1.50</time>
   <time name="total">    1.52    1.58</time>
   <energy>
    <i name="e_fr_energy">   -387.12636427 </i>
    <i name="e_wo_entrp">   -387.13715091 </i>
    <i name="e_0_energy">   -387.12995981 </i>
   </energy>
  </scstep>
  <scstep>
   <time name="diag">    0.12    0.12</time>
   <time name="diis">    0.72    0.72</time>
   <time name="orth">    0.01    0.01</time>
   <time name="total">    0.91    0.96</time>
   <energy>
    <i name="e_fr_energy">   -376.60618455 </i>
    <i name="e_wo_entrp">   -376.62569416 </i>
    <i name="e_0_energy">   -376.61268775 </i>
   </energy>
  </scstep>
  <scstep>
   <time name="diag">    0.12    0.12</time>
   <time name="diis">    0.86    0.86</time>
   <time name="orth">    0.01    0.02</time>
   <time name="total">    1.06    1.10</time>
   <energy>
    <i name="e_fr_energy">   -378.44673823 </i>
    <i name="e_wo_entrp">   -378.43761801 </i>
    <i name="e_0_energy">   -378.44369816 </i>
   </energy>
  </scstep>
  <scstep>
   <time name="diag">    0.14    0.14</time>
   <time name="diis">    0.79    0.81</time>
   <time name="orth">    0.02    0.02</time>
   <time name="total">    1.05    1.14</time>
   <energy>
    <i name="e_fr_energy">   -372.16804433 </i>
    <i name="e_wo_entrp">   -372.18672489 </i>
    <i name="e_0_energy">   -372.17427118 </i>
   </energy>
  </scstep>
  <scstep>
   <time name="diag">    0.09    0.09</time>
   <time name="diis">    0.77    0.78</time>
   <time name="orth">    0.01    0.01</time>
   <time name="total">    0.94    0.99</time>
   <energy>
    <i name="e_fr_energy">   -371.85029875 </i>
    <i name="e_wo_entrp">   -371.87159262 </i>
    <i name="e_0_energy">   -371.85739671 </i>
   </energy>
  </scstep>
  <scstep>
   <time name="diag">    0.08    0.08</time>
   <time name="diis">    0.76    0.77</time>
   <time name="orth">    0.01    0.01</time>
   <time name="total">    0.92    0.97</time>
   <energy>
    <i name="e_fr_energy">   -371.80915803 </i>
    <i name="e_wo_entrp">   -371.83142316 </i>
    <i name="e_0_energy">   -371.81657974 </i>
   </energy>
  </scstep>
  <scstep>
   <time name="diag">    0.07    0.07</time>
   <time name="diis">    0.76    0.77</time>
   <time name="orth">    0.01    0.01</time>
   <time name="total">    0.91    0.96</time>
   <energy>
    <i name="e_fr_energy">   -371.78266140 </i>
    <i name="e_wo_entrp">   -371.80276217 </i>
    <i name="e_0_energy">   -371.78936165 </i>
   </energy>
  </scstep>
  <scstep>
   <time name="diag">    0.09    0.09</time>
   <time name="diis">    0.85    0.86</time>
   <time name="orth">    0.01    0.01</time>
   <time name="total">    1.02    1.08</time>
   <energy>
    <i name="e_fr_energy">   -371.77554385 </i>
    <i name="e_wo_entrp">   -371.79619646 </i>
    <i name="e_0_energy">   -371.78242806 </i>
   </energy>
  </scstep>
  <scstep>
   <time name="diag">    0.08    0.08</time>
   <time name="diis">    0.81    0.83</time>
   <time name="orth">    0.01    0.01</time>
   <time name="total">    0.99    1.07</time>
   <energy>
    <i name="e_fr_energy">   -371.77402569 </i>
    <i name="e_wo_entrp">   -371.79454494 </i>
    <i name="e_0_energy">   -371.78086544 </i>
   </energy>
  </scstep>
  <scstep>
   <time name="diag">    0.08    0.11</time>
   <time name="diis">    0.75    0.85</time>
   <time name="orth">    0.01    0.01</time>
   <time name="total">    0.94    1.13</time>
   <energy>
    <i name="e_fr_energy">   -371.77379864 </i>
    <i name="e_wo_entrp">   -371.79425575 </i>
    <i name="e_0_energy">   -371.78061767 </i>
   </energy>
  </scstep>
  <scstep>
   <time name="diag">    0.11    0.12</time>
   <time name="diis">    0.81    0.90</time>
   <time name="orth">    0.01    0.01</time>
   <time name="total">    1.00    1.13</time>
   <energy>
    <i name="e_fr_energy">   -371.77386646 </i>
    <i name="e_wo_entrp">   -371.79449054 </i>
    <i name="e_0_energy">   -371.78074116 </i>
   </energy>
  </scstep>
  <scstep>
   <time name="diag">    0.12    0.13</time>
   <time name="diis">    0.72    0.83</time>
   <time name="orth">    0.01    0.01</time>
   <time name="total">    0.92    1.09</time>
   <energy>
    <i name="e_fr_energy">   -371.77388322 </i>
    <i name="e_wo_entrp">   -371.79448309 </i>
    <i name="e_0_energy">   -371.78074984 </i>
   </energy>
  </scstep>
  <scstep>
   <time name="diag">    0.07    0.08</time>
   <time name="diis">    0.61    0.73</time>
   <time name="orth">    0.01    0.02</time>
   <time name="total">    0.78    0.95</time>
   <energy>
    <i name="e_fr_energy">   -371.77385148 </i>
    <i name="e_wo_entrp">   -371.79443612 </i>
    <i name="e_0_energy">   -371.78071303 </i>
   </energy>
  </scstep>
  <scstep>
   <time name="diag">    0.08    0.09</time>
   <time name="diis">    0.69    0.74</time>
   <time name="orth">    0.01    0.01</time>
   <time name="total">    0.85    0.94</time>
   <energy>
    <i name="e_fr_energy">   -371.77386263 </i>
    <i name="e_wo_entrp">   -371.79443247 </i>
    <i name="e_0_energy">   -371.78071924 </i>
   </energy>
  </scstep>
  <scstep>
   <time name="diag">    0.07    0.08</time>
   <time name="diis">    0.42    0.48</time>
   <time name="orth">    0.01    0.01</time>
   <time name="total">    0.72    0.86</time>
   <energy>
    <i name="e_fr_energy">   -371.77386800 </i>
    <i name="e_wo_entrp">   -371.79442990 </i>
    <i name="e_0_energy">   -371.78072197 </i>
   </energy>
  </scstep>
  <scstep>
   <time name="diag">    0.07    0.09</time>
   <time name="diis">    0.36    0.49</time>
   <time name="orth">    0.01    0.01</time>
   <time name="total">    0.48    0.68</time>
   <energy>
    <i name="alphaZ">   1517.66017205 </i>
    <i name="ewald"> -18785.91846356 </i>
    <i name="hartreedc">  -5797.96691480 </i>
    <i name="XCdc">   -484.50555944 </i>
    <i name="pawpsdc">  32995.48499239 </i>
    <i name="pawaedc"> -31262.72894951 </i>
    <i name="eentropy">      0.02056772 </i>
    <i name="bandstr">  -2289.49404935 </i>
    <i name="atom">  23735.67433589 </i>
    <i name="e_fr_energy">   -371.77386862 </i>
    <i name="e_wo_entrp">   -371.79443634 </i>
    <i name="e_0_energy">   -371.78072453 </i>
   </energy>
  </scstep>
  <structure>
   <crystal>
    <varray name="basis" >
     <v>       6.86382477      -0.00499829       0.00971224 </v>
     <v>      -0.00702853      10.15110610       0.01114887 </v>
     <v>       0.01457584       0.01136337      10.22685358 </v>
    </varray>
    <i name="volume">    712.55758437 </i>
    <varray name="rec_basis" >
     <v>       0.14569173       0.00010110      -0.00020776 </v>
     <v>       0.00007189       0.09851160      -0.00010956 </v>
     <v>      -0.00013844      -0.00010749       0.09778210 </v>
    </varray>
   </crystal>
   <varray name="positions" >
    <v>       0.75671200       0.49089000       0.17338400 </v>
    <v>       0.50257500       0.66811400       0.33644600 </v>
    <v>       0.25921200       0.14015400       0.82735500 </v>
    <v>       0.00351400       0.33321200       0.98916700 </v>
    <v>       0.50467200       0.99121900       0.01497400 </v>
    <v>       0.49515600       0.34959100       0.67299400 </v>
    <v>       0.49326700       0.66735400       0.00345200 </v>
    <v>       0.73991400       0.16335800       0.49519100 </v>
    <v>       0.76614600       0.83462100       0.82775000 </v>
    <v>       0.49633500       0.34298200       0.99053000 </v>
    <v>       0.24497700       0.17231700       0.17615500 </v>
    <v>       0.00508300       0.33456900       0.66517700 </v>
    <v>       0.23268900       0.83630200       0.49831800 </v>
    <v>       0.74253400       0.14735000       0.82422900 </v>
    <v>       0.50255500       0.66609500       0.66224500 </v>
    <v>       0.76746600       0.84049700       0.50083600 </v>
    <v>       0.24108900       0.49150600       0.17742600 </v>
    <v>       0.23262500       0.50409400       0.49023900 </v>
    <v>       0.22852500       0.52570800       0.83386900 </v>
    <v>       0.00986000       0.67256000       0.00489100 </v>
    <v>       0.22979700       0.83895400       0.17557800 </v>
    <v>       0.76280800       0.49539400       0.49201600 </v>
    <v>       0.77180000       0.83716200       0.17217200 </v>
    <v>       0.99559800       0.99499200       0.01176100 </v>
    <v>       0.75377600       0.16668500       0.17923000 </v>
    <v>       0.23933900       0.83263500       0.82776300 </v>
    <v>       0.77300400       0.51958600       0.83580800 </v>
    <v>       0.99603400       0.66670000       0.33184200 </v>
    <v>       0.50374600       0.99464300       0.32522800 </v>
    <v>       0.99492400       0.00077100       0.32920300 </v>
    <v>       0.25427700       0.16260300       0.49100600 </v>
    <v>       0.00507500       0.00726500       0.65715200 </v>
    <v>       0.00004400       0.66234400       0.66492700 </v>
    <v>       0.50024700       0.97605900       0.65681900 </v>
    <v>       0.00290500       0.33477700       0.34313000 </v>
    <v>       0.49171300       0.33693900       0.34173100 </v>
   </varray>
  </structure>
  <varray name="forces" >
   <v>      -0.04193617      -0.04942884      -0.04368231 </v>
   <v>       0.02428668       0.00272349       0.01121472 </v>
   <v>      -0.01397301       0.00128242      -0.00420557 </v>
   <v>       0.00290651      -0.01509897      -0.00950343 </v>
   <v>       0.00183448      -0.00634956       0.00593062 </v>
   <v>      -0.00218507      -0.00643940      -0.00003534 </v>
   <v>       0.00285448       0.01124954      -0.03205339 </v>
   <v>       0.00755661      -0.00116398      -0.01280260 </v>
   <v>       0.00850438      -0.01026969       0.01037927 </v>
   <v>      -0.00005906      -0.01051117      -0.01208666 </v>
   <v>       0.00734250       0.00360769       0.01807653 </v>
   <v>      -0.00371943      -0.02029850       0.01999273 </v>
   <v>       0.01124619       0.02744541       0.03436835 </v>
   <v>       0.01947095      -0.00097544      -0.00496306 </v>
   <v>      -0.00185953       0.00803384       0.02897159 </v>
   <v>       0.00718001       0.00149474       0.00131021 </v>
   <v>      -0.00436753      -0.00555017      -0.00427054 </v>
   <v>       0.00633462      -0.01061688       0.03089334 </v>
   <v>       0.01607865       0.01090790      -0.00576981 </v>
   <v>      -0.01431122       0.00518686       0.13022556 </v>
   <v>       0.00228131       0.01744860      -0.01847007 </v>
   <v>       0.00328679      -0.01190717       0.00374238 </v>
   <v>      -0.00694622       0.00286241      -0.04102007 </v>
   <v>      -0.00026428       0.02301200      -0.02250337 </v>
   <v>      -0.00570694       0.00409682       0.01641785 </v>
   <v>      -0.00459858      -0.01485555      -0.00125074 </v>
   <v>      -0.01638166       0.00068278       0.00197446 </v>
   <v>      -0.00835274       0.00910829      -0.01769828 </v>
   <v>      -0.00247748       0.03587757       0.00627797 </v>
   <v>       0.00648499      -0.10484074      -0.00035438 </v>
   <v>      -0.00514141       0.00139322      -0.02344967 </v>
   <v>      -0.00226144       0.01522186       0.01811044 </v>
   <v>       0.00528127       0.00357324      -0.09237508 </v>
   <v>       0.00467758      -0.00164826       0.01029905 </v>
   <v>      -0.00673212       0.10241008       0.00177615 </v>
   <v>       0.00366585      -0.01766444      -0.00346685 </v>
  </varray>
  <varray name="stress" >
   <v>       0.40420168       0.21199584       0.38131504 </v>
   <v>       0.21199583       0.05382948       0.03380493 </v>
   <v>       0.38131505       0.03380496       0.27839988 </v>
  </varray>
  <energy>
   <i name="e_fr_energy">   -371.77386862 </i>
   <i name="e_wo_entrp">   -371.78072453 </i>
   <i name="e_0_energy">      0.02056772 </i>
  </energy>
  <time name="totalsc">   21.55   24.13</time>
 </calculation>
 <calculation>
  <scstep>
   <time name="dav">    1.09    1.10</time>
   <time name="total">    1.16    1.38</time>
   <energy>
    <i name="alphaZ">   1517.46036799 </i>
    <i name="ewald"> -18785.40582213 </i>
    <i name="hartreedc">  -5797.41586577 </i>
    <i name="XCdc">   -484.54050037 </i>
    <i name="pawpsdc">  32995.39103864 </i>
    <i name="pawaedc"> -31262.63273093 </i>
    <i name="eentropy">      0.02063077 </i>
    <i name="bandstr">  -2290.32616542 </i>
    <i name="atom">  23735.67433589 </i>
    <i name="e_fr_energy">   -371.77471132 </i>
    <i name="e_wo_entrp">   -371.79534209 </i>
    <i name="e_0_energy">   -371.78158824 </i>
   </energy>
  </scstep>
  <scstep>
   <time name="diag">    0.11    0.11</time>
   <time name="diis">    0.66    0.79</time>
   <time name="orth">    0.01    0.01</time>
   <time name="total">    0.87    1.04</time>
   <energy>
    <i name="e_fr_energy">   -371.77492129 </i>
    <i name="e_wo_entrp">   -371.79548877 </i>
    <i name="e_0_energy">   -371.78177712 </i>
   </energy>
  </scstep>
  <scstep>
   <time name="diag">    0.08    0.08</time>
   <time name="diis">    0.70    0.71</time>
   <time name="orth">    0.01    0.01</time>
   <time name="total">    0.85    0.91</time>
   <energy>
    <i name="e_fr_energy">   -371.77490201 </i>
    <i name="e_wo_entrp">   -371.79548549 </i>
    <i name="e_0_energy">   -371.78176317 </i>
   </energy>
  </scstep>
  <scstep>
   <time name="diag">    0.08    0.08</time>
   <time name="diis">    0.55    0.55</time>
   <time name="orth">    0.01    0.01</time>
   <time name="total">    0.74    0.79</time>
   <energy>
    <i name="e_fr_energy">   -371.77489168 </i>
    <i name="e_wo_entrp">   -371.79550050 </i>
    <i name="e_0_energy">   -371.78176128 </i>
   </energy>
  </scstep>
  <scstep>
   <time name="diag">    0.13    0.13</time>
   <time name="diis">    0.35    0.35</time>
   <time name="orth">    0.01    0.01</time>
   <time name="total">    0.52    0.57</time>
   <energy>
    <i name="alphaZ">   1517.46036799 </i>
    <i name="ewald"> -18785.40582213 </i>
    <i name="hartreedc">  -5797.93449091 </i>
    <i name="XCdc">   -484.51860514 </i>
    <i name="pawpsdc">  32989.86525760 </i>
    <i name="pawaedc"> -31257.08964497 </i>
    <i name="eentropy">      0.02058672 </i>
    <i name="bandstr">  -2289.84687335 </i>
    <i name="atom">  23735.67433589 </i>
    <i name="e_fr_energy">   -371.77488831 </i>
    <i name="e_wo_entrp">   -371.79547502 </i>
    <i name="e_0_energy">   -371.78175054 </i>
   </energy>
  </scstep>
  <structure>
   <crystal>
    <varray name="basis" >
     <v>       6.86432129      -0.00473811       0.01018065 </v>
     <v>      -0.00664351      10.15120360       0.01121030 </v>
     <v>       0.01527457       0.01142585      10.22736371 </v>
    </varray>
    <i name="volume">    712.65140685 </i>
    <varray name="rec_basis" >
     <v>       0.14568122       0.00009558      -0.00021768 </v>
     <v>       0.00006816       0.09851065      -0.00011016 </v>
     <v>      -0.00014509      -0.00010807       0.09777725 </v>
    </varray>
   </crystal>
   <varray name="positions" >
    <v>       0.75662363       0.49081955       0.17332234 </v>
    <v>       0.50262618       0.66811789       0.33646182 </v>
    <v>       0.25918255       0.14015582       0.82734907 </v>
    <v>       0.00352014       0.33319049       0.98915357 </v>
    <v>       0.50467584       0.99120994       0.01498240 </v>
    <v>       0.49515138       0.34958182       0.67299396 </v>
    <v>       0.49327313       0.66737009       0.00340662 </v>
    <v>       0.73992997       0.16335637       0.49517287 </v>
    <v>       0.76616389       0.83460635       0.82776469 </v>
    <v>       0.49633490       0.34296703       0.99051291 </v>
    <v>       0.24499243       0.17232212       0.17618056 </v>
    <v>       0.00507507       0.33454002       0.66520533 </v>
    <v>       0.23271265       0.83634109       0.49836657 </v>
    <v>       0.74257507       0.14734864       0.82422194 </v>
    <v>       0.50255100       0.66610641       0.66228599 </v>
    <v>       0.76748114       0.84049914       0.50083784 </v>
    <v>       0.24107980       0.49149809       0.17741997 </v>
    <v>       0.23263825       0.50407882       0.49028272 </v>
    <v>       0.22855894       0.52572358       0.83386079 </v>
    <v>       0.00982944       0.67256717       0.00507531 </v>
    <v>       0.22980189       0.83897891       0.17555183 </v>
    <v>       0.76281490       0.49537702       0.49202131 </v>
    <v>       0.77178548       0.83716614       0.17211396 </v>
    <v>       0.99559754       0.99502484       0.01172912 </v>
    <v>       0.75376392       0.16669081       0.17925324 </v>
    <v>       0.23932929       0.83261382       0.82776126 </v>
    <v>       0.77296945       0.51958695       0.83581083 </v>
    <v>       0.99601645       0.66671301       0.33181696 </v>
    <v>       0.50374081       0.99469414       0.32523683 </v>
    <v>       0.99493752       0.00062153       0.32920265 </v>
    <v>       0.25426623       0.16260502       0.49097282 </v>
    <v>       0.00507020       0.00728667       0.65717761 </v>
    <v>       0.00005542       0.66234925       0.66479626 </v>
    <v>       0.50025683       0.97605664       0.65683357 </v>
    <v>       0.00289095       0.33492300       0.34313237 </v>
    <v>       0.49172071       0.33691382       0.34172611 </v>
   </varray>
  </structure>
  <varray name="forces" >
   <v>      -0.03935522      -0.04611188      -0.04041065 </v>
   <v>       0.02172633       0.00193152       0.01099971 </v>
   <v>      -0.01172487       0.00008409      -0.00334747 </v>
   <v>       0.00367610      -0.01479241      -0.00975371 </v>
   <v>       0.00152331      -0.00496720       0.00421581 </v>
   <v>      -0.00159929      -0.00713676       0.00041777 </v>
   <v>       0.00155708       0.01038348      -0.03067722 </v>
   <v>       0.00921140      -0.00101531      -0.01315697 </v>
   <v>       0.00990088      -0.01134908       0.01035436 </v>
   <v>      -0.00126705      -0.01049528      -0.01300439 </v>
   <v>       0.00415759       0.00301634       0.01893410 </v>
   <v>      -0.00392446      -0.01846467       0.01699083 </v>
   <v>       0.01225458       0.02479728       0.03088733 </v>
   <v>       0.01666086      -0.00213392      -0.00477598 </v>
   <v>      -0.00050116       0.00757255       0.02650163 </v>
   <v>       0.00573700       0.00083529       0.00110557 </v>
   <v>      -0.00348030      -0.00389889      -0.00328569 </v>
   <v>       0.00673311      -0.00848943       0.02876534 </v>
   <v>       0.00883000       0.01423658      -0.00532117 </v>
   <v>      -0.01231987       0.00241041       0.11460933 </v>
   <v>       0.00365968       0.01614445      -0.01592357 </v>
   <v>       0.00311548      -0.00905502       0.00536474 </v>
   <v>      -0.00801106       0.00385169      -0.03708701 </v>
   <v>       0.00008186       0.02161244      -0.02003911 </v>
   <v>      -0.00481818       0.00370362       0.01594912 </v>
   <v>      -0.00553602      -0.01395864      -0.00031830 </v>
   <v>      -0.01161589       0.00216214       0.00208347 </v>
   <v>      -0.00799256       0.00812086      -0.01718191 </v>
   <v>      -0.00235966       0.03311184       0.00616602 </v>
   <v>       0.00575278      -0.09251748      -0.00178980 </v>
   <v>      -0.00405039       0.00180474      -0.02144990 </v>
   <v>      -0.00163855       0.01420828       0.01589165 </v>
   <v>       0.00477565       0.00030075      -0.08106925 </v>
   <v>       0.00432795       0.00027416       0.01080324 </v>
   <v>      -0.00577194       0.09040485       0.00064842 </v>
   <v>       0.00228484      -0.01658137      -0.00209633 </v>
  </varray>
  <varray name="stress" >
   <v>       0.17016948       0.18521993       0.35533378 </v>
   <v>       0.18521987      -0.14058155       0.03222168 </v>
   <v>       0.35533379       0.03222161       0.07340633 </v>
  </varray>
  <energy>
   <i name="e_fr_energy">   -371.77488831 </i>
   <i name="e_wo_entrp">   -371.78175054 </i>
   <i name="e_0_energy">      0.02058672 </i>
  </energy>
  <time name="totalsc">    5.71    6.39</time>
 </calculation>
 <calculation>
  <scstep>
   <time name="dav">    0.92    0.93</time>
   <time name="total">    0.99    1.19</time>
   <energy>
    <i name="alphaZ">   1516.86129588 </i>
    <i name="ewald"> -18783.85265079 </i>
    <i name="hartreedc">  -5796.26346119 </i>
    <i name="XCdc">   -484.62381264 </i>
    <i name="pawpsdc">  32989.70905685 </i>
    <i name="pawaedc"> -31256.93271463 </i>
    <i name="eentropy">      0.02073925 </i>
    <i name="bandstr">  -2292.36852345 </i>
    <i name="atom">  23735.67433589 </i>
    <i name="e_fr_energy">   -371.77573483 </i>
    <i name="e_wo_entrp">   -371.79647407 </i>
    <i name="e_0_energy">   -371.78264791 </i>
   </energy>
  </scstep>
  <scstep>
   <time name="diag">    0.07    0.07</time>
   <time name="diis">    0.78    0.79</time>
   <time name="orth">    0.01    0.01</time>
   <time name="total">    0.93    0.98</time>
   <energy>
    <i name="e_fr_energy">   -371.77750799 </i>
    <i name="e_wo_entrp">   -371.79807143 </i>
    <i name="e_0_energy">   -371.78436247 </i>
   </energy>
  </scstep>
  <scstep>
   <time name="diag">    0.07    0.07</time>
   <time name="diis">    0.77    0.80</time>
   <time name="orth">    0.01    0.01</time>
   <time name="total">    0.96    1.02</time>
   <energy>
    <i name="e_fr_energy">   -371.77734796 </i>
    <i name="e_wo_entrp">   -371.79794941 </i>
    <i name="e_0_energy">   -371.78421511 </i>
   </energy>
  </scstep>
  <scstep>
   <time name="diag">    0.07    0.07</time>
   <time name="diis">    0.76    0.77</time>
   <time name="orth">    0.01    0.01</time>
   <time name="total">    0.91    0.97</time>
   <energy>
    <i name="e_fr_energy">   -371.77726140 </i>
    <i name="e_wo_entrp">   -371.79794538 </i>
    <i name="e_0_energy">   -371.78415606 </i>
   </energy>
  </scstep>
  <scstep>
   <time name="diag">    0.07    0.07</time>
   <time name="diis">    0.73    0.74</time>
   <time name="orth">    0.01    0.01</time>
   <time name="total">    0.88    0.93</time>
   <energy>
    <i name="e_fr_energy">   -371.77724630 </i>
    <i name="e_wo_entrp">   -371.79785974 </i>
    <i name="e_0_energy">   -371.78411745 </i>
   </energy>
  </scstep>
  <scstep>
   <time name="diag">    0.08    0.08</time>
   <time name="diis">    0.75    0.77</time>
   <time name="orth">    0.01    0.01</time>
   <time name="total">    0.91    0.97</time>
   <energy>
    <i name="e_fr_energy">   -371.77724100 </i>
    <i name="e_wo_entrp">   -371.79789020 </i>
    <i name="e_0_energy">   -371.78412407 </i>
   </energy>
  </scstep>
  <scstep>
   <time name="diag">    0.09    0.15</time>
   <time name="diis">    0.36    0.36</time>
   <time name="orth">    0.01    0.01</time>
   <time name="total">    0.49    0.62</time>
   <energy>
    <i name="alphaZ">   1516.86129588 </i>
    <i name="ewald"> -18783.85265079 </i>
    <i name="hartreedc">  -5797.78672519 </i>
    <i name="XCdc">   -484.55784826 </i>
    <i name="pawpsdc">  32972.58123471 </i>
    <i name="pawaedc"> -31239.78560224 </i>
    <i name="eentropy">      0.02065974 </i>
    <i name="bandstr">  -2290.93193633 </i>
    <i name="atom">  23735.67433589 </i>
    <i name="e_fr_energy">   -371.77723658 </i>
    <i name="e_wo_entrp">   -371.79789633 </i>
    <i name="e_0_energy">   -371.78412316 </i>
   </energy>
  </scstep>
  <structure>
   <crystal>
    <varray name="basis" >
     <v>       6.86581085      -0.00395757       0.01158590 </v>
     <v>      -0.00548844      10.15149610       0.01139460 </v>
     <v>       0.01737076       0.01161327      10.22889408 </v>
    </varray>
    <i name="volume">    712.93286276 </i>
    <varray name="rec_basis" >
     <v>       0.14564968       0.00007902      -0.00024743 </v>
     <v>       0.00005697       0.09850780      -0.00011194 </v>
     <v>      -0.00016504      -0.00010982       0.09776268 </v>
    </varray>
   </crystal>
   <varray name="positions" >
    <v>       0.75635859       0.49060822       0.17313739 </v>
    <v>       0.50277970       0.66812956       0.33650926 </v>
    <v>       0.25909421       0.14016128       0.82733130 </v>
    <v>       0.00353855       0.33312596       0.98911328 </v>
    <v>       0.50468736       0.99118276       0.01500759 </v>
    <v>       0.49513754       0.34955427       0.67299386 </v>
    <v>       0.49329154       0.66741837       0.00327047 </v>
    <v>       0.73997788       0.16335147       0.49511848 </v>
    <v>       0.76621754       0.83456240       0.82780875 </v>
    <v>       0.49633459       0.34292213       0.99046165 </v>
    <v>       0.24503872       0.17233749       0.17625724 </v>
    <v>       0.00505127       0.33445310       0.66529033 </v>
    <v>       0.23278357       0.83645834       0.49851228 </v>
    <v>       0.74269827       0.14734455       0.82420075 </v>
    <v>       0.50253900       0.66614062       0.66240896 </v>
    <v>       0.76752655       0.84050554       0.50084335 </v>
    <v>       0.24105219       0.49147436       0.17740190 </v>
    <v>       0.23267798       0.50403328       0.49041389 </v>
    <v>       0.22866074       0.52577031       0.83383614 </v>
    <v>       0.00973771       0.67258869       0.00562823 </v>
    <v>       0.22981657       0.83905363       0.17547332 </v>
    <v>       0.76283561       0.49532608       0.49203723 </v>
    <v>       0.77174194       0.83717856       0.17193985 </v>
    <v>       0.99559618       0.99512338       0.01163348 </v>
    <v>       0.75372769       0.16670824       0.17932296 </v>
    <v>       0.23930015       0.83255027       0.82775605 </v>
    <v>       0.77286582       0.51958982       0.83581931 </v>
    <v>       0.99596383       0.66675202       0.33174183 </v>
    <v>       0.50372523       0.99484756       0.32526333 </v>
    <v>       0.99497811       0.00017313       0.32920160 </v>
    <v>       0.25423394       0.16261107       0.49087330 </v>
    <v>       0.00505579       0.00735168       0.65725444 </v>
    <v>       0.00008971       0.66236499       0.66440404 </v>
    <v>       0.50028631       0.97604955       0.65687727 </v>
    <v>       0.00284878       0.33536100       0.34313947 </v>
    <v>       0.49174386       0.33683830       0.34171146 </v>
   </varray>
  </structure>
  <varray name="forces" >
   <v>      -0.03247529      -0.03678929      -0.03182001 </v>
   <v>       0.01405936      -0.00021826       0.00972310 </v>
   <v>      -0.00534483      -0.00447071      -0.00196000 </v>
   <v>       0.00653047      -0.01214982      -0.00945858 </v>
   <v>       0.00100569      -0.00005860      -0.00086413 </v>
   <v>      -0.00020753      -0.00909991       0.00172547 </v>
   <v>      -0.00170980       0.00752522      -0.02580588 </v>
   <v>       0.01611047      -0.00022511      -0.01456803 </v>
   <v>       0.01433164      -0.01524644       0.01175536 </v>
   <v>      -0.00429282      -0.00928265      -0.01482382 </v>
   <v>      -0.00549597       0.00275944       0.02194330 </v>
   <v>      -0.00454808      -0.01354795       0.00884949 </v>
   <v>       0.01515927       0.01785049       0.02274949 </v>
   <v>       0.01017582      -0.00628024      -0.00407680 </v>
   <v>       0.00416550       0.00716310       0.02056963 </v>
   <v>       0.00246042      -0.00113181       0.00157969 </v>
   <v>      -0.00086059       0.00132124      -0.00139429 </v>
   <v>       0.00666958      -0.00373382       0.02234391 </v>
   <v>      -0.01266473       0.02536982      -0.00248758 </v>
   <v>      -0.00772118      -0.00628067       0.07234555 </v>
   <v>       0.00818523       0.01091635      -0.01044783 </v>
   <v>       0.00388457      -0.00134600       0.00932747 </v>
   <v>      -0.01181857       0.00540128      -0.02827717 </v>
   <v>       0.00105671       0.01687932      -0.01317889 </v>
   <v>      -0.00169375       0.00407480       0.01428968 </v>
   <v>      -0.00844660      -0.01200481       0.00332310 </v>
   <v>       0.00235019       0.00630146       0.00353318 </v>
   <v>      -0.00749593       0.00505372      -0.01846536 </v>
   <v>      -0.00077621       0.02524781       0.00442968 </v>
   <v>       0.00372060      -0.05994966      -0.00571029 </v>
   <v>      -0.00596555       0.00352850      -0.01797253 </v>
   <v>      -0.00075462       0.01145816       0.00984491 </v>
   <v>       0.00270655      -0.00823666      -0.04800295 </v>
   <v>       0.00472435       0.00361989       0.01346730 </v>
   <v>      -0.00316487       0.05819471      -0.00285866 </v>
   <v>      -0.00185951      -0.01261289       0.00037248 </v>
  </varray>
  <varray name="stress" >
   <v>      -0.51583645       0.06317645       0.14217674 </v>
   <v>       0.06317646      -0.61576254       0.03010174 </v>
   <v>       0.14217668       0.03010177      -0.51891373 </v>
  </varray>
  <energy>
   <i name="e_fr_energy">   -371.77723658 </i>
   <i name="e_wo_entrp">   -371.78412316 </i>
   <i name="e_0_energy">      0.02065974 </i>
  </energy>
  <time name="totalsc">    7.72    8.49</time>
 </calculation>
 <calculation>
  <scstep>
   <time name="dav">    0.96    0.97</time>
   <time name="total">    1.04    1.23</time>
   <energy>
    <i name="alphaZ">   1515.66467995 </i>
    <i name="ewald"> -18780.67801811 </i>
    <i name="hartreedc">  -5794.50288834 </i>
    <i name="XCdc">   -484.76752245 </i>
    <i name="pawpsdc">  32972.74998117 </i>
    <i name="pawaedc"> -31239.96563373 </i>
    <i name="eentropy">      0.02082835 </i>
    <i name="bandstr">  -2295.96856312 </i>
    <i name="atom">  23735.67433589 </i>
    <i name="e_fr_energy">   -371.77280039 </i>
    <i name="e_wo_entrp">   -371.79362873 </i>
    <i name="e_0_energy">   -371.77974317 </i>
   </energy>
  </scstep>
  <scstep>
   <time name="diag">    0.08    0.08</time>
   <time name="diis">    0.73    0.73</time>
   <time name="orth">    0.01    0.01</time>
   <time name="total">    0.89    0.96</time>
   <energy>
    <i name="e_fr_energy">   -371.77984754 </i>
    <i name="e_wo_entrp">   -371.80034911 </i>
    <i name="e_0_energy">   -371.78668140 </i>
   </energy>
  </scstep>
  <scstep>
   <time name="diag">    0.07    0.07</time>
   <time name="diis">    0.75    0.76</time>
   <time name="orth">    0.01    0.01</time>
   <time name="total">    0.90    0.95</time>
   <energy>
    <i name="e_fr_energy">   -371.77921607 </i>
    <i name="e_wo_entrp">   -371.79976826 </i>
    <i name="e_0_energy">   -371.78606680 </i>
   </energy>
  </scstep>
  <scstep>
   <time name="diag">    0.07    0.08</time>
   <time name="diis">    0.79    0.82</time>
   <time name="orth">    0.01    0.01</time>
   <time name="total">    0.94    1.01</time>
   <energy>
    <i name="e_fr_energy">   -371.77886789 </i>
    <i name="e_wo_entrp">   -371.79959147 </i>
    <i name="e_0_energy">   -371.78577575 </i>
   </energy>
  </scstep>
  <scstep>
   <time name="diag">    0.08    0.08</time>
   <time name="diis">    0.84    0.85</time>
   <time name="orth">    0.01    0.01</time>
   <time name="total">    1.03    1.09</time>
   <energy>
    <i name="e_fr_energy">   -371.77880995 </i>
    <i name="e_wo_entrp">   -371.79940165 </i>
    <i name="e_0_energy">   -371.78567385 </i>
   </energy>
  </scstep>
  <scstep>
   <time name="diag">    0.07    0.07</time>
   <time name="diis">    0.77    0.77</time>
   <time name="orth">    0.01    0.01</time>
   <time name="total">    0.92    0.96</time>
   <energy>
    <i name="e_fr_energy">   -371.77879818 </i>
    <i name="e_wo_entrp">   -371.79945512 </i>
    <i name="e_0_energy">   -371.78568383 </i>
   </energy>
  </scstep>
  <scstep>
   <time name="diag">    0.09    0.09</time>
   <time name="diis">    0.63    0.63</time>
   <time name="orth">    0.01    0.01</time>
   <time name="total">    0.79    0.84</time>
   <energy>
    <i name="e_fr_energy">   -371.77878740 </i>
    <i name="e_wo_entrp">   -371.79946464 </i>
    <i name="e_0_energy">   -371.78567982 </i>
   </energy>
  </scstep>
  <scstep>
   <time name="diag">    0.08    0.11</time>
   <time name="diis">    0.43    0.53</time>
   <time name="orth">    0.01    0.01</time>
   <time name="total">    0.56    0.73</time>
   <energy>
    <i name="alphaZ">   1515.66467995 </i>
    <i name="ewald"> -18780.67801811 </i>
    <i name="hartreedc">  -5797.53810968 </i>
    <i name="XCdc">   -484.63644369 </i>
    <i name="pawpsdc">  32939.11027128 </i>
    <i name="pawaedc"> -31206.32991903 </i>
    <i name="eentropy">      0.02065077 </i>
    <i name="bandstr">  -2293.06623399 </i>
    <i name="atom">  23735.67433589 </i>
    <i name="e_fr_energy">   -371.77878661 </i>
    <i name="e_wo_entrp">   -371.79943737 </i>
    <i name="e_0_energy">   -371.78567019 </i>
   </energy>
  </scstep>
  <structure>
   <crystal>
    <varray name="basis" >
     <v>       6.86878998      -0.00239651       0.01439638 </v>
     <v>      -0.00317832      10.15208110       0.01176318 </v>
     <v>       0.02156313       0.01198812      10.23195482 </v>
    </varray>
    <i name="volume">    713.49572263 </i>
    <varray name="rec_basis" >
     <v>       0.14558671       0.00004593      -0.00030687 </v>
     <v>       0.00003461       0.09850212      -0.00011548 </v>
     <v>      -0.00020488      -0.00011331       0.09773360 </v>
    </varray>
   </crystal>
   <varray name="positions" >
    <v>       0.75582879       0.49018562       0.17276763 </v>
    <v>       0.50308665       0.66815287       0.33660409 </v>
    <v>       0.25891759       0.14017223       0.82729579 </v>
    <v>       0.00357541       0.33299691       0.98903270 </v>
    <v>       0.50471039       0.99112840       0.01505798 </v>
    <v>       0.49510986       0.34949917       0.67299365 </v>
    <v>       0.49332841       0.66751493       0.00299821 </v>
    <v>       0.74007373       0.16334168       0.49500969 </v>
    <v>       0.76632481       0.83447449       0.82789684 </v>
    <v>       0.49633403       0.34283234       0.99035914 </v>
    <v>       0.24513122       0.17236821       0.17641056 </v>
    <v>       0.00500366       0.33427925       0.66546030 </v>
    <v>       0.23292526       0.83669284       0.49880362 </v>
    <v>       0.74294463       0.14733635       0.82415835 </v>
    <v>       0.50251491       0.66620906       0.66265486 </v>
    <v>       0.76761734       0.84051835       0.50085435 </v>
    <v>       0.24099700       0.49142690       0.17736576 </v>
    <v>       0.23275736       0.50394219       0.49067616 </v>
    <v>       0.22886429       0.52586375       0.83378682 </v>
    <v>       0.00955394       0.67263173       0.00673392 </v>
    <v>       0.22984594       0.83920308       0.17531632 </v>
    <v>       0.76287702       0.49522421       0.49206907 </v>
    <v>       0.77165499       0.83720341       0.17159168 </v>
    <v>       0.99559348       0.99532044       0.01144222 </v>
    <v>       0.75365518       0.16674309       0.17946238 </v>
    <v>       0.23924191       0.83242318       0.82774564 </v>
    <v>       0.77265859       0.51959556       0.83583630 </v>
    <v>       0.99585863       0.66683007       0.33159162 </v>
    <v>       0.50369401       0.99515438       0.32531632 </v>
    <v>       0.99505942      -0.00072365       0.32919949 </v>
    <v>       0.25416942       0.16262319       0.49067428 </v>
    <v>       0.00502690       0.00748171       0.65740807 </v>
    <v>       0.00015852       0.66239648       0.66361973 </v>
    <v>       0.50034524       0.97603538       0.65696465 </v>
    <v>       0.00276429       0.33623697       0.34315367 </v>
    <v>       0.49179018       0.33668725       0.34168214 </v>
   </varray>
  </structure>
  <varray name="forces" >
   <v>      -0.01787104      -0.01702747      -0.01331911 </v>
   <v>      -0.00126824      -0.00302278       0.00923437 </v>
   <v>       0.00706249      -0.01289012       0.00086904 </v>
   <v>       0.01225623      -0.00707628      -0.00942499 </v>
   <v>      -0.00014298       0.00974872      -0.01088692 </v>
   <v>       0.00271494      -0.01186075       0.00355809 </v>
   <v>      -0.00763818       0.00218871      -0.01680061 </v>
   <v>       0.02963501       0.00102230      -0.01831437 </v>
   <v>       0.02362375      -0.02294950       0.01394015 </v>
   <v>      -0.01067145      -0.00791169      -0.01832690 </v>
   <v>      -0.02554388       0.00041225       0.02681388 </v>
   <v>      -0.00588580      -0.00178024      -0.00669257 </v>
   <v>       0.02010550       0.00406966       0.00424146 </v>
   <v>      -0.00386723      -0.01390318      -0.00077104 </v>
   <v>       0.01300037       0.00570319       0.00772083 </v>
   <v>      -0.00405828      -0.00561755       0.00050117 </v>
   <v>       0.00321328       0.01085815       0.00161585 </v>
   <v>       0.00637207       0.00674331       0.01053602 </v>
   <v>      -0.05471644       0.04541802       0.00152542 </v>
   <v>       0.00277812      -0.02380101      -0.01075159 </v>
   <v>       0.01650921       0.00278649       0.00144042 </v>
   <v>       0.00539031       0.01467803       0.01855267 </v>
   <v>      -0.01871147       0.01085844      -0.00936705 </v>
   <v>       0.00288027       0.00837217       0.00137924 </v>
   <v>       0.00505892       0.00277817       0.00937392 </v>
   <v>      -0.01476629      -0.00829035       0.01024879 </v>
   <v>       0.02983511       0.01307382       0.00506819 </v>
   <v>      -0.00601731      -0.00049573      -0.01938235 </v>
   <v>       0.00243090       0.00721351       0.00183955 </v>
   <v>      -0.00021861       0.00877323      -0.01300242 </v>
   <v>      -0.00705399       0.00561839      -0.00966608 </v>
   <v>       0.00109553       0.00511639      -0.00385009 </v>
   <v>      -0.00222897      -0.02533250       0.01645656 </v>
   <v>       0.00501025       0.00999652       0.01661738 </v>
   <v>       0.00212673      -0.00918130      -0.00816264 </v>
   <v>      -0.01043882      -0.00428902       0.00718571 </v>
  </varray>
  <varray name="stress" >
   <v>      -1.91798012      -0.15665502      -0.21877170 </v>
   <v>      -0.15665500      -1.65760046       0.01309749 </v>
   <v>      -0.21877173       0.01309752      -1.76419924 </v>
  </varray>
  <energy>
   <i name="e_fr_energy">   -371.77878661 </i>
   <i name="e_wo_entrp">   -371.78567019 </i>
   <i name="e_0_energy">      0.02065077 </i>
  </energy>
  <time name="totalsc">    8.70    9.57</time>
 </calculation>
 <calculation>
  <scstep>
   <time name="dav">    0.98    1.00</time>
   <time name="total">    1.05    1.28</time>
   <energy>
    <i name="alphaZ">   1517.46123156 </i>
    <i name="ewald"> -18788.53365958 </i>
    <i name="hartreedc">  -5799.33899139 </i>
    <i name="XCdc">   -484.31975313 </i>
    <i name="pawpsdc">  32939.30019455 </i>
    <i name="pawaedc"> -31206.55328440 </i>
    <i name="eentropy">      0.02068583 </i>
    <i name="bandstr">  -2285.49238593 </i>
    <i name="atom">  23735.67433589 </i>
    <i name="e_fr_energy">   -371.78162662 </i>
    <i name="e_wo_entrp">   -371.80231245 </i>
    <i name="e_0_energy">   -371.78852189 </i>
   </energy>
  </scstep>
  <scstep>
   <time name="diag">    0.07    0.08</time>
   <time name="diis">    0.69    0.70</time>
   <time name="orth">    0.01    0.01</time>
   <time name="total">    0.85    0.88</time>
   <energy>
    <i name="e_fr_energy">   -371.78059581 </i>
    <i name="e_wo_entrp">   -371.80110488 </i>
    <i name="e_0_energy">   -371.78743217 </i>
   </energy>
  </scstep>
  <scstep>
   <time name="diag">    0.07    0.07</time>
   <time name="diis">    0.77    0.78</time>
   <time name="orth">    0.01    0.01</time>
   <time name="total">    0.93    0.97</time>
   <energy>
    <i name="e_fr_energy">   -371.78017942 </i>
    <i name="e_wo_entrp">   -371.80081494 </i>
    <i name="e_0_energy">   -371.78705793 </i>
   </energy>
  </scstep>
  <scstep>
   <time name="diag">    0.10    0.10</time>
   <time name="diis">    0.83    0.84</time>
   <time name="orth">    0.01    0.01</time>
   <time name="total">    1.04    1.09</time>
   <energy>
    <i name="e_fr_energy">   -371.77963361 </i>
    <i name="e_wo_entrp">   -371.80014947 </i>
    <i name="e_0_energy">   -371.78647223 </i>
   </energy>
  </scstep>
  <scstep>
   <time name="diag">    0.08    0.08</time>
   <time name="diis">    0.84    0.85</time>
   <time name="orth">    0.01    0.01</time>
   <time name="total">    0.99    1.05</time>
   <energy>
    <i name="e_fr_energy">   -371.77959651 </i>
    <i name="e_wo_entrp">   -371.80015805 </i>
    <i name="e_0_energy">   -371.78645036 </i>
   </energy>
  </scstep>
  <scstep>
   <time name="diag">    0.07    0.07</time>
   <time name="diis">    0.73    0.74</time>
   <time name="orth">    0.01    0.01</time>
   <time name="total">    0.88    0.94</time>
   <energy>
    <i name="e_fr_energy">   -371.77960760 </i>
    <i name="e_wo_entrp">   -371.80016598 </i>
    <i name="e_0_energy">   -371.78646040 </i>
   </energy>
  </scstep>
  <scstep>
   <time name="diag">    0.11    0.11</time>
   <time name="diis">    0.51    0.52</time>
   <time name="orth">    0.01    0.01</time>
   <time name="total">    0.77    0.83</time>
   <energy>
    <i name="e_fr_energy">   -371.77961824 </i>
    <i name="e_wo_entrp">   -371.80015631 </i>
    <i name="e_0_energy">   -371.78646427 </i>
   </energy>
  </scstep>
  <scstep>
   <time name="diag">    0.09    0.09</time>
   <time name="diis">    0.40    0.41</time>
   <time name="orth">    0.01    0.02</time>
   <time name="total">    0.54    0.59</time>
   <energy>
    <i name="alphaZ">   1517.46123156 </i>
    <i name="ewald"> -18788.53365958 </i>
    <i name="hartreedc">  -5794.78682481 </i>
    <i name="XCdc">   -484.50716663 </i>
    <i name="pawpsdc">  32991.52173102 </i>
    <i name="pawaedc"> -31258.92317771 </i>
    <i name="eentropy">      0.02055026 </i>
    <i name="bandstr">  -2289.70664597 </i>
    <i name="atom">  23735.67433589 </i>
    <i name="e_fr_energy">   -371.77962598 </i>
    <i name="e_wo_entrp">   -371.80017624 </i>
    <i name="e_0_energy">   -371.78647607 </i>
   </energy>
  </scstep>
  <structure>
   <crystal>
    <varray name="basis" >
     <v>       6.86613717      -0.00226788       0.01473279 </v>
     <v>      -0.00298814      10.14785192       0.01188924 </v>
     <v>       0.02206437       0.01211526      10.22805275 </v>
    </varray>
    <i name="volume">    712.65100129 </i>
    <varray name="rec_basis" >
     <v>       0.14564299       0.00004325      -0.00031424 </v>
     <v>       0.00003280       0.09854317      -0.00011680 </v>
     <v>      -0.00020983      -0.00011461       0.09777091 </v>
    </varray>
   </crystal>
   <varray name="positions" >
    <v>       0.75563598       0.49004008       0.17264392 </v>
    <v>       0.50316276       0.66815264       0.33664782 </v>
    <v>       0.25889314       0.14014836       0.82728832 </v>
    <v>       0.00362266       0.33294859       0.98899225 </v>
    <v>       0.50471604       0.99113445       0.01504870 </v>
    <v>       0.49511093       0.34946020       0.67300094 </v>
    <v>       0.49331476       0.66754470       0.00289263 </v>
    <v>       0.74018969       0.16334131       0.49494349 </v>
    <v>       0.76642507       0.83440394       0.82794844 </v>
    <v>       0.49630132       0.34279254       0.99029476 </v>
    <v>       0.24507686       0.17237699       0.17650583 </v>
    <v>       0.00497323       0.33423020       0.66549091 </v>
    <v>       0.23302375       0.83676246       0.49888825 </v>
    <v>       0.74299704       0.14730537       0.82414573 </v>
    <v>       0.50254839       0.66623873       0.66273483 </v>
    <v>       0.76762857       0.84051004       0.50085828 </v>
    <v>       0.24099246       0.49143703       0.17735962 </v>
    <v>       0.23279750       0.50393238       0.49076621 </v>
    <v>       0.22874973       0.52598226       0.83377721 </v>
    <v>       0.00951439       0.67259363       0.00700032 </v>
    <v>       0.22990420       0.83924787       0.17527825 </v>
    <v>       0.76290424       0.49522802       0.49211548 </v>
    <v>       0.77157509       0.83723242       0.17148164 </v>
    <v>       0.99560161       0.99538923       0.01139513 </v>
    <v>       0.75365169       0.16675793       0.17951801 </v>
    <v>       0.23918140       0.83237280       0.82776410 </v>
    <v>       0.77269595       0.51962418       0.83585101 </v>
    <v>       0.99581288       0.66684945       0.33151258 </v>
    <v>       0.50369327       0.99524941       0.32533390 </v>
    <v>       0.99508013      -0.00093944       0.32917218 </v>
    <v>       0.25413108       0.16263803       0.49060250 </v>
    <v>       0.00502272       0.00752625       0.65744022 </v>
    <v>       0.00016963       0.66235213       0.66344903 </v>
    <v>       0.50037586       0.97605237       0.65702159 </v>
    <v>       0.00274874       0.33644654       0.34314059 </v>
    <v>       0.49177024       0.33663891       0.34168933 </v>
   </varray>
  </structure>
  <varray name="forces" >
   <v>      -0.01648631      -0.01258094      -0.00929681 </v>
   <v>      -0.00433045      -0.00219742       0.00749681 </v>
   <v>       0.01048225      -0.01168060       0.00101683 </v>
   <v>       0.01268175      -0.00841587      -0.00688515 </v>
   <v>      -0.00229923       0.01324210      -0.01627058 </v>
   <v>       0.00296340      -0.01347760       0.00482815 </v>
   <v>      -0.00617005       0.00197855      -0.01023476 </v>
   <v>       0.02896045       0.00231761      -0.01396715 </v>
   <v>       0.02001810      -0.02034058       0.01422570 </v>
   <v>      -0.01298712      -0.00797052      -0.01808258 </v>
   <v>      -0.02498767       0.00080732       0.02051910 </v>
   <v>      -0.00468693      -0.00065306      -0.00791210 </v>
   <v>       0.02218170      -0.00067307      -0.00050230 </v>
   <v>      -0.00639573      -0.01169318       0.00018525 </v>
   <v>       0.01375682       0.00478813       0.00389122 </v>
   <v>      -0.00819353      -0.00899174      -0.00003934 </v>
   <v>       0.00640470       0.01429782      -0.00209605 </v>
   <v>       0.00919684       0.00729075       0.01015417 </v>
   <v>      -0.04858519       0.03478945       0.00124395 </v>
   <v>       0.00042472      -0.02280586      -0.02313816 </v>
   <v>       0.02359969      -0.00270704       0.00188259 </v>
   <v>       0.00067798       0.01814788       0.02209519 </v>
   <v>      -0.02508493       0.00766040      -0.00631608 </v>
   <v>       0.00366583       0.00941852       0.00251011 </v>
   <v>       0.00440339       0.00667251       0.00183149 </v>
   <v>      -0.01057177      -0.00431903       0.01224176 </v>
   <v>       0.02442413       0.00463721       0.00491505 </v>
   <v>      -0.00489588      -0.00056892      -0.01570356 </v>
   <v>       0.00195221       0.00289014       0.00321115 </v>
   <v>       0.00117049       0.02178660      -0.00966367 </v>
   <v>      -0.00591928       0.00702169      -0.00378946 </v>
   <v>       0.00082571       0.00118762      -0.00533405 </v>
   <v>      -0.00461606      -0.01789441       0.02127197 </v>
   <v>       0.00681506       0.01347716       0.01698064 </v>
   <v>       0.00057581      -0.02201916      -0.00965060 </v>
   <v>      -0.00897090      -0.00342247       0.00838127 </v>
  </varray>
  <varray name="stress" >
   <v>      -0.38867762      -0.16201967      -0.22028242 </v>
   <v>      -0.16201968      -0.05890552       0.01279232 </v>
   <v>      -0.22028236       0.01279234      -0.21830196 </v>
  </varray>
  <energy>
   <i name="e_fr_energy">   -371.77962598 </i>
   <i name="e_wo_entrp">   -371.78647607 </i>
   <i name="e_0_energy">      0.02055026 </i>
  </energy>
  <time name="totalsc">    8.57    9.41</time>
 </calculation>
 <calculation>
  <scstep>
   <time name="dav">    1.04    1.05</time>
   <time name="total">    1.12    1.34</time>
   <energy>
    <i name="alphaZ">   1518.08244856 </i>
    <i name="ewald"> -18791.24772034 </i>
    <i name="hartreedc">  -5795.43708630 </i>
    <i name="XCdc">   -484.39676500 </i>
    <i name="pawpsdc">  32990.77505244 </i>
    <i name="pawaedc"> -31258.14070477 </i>
    <i name="eentropy">      0.02055936 </i>
    <i name="bandstr">  -2287.10999699 </i>
    <i name="atom">  23735.67433589 </i>
    <i name="e_fr_energy">   -371.77987715 </i>
    <i name="e_wo_entrp">   -371.80043651 </i>
    <i name="e_0_energy">   -371.78673027 </i>
   </energy>
  </scstep>
  <scstep>
   <time name="diag">    0.07    0.07</time>
   <time name="diis">    0.66    0.66</time>
   <time name="orth">    0.01    0.01</time>
   <time name="total">    0.81    0.85</time>
   <energy>
    <i name="e_fr_energy">   -371.77975425 </i>
    <i name="e_wo_entrp">   -371.80025637 </i>
    <i name="e_0_energy">   -371.78658829 </i>
   </energy>
  </scstep>
  <scstep>
   <time name="diag">    0.07    0.07</time>
   <time name="diis">    0.83    0.84</time>
   <time name="orth">    0.01    0.01</time>
   <time name="total">    0.98    1.03</time>
   <energy>
    <i name="e_fr_energy">   -371.77970998 </i>
    <i name="e_wo_entrp">   -371.80024569 </i>
    <i name="e_0_energy">   -371.78655522 </i>
   </energy>
  </scstep>
  <scstep>
   <time name="diag">    0.08    0.08</time>
   <time name="diis">    0.65    0.66</time>
   <time name="orth">    0.01    0.01</time>
   <time name="total">    0.81    0.85</time>
   <energy>
    <i name="e_fr_energy">   -371.77965750 </i>
    <i name="e_wo_entrp">   -371.80015760 </i>
    <i name="e_0_energy">   -371.78649087 </i>
   </energy>
  </scstep>
  <scstep>
   <time name="diag">    0.07    0.07</time>
   <time name="diis">    0.38    0.38</time>
   <time name="orth">    0.01    0.02</time>
   <time name="total">    0.50    0.55</time>
   <energy>
    <i name="alphaZ">   1518.08244856 </i>
    <i name="ewald"> -18791.24772034 </i>
    <i name="hartreedc">  -5793.90279316 </i>
    <i name="XCdc">   -484.46035097 </i>
    <i name="pawpsdc">  33012.19677399 </i>
    <i name="pawaedc"> -31279.55452467 </i>
    <i name="eentropy">      0.02051390 </i>
    <i name="bandstr">  -2288.58834063 </i>
    <i name="atom">  23735.67433589 </i>
    <i name="e_fr_energy">   -371.77965742 </i>
    <i name="e_wo_entrp">   -371.80017132 </i>
    <i name="e_0_energy">   -371.78649539 </i>
   </energy>
  </scstep>
  <structure>
   <crystal>
    <varray name="basis" >
     <v>       6.86522085      -0.00222345       0.01484899 </v>
     <v>      -0.00292245      10.14639110       0.01193279 </v>
     <v>       0.02223751       0.01215918      10.22670491 </v>
    </varray>
    <i name="volume">    712.35937621 </i>
    <varray name="rec_basis" >
     <v>       0.14566244       0.00004233      -0.00031679 </v>
     <v>       0.00003217       0.09855736      -0.00011725 </v>
     <v>      -0.00021154      -0.00011506       0.09778380 </v>
    </varray>
   </crystal>
   <varray name="positions" >
    <v>       0.75556936       0.48998979       0.17260117 </v>
    <v>       0.50318905       0.66815257       0.33666293 </v>
    <v>       0.25888470       0.14014012       0.82728574 </v>
    <v>       0.00363900       0.33293190       0.98897827 </v>
    <v>       0.50471799       0.99113654       0.01504549 </v>
    <v>       0.49511130       0.34944673       0.67300345 </v>
    <v>       0.49331004       0.66755499       0.00285615 </v>
    <v>       0.74022976       0.16334118       0.49492062 </v>
    <v>       0.76645972       0.83437956       0.82796628 </v>
    <v>       0.49629001       0.34277878       0.99027251 </v>
    <v>       0.24505808       0.17238003       0.17653875 </v>
    <v>       0.00496271       0.33421326       0.66550149 </v>
    <v>       0.23305778       0.83678652       0.49891749 </v>
    <v>       0.74301516       0.14729466       0.82414137 </v>
    <v>       0.50255995       0.66624898       0.66276246 </v>
    <v>       0.76763246       0.84050717       0.50085964 </v>
    <v>       0.24099090       0.49144054       0.17735750 </v>
    <v>       0.23281137       0.50392899       0.49079733 </v>
    <v>       0.22871014       0.52602322       0.83377388 </v>
    <v>       0.00950071       0.67258046       0.00709237 </v>
    <v>       0.22992434       0.83926334       0.17526509 </v>
    <v>       0.76291364       0.49522933       0.49213152 </v>
    <v>       0.77154748       0.83724245       0.17144362 </v>
    <v>       0.99560443       0.99541300       0.01137886 </v>
    <v>       0.75365048       0.16676306       0.17953724 </v>
    <v>       0.23916049       0.83235538       0.82777048 </v>
    <v>       0.77270886       0.51963407       0.83585610 </v>
    <v>       0.99579708       0.66685615       0.33148527 </v>
    <v>       0.50369302       0.99528224       0.32533998 </v>
    <v>       0.99508729      -0.00101401       0.32916274 </v>
    <v>       0.25411783       0.16264316       0.49057769 </v>
    <v>       0.00502127       0.00754165       0.65745132 </v>
    <v>       0.00017347       0.66233680       0.66339005 </v>
    <v>       0.50038644       0.97605824       0.65704126 </v>
    <v>       0.00274336       0.33651896       0.34313607 </v>
    <v>       0.49176334       0.33662221       0.34169181 </v>
   </varray>
  </structure>
  <varray name="forces" >
   <v>      -0.01628246      -0.01026378      -0.00857259 </v>
   <v>      -0.00511944      -0.00198801       0.00689427 </v>
   <v>       0.01109084      -0.01045481       0.00169173 </v>
   <v>       0.01284246      -0.00884766      -0.00652610 </v>
   <v>      -0.00281608       0.01435287      -0.01810606 </v>
   <v>       0.00313937      -0.01339065       0.00604343 </v>
   <v>      -0.00574947       0.00156712      -0.00827636 </v>
   <v>       0.02897204       0.00287958      -0.01312797 </v>
   <v>       0.01859623      -0.01951004       0.01470250 </v>
   <v>      -0.01360658      -0.00779013      -0.01721569 </v>
   <v>      -0.02454098       0.00138573       0.01768214 </v>
   <v>      -0.00393349      -0.00075085      -0.00792653 </v>
   <v>       0.02291669      -0.00241566      -0.00264383 </v>
   <v>      -0.00738472      -0.01057509       0.00148104 </v>
   <v>       0.01400954       0.00469233       0.00289262 </v>
   <v>      -0.00969405      -0.01002149      -0.00045220 </v>
   <v>       0.00794421       0.01528871      -0.00402764 </v>
   <v>       0.00971863       0.00722642       0.00933108 </v>
   <v>      -0.04635847       0.03069293       0.00188451 </v>
   <v>      -0.00040708      -0.02274660      -0.02726799 </v>
   <v>       0.02645349      -0.00476793       0.00146102 </v>
   <v>      -0.00044399       0.01914038       0.02287799 </v>
   <v>      -0.02775260       0.00669596      -0.00554562 </v>
   <v>       0.00403237       0.00987108       0.00311603 </v>
   <v>       0.00390144       0.00827299      -0.00149550 </v>
   <v>      -0.00890145      -0.00310362       0.01334573 </v>
   <v>       0.02247994       0.00140133       0.00541260 </v>
   <v>      -0.00463499      -0.00069549      -0.01530341 </v>
   <v>       0.00197965       0.00087630       0.00382235 </v>
   <v>       0.00135167       0.02637583      -0.00837648 </v>
   <v>      -0.00614844       0.00843648      -0.00126918 </v>
   <v>       0.00060435       0.00098621      -0.00595407 </v>
   <v>      -0.00562438      -0.01624285       0.02359201 </v>
   <v>       0.00771857       0.01343968       0.01699115 </v>
   <v>       0.00035491      -0.02701849      -0.00966703 </v>
   <v>      -0.00870774      -0.00299877       0.00853204 </v>
  </varray>
  <varray name="stress" >
   <v>       0.23407965      -0.15729041      -0.22092213 </v>
   <v>      -0.15729037       0.58722621       0.01607917 </v>
   <v>      -0.22092208       0.01607917       0.39894151 </v>
  </varray>
  <energy>
   <i name="e_fr_energy">   -371.77965742 </i>
   <i name="e_wo_entrp">   -371.78649539 </i>
   <i name="e_0_energy">      0.02051390 </i>
  </energy>
  <time name="totalsc">    5.83    6.44</time>
 </calculation>
 <calculation>
  <scstep>
   <time name="dav">    0.91    0.93</time>
   <time name="total">    0.99    1.19</time>
   <energy>
    <i name="alphaZ">   1517.98805531 </i>
    <i name="ewald"> -18790.93750751 </i>
    <i name="hartreedc">  -5793.72403370 </i>
    <i name="XCdc">   -484.47508953 </i>
    <i name="pawpsdc">  33011.01003681 </i>
    <i name="pawaedc"> -31278.34771615 </i>
    <i name="eentropy">      0.02056913 </i>
    <i name="bandstr">  -2288.98871625 </i>
    <i name="atom">  23735.67433589 </i>
    <i name="e_fr_energy">   -371.78006600 </i>
    <i name="e_wo_entrp">   -371.80063514 </i>
    <i name="e_0_energy">   -371.78692238 </i>
   </energy>
  </scstep>
  <scstep>
   <time name="diag">    0.08    0.08</time>
   <time name="diis">    0.76    0.89</time>
   <time name="orth">    0.01    0.01</time>
   <time name="total">    0.92    1.08</time>
   <energy>
    <i name="e_fr_energy">   -371.78013484 </i>
    <i name="e_wo_entrp">   -371.80071109 </i>
    <i name="e_0_energy">   -371.78699359 </i>
[...]
       <r>    6.6472    1.0000 </r>
       <r>    6.7387    1.0000 </r>
       <r>    6.7819    1.0000 </r>
       <r>    6.8113    1.0000 </r>
       <r>    6.8461    1.0000 </r>
       <r>    6.8970    1.0000 </r>
       <r>    6.9437    1.0000 </r>
       <r>    6.9606    1.0001 </r>
       <r>    7.0080    1.0003 </r>
       <r>    7.0689    1.0022 </r>
       <r>    7.0819    1.0031 </r>
       <r>    7.1239    1.0084 </r>
       <r>    7.1469    1.0133 </r>
       <r>    7.1898    1.0257 </r>
       <r>    7.2146    1.0325 </r>
       <r>    7.2629    1.0300 </r>
       <r>    7.2818    1.0162 </r>
       <r>    7.3135    0.9662 </r>
       <r>    7.3431    0.8814 </r>
       <r>    7.3502    0.8553 </r>
       <r>    7.4113    0.5562 </r>
       <r>    7.4464    0.3605 </r>
       <r>    7.4779    0.2043 </r>
       <r>    7.5108    0.0813 </r>
       <r>    7.5442    0.0051 </r>
       <r>    7.5880   -0.0332 </r>
       <r>    7.6112   -0.0352 </r>
       <r>    7.6740   -0.0192 </r>
       <r>    7.6913   -0.0144 </r>
       <r>    7.7127   -0.0096 </r>
       <r>    7.7521   -0.0039 </r>
       <r>    7.7874   -0.0015 </r>
       <r>    7.8202   -0.0006 </r>
       <r>    7.8705   -0.0001 </r>
       <r>    7.9245   -0.0000 </r>
       <r>    7.9504   -0.0000 </r>
       <r>    8.0480   -0.0000 </r>
       <r>    8.0876   -0.0000 </r>
       <r>    8.1532   -0.0000 </r>
       <r>    8.2114   -0.0000 </r>
       <r>    8.2416   -0.0000 </r>
       <r>    8.5047   -0.0000 </r>
       <r>    8.6487   -0.0000 </r>
       <r>    8.7081   -0.0000 </r>
       <r>    9.3358   -0.0000 </r>
       <r>    9.3866   -0.0000 </r>
       <r>    9.4474   -0.0000 </r>
       <r>    9.4923   -0.0000 </r>
       <r>    9.6113   -0.0000 </r>
      </set>
     </set>
    </set>
   </array>
  </eigenvalues>
  <separator name="orbital magnetization" >
   <v name="MAGDIPOLOUT">      0.00000000      0.00000000      0.00000000</v>
  </separator>
  <dos>
   <i name="efermi">      7.42127166 </i>
   <total>
    <array>
     <dimension dim="1">gridpoints</dimension>
     <dimension dim="2">spin</dimension>
     <field>energy</field>
     <field>total</field>
     <field>integrated</field>
     <set>
      <set comment="spin 1">
       <r>   -49.6972     0.0000     0.0000 </r>
       <r>   -49.4901     0.0000     0.0000 </r>
       <r>   -49.2830     0.0000     0.0000 </r>
       <r>   -49.0759     0.0000     0.0000 </r>
       <r>   -48.8688     0.0000     0.0000 </r>
       <r>   -48.6617     0.0000     0.0000 </r>
       <r>   -48.4546     0.0000     0.0000 </r>
       <r>   -48.2475    -0.0000    -0.0000 </r>
       <r>   -48.0403    -0.0000    -0.0000 </r>
       <r>   -47.8332    -0.0000    -0.0000 </r>
       <r>   -47.6261    -0.0000    -0.0000 </r>
       <r>   -47.4190    -0.0000    -0.0000 </r>
       <r>   -47.2119    -0.0373    -0.0077 </r>
       <r>   -47.0048    -0.5032    -0.1120 </r>
       <r>   -46.7977    14.2493     2.8392 </r>
       <r>   -46.5906    45.6959    12.3032 </r>
       <r>   -46.3835    19.0912    16.2572 </r>
       <r>   -46.1764    -1.2295    16.0026 </r>
       <r>   -45.9693    -0.0124    16.0000 </r>
       <r>   -45.7621    -0.0000    16.0000 </r>
       <r>   -45.5550    -0.0000    16.0000 </r>
       <r>   -45.3479     0.0000    16.0000 </r>
       <r>   -45.1408     0.0000    16.0000 </r>
       <r>   -44.9337     0.0000    16.0000 </r>
       <r>   -44.7266     0.0000    16.0000 </r>
       <r>   -44.5195     0.0000    16.0000 </r>
       <r>   -44.3124     0.0000    16.0000 </r>
       <r>   -44.1053     0.0000    16.0000 </r>
       <r>   -43.8982     0.0000    16.0000 </r>
       <r>   -43.6911     0.0000    16.0000 </r>
       <r>   -43.4839     0.0000    16.0000 </r>
       <r>   -43.2768     0.0000    16.0000 </r>
       <r>   -43.0697     0.0000    16.0000 </r>
       <r>   -42.8626     0.0000    16.0000 </r>
       <r>   -42.6555     0.0000    16.0000 </r>
       <r>   -42.4484     0.0000    16.0000 </r>
       <r>   -42.2413     0.0000    16.0000 </r>
       <r>   -42.0342    -0.0000    16.0000 </r>
       <r>   -41.8271    -0.0000    16.0000 </r>
       <r>   -41.6200    -0.0000    16.0000 </r>
       <r>   -41.4129    -0.0000    16.0000 </r>
       <r>   -41.2057    -0.0067    15.9986 </r>
       <r>   -40.9986    -0.6694    15.8600 </r>
       <r>   -40.7915     8.7157    17.6651 </r>
       <r>   -40.5844    53.7384    28.7948 </r>
       <r>   -40.3773     6.4014    30.1206 </r>
       <r>   -40.1702    -0.5808    30.0003 </r>
       <r>   -39.9631    -0.0014    30.0000 </r>
       <r>   -39.7560    -0.0000    30.0000 </r>
       <r>   -39.5489    -0.0000    30.0000 </r>
       <r>   -39.3418     0.0000    30.0000 </r>
       <r>   -39.1347     0.0000    30.0000 </r>
       <r>   -38.9275     0.0000    30.0000 </r>
       <r>   -38.7204     0.0000    30.0000 </r>
       <r>   -38.5133     0.0000    30.0000 </r>
       <r>   -38.3062     0.0000    30.0000 </r>
       <r>   -38.0991     0.0000    30.0000 </r>
       <r>   -37.8920     0.0000    30.0000 </r>
       <r>   -37.6849     0.0000    30.0000 </r>
       <r>   -37.4778     0.0000    30.0000 </r>
       <r>   -37.2707     0.0000    30.0000 </r>
       <r>   -37.0636     0.0000    30.0000 </r>
       <r>   -36.8565     0.0000    30.0000 </r>
       <r>   -36.6493     0.0000    30.0000 </r>
       <r>   -36.4422     0.0000    30.0000 </r>
       <r>   -36.2351     0.0000    30.0000 </r>
       <r>   -36.0280     0.0000    30.0000 </r>
       <r>   -35.8209     0.0000    30.0000 </r>
       <r>   -35.6138     0.0000    30.0000 </r>
       <r>   -35.4067     0.0000    30.0000 </r>
       <r>   -35.1996     0.0000    30.0000 </r>
       <r>   -34.9925     0.0000    30.0000 </r>
       <r>   -34.7854     0.0000    30.0000 </r>
       <r>   -34.5783     0.0000    30.0000 </r>
       <r>   -34.3711     0.0000    30.0000 </r>
       <r>   -34.1640     0.0000    30.0000 </r>
       <r>   -33.9569     0.0000    30.0000 </r>
       <r>   -33.7498     0.0000    30.0000 </r>
       <r>   -33.5427     0.0000    30.0000 </r>
       <r>   -33.3356     0.0000    30.0000 </r>
       <r>   -33.1285     0.0000    30.0000 </r>
       <r>   -32.9214     0.0000    30.0000 </r>
       <r>   -32.7143     0.0000    30.0000 </r>
       <r>   -32.5072     0.0000    30.0000 </r>
       <r>   -32.3001     0.0000    30.0000 </r>
       <r>   -32.0929     0.0000    30.0000 </r>
       <r>   -31.8858     0.0000    30.0000 </r>
       <r>   -31.6787     0.0000    30.0000 </r>
       <r>   -31.4716     0.0000    30.0000 </r>
       <r>   -31.2645     0.0000    30.0000 </r>
       <r>   -31.0574     0.0000    30.0000 </r>
       <r>   -30.8503     0.0000    30.0000 </r>
       <r>   -30.6432     0.0000    30.0000 </r>
       <r>   -30.4361     0.0000    30.0000 </r>
       <r>   -30.2290     0.0000    30.0000 </r>
       <r>   -30.0219     0.0000    30.0000 </r>
       <r>   -29.8147     0.0000    30.0000 </r>
       <r>   -29.6076     0.0000    30.0000 </r>
       <r>   -29.4005     0.0000    30.0000 </r>
       <r>   -29.1934     0.0000    30.0000 </r>
       <r>   -28.9863     0.0000    30.0000 </r>
       <r>   -28.7792     0.0000    30.0000 </r>
       <r>   -28.5721     0.0000    30.0000 </r>
       <r>   -28.3650     0.0000    30.0000 </r>
       <r>   -28.1579     0.0000    30.0000 </r>
       <r>   -27.9508     0.0000    30.0000 </r>
       <r>   -27.7437     0.0000    30.0000 </r>
       <r>   -27.5365     0.0000    30.0000 </r>
       <r>   -27.3294     0.0000    30.0000 </r>
       <r>   -27.1223     0.0000    30.0000 </r>
       <r>   -26.9152     0.0000    30.0000 </r>
       <r>   -26.7081     0.0000    30.0000 </r>
       <r>   -26.5010     0.0000    30.0000 </r>
       <r>   -26.2939     0.0000    30.0000 </r>
       <r>   -26.0868     0.0000    30.0000 </r>
       <r>   -25.8797     0.0000    30.0000 </r>
       <r>   -25.6726     0.0000    30.0000 </r>
       <r>   -25.4655     0.0000    30.0000 </r>
       <r>   -25.2583     0.0000    30.0000 </r>
       <r>   -25.0512     0.0000    30.0000 </r>
       <r>   -24.8441     0.0000    30.0000 </r>
       <r>   -24.6370    -0.0000    30.0000 </r>
       <r>   -24.4299    -0.0000    30.0000 </r>
       <r>   -24.2228    -0.0000    30.0000 </r>
       <r>   -24.0157    -0.0000    30.0000 </r>
       <r>   -23.8086    -0.0000    30.0000 </r>
       <r>   -23.6015    -0.0158    29.9967 </r>
       <r>   -23.3944    -0.6941    29.8530 </r>
       <r>   -23.1873    12.8653    32.5175 </r>
       <r>   -22.9801    21.5908    36.9892 </r>
       <r>   -22.7730    96.1564    56.9040 </r>
       <r>   -22.5659    94.1255    76.3983 </r>
       <r>   -22.3588     8.3859    78.1351 </r>
       <r>   -22.1517    -0.6324    78.0041 </r>
       <r>   -21.9446    -0.0197    78.0000 </r>
       <r>   -21.7375    -0.0000    78.0000 </r>
       <r>   -21.5304    -0.0000    78.0000 </r>
       <r>   -21.3233     0.0000    78.0000 </r>
       <r>   -21.1162     0.0000    78.0000 </r>
       <r>   -20.9091     0.0000    78.0000 </r>
       <r>   -20.7019     0.0000    78.0000 </r>
       <r>   -20.4948    -0.0000    78.0000 </r>
       <r>   -20.2877    -0.0000    78.0000 </r>
       <r>   -20.0806    -0.0000    78.0000 </r>
       <r>   -19.8735    -0.0000    78.0000 </r>
       <r>   -19.6664    -0.0002    78.0000 </r>
       <r>   -19.4593    -0.1139    77.9764 </r>
       <r>   -19.2522     0.4094    78.0612 </r>
       <r>   -19.0451    19.3289    82.0644 </r>
       <r>   -18.8380    65.2202    95.5721 </r>
       <r>   -18.6309    88.3320   113.8664 </r>
       <r>   -18.4237    28.0629   119.6785 </r>
       <r>   -18.2166     1.7869   120.0486 </r>
       <r>   -18.0095    -0.2340   120.0001 </r>
       <r>   -17.8024    -0.0006   120.0000 </r>
       <r>   -17.5953    -0.0000   120.0000 </r>
       <r>   -17.3882    -0.0000   120.0000 </r>
       <r>   -17.1811     0.0000   120.0000 </r>
       <r>   -16.9740     0.0000   120.0000 </r>
       <r>   -16.7669     0.0000   120.0000 </r>
       <r>   -16.5598     0.0000   120.0000 </r>
       <r>   -16.3527     0.0000   120.0000 </r>
       <r>   -16.1455     0.0000   120.0000 </r>
       <r>   -15.9384     0.0000   120.0000 </r>
       <r>   -15.7313     0.0000   120.0000 </r>
       <r>   -15.5242     0.0000   120.0000 </r>
       <r>   -15.3171     0.0000   120.0000 </r>
       <r>   -15.1100     0.0000   120.0000 </r>
       <r>   -14.9029     0.0000   120.0000 </r>
       <r>   -14.6958     0.0000   120.0000 </r>
       <r>   -14.4887     0.0000   120.0000 </r>
       <r>   -14.2816     0.0000   120.0000 </r>
       <r>   -14.0745     0.0000   120.0000 </r>
       <r>   -13.8673     0.0000   120.0000 </r>
       <r>   -13.6602     0.0000   120.0000 </r>
       <r>   -13.4531     0.0000   120.0000 </r>
       <r>   -13.2460     0.0000   120.0000 </r>
       <r>   -13.0389     0.0000   120.0000 </r>
       <r>   -12.8318     0.0000   120.0000 </r>
       <r>   -12.6247     0.0000   120.0000 </r>
       <r>   -12.4176     0.0000   120.0000 </r>
       <r>   -12.2105     0.0000   120.0000 </r>
       <r>   -12.0034     0.0000   120.0000 </r>
       <r>   -11.7963     0.0000   120.0000 </r>
       <r>   -11.5891     0.0000   120.0000 </r>
       <r>   -11.3820     0.0000   120.0000 </r>
       <r>   -11.1749     0.0000   120.0000 </r>
       <r>   -10.9678     0.0000   120.0000 </r>
       <r>   -10.7607     0.0000   120.0000 </r>
       <r>   -10.5536     0.0000   120.0000 </r>
       <r>   -10.3465     0.0000   120.0000 </r>
       <r>   -10.1394     0.0000   120.0000 </r>
       <r>    -9.9323     0.0000   120.0000 </r>
       <r>    -9.7252     0.0000   120.0000 </r>
       <r>    -9.5181     0.0000   120.0000 </r>
       <r>    -9.3109     0.0000   120.0000 </r>
       <r>    -9.1038     0.0000   120.0000 </r>
       <r>    -8.8967     0.0000   120.0000 </r>
       <r>    -8.6896     0.0000   120.0000 </r>
       <r>    -8.4825     0.0000   120.0000 </r>
       <r>    -8.2754     0.0000   120.0000 </r>
       <r>    -8.0683     0.0000   120.0000 </r>
       <r>    -7.8612     0.0000   120.0000 </r>
       <r>    -7.6541     0.0000   120.0000 </r>
       <r>    -7.4470     0.0000   120.0000 </r>
       <r>    -7.2399     0.0000   120.0000 </r>
       <r>    -7.0327     0.0000   120.0000 </r>
       <r>    -6.8256     0.0000   120.0000 </r>
       <r>    -6.6185     0.0000   120.0000 </r>
       <r>    -6.4114     0.0000   120.0000 </r>
       <r>    -6.2043     0.0000   120.0000 </r>
       <r>    -5.9972     0.0000   120.0000 </r>
       <r>    -5.7901     0.0000   120.0000 </r>
       <r>    -5.5830     0.0000   120.0000 </r>
       <r>    -5.3759     0.0000   120.0000 </r>
       <r>    -5.1688     0.0000   120.0000 </r>
       <r>    -4.9617     0.0000   120.0000 </r>
       <r>    -4.7545     0.0000   120.0000 </r>
       <r>    -4.5474     0.0000   120.0000 </r>
       <r>    -4.3403     0.0000   120.0000 </r>
       <r>    -4.1332     0.0000   120.0000 </r>
       <r>    -3.9261     0.0000   120.0000 </r>
       <r>    -3.7190     0.0000   120.0000 </r>
       <r>    -3.5119     0.0000   120.0000 </r>
       <r>    -3.3048     0.0000   120.0000 </r>
       <r>    -3.0977     0.0000   120.0000 </r>
       <r>    -2.8906     0.0000   120.0000 </r>
       <r>    -2.6835     0.0000   120.0000 </r>
       <r>    -2.4763     0.0000   120.0000 </r>
       <r>    -2.2692     0.0000   120.0000 </r>
       <r>    -2.0621     0.0000   120.0000 </r>
       <r>    -1.8550     0.0000   120.0000 </r>
       <r>    -1.6479     0.0000   120.0000 </r>
       <r>    -1.4408     0.0000   120.0000 </r>
       <r>    -1.2337     0.0000   120.0000 </r>
       <r>    -1.0266     0.0000   120.0000 </r>
       <r>    -0.8195    -0.0000   120.0000 </r>
       <r>    -0.6124    -0.0000   120.0000 </r>
       <r>    -0.4053    -0.0000   120.0000 </r>
       <r>    -0.1981    -0.0000   120.0000 </r>
       <r>     0.0090    -0.0000   120.0000 </r>
       <r>     0.2161    -0.0021   119.9996 </r>
       <r>     0.4232     0.0106   120.0018 </r>
       <r>     0.6303     0.3241   120.0689 </r>
       <r>     0.8374     1.2348   120.3246 </r>
       <r>     1.0445     1.7108   120.6789 </r>
       <r>     1.2516     2.1172   121.1174 </r>
       <r>     1.4587     3.6270   121.8686 </r>
       <r>     1.6658     3.3388   122.5601 </r>
       <r>     1.8729     2.4316   123.0637 </r>
       <r>     2.0801     4.6482   124.0264 </r>
       <r>     2.2872     3.3199   124.7140 </r>
       <r>     2.4943     3.0406   125.3437 </r>
       <r>     2.7014     7.9772   126.9959 </r>
       <r>     2.9085     8.5120   128.7588 </r>
       <r>     3.1156     7.9504   130.4054 </r>
       <r>     3.3227     7.5044   131.9596 </r>
       <r>     3.5298    12.2532   134.4973 </r>
       <r>     3.7369    17.7465   138.1728 </r>
       <r>     3.9440    22.5331   142.8396 </r>
       <r>     4.1511    23.7955   147.7679 </r>
       <r>     4.3583    27.3353   153.4293 </r>
       <r>     4.5654    31.2709   159.9058 </r>
       <r>     4.7725    35.2834   167.2133 </r>
       <r>     4.9796    37.7126   175.0239 </r>
       <r>     5.1867    37.4839   182.7872 </r>
       <r>     5.3938    34.2095   189.8723 </r>
       <r>     5.6009    33.9571   196.9051 </r>
       <r>     5.8080    16.7927   200.3830 </r>
       <r>     6.0151    26.0127   205.7705 </r>
       <r>     6.2222    63.8047   218.9850 </r>
       <r>     6.4293    63.5941   232.1559 </r>
       <r>     6.6365    53.5117   243.2387 </r>
       <r>     6.8436    50.8138   253.7627 </r>
       <r>     7.0507    53.9504   264.9363 </r>
       <r>     7.2578    56.6705   276.6733 </r>
       <r>     7.4649    49.6648   286.9593 </r>
       <r>     7.6720    47.1820   296.7311 </r>
       <r>     7.8791    51.5581   307.4093 </r>
       <r>     8.0862    36.7326   315.0169 </r>
       <r>     8.2933    29.5463   321.1362 </r>
       <r>     8.5004    20.2764   325.3357 </r>
       <r>     8.7075    19.4116   329.3560 </r>
       <r>     8.9147    11.6834   331.7757 </r>
       <r>     9.1218    15.9468   335.0785 </r>
       <r>     9.3289    23.4074   339.9264 </r>
       <r>     9.5360    16.4322   343.3296 </r>
       <r>     9.7431     3.4750   344.0493 </r>
       <r>     9.9502    -0.2343   344.0008 </r>
       <r>    10.1573    -0.0038   344.0000 </r>
       <r>    10.3644    -0.0000   344.0000 </r>
       <r>    10.5715    -0.0000   344.0000 </r>
       <r>    10.7786     0.0000   344.0000 </r>
       <r>    10.9857     0.0000   344.0000 </r>
       <r>    11.1929     0.0000   344.0000 </r>
       <r>    11.4000     0.0000   344.0000 </r>
       <r>    11.6071     0.0000   344.0000 </r>
       <r>    11.8142     0.0000   344.0000 </r>
       <r>    12.0213     0.0000   344.0000 </r>
       <r>    12.2284     0.0000   344.0000 </r>
       <r>    12.4355     0.0000   344.0000 </r>
      </set>
     </set>
    </array>
   </total>
  </dos>
 </calculation>
 <structure name="finalpos" >
  <crystal>
   <varray name="basis" >
    <v>       6.86458879      -0.00534001       0.01408044 </v>
    <v>      -0.00753019      10.15282986       0.01267685 </v>
    <v>       0.02107813       0.01290253      10.23031858 </v>
   </varray>
   <i name="volume">    712.99752386 </i>
   <varray name="rec_basis" >
    <v>       0.14567585       0.00010842      -0.00030028 </v>
    <v>       0.00007687       0.09849492      -0.00012438 </v>
    <v>      -0.00020060      -0.00012220       0.09774923 </v>
   </varray>
  </crystal>
  <varray name="positions" >
   <v>       0.75366229       0.48903711       0.17224206 </v>
   <v>       0.50353868       0.66813284       0.33681619 </v>
   <v>       0.25942609       0.13917509       0.82639174 </v>
   <v>       0.00489511       0.33228023       0.98899887 </v>
   <v>       0.50428887       0.99180033       0.01467980 </v>
   <v>       0.49510578       0.34905880       0.67294617 </v>
   <v>       0.49288550       0.66741778       0.00249160 </v>
   <v>       0.74145253       0.16329255       0.49452079 </v>
   <v>       0.76749691       0.83432727       0.82879323 </v>
   <v>       0.49437013       0.34247832       0.98936853 </v>
   <v>       0.24434585       0.17254831       0.17734732 </v>
   <v>       0.00524705       0.33400011       0.66531543 </v>
   <v>       0.23436193       0.83681919       0.49862626 </v>
   <v>       0.74337467       0.14711633       0.82418115 </v>
   <v>       0.50316652       0.66653041       0.66337476 </v>
   <v>       0.76759376       0.84033241       0.50074941 </v>
   <v>       0.24132636       0.49183140       0.17743971 </v>
   <v>       0.23273948       0.50440708       0.49122042 </v>
   <v>       0.22677532       0.52658170       0.83338272 </v>
   <v>       0.00897699       0.67233504       0.00753897 </v>
   <v>       0.23096038       0.83922967       0.17541374 </v>
   <v>       0.76324407       0.49578145       0.49273546 </v>
   <v>       0.77022917       0.83754404       0.17089794 </v>
   <v>       0.99589293       0.99578381       0.01186826 </v>
   <v>       0.75395242       0.16722210       0.17941872 </v>
   <v>       0.23871320       0.83226822       0.82802128 </v>
   <v>       0.77332852       0.51870618       0.83612637 </v>
   <v>       0.99530616       0.66708879       0.33099991 </v>
   <v>       0.50402293       0.99564172       0.32511105 </v>
   <v>       0.99511431      -0.00109927       0.32884407 </v>
   <v>       0.25392278       0.16311641       0.49049876 </v>
   <v>       0.00515210       0.00721298       0.65691740 </v>
   <v>      -0.00033069       0.66258555       0.66334768 </v>
   <v>       0.50157981       0.97558185       0.65756616 </v>
   <v>       0.00254879       0.33695544       0.34307486 </v>
   <v>       0.49132626       0.33688075       0.34272720 </v>
  </varray>
 </structure>
</modeling>
