 vasp.5.4.1 05Feb16 (build Jan 29 2020 16:04:39) complex                        
  
 executed on           IFC91_ompi date 2020.06.15  02:26:19
 running on  160 total cores
 distrk:  each k-point on   20 cores,    8 groups
 distr:  one band on NCORES_PER_BAND=   5 cores,    4 groups


--------------------------------------------------------------------------------------------------------


 INCAR:
 POTCAR:    PAW_PBE Ta 17Jan2003                  
 POTCAR:    PAW_PBE Hf 20Jan2003                  
 POTCAR:    PAW_PBE Zr_sv 04Jan2005               
 POTCAR:    PAW_PBE Nb_sv 25May2007               

 ----------------------------------------------------------------------------- 
|                                                                             |
|           W    W    AA    RRRRR   N    N  II  N    N   GGGG   !!!           |
|           W    W   A  A   R    R  NN   N  II  NN   N  G    G  !!!           |
|           W    W  A    A  R    R  N N  N  II  N N  N  G       !!!           |
|           W WW W  AAAAAA  RRRRR   N  N N  II  N  N N  G  GGG   !            |
|           WW  WW  A    A  R   R   N   NN  II  N   NN  G    G                |
|           W    W  A    A  R    R  N    N  II  N    N   GGGG   !!!           |
|                                                                             |
|      For optimal performance we recommend to set                            |
|        NCORE= 4 - approx SQRT( number of cores)                             |
|      NCORE specifies how many cores store one orbital (NPAR=cpu/NCORE).     |
|      This setting can  greatly improve the performance of VASP for DFT.     |
|      The default, NPAR=number of cores might be grossly inefficient         |
|      on modern multi-core architectures or massively parallel machines.     |
|      Do your own testing !!!!                                               |
|      Unfortunately you need to use the default for GW and RPA calculations. |
|      (for HF NCORE is supported but not extensively tested yet)             |
|                                                                             |
 ----------------------------------------------------------------------------- 


 ----------------------------------------------------------------------------- 
|                                                                             |
|           W    W    AA    RRRRR   N    N  II  N    N   GGGG   !!!           |
|           W    W   A  A   R    R  NN   N  II  NN   N  G    G  !!!           |
|           W    W  A    A  R    R  N N  N  II  N N  N  G       !!!           |
|           W WW W  AAAAAA  RRRRR   N  N N  II  N  N N  G  GGG   !            |
|           WW  WW  A    A  R   R   N   NN  II  N   NN  G    G                |
|           W    W  A    A  R    R  N    N  II  N    N   GGGG   !!!           |
|                                                                             |
|      You have enabled k-point parallelism (KPAR>1).                         |
|      This developmental code was originally  written by Paul Kent at ORNL,  |
|      and carefully double checked in Vienna.                                |
|      GW as well as linear response parallelism added by Martijn Marsman     |
|      and Georg Kresse.                                                      |
|      Carefully verify results versus KPAR=1.                                |
|      Report problems to Paul Kent and Vienna.                               |
|                                                                             |
 ----------------------------------------------------------------------------- 

 POTCAR:    PAW_PBE Ta 17Jan2003                  
   VRHFIN =Ta:  6s5d                                                            
   LEXCH  = PE                                                                  
   EATOM  =   130.6506 eV,    9.6025 Ry                                         
                                                                                
   TITEL  = PAW_PBE Ta 17Jan2003                                                
   LULTRA =        F    use ultrasoft PP ?                                      
   IUNSCR =        1    unscreen: 0-lin 1-nonlin 2-no                           
   RPACOR =    2.330    partial core radius                                     
   POMASS =  180.948; ZVAL   =    5.000    mass and valenz                      
   RCORE  =    2.900    outmost cutoff radius                                   
   RWIGS  =    2.840; RWIGS  =    1.503    wigner-seitz radius (au A)           
   ENMAX  =  223.667; ENMIN  =  167.750 eV                                      
   RCLOC  =    2.205    cutoff for local pot                                    
   LCOR   =        T    correct aug charges                                     
   LPAW   =        T    paw PP                                                  
   EAUG   =  332.075                                                            
   DEXC   =    0.000                                                            
   RMAX   =    2.970    core radius for proj-oper                               
   RAUG   =    1.300    factor for augmentation sphere                          
   RDEP   =    3.060    radius for radial grids                                 
   RDEPT  =    2.354    core radius for aug-charge                              
                                                                                
   Atomic configuration                                                         
   16 entries                                                                   
     n  l   j            E        occ.                                          
     1  0  0.50    -67341.2807   2.0000                                         
     2  0  0.50    -11566.9376   2.0000                                         
     2  1  1.50    -10134.1182   6.0000                                         
     3  0  0.50     -2648.5620   2.0000                                         
     3  1  1.50     -2222.6012   6.0000                                         
     3  2  2.50     -1726.3120  10.0000                                         
     4  0  0.50      -538.6961   2.0000                                         
     4  1  1.50      -399.0129   6.0000                                         
     4  2  2.50      -220.3959  10.0000                                         
     4  3  3.50       -23.0374  14.0000                                         
     5  0  0.50       -71.2901   2.0000                                         
     5  1  1.50       -37.8225   6.0000                                         
     5  2  2.50        -2.6455   4.0000                                         
     6  0  0.50        -4.9623   1.0000                                         
     6  1  1.50        -1.3606   0.0000                                         
     5  3  2.50        -1.3606   0.0000                                         
   Description                                                                  
     l       E           TYP  RCUT    TYP  RCUT                                 
     2     -2.6455043     23  2.500                                             
     2     -0.6258895     23  2.500                                             
     0     -4.9622780     23  2.500                                             
     0      4.7531321     23  2.500                                             
     1     -1.3605826     23  2.900                                             
     1     27.2116520     23  2.900                                             
  local pseudopotential read in
  partial core-charges read in
  partial kinetic energy density read in
  atomic valenz-charges read in
  non local Contribution for L=           2  read in
    real space projection operators read in
  non local Contribution for L=           2  read in
    real space projection operators read in
  non local Contribution for L=           0  read in
    real space projection operators read in
  non local Contribution for L=           0  read in
    real space projection operators read in
  non local Contribution for L=           1  read in
    real space projection operators read in
  non local Contribution for L=           1  read in
    real space projection operators read in
    PAW grid and wavefunctions read in
 
   number of l-projection  operators is LMAX  =           6
   number of lm-projection operators is LMMAX =          18
 
 POTCAR:    PAW_PBE Hf 20Jan2003                  
   VRHFIN =Hf: 6s5d                                                             
   LEXCH  = PE                                                                  
   EATOM  =    75.9011 eV,    5.5786 Ry                                         
                                                                                
   TITEL  = PAW_PBE Hf 20Jan2003                                                
   LULTRA =        F    use ultrasoft PP ?                                      
   IUNSCR =        1    unscreen: 0-lin 1-nonlin 2-no                           
   RPACOR =    2.500    partial core radius                                     
   POMASS =  178.490; ZVAL   =    4.000    mass and valenz                      
   RCORE  =    3.000    outmost cutoff radius                                   
   RWIGS  =    3.050; RWIGS  =    1.614    wigner-seitz radius (au A)           
   ENMAX  =  220.334; ENMIN  =  165.250 eV                                      
   RCLOC  =    2.212    cutoff for local pot                                    
   LCOR   =        T    correct aug charges                                     
   LPAW   =        T    paw PP                                                  
   EAUG   =  335.116                                                            
   DEXC   =    0.000                                                            
   RMAX   =    3.077    core radius for proj-oper                               
   RAUG   =    1.300    factor for augmentation sphere                          
   RDEP   =    3.047    radius for radial grids                                 
   RDEPT  =    2.344    core radius for aug-charge                              
                                                                                
   Atomic configuration                                                         
   16 entries                                                                   
     n  l   j            E        occ.                                          
     1  0  0.50    -65259.4397   2.0000                                         
     2  0  0.50    -11157.9882   2.0000                                         
     2  1  1.50     -9795.2113   6.0000                                         
     3  0  0.50     -2541.4058   2.0000                                         
     3  1  1.50     -2134.4770   6.0000                                         
     3  2  2.50     -1653.5418  10.0000                                         
     4  0  0.50      -510.9575   2.0000                                         
     4  1  1.50      -377.5023   6.0000                                         
     4  2  2.50      -205.2085  10.0000                                         
     4  3  3.50       -15.4905  14.0000                                         
     5  0  0.50       -65.6020   2.0000                                         
     5  1  1.50       -34.2798   6.0000                                         
     5  2  2.50        -1.9877   3.0000                                         
     6  0  0.50        -4.7357   1.0000                                         
     6  1  1.50        -1.3606   0.0000                                         
     5  3  2.50        -1.3606   0.0000                                         
   Description                                                                  
     l       E           TYP  RCUT    TYP  RCUT                                 
     2     -1.9876627     23  2.500                                             
     2      0.0744703     23  2.500                                             
     0     -4.7356889     23  2.600                                             
     0      3.2364747     23  2.600                                             
     1     -1.3605826     23  3.000                                             
     1     27.2116520     23  3.000                                             
  local pseudopotential read in
  partial core-charges read in
  partial kinetic energy density read in
  atomic valenz-charges read in
  non local Contribution for L=           2  read in
    real space projection operators read in
  non local Contribution for L=           2  read in
    real space projection operators read in
  non local Contribution for L=           0  read in
    real space projection operators read in
  non local Contribution for L=           0  read in
    real space projection operators read in
  non local Contribution for L=           1  read in
    real space projection operators read in
  non local Contribution for L=           1  read in
    real space projection operators read in
    PAW grid and wavefunctions read in
 
   number of l-projection  operators is LMAX  =           6
   number of lm-projection operators is LMMAX =          18
 
 POTCAR:    PAW_PBE Zr_sv 04Jan2005               
   VRHFIN =Zr: 4s4p5s4d                                                         
   LEXCH  = PE                                                                  
   EATOM  =  1284.2219 eV,   94.3876 Ry                                         
                                                                                
   TITEL  = PAW_PBE Zr_sv 04Jan2005                                             
   LULTRA =        F    use ultrasoft PP ?                                      
   IUNSCR =        1    unscreen: 0-lin 1-nonlin 2-no                           
   RPACOR =    2.200    partial core radius                                     
   POMASS =   91.224; ZVAL   =   12.000    mass and valenz                      
   RCORE  =    2.500    outmost cutoff radius                                   
   RWIGS  =    3.070; RWIGS  =    1.625    wigner-seitz radius (au A)           
   ENMAX  =  229.898; ENMIN  =  172.424 eV                                      
   ICORE  =        3    local potential                                         
   LCOR   =        T    correct aug charges                                     
   LPAW   =        T    paw PP                                                  
   EAUG   =  461.257                                                            
   DEXC   =    0.000                                                            
   RMAX   =    2.561    core radius for proj-oper                               
   RAUG   =    1.300    factor for augmentation sphere                          
   RDEP   =    2.597    radius for radial grids                                 
   RDEPT  =    2.007    core radius for aug-charge                              
                                                                                
   Atomic configuration                                                         
   11 entries                                                                   
     n  l   j            E        occ.                                          
     1  0  0.50    -17820.0161   2.0000                                         
     2  0  0.50     -2467.0882   2.0000                                         
     2  1  1.50     -2199.6095   6.0000                                         
     3  0  0.50      -402.4863   2.0000                                         
     3  1  1.50      -315.3675   6.0000                                         
     3  2  2.50      -172.4472  10.0000                                         
     4  0  0.50       -52.4146   2.0000                                         
     5  0  0.50        -3.8421   1.0000                                         
     4  1  1.50       -30.5054   6.0000                                         
     4  2  2.50        -2.3341   3.0000                                         
     4  3  2.50        -1.3606   0.0000                                         
   Description                                                                  
     l       E           TYP  RCUT    TYP  RCUT                                 
     0    -52.4145962     23  2.200                                             
     0     -3.8421270     23  2.500                                             
     1    -30.5053914     23  2.200                                             
     1     20.4087390     23  2.200                                             
     2     -2.3340816     23  2.500                                             
     2     -0.6120942     23  2.500                                             
     3     -4.0817478     23  2.500                                             
  local pseudopotential read in
  partial core-charges read in
  partial kinetic energy density read in
  atomic valenz-charges read in
  non local Contribution for L=           0  read in
    real space projection operators read in
  non local Contribution for L=           0  read in
    real space projection operators read in
  non local Contribution for L=           1  read in
    real space projection operators read in
  non local Contribution for L=           1  read in
    real space projection operators read in
  non local Contribution for L=           2  read in
    real space projection operators read in
  non local Contribution for L=           2  read in
    real space projection operators read in
    PAW grid and wavefunctions read in
 
   number of l-projection  operators is LMAX  =           6
   number of lm-projection operators is LMMAX =          18
 
 POTCAR:    PAW_PBE Nb_sv 25May2007               
   VRHFIN =Nb: 4p5s4d                                                           
   LEXCH  = PE                                                                  
   EATOM  =  1555.1913 eV,  114.3033 Ry                                         
                                                                                
   TITEL  = PAW_PBE Nb_sv 25May2007                                             
   LULTRA =        F    use ultrasoft PP ?                                      
   IUNSCR =        1    unscreen: 0-lin 1-nonlin 2-no                           
   RPACOR =    1.800    partial core radius                                     
   POMASS =   92.910; ZVAL   =   13.000    mass and valenz                      
   RCORE  =    2.400    outmost cutoff radius                                   
   RWIGS  =    2.400; RWIGS  =    1.270    wigner-seitz radius (au A)           
   ENMAX  =  293.235; ENMIN  =  219.927 eV                                      
   ICORE  =        3    local potential                                         
   LCOR   =        T    correct aug charges                                     
   LPAW   =        T    paw PP                                                  
   EAUG   =  455.659                                                            
   DEXC   =    0.000                                                            
   RMAX   =    2.456    core radius for proj-oper                               
   RAUG   =    1.300    factor for augmentation sphere                          
   RDEP   =    2.451    radius for radial grids                                 
   RDEPT  =    1.956    core radius for aug-charge                              
                                                                                
   Atomic configuration                                                         
   11 entries                                                                   
     n  l   j            E        occ.                                          
     1  0  0.50    -18805.2457   2.0000                                         
     2  0  0.50     -2630.2869   2.0000                                         
     2  1  1.50     -2348.4046   6.0000                                         
     3  0  0.50      -438.8757   2.0000                                         
     3  1  1.50      -346.7588   6.0000                                         
     3  2  2.50      -196.2560  10.0000                                         
     4  0  0.50       -58.3859   2.0000                                         
     5  0  0.50        -3.9816   1.0000                                         
     4  1  1.50       -34.5141   6.0000                                         
     4  2  2.50        -3.0408   4.0000                                         
     4  3  2.50        -1.3606   0.0000                                         
   Description                                                                  
     l       E           TYP  RCUT    TYP  RCUT                                 
     0    -58.3859094     23  2.200                                             
     0     -3.9816262     23  2.200                                             
     1    -34.5140738     23  2.200                                             
     1     13.6058260     23  2.200                                             
     2     -3.0408010     23  2.200                                             
     2     -0.1283038     23  2.200                                             
     3     -1.3605826     23  2.400                                             
  local pseudopotential read in
  partial core-charges read in
  partial kinetic energy density read in
  atomic valenz-charges read in
  non local Contribution for L=           0  read in
    real space projection operators read in
  non local Contribution for L=           0  read in
    real space projection operators read in
  non local Contribution for L=           1  read in
    real space projection operators read in
  non local Contribution for L=           1  read in
    real space projection operators read in
  non local Contribution for L=           2  read in
    real space projection operators read in
  non local Contribution for L=           2  read in
    real space projection operators read in
    PAW grid and wavefunctions read in
 
   number of l-projection  operators is LMAX  =           6
   number of lm-projection operators is LMMAX =          18
 
 Optimization of the real space projectors (new method)

 maximal supplied QI-value         = 12.85
 optimisation between [QCUT,QGAM] = [  8.87, 17.73] = [ 22.01, 88.06] Ry 
 Optimized for a Real-space Cutoff    1.90 Angstroem

   l    n(q)    QCUT    max X(q) W(low)/X(q) W(high)/X(q)  e(spline) 
   2      9     8.867    62.315    0.23E-03    0.62E-04    0.11E-05
   2      9     8.867    52.185    0.23E-03    0.62E-04    0.11E-05
   0     10     8.867   103.837    0.15E-04    0.23E-04    0.98E-07
   0     10     8.867    59.728    0.12E-04    0.21E-04    0.89E-07
   1     10     8.867    13.958    0.50E-04    0.22E-04    0.14E-06
   1     10     8.867     8.441    0.36E-04    0.19E-04    0.98E-07
 Optimization of the real space projectors (new method)

 maximal supplied QI-value         = 12.47
 optimisation between [QCUT,QGAM] = [  8.86, 17.71] = [ 21.96, 87.83] Ry 
 Optimized for a Real-space Cutoff    1.90 Angstroem

   l    n(q)    QCUT    max X(q) W(low)/X(q) W(high)/X(q)  e(spline) 
   2      9     8.855    48.111    0.22E-03    0.80E-04    0.10E-05
   2      9     8.855    40.545    0.21E-03    0.76E-04    0.95E-06
   0     10     8.855   121.658    0.27E-04    0.12E-04    0.11E-06
   0     10     8.855    71.177    0.22E-04    0.11E-04    0.99E-07
   1     10     8.855    14.183    0.65E-04    0.10E-03    0.98E-07
   1     10     8.855     8.257    0.43E-04    0.73E-04    0.72E-07
 Optimization of the real space projectors (new method)

 maximal supplied QI-value         = 15.12
 optimisation between [QCUT,QGAM] = [  8.77, 17.69] = [ 21.53, 87.61] Ry 
 Optimized for a Real-space Cutoff    1.74 Angstroem

   l    n(q)    QCUT    max X(q) W(low)/X(q) W(high)/X(q)  e(spline) 
   0      9     8.768    12.107    0.28E-04    0.53E-06    0.29E-07
   0      9     8.768     9.948    0.36E-04    0.50E-05    0.64E-07
   1      9     8.768     3.563    0.14E-04    0.16E-04    0.88E-07
   1      9     8.768     4.524    0.21E-03    0.33E-03    0.19E-06
   2      8     8.768    87.261    0.19E-03    0.25E-03    0.24E-06
   2      8     8.768    70.950    0.19E-03    0.24E-03    0.24E-06
 Optimization of the real space projectors (new method)

 maximal supplied QI-value         = 15.68
 optimisation between [QCUT,QGAM] = [  8.78, 17.72] = [ 21.60, 87.97] Ry 
 Optimized for a Real-space Cutoff    1.96 Angstroem

   l    n(q)    QCUT    max X(q) W(low)/X(q) W(high)/X(q)  e(spline) 
   0     10     8.783    10.201    0.29E-04    0.25E-05    0.69E-07
   0     10     8.783     8.174    0.45E-04    0.57E-05    0.14E-06
   1     10     8.783     3.488    0.76E-05    0.24E-04    0.95E-07
   1     10     8.783     4.917    0.78E-04    0.14E-03    0.46E-06
   2      9     8.783   153.744    0.22E-03    0.34E-04    0.15E-05
   2      9     8.783   126.342    0.22E-03    0.35E-04    0.15E-05
  PAW_PBE Ta 17Jan2003                  :
 energy of atom  1       EATOM= -130.6506
 kinetic energy error for atom=    0.0121 (will be added to EATOM!!)
  PAW_PBE Hf 20Jan2003                  :
 energy of atom  2       EATOM=  -75.9011
 kinetic energy error for atom=    0.0071 (will be added to EATOM!!)
  PAW_PBE Zr_sv 04Jan2005               :
 energy of atom  3       EATOM=-1284.2219
 kinetic energy error for atom=    0.0483 (will be added to EATOM!!)
  PAW_PBE Nb_sv 25May2007               :
 energy of atom  4       EATOM=-1555.1913
 kinetic energy error for atom=    0.0655 (will be added to EATOM!!)
 
 
 POSCAR: generated by pypospack                  
  positions in direct lattice
  No initial velocities read in
 exchange correlation table for  LEXCH =        8
   RHO(1)=    0.500       N(1)  =     2000
   RHO(2)=  100.500       N(2)  =     4000
 


--------------------------------------------------------------------------------------------------------


 ion  position               nearest neighbor table
   1  0.246  0.182  0.177-   6 2.72   2 2.74  22 2.95  16 2.96  21 2.97  24 3.00  20 3.08  14 3.08
                            12 3.27  11 3.62
   2  0.019  0.327  0.341-   1 2.74  31 2.79  29 2.83  36 2.87  12 2.96  17 2.98  15 3.01  25 3.09
                             6 3.18   3 3.34  21 3.39  22 3.53  13 3.62
   3  0.008  0.337  0.666-   4 2.77   7 2.78  29 2.89  17 2.93  33 2.94  36 2.94  11 2.94  15 3.00
                            34 3.32   2 3.34  23 3.36  22 3.42
   4  0.239  0.483  0.830-   3 2.77  34 2.82  30 2.89  22 2.93  26 2.97  23 2.98  16 3.02  19 3.07
                            11 3.27   7 3.27  12 3.46   7 3.60
   5  0.251  0.857  0.519-  32 2.71  28 2.73  23 2.95  21 2.96  19 2.97  24 2.97  18 3.02  13 3.02
                            36 3.17   9 3.24   8 3.42   8 3.44
   6  0.481  0.325  0.333-   1 2.72  31 2.75  29 2.80  36 2.87  12 2.96  17 2.99  15 3.00  25 3.09
                             2 3.18  24 3.37  16 3.42  18 3.71
   7  0.762  0.491  0.815-   3 2.78  34 2.86  30 2.90  23 2.94  22 2.96  26 2.98  19 3.01  16 3.08
                            17 3.26   4 3.27  27 3.54   4 3.60  25 3.71
   8  0.752  0.853  0.518-  32 2.77  28 2.79  21 2.98  24 3.01  23 3.01  19 3.02  18 3.04  13 3.05
                            27 3.19  15 3.25   5 3.42   5 3.44
   9  0.245  0.843  0.834-  28 2.87  32 2.89  30 2.98  26 3.01  23 3.04  19 3.04  20 3.08  14 3.10
                            10 3.16   5 3.24  11 3.32  27 3.36  27 3.51
  10  0.235  0.817  0.140-  30 2.85  20 2.98  26 2.98  13 3.01  14 3.05  18 3.08  21 3.15   9 3.16
                            35 3.24  24 3.24  12 3.27
  11  0.255  0.166  0.825-  32 2.90  34 2.90  28 2.91   3 2.94  16 3.02  22 3.05  14 3.05  20 3.09
                             4 3.27  36 3.28   9 3.32  33 3.34   1 3.62
  12  0.245  0.500  0.166-   2 2.96   6 2.96  30 3.02  16 3.06  22 3.06  26 3.06  13 3.10  18 3.17
                             1 3.27  10 3.27  25 3.38  29 3.39   4 3.46  25 3.49
  13  0.010  0.679  0.351-  35 2.95  29 3.01  10 3.01   5 3.02   8 3.05  17 3.09  25 3.10  12 3.10
                            23 3.17  21 3.30  18 3.33  18 3.54   2 3.62
  14  0.512  0.009  0.011-  10 3.05  33 3.05  11 3.05  35 3.06   1 3.08  27 3.09  31 3.10   9 3.10
                            20 3.22  24 3.26  16 3.26  20 3.65  26 3.66
  15  0.746  0.168  0.506-  32 2.97  28 2.97  34 3.00   3 3.00   6 3.00   2 3.01  24 3.06  21 3.06
                            33 3.14  31 3.19   8 3.25  17 3.28  36 3.39
  16  0.510  0.326  0.001-   1 2.96  31 2.98  33 3.00  11 3.02   4 3.02  12 3.06  25 3.08   7 3.08
                            14 3.26  22 3.27  26 3.39   6 3.42  34 3.42  22 3.59
  17  0.743  0.487  0.498-  34 2.88   3 2.93   2 2.98   6 2.99  19 3.05  18 3.08  13 3.09  23 3.09
                             7 3.26  15 3.28  29 3.31  25 3.32
  18  0.494  0.685  0.346-  35 2.99  29 3.02   5 3.02   8 3.04  17 3.08  10 3.08  25 3.11  12 3.17
                            24 3.22  19 3.27  13 3.33  13 3.54   6 3.71  26 3.79
  19  0.491  0.666  0.664-   5 2.97  29 2.99   7 3.01   8 3.02  27 3.04   9 3.04  17 3.05   4 3.07
                            26 3.24  18 3.27  23 3.29  34 3.35  32 3.41  23 3.58
  20  0.981  0.012  0.007-  35 2.97  10 2.98  27 3.03  33 3.05  31 3.06   1 3.08   9 3.08  11 3.09
                            14 3.22  22 3.23  21 3.33  14 3.65
  21  0.002  0.998  0.330-  31 2.91   5 2.96   1 2.97   8 2.98  36 3.04  15 3.06  35 3.10  10 3.15
                            13 3.30  20 3.33   2 3.39  24 3.42  24 3.45
  22  0.987  0.325  0.998-   4 2.93   1 2.95   7 2.96  31 2.97  33 3.03  11 3.05  25 3.06  12 3.06
                            20 3.23  16 3.27  30 3.41   3 3.42   2 3.53  16 3.59
  23  0.013  0.664  0.660-   7 2.94   5 2.95   4 2.98   8 3.01  29 3.02   9 3.04  27 3.04  17 3.09
                            13 3.17  19 3.29  30 3.30   3 3.36  19 3.58
  24  0.499  0.998  0.327-  31 2.92   5 2.97   1 3.00   8 3.01  36 3.04  15 3.06  35 3.18  18 3.22
                            10 3.24  14 3.26   6 3.37  21 3.42  21 3.45
  25  0.753  0.506  0.175-  30 3.03  22 3.06  26 3.06  16 3.08   2 3.09   6 3.09  13 3.10  18 3.11
                            35 3.15  31 3.32  17 3.32  12 3.38  12 3.49   7 3.71
  26  0.503  0.655  0.979-   4 2.97  27 2.97   7 2.98  10 2.98   9 3.01  35 3.03  25 3.06  12 3.06
                            19 3.24  30 3.39  16 3.39  14 3.66  18 3.79
  27  0.756  0.835  0.828-  28 2.91  30 2.92  32 2.92  26 2.97  20 3.03  23 3.04  19 3.04  14 3.09
                             8 3.19   9 3.36  35 3.38  33 3.43   9 3.51   7 3.54
  28  0.003  0.001  0.669-   5 2.73   8 2.79   9 2.87  33 2.88  11 2.91  27 2.91  36 2.93  15 2.97

  29  0.261  0.486  0.496-   6 2.80  34 2.81   2 2.83   3 2.89  19 2.99  13 3.01  23 3.02  18 3.02
                            17 3.31  12 3.39
  30  0.996  0.656  0.981-  10 2.85  35 2.89   4 2.89   7 2.90  27 2.92   9 2.98  12 3.02  25 3.03
                            23 3.30  26 3.39  22 3.41
  31  0.752  0.184  0.195-   6 2.75   2 2.79  21 2.91  24 2.92  22 2.97  16 2.98  20 3.06  14 3.10
                            15 3.19  25 3.32
  32  0.498  0.996  0.669-   5 2.71   8 2.77  33 2.84   9 2.89  11 2.90  27 2.92  36 2.94  15 2.97
                            19 3.41
  33  0.742  0.168  0.812-  32 2.84  34 2.86  28 2.88   3 2.94  16 3.00  22 3.03  20 3.05  14 3.05
                            15 3.14  11 3.34  27 3.43
  34  0.492  0.340  0.668-  29 2.81   4 2.82   7 2.86  33 2.86  17 2.88  11 2.90  36 2.95  15 3.00
                             3 3.32  19 3.35  16 3.42
  35  0.765  0.811  0.156-  30 2.89  13 2.95  20 2.97  18 2.99  26 3.03  14 3.06  21 3.10  25 3.15
                            24 3.18  10 3.24  27 3.38
  36  0.253  0.166  0.506-   2 2.87   6 2.87  28 2.93  32 2.94   3 2.94  34 2.95  24 3.04  21 3.04
                             5 3.17  11 3.28  15 3.39
 
  LATTYP: Found a triclinic cell.
 ALAT       =    20.0478350106
 B/A-ratio  =     0.3425255328
 C/A-ratio  =     0.5125772286
 COS(alpha) =     0.0006502398
 COS(beta)  =     0.5157151225
 COS(gamma) =     0.6862637616
  
  Lattice vectors:
  
 A1 = ( -13.7461611593, -10.3302512725, -10.3075045789)
 A2 = (  -6.8668925811,  -0.0058063928,  -0.0021399850)
 A3 = (  -0.0034568988,  -0.0267373416, -10.2760283428)


Analysis of symmetry for initial positions (statically):
=====================================================================
 Subroutine PRICEL returns:
 Original cell was already a primitive cell.
 

 Routine SETGRP: Setting up the symmetry group for a 
 triclinic supercell.


 Subroutine GETGRP returns: Found  1 space group operations
 (whereof  1 operations were pure point group operations)
 out of a pool of  2 trial point group operations.


The static configuration has the point symmetry C_1 .


Analysis of symmetry for dynamics (positions and initial velocities):
=====================================================================
 Subroutine PRICEL returns:
 Original cell was already a primitive cell.
 

 Routine SETGRP: Setting up the symmetry group for a 
 triclinic supercell.


 Subroutine GETGRP returns: Found  1 space group operations
 (whereof  1 operations were pure point group operations)
 out of a pool of  2 trial point group operations.


The dynamic configuration has the point symmetry C_1 .


 Subroutine INISYM returns: Found  1 space group operations
 (whereof  1 operations are pure point group operations),
 and found     1 'primitive' translations

 
 
 KPOINTS: k-points                                

Automatic generation of k-mesh.
Space group operators:
 irot       det(A)        alpha          n_x          n_y          n_z        tau_x        tau_y        tau_z
    1     1.000000     0.000000     1.000000     0.000000     0.000000     0.000000     0.000000     0.000000
 
 Subroutine IBZKPT returns following result:
 ===========================================
 
 Found     14 irreducible k-points:
 
 Following reciprocal coordinates:
            Coordinates               Weight
  0.000000  0.000000  0.000000      1.000000
  0.333333 -0.000000  0.000000      2.000000
  0.000000  0.333333  0.000000      2.000000
  0.333333  0.333333  0.000000      2.000000
 -0.333333  0.333333  0.000000      2.000000
 -0.000000 -0.000000  0.333333      2.000000
  0.333333 -0.000000  0.333333      2.000000
 -0.333333 -0.000000  0.333333      2.000000
  0.000000  0.333333  0.333333      2.000000
  0.333333  0.333333  0.333333      2.000000
 -0.333333  0.333333  0.333333      2.000000
 -0.000000 -0.333333  0.333333      2.000000
  0.333333 -0.333333  0.333333      2.000000
 -0.333333 -0.333333  0.333333      2.000000
 
 Following cartesian coordinates:
            Coordinates               Weight
  0.000000  0.000000  0.000000      1.000000
  0.242143 -0.000210 -0.000081      2.000000
 -0.000136  0.161562 -0.000420      2.000000
  0.242007  0.161353 -0.000501      2.000000
 -0.242280  0.161772 -0.000339      2.000000
 -0.000050 -0.000428  0.161812      2.000000
  0.242093 -0.000637  0.161731      2.000000
 -0.242193 -0.000218  0.161893      2.000000
 -0.000187  0.161135  0.161391      2.000000
  0.241957  0.160925  0.161310      2.000000
 -0.242330  0.161344  0.161472      2.000000
  0.000086 -0.161990  0.162232      2.000000
  0.242230 -0.162199  0.162151      2.000000
 -0.242057 -0.161780  0.162313      2.000000
 


--------------------------------------------------------------------------------------------------------




 Dimension of arrays:
   k-points           NKPTS =     14   k-points in BZ     NKDIM =     14   number of bands    NBANDS=    180
   number of dos      NEDOS =    301   number of ions     NIONS =     36
   non local maximal  LDIM  =      6   non local SUM 2l+1 LMDIM =     18
   total plane-waves  NPLWV = 144000
   max r-space proj   IRMAX =   6308   max aug-charges    IRDMAX=  13695
   dimension x,y,z NGX =    40 NGY =   60 NGZ =   60
   dimension x,y,z NGXF=    80 NGYF=  120 NGZF=  120
   support grid    NGXF=    80 NGYF=  120 NGZF=  120
   ions per type =              10   9   8   9
 NGX,Y,Z   is equivalent  to a cutoff of   9.68,  9.69,  9.71 a.u.
 NGXF,Y,Z  is equivalent  to a cutoff of  19.37, 19.38, 19.41 a.u.


 I would recommend the setting:
   dimension x,y,z NGX =    39 NGY =   58 NGZ =   58
 SYSTEM =  automatically generated by mexm         
 POSCAR =  generated by pypospack                  

 Startparameter for this run:
   NWRITE =      2    write-flag & timer
   PREC   = accura    normal or accurate (medium, high low for compatibility)
   ISTART =      0    job   : 0-new  1-cont  2-samecut
   ICHARG =      2    charge: 1-file 2-atom 10-const
   ISPIN  =      1    spin polarized calculation?
   LNONCOLLINEAR =      F non collinear calculations
   LSORBIT =      F    spin-orbit coupling
   INIWAV =      1    electr: 0-lowe 1-rand  2-diag
   LASPH  =      F    aspherical Exc in radial PAW
   METAGGA=      F    non-selfconsistent MetaGGA calc.

 Electronic Relaxation 1
   ENCUT  =  300.0 eV  22.05 Ry    4.70 a.u.   9.70 14.53 14.51*2*pi/ulx,y,z
   ENINI  =  300.0     initial cutoff
   ENAUG  =  461.3 eV  augmentation charge cutoff
   NELM   =     70;   NELMIN=  2; NELMDL= -5     # of ELM steps 
   EDIFF  = 0.1E-04   stopping-criterion for ELM
   LREAL  =      T    real-space projection
   NLSPLINE    = F    spline interpolate recip. space projectors
   LCOMPAT=      F    compatible to vasp.4.4
   GGA_COMPAT  = T    GGA compatible to vasp.4.4-vasp.4.6
   LMAXPAW     = -100 max onsite density
   LMAXMIX     =    2 max onsite mixed and CHGCAR
   VOSKOWN=      0    Vosko Wilk Nusair interpolation
   ROPT   =   -0.00025  -0.00025  -0.00025  -0.00025
 Ionic relaxation
   EDIFFG = -.1E-01   stopping-criterion for IOM
   NSW    =    300    number of steps for IOM
   NBLOCK =      1;   KBLOCK =    300    inner block; outer block 
   IBRION =      2    ionic relax: 0-MD 1-quasi-New 2-CG
   NFREE  =      1    steps in history (QN), initial steepest desc. (CG)
   ISIF   =      3    stress and relaxation
   IWAVPR =     11    prediction:  0-non 1-charg 2-wave 3-comb
   ISYM   =      1    0-nonsym 1-usesym 2-fastsym
   LCORR  =      T    Harris-Foulkes like correction to forces

   POTIM  = 0.1500    time-step for ionic-motion
   TEIN   =    0.0    initial temperature
   TEBEG  =    0.0;   TEEND  =   0.0 temperature during run
   SMASS  =  -3.00    Nose mass-parameter (am)
   estimated Nose-frequenzy (Omega)   =  0.10E-29 period in steps =****** mass=  -0.108E-26a.u.
   SCALEE = 1.0000    scale energy and forces
   NPACO  =    256;   APACO  = 16.0  distance and # of slots for P.C.
   PSTRESS=    0.0 pullay stress

  Mass of Ions in am
   POMASS = 180.95178.49 91.22 92.91
  Ionic Valenz
   ZVAL   =   5.00  4.00 12.00 13.00
  Atomic Wigner-Seitz radii
   RWIGS  =  -1.00 -1.00 -1.00 -1.00
  virtual crystal weights 
   VCA    =   1.00  1.00  1.00  1.00
   NELECT =     299.0000    total number of electrons
   NUPDOWN=      -1.0000    fix difference up-down

 DOS related values:
   EMIN   =  10.00;   EMAX   =-10.00  energy-range for DOS
   EFERMI =   0.00
   ISMEAR =     1;   SIGMA  =   0.15  broadening in eV -4-tet -1-fermi 0-gaus

 Electronic relaxation 2 (details)
   IALGO  =     68    algorithm
   LDIAG  =      T    sub-space diagonalisation (order eigenvalues)
   LSUBROT=      F    optimize rotation matrix (better conditioning)
   TURBO    =      0    0=normal 1=particle mesh
   IRESTART =      0    0=no restart 2=restart with 2 vectors
   NREBOOT  =      0    no. of reboots
   NMIN     =      0    reboot dimension
   EREF     =   0.00    reference energy to select bands
   IMIX   =      4    mixing-type and parameters
     AMIX     =   0.40;   BMIX     =  1.00
     AMIX_MAG =   1.60;   BMIX_MAG =  1.00
     AMIN     =   0.10
     WC   =   100.;   INIMIX=   1;  MIXPRE=   1;  MAXMIX= -45

 Intra band minimization:
   WEIMIN = 0.0010     energy-eigenvalue tresh-hold
   EBREAK =  0.14E-07  absolut break condition
   DEPER  =   0.30     relativ break condition  

   TIME   =   0.40     timestep for ELM

  volume/ion in A,a.u.               =      20.17       136.14
  Fermi-wavevector in a.u.,A,eV,Ry     =   1.217884  2.301467 20.180728  1.483242
  Thomas-Fermi vector in A             =   2.353189
 
 Write flags
   LWAVE  =      F    write WAVECAR
   LCHARG =      F    write CHGCAR
   LVTOT  =      F    write LOCPOT, total local potential
   LVHAR  =      F    write LOCPOT, Hartree potential only
   LELF   =      F    write electronic localiz. function (ELF)
   LORBIT =      0    0 simple, 1 ext, 2 COOP (PROOUT)


 Dipole corrections
   LMONO  =      F    monopole corrections only (constant potential shift)
   LDIPOL =      F    correct potential (dipole corrections)
   IDIPOL =      0    1-x, 2-y, 3-z, 4-all directions 
   EPSILON=  1.0000000 bulk dielectric constant

 Exchange correlation treatment:
   GGA     =    --    GGA type
   LEXCH   =     8    internal setting for exchange type
   VOSKOWN=      0    Vosko Wilk Nusair interpolation
   LHFCALC =     F    Hartree Fock is set to
   LHFONE  =     F    Hartree Fock one center treatment
   AEXX    =    0.0000 exact exchange contribution

 Linear response parameters
   LEPSILON=     F    determine dielectric tensor
   LRPA    =     F    only Hartree local field effects (RPA)
   LNABLA  =     F    use nabla operator in PAW spheres
   LVEL    =     F    velocity operator in full k-point grid
   LINTERFAST=   F  fast interpolation
   KINTER  =     0    interpolate to denser k-point grid
   CSHIFT  =0.1000    complex shift for real part using Kramers Kronig
   OMEGAMAX=  -1.0    maximum frequency
   DEG_THRESHOLD= 0.2000000E-02 threshold for treating states as degnerate
   RTIME   =    0.100 relaxation time in fs

 Orbital magnetization related:
   ORBITALMAG=     F  switch on orbital magnetization
   LCHIMAG   =     F  perturbation theory with respect to B field
   DQ        =  0.001000  dq finite difference perturbation B field



--------------------------------------------------------------------------------------------------------


 conjugate gradient relaxation of ions
 charge density and potential will be updated during run
 non-spin polarized calculation
 RMM-DIIS sequential band-by-band and
  variant of blocked Davidson during initial phase
 perform sub-space diagonalisation
    before iterative eigenvector-optimisation
 modified Broyden-mixing scheme, WC =      100.0
 initial mixing is a Kerker type mixing with AMIX =  0.4000 and BMIX =      1.0000
 Hartree-type preconditioning will be used
 using additional bands           30
 real space projection scheme for non local part
 use partial core corrections
 calculate Harris-corrections to forces 
   (improved forces if not selfconsistent)
 use gradient corrections 
 use of overlap-Matrix (Vanderbilt PP)
 Methfessel and Paxton  Order N= 1 SIGMA  =   0.15


--------------------------------------------------------------------------------------------------------


  energy-cutoff  :      300.00
  volume of cell :      726.24
      direct lattice vectors                 reciprocal lattice vectors
     6.866892581  0.005806393  0.002139985     0.145626399 -0.000126073 -0.000048661
     0.008919098 10.291901145  0.027196266    -0.000082080  0.097164517 -0.000252786
     0.003456899  0.026737342 10.276028343    -0.000030109 -0.000257127  0.097314541

  length of vectors
     6.866895369 10.291940943 10.276063708     0.145626461  0.097164881  0.097314885


 
 k-points in units of 2pi/SCALE and weight: k-points                                
   0.00000000  0.00000000  0.00000000       0.037
   0.24214321 -0.00020963 -0.00008091       0.074
  -0.00013648  0.16156224 -0.00042033       0.074
   0.24200673  0.16135261 -0.00050124       0.074
  -0.24227969  0.16177188 -0.00033941       0.074
  -0.00005007 -0.00042754  0.16181170       0.074
   0.24209314 -0.00063717  0.16173079       0.074
  -0.24219327 -0.00021791  0.16189261       0.074
  -0.00018655  0.16113470  0.16139137       0.074
   0.24195666  0.16092507  0.16131046       0.074
  -0.24232975  0.16134433  0.16147229       0.074
   0.00008641 -0.16198979  0.16223202       0.074
   0.24222962 -0.16219942  0.16215111       0.074
  -0.24205679 -0.16178016  0.16231294       0.074
 
 k-points in reciprocal lattice and weights: k-points                                
   0.00000000  0.00000000  0.00000000       0.037
   0.33333333 -0.00000000  0.00000000       0.074
   0.00000000  0.33333333  0.00000000       0.074
   0.33333333  0.33333333  0.00000000       0.074
  -0.33333333  0.33333333  0.00000000       0.074
  -0.00000000 -0.00000000  0.33333333       0.074
   0.33333333 -0.00000000  0.33333333       0.074
  -0.33333333 -0.00000000  0.33333333       0.074
   0.00000000  0.33333333  0.33333333       0.074
   0.33333333  0.33333333  0.33333333       0.074
  -0.33333333  0.33333333  0.33333333       0.074
  -0.00000000 -0.33333333  0.33333333       0.074
   0.33333333 -0.33333333  0.33333333       0.074
  -0.33333333 -0.33333333  0.33333333       0.074
 
 position of ions in fractional coordinates (direct lattice) 
   0.24571600  0.18213700  0.17709000
   0.01863500  0.32715200  0.34091200
   0.00816400  0.33715800  0.66551800
   0.23868800  0.48330600  0.82986000
   0.25050300  0.85749100  0.51903700
   0.48095400  0.32462100  0.33340200
   0.76245000  0.49103500  0.81507100
   0.75210000  0.85250300  0.51810500
   0.24536500  0.84315100  0.83387100
   0.23502200  0.81663700  0.13996700
   0.25537200  0.16561400  0.82511500
   0.24491000  0.49950100  0.16620300
   0.01020200  0.67851000  0.35110000
   0.51241600  0.00917300  0.01073900
   0.74618500  0.16768100  0.50579200
   0.50974700  0.32620400  0.00111900
   0.74314700  0.48671900  0.49822900
   0.49442300  0.68483900  0.34639600
   0.49110200  0.66557900  0.66376900
   0.98148500  0.01175700  0.00729500
   0.00163200  0.99835400  0.33036900
   0.98654200  0.32544400  0.99824000
   0.01258000  0.66370200  0.65978300
   0.49923500  0.99751400  0.32730700
   0.75310700  0.50563700  0.17537400
   0.50256000  0.65526200  0.97872200
   0.75591400  0.83470400  0.82819900
   0.00328400  0.00134300  0.66944100
   0.26076900  0.48597100  0.49603700
   0.99638500  0.65635900  0.98066000
   0.75204500  0.18390900  0.19537200
   0.49799500  0.99639700  0.66936900
   0.74175900  0.16784800  0.81158300
   0.49177000  0.33970600  0.66832300
   0.76459500  0.81135000  0.15631900
   0.25323300  0.16573400  0.50630500
 
 position of ions in cartesian coordinates  (Angst):
   1.68954206  1.88069764  1.82526113
   0.13206094  3.37623933  3.51215857
   0.06136908  3.48783839  6.84806874
   1.64622425  4.99771174  8.54131979
   1.72961950  8.84054479  5.35749555
   3.30670732  3.35267413  3.43590611
   5.24285946  5.07990359  8.39067865
   5.17398450  8.79209634  5.34885605
   1.69529785  8.70134692  8.59233767
   1.62163835  8.40985425  1.46101728
   1.75794156  1.72802709  8.48395570
   1.68680031  5.14668078  1.72201540
   0.07732145  6.99260456  3.62638832
   3.51882457  0.09767003  0.11170030
   5.12721628  1.74361245  5.20369005
   3.50329121  3.36024903  0.02146126
   5.10917404  5.02690016  5.13464259
   3.40245523  7.06042781  3.57925824
   3.38057563  6.87067222  6.84006127
   6.73988214  0.12689582  0.07738374
   0.02125324 10.28380334  3.42203620
   6.78083142  3.38185601 10.26890458
   0.09458594  6.84846926  6.79802595
   3.43822151 10.27796555  3.39161302
   5.17662095  5.21302789  1.81751127
   3.46025322  6.77297821 10.07627116
   5.20108805  8.61722403  8.53491487
   0.02487704  0.03174016  6.87923824
   1.79672188  5.01634233  5.11106491
   6.85131294  6.78718759 10.09727272
   5.16652791  1.90236364  2.01425921
   3.43087907 10.27560813  6.90661880
   5.09788199  1.75348154  8.34600210
   3.38227196  3.51694516  6.87799721
   5.25816862  8.35895309  1.63004039
   1.74215225  1.72072556  5.20785379
 


--------------------------------------------------------------------------------------------------------


 k-point  1 :   0.0000 0.0000 0.0000  plane waves:    8619
 k-point  2 :   0.3333-0.0000 0.0000  plane waves:    8578
 k-point  3 :   0.0000 0.3333 0.0000  plane waves:    8577
 k-point  4 :   0.3333 0.3333 0.0000  plane waves:    8557
 k-point  5 :  -0.3333 0.3333 0.0000  plane waves:    8549
 k-point  6 :  -0.0000-0.0000 0.3333  plane waves:    8574
 k-point  7 :   0.3333-0.0000 0.3333  plane waves:    8559
 k-point  8 :  -0.3333-0.0000 0.3333  plane waves:    8558
 k-point  9 :   0.0000 0.3333 0.3333  plane waves:    8575
 k-point 10 :   0.3333 0.3333 0.3333  plane waves:    8572
 k-point 11 :  -0.3333 0.3333 0.3333  plane waves:    8573
 k-point 12 :  -0.0000-0.3333 0.3333  plane waves:    8589
 k-point 13 :   0.3333-0.3333 0.3333  plane waves:    8562
 k-point 14 :  -0.3333-0.3333 0.3333  plane waves:    8563

 maximum and minimum number of plane-waves per node :      1744     1684

 maximum number of plane-waves:      8619
 maximum index in each direction: 
   IXMAX=   10   IYMAX=   14   IZMAX=   14
   IXMIN=  -10   IYMIN=  -14   IZMIN=  -14

 WARNING: aliasing errors must be expected set NGX to  42 to avoid them
 NGY is ok and might be reduce to  58
 NGZ is ok and might be reduce to  58
 aliasing errors are usually negligible using standard VASP settings
 and one can safely disregard these warnings

 real space projection operators:
  total allocation   :      27312.47 KBytes
  max/ min on nodes  :       5507.30       5424.89


 parallel 3D FFT for wavefunctions:
    minimum data exchange during FFTs selected (reduces bandwidth)
 parallel 3D FFT for charge:
    minimum data exchange during FFTs selected (reduces bandwidth)


 total amount of memory used by VASP on root node    67847. kBytes
========================================================================

   base      :      30000. kBytes
   nonlr-proj:      10518. kBytes
   fftplans  :       2814. kBytes
   grid      :       5360. kBytes
   one-center:        124. kBytes
   wavefun   :      19031. kBytes
 
     INWAV:  cpu time    0.0000: real time    0.0000
 Broyden mixing: mesh for mixing (old mesh)
   NGX = 19   NGY = 29   NGZ = 29
  (NGX  = 80   NGY  =120   NGZ  =120)
  gives a total of  15979 points

 initial charge density was supplied:
 charge density of overlapping atoms calculated
 number of electron     299.0000000 magnetization 
 keeping initial charge density in first step


--------------------------------------------------------------------------------------------------------


 Maximum index for non-local projection operator         1234
 Maximum index for augmentation-charges          674 (set IRDMAX)


--------------------------------------------------------------------------------------------------------


 First call to EWALD:  gamma=   0.197
 Maximum number of real-space cells 3x 2x 2
 Maximum number of reciprocal cells 2x 3x 3

 FEWALD executed in parallel
    FEWALD:  cpu time    0.1016: real time    0.1025


----------------------------------------- Iteration    1(   1)  ---------------------------------------


    POTLOK:  cpu time    0.0539: real time    0.0986
    SETDIJ:  cpu time    0.0852: real time    0.0856
     EDDAV:  cpu time    1.2219: real time    1.2362
       DOS:  cpu time    0.0019: real time    0.0020
    --------------------------------------------
      LOOP:  cpu time    1.3714: real time    1.6916

 eigenvalue-minimisations  :  5560
 total energy-change (2. order) : 0.1900833E+04  (-0.1129226E+05)
 number of electron     299.0000000 magnetization 
 augmentation part      299.0000000 magnetization 

 Free energy of the ion-electron system (eV)
  ---------------------------------------------------
  alpha Z        PSCENC =      1552.00394911
  Ewald energy   TEWEN  =    -20205.55815807
  -Hartree energ DENC   =     -6905.31251468
  -exchange      EXHF   =         0.00000000
  -V(xc)+E(xc)   XCENC  =      -233.90030928
  PAW double counting   =     22141.40317339   -20549.38285755
  entropy T*S    EENTRO =         0.00124565
  eigenvalues    EBANDS =      -157.37405959
  atomic energy  EATOM  =     26258.95213085
  Solvation  Ediel_sol  =         0.00000000
  ---------------------------------------------------
  free energy    TOTEN  =      1900.83259984 eV

  energy without entropy =     1900.83135419  energy(sigma->0) =     1900.83218462


--------------------------------------------------------------------------------------------------------




----------------------------------------- Iteration    1(   2)  ---------------------------------------


     EDDAV:  cpu time    1.0334: real time    1.0374
       DOS:  cpu time    0.0009: real time    0.0009
    --------------------------------------------
      LOOP:  cpu time    1.0350: real time    1.1513

 eigenvalue-minimisations  :  5728
 total energy-change (2. order) :-0.1990560E+04  (-0.1923795E+04)
 number of electron     299.0000000 magnetization 
 augmentation part      299.0000000 magnetization 

 Free energy of the ion-electron system (eV)
  ---------------------------------------------------
  alpha Z        PSCENC =      1552.00394911
  Ewald energy   TEWEN  =    -20205.55815807
  -Hartree energ DENC   =     -6905.31251468
  -exchange      EXHF   =         0.00000000
  -V(xc)+E(xc)   XCENC  =      -233.90030928
  PAW double counting   =     22141.40317339   -20549.38285755
  entropy T*S    EENTRO =         0.00175682
  eigenvalues    EBANDS =     -2147.93468293
  atomic energy  EATOM  =     26258.95213085
  Solvation  Ediel_sol  =         0.00000000
  ---------------------------------------------------
  free energy    TOTEN  =       -89.72751233 eV

  energy without entropy =      -89.72926915  energy(sigma->0) =      -89.72809794


--------------------------------------------------------------------------------------------------------




----------------------------------------- Iteration    1(   3)  ---------------------------------------


     EDDAV:  cpu time    1.4249: real time    1.4303
       DOS:  cpu time    0.0014: real time    0.0014
    --------------------------------------------
      LOOP:  cpu time    1.4282: real time    1.4663

 eigenvalue-minimisations  :  8704
 total energy-change (2. order) :-0.2570587E+03  (-0.2441193E+03)
 number of electron     299.0000000 magnetization 
 augmentation part      299.0000000 magnetization 

 Free energy of the ion-electron system (eV)
  ---------------------------------------------------
  alpha Z        PSCENC =      1552.00394911
  Ewald energy   TEWEN  =    -20205.55815807
  -Hartree energ DENC   =     -6905.31251468
  -exchange      EXHF   =         0.00000000
  -V(xc)+E(xc)   XCENC  =      -233.90030928
  PAW double counting   =     22141.40317339   -20549.38285755
  entropy T*S    EENTRO =        -0.00008168
  eigenvalues    EBANDS =     -2404.99152371
  atomic energy  EATOM  =     26258.95213085
  Solvation  Ediel_sol  =         0.00000000
  ---------------------------------------------------
  free energy    TOTEN  =      -346.78619161 eV

  energy without entropy =     -346.78610993  energy(sigma->0) =     -346.78616438


--------------------------------------------------------------------------------------------------------




----------------------------------------- Iteration    1(   4)  ---------------------------------------


     EDDAV:  cpu time    1.3766: real time    1.3827
       DOS:  cpu time    0.0014: real time    0.0014
    --------------------------------------------
      LOOP:  cpu time    1.3784: real time    1.4143

 eigenvalue-minimisations  :  8440
 total energy-change (2. order) :-0.3033957E+02  (-0.2891251E+02)
 number of electron     299.0000000 magnetization 
 augmentation part      299.0000000 magnetization 

 Free energy of the ion-electron system (eV)
  ---------------------------------------------------
  alpha Z        PSCENC =      1552.00394911
  Ewald energy   TEWEN  =    -20205.55815807
  -Hartree energ DENC   =     -6905.31251468
  -exchange      EXHF   =         0.00000000
  -V(xc)+E(xc)   XCENC  =      -233.90030928
  PAW double counting   =     22141.40317339   -20549.38285755
  entropy T*S    EENTRO =         0.00863010
  eigenvalues    EBANDS =     -2435.33980199
  atomic energy  EATOM  =     26258.95213085
  Solvation  Ediel_sol  =         0.00000000
  ---------------------------------------------------
  free energy    TOTEN  =      -377.12575811 eV

  energy without entropy =     -377.13438821  energy(sigma->0) =     -377.12863481


--------------------------------------------------------------------------------------------------------




----------------------------------------- Iteration    1(   5)  ---------------------------------------


     EDDAV:  cpu time    2.1375: real time    2.2618
       DOS:  cpu time    0.0013: real time    0.0013
    CHARGE:  cpu time    0.0307: real time    0.0333
    MIXING:  cpu time    0.0038: real time    0.0051
    --------------------------------------------
      LOOP:  cpu time    2.1741: real time    2.3315

 eigenvalue-minimisations  :  8288
 total energy-change (2. order) :-0.2986847E+01  (-0.2926234E+01)
 number of electron     299.0000004 magnetization 
 augmentation part       17.5742784 magnetization 

 Broyden mixing:
  rms(total) = 0.64055E+01    rms(broyden)= 0.64050E+01
  rms(prec ) = 0.67298E+01
  weight for this iteration     100.00

 Free energy of the ion-electron system (eV)
  ---------------------------------------------------
  alpha Z        PSCENC =      1552.00394911
  Ewald energy   TEWEN  =    -20205.55815807
  -Hartree energ DENC   =     -6905.31251468
  -exchange      EXHF   =         0.00000000
  -V(xc)+E(xc)   XCENC  =      -233.90030928
  PAW double counting   =     22141.40317339   -20549.38285755
  entropy T*S    EENTRO =         0.00993511
  eigenvalues    EBANDS =     -2438.32795434
  atomic energy  EATOM  =     26258.95213085
  Solvation  Ediel_sol  =         0.00000000
  ---------------------------------------------------
  free energy    TOTEN  =      -380.11260545 eV

  energy without entropy =     -380.12254056  energy(sigma->0) =     -380.11591715


--------------------------------------------------------------------------------------------------------




----------------------------------------- Iteration    1(   6)  ---------------------------------------


    POTLOK:  cpu time    0.0294: real time    0.0330
    SETDIJ:  cpu time    0.0038: real time    0.0069
    EDDIAG:  cpu time    0.0820: real time    0.1288
  RMM-DIIS:  cpu time    0.9399: real time    1.0327
    ORTHCH:  cpu time    0.0134: real time    0.0135
       DOS:  cpu time    0.5114: real time    0.5134
    CHARGE:  cpu time    0.0801: real time    0.0803
    MIXING:  cpu time    0.0017: real time    0.0024
    --------------------------------------------
      LOOP:  cpu time    1.6624: real time    1.8384

 eigenvalue-minimisations  :  7372
 total energy-change (2. order) : 0.9697174E+01  (-0.2981276E+01)
 number of electron     299.0000004 magnetization 
 augmentation part       18.3070259 magnetization 

 Broyden mixing:
  rms(total) = 0.30449E+01    rms(broyden)= 0.30448E+01
  rms(prec ) = 0.36086E+01
  weight for this iteration     100.00

 eigenvalues of (default mixing * dielectric matrix)
  average eigenvalue GAMMA=   1.7647
  1.7647

 Free energy of the ion-electron system (eV)
  ---------------------------------------------------
  alpha Z        PSCENC =      1552.00394911
  Ewald energy   TEWEN  =    -20205.55815807
  -Hartree energ DENC   =     -6732.58665907
  -exchange      EXHF   =         0.00000000
  -V(xc)+E(xc)   XCENC  =      -237.79994479
  PAW double counting   =     27534.44249213   -25950.30850429
  entropy T*S    EENTRO =         0.01327688
  eigenvalues    EBANDS =     -2589.57401462
  atomic energy  EATOM  =     26258.95213085
  Solvation  Ediel_sol  =         0.00000000
  ---------------------------------------------------
  free energy    TOTEN  =      -370.41543186 eV

  energy without entropy =     -370.42870874  energy(sigma->0) =     -370.41985748


--------------------------------------------------------------------------------------------------------




----------------------------------------- Iteration    1(   7)  ---------------------------------------


    POTLOK:  cpu time    0.0290: real time    0.0301
    SETDIJ:  cpu time    0.2349: real time    0.2369
    EDDIAG:  cpu time    0.1554: real time    0.1692
  RMM-DIIS:  cpu time    0.8655: real time    0.8758
    ORTHCH:  cpu time    0.0128: real time    0.0129
       DOS:  cpu time    0.0016: real time    0.0016
    CHARGE:  cpu time    0.0530: real time    0.0531
    MIXING:  cpu time    0.0031: real time    0.0031
    --------------------------------------------
      LOOP:  cpu time    1.3560: real time    1.4103

 eigenvalue-minimisations  :  7659
 total energy-change (2. order) :-0.4745502E+01  (-0.3008332E+01)
 number of electron     299.0000003 magnetization 
 augmentation part       18.6725024 magnetization 

 Broyden mixing:
  rms(total) = 0.16810E+01    rms(broyden)= 0.16805E+01
  rms(prec ) = 0.46704E+01
  weight for this iteration     100.00

 eigenvalues of (default mixing * dielectric matrix)
  average eigenvalue GAMMA=   1.1178
  1.8101  0.4255

 Free energy of the ion-electron system (eV)
  ---------------------------------------------------
  alpha Z        PSCENC =      1552.00394911
  Ewald energy   TEWEN  =    -20205.55815807
  -Hartree energ DENC   =     -6668.37372616
  -exchange      EXHF   =         0.00000000
  -V(xc)+E(xc)   XCENC  =      -237.08746291
  PAW double counting   =     31467.91026232   -29878.56667357
  entropy T*S    EENTRO =        -0.00088296
  eigenvalues    EBANDS =     -2664.44037293
  atomic energy  EATOM  =     26258.95213085
  Solvation  Ediel_sol  =         0.00000000
  ---------------------------------------------------
  free energy    TOTEN  =      -375.16093431 eV

  energy without entropy =     -375.16005135  energy(sigma->0) =     -375.16063999


--------------------------------------------------------------------------------------------------------




----------------------------------------- Iteration    1(   8)  ---------------------------------------


    POTLOK:  cpu time    0.0312: real time    0.0478
    SETDIJ:  cpu time    0.0039: real time    0.0039
    EDDIAG:  cpu time    0.1058: real time    0.1081
  RMM-DIIS:  cpu time    0.7647: real time    0.7791
    ORTHCH:  cpu time    0.0138: real time    0.0139
       DOS:  cpu time    0.0018: real time    0.0018
    CHARGE:  cpu time    0.0302: real time    0.0303
    MIXING:  cpu time    0.0013: real time    0.0013
    --------------------------------------------
      LOOP:  cpu time    0.9534: real time    1.0446

 eigenvalue-minimisations  :  7453
 total energy-change (2. order) : 0.9785603E+01  (-0.1148346E+01)
 number of electron     299.0000004 magnetization 
 augmentation part       18.5635020 magnetization 

 Broyden mixing:
  rms(total) = 0.48639E+00    rms(broyden)= 0.48549E+00
  rms(prec ) = 0.85409E+00
  weight for this iteration     100.00

 eigenvalues of (default mixing * dielectric matrix)
  average eigenvalue GAMMA=   1.0430
  1.8396  0.9397  0.3496

 Free energy of the ion-electron system (eV)
  ---------------------------------------------------
  alpha Z        PSCENC =      1552.00394911
  Ewald energy   TEWEN  =    -20205.55815807
  -Hartree energ DENC   =     -6639.89698915
  -exchange      EXHF   =         0.00000000
  -V(xc)+E(xc)   XCENC  =      -236.70269281
  PAW double counting   =     33389.04529645   -31796.08261840
  entropy T*S    EENTRO =        -0.00005083
  eigenvalues    EBANDS =     -2687.13619866
  atomic energy  EATOM  =     26258.95213085
  Solvation  Ediel_sol  =         0.00000000
  ---------------------------------------------------
  free energy    TOTEN  =      -365.37533150 eV

  energy without entropy =     -365.37528067  energy(sigma->0) =     -365.37531456


--------------------------------------------------------------------------------------------------------




----------------------------------------- Iteration    1(   9)  ---------------------------------------


    POTLOK:  cpu time    0.0287: real time    0.0289
    SETDIJ:  cpu time    0.0036: real time    0.0036
    EDDIAG:  cpu time    0.0778: real time    0.0782
  RMM-DIIS:  cpu time    0.7396: real time    0.7990
    ORTHCH:  cpu time    0.0125: real time    0.0127
       DOS:  cpu time    0.0011: real time    0.0011
    CHARGE:  cpu time    0.0328: real time    0.0329
    MIXING:  cpu time    0.0014: real time    0.0014
    --------------------------------------------
      LOOP:  cpu time    0.8980: real time    0.9893

 eigenvalue-minimisations  :  7688
 total energy-change (2. order) : 0.5701207E+00  (-0.2939114E+00)
 number of electron     299.0000004 magnetization 
 augmentation part       18.4165282 magnetization 

 Broyden mixing:
  rms(total) = 0.29114E+00    rms(broyden)= 0.29095E+00
  rms(prec ) = 0.43834E+00
  weight for this iteration     100.00

 eigenvalues of (default mixing * dielectric matrix)
  average eigenvalue GAMMA=   1.0392
  1.8543  1.4398  0.3566  0.5064

 Free energy of the ion-electron system (eV)
  ---------------------------------------------------
  alpha Z        PSCENC =      1552.00394911
  Ewald energy   TEWEN  =    -20205.55815807
  -Hartree energ DENC   =     -6645.41524686
  -exchange      EXHF   =         0.00000000
  -V(xc)+E(xc)   XCENC  =      -236.18457198
  PAW double counting   =     33696.42560821   -32099.68828088
  entropy T*S    EENTRO =         0.00757449
  eigenvalues    EBANDS =     -2685.34821568
  atomic energy  EATOM  =     26258.95213085
  Solvation  Ediel_sol  =         0.00000000
  ---------------------------------------------------
  free energy    TOTEN  =      -364.80521080 eV

  energy without entropy =     -364.81278529  energy(sigma->0) =     -364.80773563


--------------------------------------------------------------------------------------------------------




----------------------------------------- Iteration    1(  10)  ---------------------------------------


    POTLOK:  cpu time    0.0292: real time    0.0293
    SETDIJ:  cpu time    0.0037: real time    0.0037
    EDDIAG:  cpu time    0.0772: real time    0.0774
  RMM-DIIS:  cpu time    0.8229: real time    0.8550
    ORTHCH:  cpu time    0.0127: real time    0.0128
       DOS:  cpu time    0.0009: real time    0.0009
    CHARGE:  cpu time    0.0334: real time    0.0335
    MIXING:  cpu time    0.0014: real time    0.0014
    --------------------------------------------
      LOOP:  cpu time    0.9819: real time    1.0436

 eigenvalue-minimisations  :  7724
 total energy-change (2. order) : 0.1230707E-01  (-0.6980691E-01)
 number of electron     299.0000004 magnetization 
 augmentation part       18.3300396 magnetization 

 Broyden mixing:
  rms(total) = 0.19015E+00    rms(broyden)= 0.19010E+00
  rms(prec ) = 0.33058E+00
  weight for this iteration     100.00

 eigenvalues of (default mixing * dielectric matrix)
  average eigenvalue GAMMA=   1.0321
  1.8255  1.8255  0.6668  0.3682  0.4747

 Free energy of the ion-electron system (eV)
  ---------------------------------------------------
  alpha Z        PSCENC =      1552.00394911
  Ewald energy   TEWEN  =    -20205.55815807
  -Hartree energ DENC   =     -6650.92512876
  -exchange      EXHF   =         0.00000000
  -V(xc)+E(xc)   XCENC  =      -235.49116702
  PAW double counting   =     33961.86106340   -32359.43607986
  entropy T*S    EENTRO =         0.00594776
  eigenvalues    EBANDS =     -2686.20546114
  atomic energy  EATOM  =     26258.95213085
  Solvation  Ediel_sol  =         0.00000000
  ---------------------------------------------------
  free energy    TOTEN  =      -364.79290373 eV

  energy without entropy =     -364.79885149  energy(sigma->0) =     -364.79488632


--------------------------------------------------------------------------------------------------------




----------------------------------------- Iteration    1(  11)  ---------------------------------------


    POTLOK:  cpu time    0.0290: real time    0.0291
    SETDIJ:  cpu time    0.0174: real time    0.0176
    EDDIAG:  cpu time    0.1149: real time    0.1201
  RMM-DIIS:  cpu time    0.7831: real time    0.7873
    ORTHCH:  cpu time    0.0124: real time    0.0125
       DOS:  cpu time    0.0039: real time    0.0039
    CHARGE:  cpu time    0.0317: real time    0.0318
    MIXING:  cpu time    0.0014: real time    0.0014
    --------------------------------------------
      LOOP:  cpu time    0.9945: real time    1.0345

 eigenvalue-minimisations  :  7573
 total energy-change (2. order) : 0.4939058E-01  (-0.1827226E-01)
 number of electron     299.0000004 magnetization 
 augmentation part       18.2864144 magnetization 

 Broyden mixing:
  rms(total) = 0.99225E-01    rms(broyden)= 0.99174E-01
  rms(prec ) = 0.17089E+00
  weight for this iteration     100.00

 eigenvalues of (default mixing * dielectric matrix)
  average eigenvalue GAMMA=   1.0567
  2.1606  1.8769  1.0094  0.5300  0.3583  0.4050

 Free energy of the ion-electron system (eV)
  ---------------------------------------------------
  alpha Z        PSCENC =      1552.00394911
  Ewald energy   TEWEN  =    -20205.55815807
  -Hartree energ DENC   =     -6658.23873312
  -exchange      EXHF   =         0.00000000
  -V(xc)+E(xc)   XCENC  =      -234.96141939
  PAW double counting   =     34138.97545737   -32532.26582651
  entropy T*S    EENTRO =         0.00763882
  eigenvalues    EBANDS =     -2683.65855221
  atomic energy  EATOM  =     26258.95213085
  Solvation  Ediel_sol  =         0.00000000
  ---------------------------------------------------
  free energy    TOTEN  =      -364.74351314 eV

  energy without entropy =     -364.75115196  energy(sigma->0) =     -364.74605942


--------------------------------------------------------------------------------------------------------




----------------------------------------- Iteration    1(  12)  ---------------------------------------


    POTLOK:  cpu time    0.0293: real time    0.0295
    SETDIJ:  cpu time    0.0126: real time    0.0126
    EDDIAG:  cpu time    0.0852: real time    0.0858
  RMM-DIIS:  cpu time    0.8458: real time    0.8487
    ORTHCH:  cpu time    0.0195: real time    0.0196
       DOS:  cpu time    0.0009: real time    0.0009
    CHARGE:  cpu time    0.0569: real time    0.0572
    MIXING:  cpu time    0.0026: real time    0.0026
    --------------------------------------------
      LOOP:  cpu time    1.0534: real time    1.1059

 eigenvalue-minimisations  :  7698
 total energy-change (2. order) : 0.4130634E-02  (-0.9603419E-02)
 number of electron     299.0000004 magnetization 
 augmentation part       18.2798195 magnetization 

 Broyden mixing:
  rms(total) = 0.55864E-01    rms(broyden)= 0.55840E-01
  rms(prec ) = 0.96725E-01
  weight for this iteration     100.00

 eigenvalues of (default mixing * dielectric matrix)
  average eigenvalue GAMMA=   1.0041
  2.2210  1.9114  1.0937  0.5503  0.5503  0.3511  0.3511

 Free energy of the ion-electron system (eV)
  ---------------------------------------------------
  alpha Z        PSCENC =      1552.00394911
  Ewald energy   TEWEN  =    -20205.55815807
  -Hartree energ DENC   =     -6661.56054816
  -exchange      EXHF   =         0.00000000
  -V(xc)+E(xc)   XCENC  =      -234.66951071
  PAW double counting   =     34273.56706845   -32663.84948478
  entropy T*S    EENTRO =         0.00589434
  eigenvalues    EBANDS =     -2683.63072354
  atomic energy  EATOM  =     26258.95213085
  Solvation  Ediel_sol  =         0.00000000
  ---------------------------------------------------
  free energy    TOTEN  =      -364.73938251 eV

  energy without entropy =     -364.74527685  energy(sigma->0) =     -364.74134729


--------------------------------------------------------------------------------------------------------




----------------------------------------- Iteration    1(  13)  ---------------------------------------


    POTLOK:  cpu time    0.0284: real time    0.0285
    SETDIJ:  cpu time    0.0036: real time    0.0036
    EDDIAG:  cpu time    0.0890: real time    0.0895
  RMM-DIIS:  cpu time    0.7933: real time    0.7978
    ORTHCH:  cpu time    0.0125: real time    0.0126
       DOS:  cpu time    0.0028: real time    0.0028
    CHARGE:  cpu time    0.0314: real time    0.0316
    MIXING:  cpu time    0.0016: real time    0.0016
    --------------------------------------------
      LOOP:  cpu time    0.9630: real time    1.0196

 eigenvalue-minimisations  :  7721
 total energy-change (2. order) : 0.4331829E-02  (-0.2996268E-02)
 number of electron     299.0000004 magnetization 
 augmentation part       18.2787818 magnetization 

 Broyden mixing:
  rms(total) = 0.27998E-01    rms(broyden)= 0.27981E-01
  rms(prec ) = 0.39072E-01
  weight for this iteration     100.00

 eigenvalues of (default mixing * dielectric matrix)
  average eigenvalue GAMMA=   1.0226
  2.1910  2.0399  1.2588  0.9322  0.5941  0.4516  0.3566  0.3566

 Free energy of the ion-electron system (eV)
  ---------------------------------------------------
  alpha Z        PSCENC =      1552.00394911
  Ewald energy   TEWEN  =    -20205.55815807
  -Hartree energ DENC   =     -6662.32075377
  -exchange      EXHF   =         0.00000000
  -V(xc)+E(xc)   XCENC  =      -234.59778635
  PAW double counting   =     34339.09927556   -32728.07064293
  entropy T*S    EENTRO =         0.00557384
  eigenvalues    EBANDS =     -2684.24863894
  atomic energy  EATOM  =     26258.95213085
  Solvation  Ediel_sol  =         0.00000000
  ---------------------------------------------------
  free energy    TOTEN  =      -364.73505068 eV

  energy without entropy =     -364.74062452  energy(sigma->0) =     -364.73690863


--------------------------------------------------------------------------------------------------------




----------------------------------------- Iteration    1(  14)  ---------------------------------------


    POTLOK:  cpu time    0.0280: real time    0.0280
    SETDIJ:  cpu time    0.0035: real time    0.0035
    EDDIAG:  cpu time    0.0813: real time    0.0815
  RMM-DIIS:  cpu time    0.8055: real time    0.8088
    ORTHCH:  cpu time    0.0124: real time    0.0125
       DOS:  cpu time    0.0025: real time    0.0025
    CHARGE:  cpu time    0.0299: real time    0.0300
    MIXING:  cpu time    0.0015: real time    0.0016
    --------------------------------------------
      LOOP:  cpu time    0.9652: real time    1.0311

 eigenvalue-minimisations  :  7813
 total energy-change (2. order) : 0.1793817E-03  (-0.1054773E-02)
 number of electron     299.0000004 magnetization 
 augmentation part       18.2769104 magnetization 

 Broyden mixing:
  rms(total) = 0.16300E-01    rms(broyden)= 0.16295E-01
  rms(prec ) = 0.23085E-01
  weight for this iteration     100.00

 eigenvalues of (default mixing * dielectric matrix)
  average eigenvalue GAMMA=   1.0387
  2.2942  2.0760  1.5963  0.9837  0.6217  0.6217  0.4447  0.3554  0.3543

 Free energy of the ion-electron system (eV)
  ---------------------------------------------------
  alpha Z        PSCENC =      1552.00394911
  Ewald energy   TEWEN  =    -20205.55815807
  -Hartree energ DENC   =     -6662.83554466
  -exchange      EXHF   =         0.00000000
  -V(xc)+E(xc)   XCENC  =      -234.58297685
  PAW double counting   =     34368.32202016   -32756.77901853
  entropy T*S    EENTRO =         0.00605965
  eigenvalues    EBANDS =     -2684.26333296
  atomic energy  EATOM  =     26258.95213085
  Solvation  Ediel_sol  =         0.00000000
  ---------------------------------------------------
  free energy    TOTEN  =      -364.73487130 eV

  energy without entropy =     -364.74093095  energy(sigma->0) =     -364.73689118


--------------------------------------------------------------------------------------------------------




----------------------------------------- Iteration    1(  15)  ---------------------------------------


    POTLOK:  cpu time    0.0287: real time    0.0288
    SETDIJ:  cpu time    0.0036: real time    0.0036
    EDDIAG:  cpu time    0.0797: real time    0.0800
  RMM-DIIS:  cpu time    0.8268: real time    0.8307
    ORTHCH:  cpu time    0.0125: real time    0.0126
       DOS:  cpu time    0.0014: real time    0.0014
    CHARGE:  cpu time    0.0323: real time    0.0324
    MIXING:  cpu time    0.0016: real time    0.0016
    --------------------------------------------
      LOOP:  cpu time    0.9873: real time    1.0205

 eigenvalue-minimisations  :  7738
 total energy-change (2. order) :-0.2032142E-03  (-0.5335079E-03)
 number of electron     299.0000004 magnetization 
 augmentation part       18.2758388 magnetization 

 Broyden mixing:
  rms(total) = 0.80237E-02    rms(broyden)= 0.80188E-02
  rms(prec ) = 0.15304E-01
  weight for this iteration     100.00

 eigenvalues of (default mixing * dielectric matrix)
  average eigenvalue GAMMA=   1.0343
  2.5294  2.0195  1.5451  1.1859  0.7193  0.7193  0.4582  0.4582  0.3540  0.3540

 Free energy of the ion-electron system (eV)
  ---------------------------------------------------
  alpha Z        PSCENC =      1552.00394911
  Ewald energy   TEWEN  =    -20205.55815807
  -Hartree energ DENC   =     -6662.93162822
  -exchange      EXHF   =         0.00000000
  -V(xc)+E(xc)   XCENC  =      -234.58780365
  PAW double counting   =     34394.35136791   -32782.44002783
  entropy T*S    EENTRO =         0.00606721
  eigenvalues    EBANDS =     -2684.53097184
  atomic energy  EATOM  =     26258.95213085
  Solvation  Ediel_sol  =         0.00000000
  ---------------------------------------------------
  free energy    TOTEN  =      -364.73507452 eV

  energy without entropy =     -364.74114173  energy(sigma->0) =     -364.73709692


--------------------------------------------------------------------------------------------------------




----------------------------------------- Iteration    1(  16)  ---------------------------------------


    POTLOK:  cpu time    0.0291: real time    0.0292
    SETDIJ:  cpu time    0.0037: real time    0.0037
    EDDIAG:  cpu time    0.0780: real time    0.0785
  RMM-DIIS:  cpu time    0.8275: real time    0.8321
    ORTHCH:  cpu time    0.0123: real time    0.0124
       DOS:  cpu time    0.0010: real time    0.0010
    CHARGE:  cpu time    0.0300: real time    0.0301
    MIXING:  cpu time    0.0017: real time    0.0017
    --------------------------------------------
      LOOP:  cpu time    0.9839: real time    1.0277

 eigenvalue-minimisations  :  7167
 total energy-change (2. order) :-0.7087885E-04  (-0.2117434E-03)
 number of electron     299.0000004 magnetization 
 augmentation part       18.2757703 magnetization 

 Broyden mixing:
  rms(total) = 0.49537E-02    rms(broyden)= 0.49521E-02
  rms(prec ) = 0.92148E-02
  weight for this iteration     100.00

 eigenvalues of (default mixing * dielectric matrix)
  average eigenvalue GAMMA=   1.0156
  2.5958  2.0494  1.5542  1.3371  0.7696  0.7696  0.4975  0.4975  0.3480  0.3658
  0.3865

 Free energy of the ion-electron system (eV)
  ---------------------------------------------------
  alpha Z        PSCENC =      1552.00394911
  Ewald energy   TEWEN  =    -20205.55815807
  -Hartree energ DENC   =     -6663.09139734
  -exchange      EXHF   =         0.00000000
  -V(xc)+E(xc)   XCENC  =      -234.58068988
  PAW double counting   =     34406.10178571   -32793.98807238
[...]
    102       5.5364      2.00000
    103       5.5687      2.00000
    104       5.6176      2.00000
    105       5.6909      2.00000
    106       5.7216      2.00000
    107       5.8080      2.00000
    108       5.8561      2.00000
    109       5.9037      2.00000
    110       6.1442      2.00000
    111       6.1863      2.00000
    112       6.2062      2.00000
    113       6.2458      2.00000
    114       6.2638      2.00000
    115       6.3182      2.00000
    116       6.3319      2.00000
    117       6.3514      2.00000
    118       6.3878      2.00000
    119       6.4314      2.00000
    120       6.4539      2.00000
    121       6.5055      2.00000
    122       6.5115      2.00000
    123       6.5506      2.00000
    124       6.5691      2.00000
    125       6.6110      2.00000
    126       6.6521      2.00000
    127       6.7110      2.00000
    128       6.7422      2.00000
    129       6.7903      2.00000
    130       6.8320      2.00000
    131       6.8885      2.00000
    132       6.9242      2.00000
    133       6.9484      2.00000
    134       7.0084      2.00000
    135       7.0264      2.00000
    136       7.0660      2.00001
    137       7.0847      2.00001
    138       7.1484      2.00016
    139       7.1657      2.00030
    140       7.1898      2.00070
    141       7.2521      2.00466
    142       7.2877      2.01147
    143       7.3300      2.02757
    144       7.3694      2.05034
    145       7.4174      2.07089
    146       7.4440      2.06015
    147       7.4694      2.01837
    148       7.4957      1.92808
    149       7.5188      1.80058
    150       7.5593      1.46611
    151       7.5973      1.05940
    152       7.6396      0.59606
    153       7.6647      0.36090
    154       7.7294     -0.00165
    155       7.7579     -0.05692
    156       7.7915     -0.07056
    157       7.8169     -0.06133
    158       7.8449     -0.04469
    159       7.8749     -0.02769
    160       7.9324     -0.00799
    161       7.9824     -0.00200
    162       7.9960     -0.00131
    163       8.0603     -0.00014
    164       8.0849     -0.00005
    165       8.1235     -0.00001
    166       8.1657     -0.00000
    167       8.2046     -0.00000
    168       8.2832     -0.00000
    169       8.3362     -0.00000
    170       8.4068     -0.00000
    171       8.4640     -0.00000
    172       8.5096     -0.00000
    173       8.6656     -0.00000
    174       8.9426     -0.00000
    175       8.9846     -0.00000
    176       9.3954     -0.00000
    177       9.5047     -0.00000
    178       9.6009     -0.00000
    179       9.6196     -0.00000
    180       9.6832     -0.00000


--------------------------------------------------------------------------------------------------------


 soft charge-density along one line, spin component           1
         0         1         2         3         4         5         6         7         8         9
 total charge-density along one line
 
 pseudopotential strength for first ion, spin component:           1
 -6.354  -0.001  -0.001   0.008  -0.000  -7.545  -0.001  -0.001
 -0.001  -6.354   0.003   0.001  -0.003  -0.001  -7.544   0.003
 -0.001   0.003  -6.360  -0.000  -0.002  -0.001   0.003  -7.552
  0.008   0.001  -0.000  -6.349  -0.001   0.010   0.001  -0.000
 -0.000  -0.003  -0.002  -0.001  -6.361  -0.000  -0.004  -0.002
 -7.545  -0.001  -0.001   0.010  -0.000  -8.937  -0.002  -0.002
 -0.001  -7.544   0.003   0.001  -0.004  -0.002  -8.936   0.004
 -0.001   0.003  -7.552  -0.000  -0.002  -0.002   0.004  -8.945
  0.010   0.001  -0.000  -7.539  -0.001   0.012   0.001  -0.000
 -0.000  -0.004  -0.002  -0.001  -7.553  -0.000  -0.005  -0.003
 -0.001  -0.005  -0.001   0.001  -0.001  -0.001  -0.006  -0.001
 -0.002  -0.008  -0.001   0.002  -0.002  -0.002  -0.009  -0.001
 -0.001   0.003   0.006   0.001   0.010  -0.001   0.003   0.007
  0.001  -0.001  -0.002  -0.000   0.000   0.001  -0.002  -0.003
 -0.002   0.001  -0.001   0.003   0.001  -0.002   0.001  -0.001
  0.001  -0.007  -0.006  -0.001  -0.011   0.001  -0.008  -0.008
 -0.001  -0.002  -0.001   0.001  -0.000  -0.002  -0.002  -0.001
 -0.002  -0.001   0.001  -0.007  -0.002  -0.002  -0.002   0.001
 total augmentation occupancy for first ion, spin component:           1
  5.091  -0.035  -0.059   0.436  -0.004  -2.624   0.016   0.034  -0.215   0.004   0.040  -0.010   0.027  -0.010   0.075   0.001
 -0.035   5.055   0.127   0.027  -0.124   0.016  -2.592  -0.077  -0.011   0.108   0.228  -0.078   0.122   0.119  -0.003   0.000
 -0.059   0.127   4.833   0.018  -0.053   0.034  -0.076  -2.671  -0.011   0.037  -0.009  -0.008  -0.062   0.092  -0.001  -0.006
  0.436   0.027   0.018   5.277   0.017  -0.215  -0.011  -0.011  -2.700  -0.008  -0.026   0.015  -0.008   0.012   0.072  -0.001
 -0.004  -0.124  -0.053   0.017   4.829   0.004   0.106   0.037  -0.009  -2.658   0.055  -0.024  -0.131  -0.017  -0.013  -0.010
 -2.624   0.016   0.034  -0.215   0.004   1.375  -0.006  -0.019   0.104  -0.003  -0.020   0.005  -0.013   0.004  -0.040  -0.000
  0.016  -2.592  -0.076  -0.011   0.106  -0.006   1.352   0.046   0.004  -0.078  -0.133   0.040  -0.064  -0.061   0.001  -0.000
  0.034  -0.077  -2.671  -0.011   0.037  -0.019   0.046   1.486   0.007  -0.024   0.002   0.004   0.035  -0.058   0.001   0.003
 -0.215  -0.011  -0.011  -2.700  -0.009   0.104   0.004   0.007   1.406   0.005   0.015  -0.007   0.003  -0.006  -0.041   0.000
  0.004   0.108   0.037  -0.008  -2.658  -0.003  -0.078  -0.024   0.005   1.475  -0.037   0.013   0.073   0.008   0.006   0.005
  0.040   0.228  -0.009  -0.026   0.055  -0.020  -0.133   0.002   0.015  -0.037   2.217  -0.227   0.057   0.036  -0.000   0.001
 -0.010  -0.078  -0.008   0.015  -0.024   0.005   0.040   0.004  -0.007   0.013  -0.227   0.026  -0.000  -0.002  -0.000   0.000
  0.027   0.122  -0.062  -0.008  -0.131  -0.013  -0.064   0.035   0.003   0.073   0.057  -0.000   0.274   0.017   0.001   0.007
 -0.010   0.119   0.092   0.012  -0.017   0.004  -0.061  -0.058  -0.006   0.008   0.036  -0.002   0.017   0.283  -0.001  -0.000
  0.075  -0.003  -0.001   0.072  -0.013  -0.040   0.001   0.001  -0.041   0.006  -0.000  -0.000   0.001  -0.001   0.284  -0.000
  0.001   0.000  -0.006  -0.001  -0.010  -0.000  -0.000   0.003   0.000   0.005   0.001   0.000   0.007  -0.000  -0.000   0.000
 -0.001   0.002   0.005   0.000  -0.000   0.000  -0.001  -0.003  -0.000   0.000  -0.000   0.000  -0.000   0.007  -0.000  -0.000
  0.002  -0.001   0.000  -0.001  -0.001  -0.001   0.000  -0.000   0.000   0.000  -0.000   0.000  -0.000  -0.000   0.007  -0.000


------------------------ aborting loop because EDIFF is reached ----------------------------------------


    CHARGE:  cpu time    0.0291: real time    0.0292
    FORLOC:  cpu time    0.0133: real time    0.0133
    FORNL :  cpu time    0.3073: real time    0.3116
    STRESS:  cpu time    0.9615: real time    0.9670
    FORCOR:  cpu time    0.0433: real time    0.0451
    FORHAR:  cpu time    0.0176: real time    0.0299
    MIXING:  cpu time    0.0011: real time    0.0018
    OFIELD:  cpu time    0.0000: real time    0.0000

  FORCE on cell =-STRESS in cart. coord.  units (eV):
  Direction    XX          YY          ZZ          XY          YZ          ZX
  --------------------------------------------------------------------------------------
  Alpha Z  1560.72539  1560.72539  1560.72539
  Ewald   -6861.42280 -6599.63415 -6797.62155  -175.36569   -62.00806    48.78026
  Hartree  2132.84568  2311.46726  2192.83523  -148.90424   -49.12014    43.24994
  E(xc)   -1308.26521 -1308.23769 -1308.89919     0.18495    -1.01257    -0.11593
  Local    -509.30962  -951.27802  -632.28991   324.15677   113.25107   -93.04115
  n-local  -296.41317  -300.54553  -298.69109    -0.33365     0.38375    -0.35588
  augment   226.11625   226.59862   226.15851     0.07674    -0.30705     0.08421
  Kinetic  5055.56708  5060.71361  5057.60253     0.08604    -1.21778     1.31271
  Fock        0.00000     0.00000     0.00000     0.00000     0.00000     0.00000
  -------------------------------------------------------------------------------------
  Total      -0.15641    -0.19051    -0.18008    -0.09907    -0.03078    -0.08585
  in kB      -0.34699    -0.42266    -0.39952    -0.21980    -0.06828    -0.19047
  external pressure =       -0.39 kB  Pullay stress =        0.00 kB


 VOLUME and BASIS-vectors are now :
 -----------------------------------------------------------------------------
  energy-cutoff  :      300.00
  volume of cell :      722.18
      direct lattice vectors                 reciprocal lattice vectors
     6.888062346  0.006284375 -0.000213067     0.145178834 -0.000136935  0.000000921
     0.009674718 10.257275025  0.012146928    -0.000088951  0.097491997 -0.000112412
    -0.000053749  0.011785786 10.221532827     0.000003132 -0.000115859  0.097832818

  length of vectors
     6.888065216 10.257286780 10.221539622     0.145178899  0.097492102  0.097832887


 FORCES acting on ions
    electron-ion (+dipol)            ewald-force                    non-local-force                 convergence-correction
 -----------------------------------------------------------------------------------------------
   -.545E+02 -.624E+02 0.434E+02   0.545E+02 0.634E+02 -.430E+02   -.544E-01 -.101E+01 -.460E+00   0.143E-02 0.640E-02 0.105E-01
   0.149E+02 -.945E+02 0.358E+01   -.140E+02 0.939E+02 -.369E+01   -.838E+00 0.581E+00 0.751E-01   -.107E-02 -.812E-02 0.246E-01
   0.315E+02 -.691E+02 0.160E+02   -.312E+02 0.696E+02 -.157E+02   -.254E+00 -.452E+00 -.332E+00   0.160E-02 -.101E-01 -.737E-02
   -.336E+02 0.105E+02 -.208E+02   0.332E+02 -.114E+02 0.206E+02   0.427E+00 0.846E+00 0.231E+00   0.835E-04 -.104E-01 -.245E-01
   -.268E+02 0.155E+03 0.723E+02   0.269E+02 -.154E+03 -.716E+02   -.777E-01 -.707E+00 -.721E+00   0.110E-03 0.928E-02 0.206E-01
   -.105E+02 -.930E+02 0.461E+02   0.957E+01 0.925E+02 -.463E+02   0.882E+00 0.548E+00 0.116E+00   0.158E-02 -.793E-02 0.246E-01
   0.299E+02 -.472E+00 0.360E+02   -.295E+02 0.131E+00 -.366E+02   -.390E+00 0.349E+00 0.690E+00   0.795E-04 -.927E-02 -.217E-01
   0.271E+02 0.141E+03 0.790E+02   -.273E+02 -.141E+03 -.782E+02   0.112E+00 -.638E+00 -.801E+00   -.160E-03 0.102E-01 0.213E-01
   -.626E+02 0.363E+02 -.157E+02   0.625E+02 -.356E+02 0.158E+02   0.158E+00 -.677E+00 -.538E-01   -.457E-03 0.108E-01 -.300E-01
   -.631E+02 0.333E+02 -.763E+02   0.627E+02 -.340E+02 0.756E+02   0.386E+00 0.691E+00 0.676E+00   -.687E-03 0.664E-02 0.929E-03
   -.142E+02 -.434E+02 -.809E+02   0.144E+02 0.436E+02 0.802E+02   -.191E+00 -.188E+00 0.699E+00   0.315E-03 0.102E-02 -.213E-01
   -.297E+02 0.879E+01 -.436E+02   0.296E+02 -.896E+01 0.438E+02   0.114E+00 0.185E+00 -.230E+00   0.449E-03 -.120E-01 0.619E-02
   -.187E+02 0.419E+02 -.274E+02   0.190E+02 -.414E+02 0.274E+02   -.324E+00 -.513E+00 -.785E-01   0.122E-02 -.615E-02 0.231E-01
   0.737E+02 -.246E+02 -.174E+02   -.739E+02 0.244E+02 0.174E+02   0.226E+00 0.159E+00 0.822E-01   0.354E-02 0.117E-01 -.176E-01
   -.165E+02 -.730E+02 0.434E+02   0.165E+02 0.732E+02 -.433E+02   0.149E-01 -.232E+00 -.495E-01   -.721E-03 0.327E-02 0.126E-01
   0.676E+02 -.286E+02 -.217E+02   -.677E+02 0.285E+02 0.215E+02   0.903E-01 0.123E+00 0.158E+00   0.202E-02 -.662E-02 -.121E-01
   -.788E+01 -.428E+02 0.413E+02   0.772E+01 0.419E+02 -.409E+02   0.163E+00 0.898E+00 -.468E+00   -.131E-02 -.116E-01 0.137E-01
   0.176E+02 0.390E+02 -.326E+02   -.180E+02 -.386E+02 0.328E+02   0.382E+00 -.392E+00 -.184E+00   -.834E-03 -.622E-02 0.231E-01
   -.941E+01 0.247E+02 0.473E+02   0.914E+01 -.248E+02 -.473E+02   0.266E+00 0.266E-01 0.157E-02   -.104E-03 -.168E-02 -.346E-02
   -.206E+03 -.647E+02 -.474E+02   0.206E+03 0.644E+02 0.476E+02   -.142E+00 0.249E+00 -.113E+00   -.116E-01 0.368E-01 -.579E-01
   -.637E+02 0.116E+03 -.288E+02   0.639E+02 -.116E+03 0.287E+02   -.136E+00 0.129E+00 -.407E-02   -.101E-01 0.435E-01 0.700E-01
   -.173E+03 -.125E+03 -.175E+02   0.173E+03 0.124E+03 0.172E+02   0.132E+00 0.438E-01 0.343E+00   -.817E-02 -.181E-01 -.402E-01
   0.871E+01 0.127E+03 0.171E+03   -.833E+01 -.127E+03 -.171E+03   -.380E+00 0.130E+00 -.857E-01   0.212E-03 -.320E-02 -.760E-02
   0.615E+02 0.135E+03 0.533E+02   -.617E+02 -.135E+03 -.533E+02   0.163E+00 0.359E-01 -.813E-01   0.988E-02 0.446E-01 0.682E-01
   0.782E+02 0.516E+02 -.227E+03   -.779E+02 -.513E+02 0.228E+03   -.208E+00 -.219E+00 -.531E+00   -.776E-03 -.474E-01 0.197E-01
   0.164E+03 0.154E+03 -.105E+02   -.165E+03 -.154E+03 0.105E+02   0.451E+00 -.333E+00 0.134E+00   0.246E-02 -.191E-01 -.669E-01
   0.135E+03 0.154E+03 0.592E+02   -.135E+03 -.153E+03 -.597E+02   -.303E+00 -.300E+00 0.491E+00   -.135E-03 0.260E-01 -.689E-01
   -.641E+02 0.366E+02 0.786E+02   0.644E+02 -.373E+02 -.787E+02   -.335E+00 0.673E+00 0.192E+00   -.300E-02 0.319E-01 0.189E-03
   0.690E+01 -.212E+03 0.193E+03   -.662E+01 0.211E+03 -.193E+03   -.272E+00 0.108E+01 0.167E+00   0.262E-02 -.309E-01 0.426E-01
   -.194E+03 0.199E+03 -.375E+02   0.194E+03 -.198E+03 0.376E+02   -.482E+00 -.485E+00 -.722E-01   -.454E-02 -.294E-01 -.772E-01
   0.120E+03 -.182E+03 -.251E+02   -.120E+03 0.183E+03 0.263E+02   -.862E-01 -.111E+01 -.121E+01   -.464E-02 0.158E-01 0.281E-01
   0.660E+02 0.150E+03 0.193E+02   -.664E+02 -.151E+03 -.196E+02   0.352E+00 0.536E+00 0.280E+00   0.797E-02 0.265E-01 0.124E-02
   0.483E+02 -.200E+03 -.113E+03   -.486E+02 0.200E+03 0.112E+03   0.262E+00 -.347E+00 0.113E+01   -.405E-02 -.114E-01 -.633E-01
   -.675E+02 -.236E+03 -.387E+02   0.671E+02 0.236E+03 0.391E+02   0.351E+00 -.471E+00 -.407E+00   -.577E-02 -.269E-01 -.345E-01
   0.116E+03 0.931E+02 -.254E+03   -.115E+03 -.941E+02 0.253E+03   -.783E+00 0.972E+00 0.754E+00   -.338E-02 0.300E-01 -.969E-03
   0.484E+02 -.156E+03 0.134E+03   -.483E+02 0.156E+03 -.134E+03   -.247E-01 -.102E+00 -.177E+00   0.296E-02 0.215E-01 0.547E-01
 -----------------------------------------------------------------------------------------------
   0.370E+00 -.146E+00 -.779E-01   0.497E-13 0.568E-13 0.284E-13   -.350E+00 0.874E-01 0.164E+00   -.230E-01 0.596E-01 -.895E-01
 
 
 POSITION                                       TOTAL-FORCE (eV/Angst)
 -----------------------------------------------------------------------------------
      1.68989      1.87501      1.80506         0.002345     -0.001626      0.003883
      0.12734      3.36458      3.48597         0.003146      0.000151     -0.002690
      0.05236      3.47849      6.81134        -0.001946     -0.000903      0.002703
      1.63648      4.98201      8.51416         0.000945      0.001932      0.004915
      1.74456      8.80206      5.30856         0.002103     -0.000555     -0.000022
      3.31955      3.33631      3.40599        -0.008385     -0.001358     -0.003662
      5.26380      5.06826      8.34679        -0.000760     -0.001772      0.004515
      5.17671      8.73380      5.28901        -0.000515     -0.001392     -0.003488
      1.68954      8.67524      8.54625         0.002301      0.003799     -0.001291
      1.64015      8.37492      1.46031        -0.000028      0.001778      0.004830
      1.75729      1.71413      8.43645         0.002531     -0.001991      0.002495
      1.69649      5.12943      1.70110         0.000270      0.003525      0.001809
      0.10822      6.97201      3.54103        -0.000149     -0.000414     -0.004781
      3.48217      0.04053      0.11671        -0.005935     -0.003004     -0.000760
      5.14440      1.72973      5.16095         0.000911     -0.000424     -0.004457
      3.53056      3.34505      0.01446        -0.003860     -0.001294     -0.003461
      5.12345      5.01944      5.10488         0.003365     -0.001776     -0.000067
      3.37626      7.03367      3.50502        -0.002256     -0.001631     -0.006171
      3.38013      6.82827      6.80570        -0.000802     -0.003040      0.003392
      6.80604      0.06541      0.08709        -0.003776      0.000485     -0.001344
      0.03090     10.22230      3.37036         0.003107     -0.001547     -0.001267
      6.77345      3.33954     10.20785         0.000003      0.000830     -0.000586
      0.10420      6.81228      6.74165        -0.000441     -0.002809      0.001625
      3.43204     10.22166      3.34045        -0.000319      0.000832      0.000372
      5.18942      5.19796      1.78843         0.000777      0.000210      0.002538
      3.43399      6.80074     10.06103        -0.002066      0.005672      0.001436
      5.22709      8.57593      8.45230         0.001164      0.004362     -0.004944
      0.02135      0.02697      6.83028        -0.001068     -0.000174      0.001187
      1.80242      4.99535      5.06579         0.002215     -0.000216     -0.000980
      0.02984      6.82270     10.11251         0.001997      0.001714     -0.001270
      5.17916      1.85576      1.99703         0.001520      0.001050      0.001333
      3.44391     10.24797      6.84439        -0.000385      0.000968     -0.002153
      5.11310      1.73109      8.30787         0.000989     -0.000684      0.002452
      3.40010      3.50657      6.84973         0.000952      0.001261      0.002003
      5.26599      8.31011      1.60936         0.000973     -0.002985      0.000560
      1.74572      1.70527      5.17699         0.001077      0.001025      0.001343
 -----------------------------------------------------------------------------------
    total drift:                               -0.002470      0.001394     -0.003639


--------------------------------------------------------------------------------------------------------



  FREE ENERGIE OF THE ION-ELECTRON SYSTEM (eV)
  ---------------------------------------------------
  free  energy   TOTEN  =      -364.87508892 eV

  energy  without entropy=     -364.87761127  energy(sigma->0) =     -364.87592971
 
 d Force = 0.3493277E-04[ 0.275E-04, 0.423E-04]  d Energy = 0.5746169E-04-0.225E-04
 d Force =-0.1161617E+00[-0.116E+00,-0.116E+00]  d Ewald  = 0.3311983E+00-0.447E+00


--------------------------------------------------------------------------------------------------------


    POTLOK:  cpu time    0.0447: real time    0.0538


--------------------------------------------------------------------------------------------------------


 Conjugate gradient step on ions:
 trial-energy change:   -0.000057  1 .order   -0.000062   -0.000064   -0.000059
  (g-gl).g = 0.407E-04      g.g   = 0.433E-04  gl.gl    = 0.672E-04
 g(Force)  = 0.169E-04   g(Stress)= 0.264E-04 ortho     =-0.526E-05
 gamma     =   0.60632
 trial     =   1.60377
 opt step  =   6.41510  (harmonic =  18.80619) maximal distance =0.00254531
 next E    =  -364.875408   (d E  =  -0.00038)


--------------------------------------------------------------------------------------------------------


  
 reached required accuracy - stopping structural energy minimisation
     LOOP+:  cpu time    4.1562: real time    4.6359
    4ORBIT:  cpu time    0.0000: real time    0.0000

 total amount of memory used by VASP on root node    67847. kBytes
========================================================================

   base      :      30000. kBytes
   nonlr-proj:      10518. kBytes
   fftplans  :       2814. kBytes
   grid      :       5360. kBytes
   one-center:        124. kBytes
   wavefun   :      19031. kBytes
 
  
  
 General timing and accounting informations for this job:
 ========================================================
  
                  Total CPU time used (sec):      271.325
                            User time (sec):      270.292
                          System time (sec):        1.032
                         Elapsed time (sec):      301.243
  
                   Maximum memory used (kb):      292764.
                   Average memory used (kb):           0.
  
                          Minor page faults:       144187
                          Major page faults:           35
                 Voluntary context switches:        10576
