   32   32  300    1
  0.3466792E+02  0.1035204E-08  0.1035204E-08  0.1035204E-08  0.1500000E-15
  1.000000000000000E-004
  CAR 
 AuPt                                    
    336     14    204
 
  0.0000000E+00  0.0000000E+00  0.0000000E+00  0.3703704E-01
    1       -3.431886   1.000000
    2       -1.055478   1.000000
    3       -1.051313   1.000000
    4       -0.997128   1.000000
    5       -0.959181   1.000000
    6       -0.926968   1.000000
    7       -0.906672   1.000000
    8       -0.842965   1.000000
    9       -0.833917   1.000000
   10       -0.821084   1.000000
   11       -0.811160   1.000000
   12       -0.634340   1.000000
   13       -0.609488   1.000000
   14       -0.506362   1.000000
   15       -0.288872   1.000000
   16       -0.257143   1.000000
   17       -0.252249   1.000000
   18        0.229301   1.000000
   19        0.266627   1.000000
   20        0.271244   1.000000
   21        0.316999   1.000000
   22        0.366006   1.000000
   23        0.377877   1.000000
   24        0.402511   1.000000
   25        0.407729   1.000000
   26        0.411174   1.000000
   27        0.435393   1.000000
   28        0.442845   1.000000
   29        0.460679   1.000000
   30        0.490214   1.000000
   31        0.497569   1.000000
   32        0.519678   1.000000
   33        0.531374   1.000000
   34        0.564224   1.000000
   35        0.592202   1.000000
   36        0.616848   1.000000
   37        0.664207   1.000000
   38        0.678505   1.000000
   39        0.701473   1.000000
   40        0.771509   1.000000
   41        0.823504   1.000000
   42        1.009713   1.000000
   43        1.048356   1.000000
   44        1.083769   1.000000
   45        1.111649   1.000000
   46        1.153894   1.000000
   47        1.196499   1.000000
   48        1.216445   1.000000
   49        1.235729   1.000000
   50        1.248691   1.000000
   51        1.287124   1.000000
   52        1.309634   1.000000
   53        1.331447   1.000000
   54        1.362360   1.000000
   55        1.383207   1.000000
   56        1.401953   1.000000
   57        1.418445   1.000000
   58        1.431436   1.000000
   59        1.441451   1.000000
   60        1.483001   1.000000
   61        1.502978   1.000000
   62        1.519015   1.000000
   63        1.536797   1.000000
   64        1.554553   1.000000
   65        1.592810   1.000000
   66        1.623350   1.000000
   67        1.644649   1.000000
   68        1.658454   1.000000
   69        1.668909   1.000000
   70        1.686917   1.000000
   71        1.708865   1.000000
   72        1.718965   1.000000
   73        1.750409   1.000000
   74        1.757805   1.000000
   75        1.767407   1.000000
   76        1.790791   1.000000
   77        1.818081   1.000000
   78        1.878794   1.000000
   79        1.903944   1.000000
   80        1.939051   1.000000
   81        2.024357   1.000000
   82        2.084173   1.000000
   83        2.176915   1.000000
   84        2.200538   1.000000
   85        2.253313   1.000000
   86        2.269668   1.000000
   87        2.302088   1.000000
   88        2.339346   1.000000
   89        2.375600   1.000000
   90        2.421400   1.000000
   91        2.454582   1.000000
   92        2.536872   1.000000
   93        2.553463   1.000000
   94        2.590181   1.000000
   95        2.619790   1.000000
   96        2.672226   1.000000
   97        2.748077   1.000000
   98        2.800345   1.000000
   99        2.902533   1.000000
  100        2.913822   1.000000
  101        2.960876   1.000000
  102        2.982713   1.000000
  103        3.018168   1.000000
  104        3.065182   1.000000
  105        3.093206   1.000000
  106        3.119389   1.000000
  107        3.140141   1.000000
  108        3.195908   1.000000
  109        3.209849   1.000000
  110        3.219502   1.000000
  111        3.241276   1.000000
  112        3.268166   1.000000
  113        3.282242   1.000000
  114        3.348115   1.000000
  115        3.373229   1.000000
  116        3.407663   1.000000
  117        3.434994   1.000000
  118        3.476561   1.000000
  119        3.505517   1.000000
  120        3.513064   1.000000
  121        3.572130   1.000000
  122        3.599646   1.000000
  123        3.606904   1.000000
  124        3.712600   1.000000
  125        3.752305   1.000000
  126        3.776156   1.000000
  127        3.799155   1.000000
  128        3.845825   1.000000
  129        3.871329   1.000000
  130        3.901964   1.000000
  131        3.914526   1.000000
  132        4.010636   1.000000
  133        4.065276   1.000000
  134        4.083126   1.000000
  135        4.147431   1.000000
  136        4.182244   1.000000
  137        4.209760   1.000000
  138        4.232632   1.000000
  139        4.241376   1.000000
  140        4.339302   1.000000
  141        4.493225   1.000000
  142        4.557765   1.000000
  143        4.605972   1.000000
  144        4.688954   1.000000
  145        4.944171   1.000000
  146        5.008366   1.000000
  147        5.087923   1.000000
  148        5.112646   1.000000
  149        5.119197   1.000000
  150        5.218608   1.000016
  151        5.234262   1.000030
  152        5.260365   1.000084
  153        5.269752   1.000119
  154        5.313807   1.000542
  155        5.354344   1.001844
  156        5.371876   1.002970
  157        5.409256   1.007326
  158        5.444578   1.014771
  159        5.492066   1.028766
  160        5.501762   1.031400
  161        5.503334   1.031789
  162        5.538103   1.034917
  163        5.556216   1.029341
  164        5.582012   1.006827
  165        5.611956   0.950983
  166        5.624547   0.916137
  167        5.681553   0.674545
  168        5.737502   0.365210
  169        5.804833   0.075344
  170        5.983739  -0.014310
  171        6.003373  -0.009835
  172        6.567249  -0.000000
  173        6.599397  -0.000000
  174        6.651581  -0.000000
  175        6.718299  -0.000000
  176        6.766038  -0.000000
  177        6.792070  -0.000000
  178        6.849328  -0.000000
  179        6.899929  -0.000000
  180        6.977131  -0.000000
  181        7.003601  -0.000000
  182        7.012955  -0.000000
  183        7.066395  -0.000000
  184        7.448014  -0.000000
  185        7.523684  -0.000000
  186        7.746136  -0.000000
  187       10.009579   0.000000
  188       10.085363   0.000000
  189       10.151460   0.000000
  190       10.176739   0.000000
  191       11.309377   0.000000
  192       11.471743   0.000000
  193       11.571970   0.000000
  194       11.703865   0.000000
  195       11.754690   0.000000
  196       11.973978   0.000000
  197       12.617635   0.000000
  198       12.809921   0.000000
  199       12.914273   0.000000
  200       12.944175   0.000000
  201       12.992496   0.000000
  202       13.002589   0.000000
  203       13.098291   0.000000
  204       13.112541   0.000000
 
  0.3333333E+00  0.0000000E+00  0.0000000E+00  0.7407407E-01
    1       -3.096768   1.000000
    2       -2.152675   1.000000
    3       -0.822311   1.000000
    4       -0.812470   1.000000
    5       -0.769419   1.000000
    6       -0.715494   1.000000
    7       -0.668185   1.000000
    8       -0.650046   1.000000
    9       -0.638754   1.000000
   10       -0.633198   1.000000
   11       -0.493691   1.000000
   12       -0.429650   1.000000
   13       -0.327121   1.000000
   14       -0.294644   1.000000
   15       -0.218514   1.000000
   16       -0.203673   1.000000
   17       -0.200075   1.000000
   18       -0.166675   1.000000
   19       -0.154652   1.000000
   20       -0.130882   1.000000
   21       -0.107302   1.000000
   22       -0.087676   1.000000
   23       -0.054981   1.000000
   24       -0.029443   1.000000
   25       -0.018012   1.000000
   26        0.144404   1.000000
   27        0.232765   1.000000
   28        0.241977   1.000000
   29        0.401900   1.000000
   30        0.420608   1.000000
   31        0.525179   1.000000
   32        0.534726   1.000000
   33        0.550339   1.000000
   34        0.559062   1.000000
   35        0.668248   1.000000
   36        0.696090   1.000000
   37        0.727350   1.000000
   38        0.756124   1.000000
   39        0.797192   1.000000
   40        0.826469   1.000000
   41        0.849956   1.000000
   42        0.876429   1.000000
   43        0.969617   1.000000
   44        1.001042   1.000000
   45        1.060860   1.000000
   46        1.091911   1.000000
   47        1.131861   1.000000
   48        1.149196   1.000000
   49        1.157500   1.000000
   50        1.203506   1.000000
   51        1.216177   1.000000
   52        1.241649   1.000000
   53        1.280419   1.000000
   54        1.297895   1.000000
   55        1.317732   1.000000
   56        1.337048   1.000000
   57        1.385550   1.000000
   58        1.408174   1.000000
   59        1.444562   1.000000
   60        1.465869   1.000000
   61        1.516676   1.000000
   62        1.543292   1.000000
   63        1.564635   1.000000
   64        1.577085   1.000000
   65        1.628619   1.000000
   66        1.658461   1.000000
   67        1.682652   1.000000
   68        1.714843   1.000000
   69        1.747175   1.000000
   70        1.771697   1.000000
   71        1.805899   1.000000
   72        1.823865   1.000000
   73        1.848104   1.000000
   74        1.892501   1.000000
   75        1.920689   1.000000
   76        1.958153   1.000000
   77        1.976547   1.000000
   78        2.019928   1.000000
   79        2.053018   1.000000
   80        2.080387   1.000000
   81        2.103627   1.000000
   82        2.168834   1.000000
   83        2.200047   1.000000
   84        2.230482   1.000000
   85        2.275431   1.000000
   86        2.336954   1.000000
   87        2.366088   1.000000
   88        2.381651   1.000000
   89        2.466829   1.000000
   90        2.486102   1.000000
   91        2.556268   1.000000
   92        2.606092   1.000000
   93        2.630880   1.000000
   94        2.663476   1.000000
   95        2.741490   1.000000
   96        2.761428   1.000000
   97        2.771401   1.000000
   98        2.834381   1.000000
   99        2.855389   1.000000
  100        2.895222   1.000000
  101        2.930239   1.000000
  102        2.944169   1.000000
  103        2.990820   1.000000
  104        3.048911   1.000000
  105        3.087704   1.000000
  106        3.164693   1.000000
  107        3.175148   1.000000
  108        3.226060   1.000000
  109        3.259214   1.000000
  110        3.287792   1.000000
  111        3.346321   1.000000
  112        3.396305   1.000000
  113        3.436359   1.000000
  114        3.471832   1.000000
  115        3.546882   1.000000
  116        3.570193   1.000000
  117        3.587955   1.000000
  118        3.652564   1.000000
  119        3.664427   1.000000
  120        3.731142   1.000000
  121        3.743787   1.000000
  122        3.799386   1.000000
  123        3.812625   1.000000
  124        3.815907   1.000000
  125        3.870526   1.000000
  126        3.876150   1.000000
  127        3.929227   1.000000
  128        3.957439   1.000000
  129        3.984457   1.000000
  130        4.031091   1.000000
  131        4.051129   1.000000
  132        4.070177   1.000000
  133        4.156588   1.000000
  134        4.183715   1.000000
  135        4.198838   1.000000
  136        4.241646   1.000000
  137        4.278433   1.000000
  138        4.304367   1.000000
  139        4.370329   1.000000
  140        4.433191   1.000000
  141        4.453927   1.000000
  142        4.474798   1.000000
  143        4.526002   1.000000
  144        4.555417   1.000000
  145        4.595971   1.000000
  146        4.654832   1.000000
  147        4.688685   1.000000
  148        4.783054   1.000000
  149        4.821169   1.000000
  150        4.893706   1.000000
  151        4.933277   1.000000
  152        4.984994   1.000000
  153        5.043219   1.000000
  154        5.074955   1.000000
  155        5.105083   1.000000
  156        5.160003   1.000001
  157        5.179665   1.000003
  158        5.224786   1.000021
  159        5.274094   1.000139
  160        5.286144   1.000214
  161        5.346878   1.001491
  162        5.411060   1.007622
  163        5.449321   1.016031
  164        5.474642   1.023491
  165        5.596254   0.984768
  166        5.636141   0.877768
  167        5.695510   0.599387
  168        5.817324   0.042330
  169        5.874022  -0.031059
  170        5.917481  -0.033083
  171        5.960970  -0.020710
  172        6.094709  -0.000954
  173        6.250926  -0.000002
  174        6.336978  -0.000000
  175        6.363099  -0.000000
  176        6.471047  -0.000000
  177        6.542775  -0.000000
  178        6.683100  -0.000000
  179        6.753108  -0.000000
  180        6.853633  -0.000000
  181        8.058121  -0.000000
  182        8.117402  -0.000000
  183        8.182885  -0.000000
  184        8.228105  -0.000000
  185        8.834645  -0.000000
  186        8.900332  -0.000000
  187        9.940915   0.000000
  188       10.026960   0.000000
  189       10.136156   0.000000
  190       10.223530   0.000000
  191       10.904100   0.000000
  192       10.961354   0.000000
  193       10.991311   0.000000
  194       11.014070   0.000000
  195       11.068553   0.000000
  196       11.133707   0.000000
  197       11.664273   0.000000
  198       11.846994   0.000000
  199       12.270801   0.000000
  200       12.406711   0.000000
  201       13.165358   0.000000
  202       13.271578   0.000000
  203       13.351091   0.000000
  204       13.407859   0.000000
 
  0.0000000E+00  0.3333333E+00  0.0000000E+00  0.7407407E-01
    1       -3.109059   1.000000
    2       -2.200048   1.000000
    3       -0.817518   1.000000
    4       -0.746421   1.000000
    5       -0.721232   1.000000
    6       -0.707718   1.000000
    7       -0.662949   1.000000
    8       -0.654623   1.000000
    9       -0.643070   1.000000
   10       -0.620008   1.000000
   11       -0.552977   1.000000
   12       -0.415119   1.000000
   13       -0.380339   1.000000
   14       -0.329831   1.000000
   15       -0.248215   1.000000
   16       -0.220369   1.000000
   17       -0.195388   1.000000
   18       -0.174782   1.000000
   19       -0.155071   1.000000
   20       -0.129473   1.000000
   21       -0.115163   1.000000
   22       -0.089623   1.000000
   23       -0.065036   1.000000
   24       -0.044731   1.000000
   25       -0.008380   1.000000
   26        0.110604   1.000000
   27        0.204142   1.000000
   28        0.206012   1.000000
   29        0.465740   1.000000
   30        0.486213   1.000000
   31        0.548550   1.000000
   32        0.605836   1.000000
   33        0.626629   1.000000
   34        0.640350   1.000000
   35        0.699782   1.000000
   36        0.719735   1.000000
   37        0.753148   1.000000
   38        0.772231   1.000000
   39        0.800041   1.000000
   40        0.836639   1.000000
   41        0.883988   1.000000
   42        0.916680   1.000000
   43        0.956292   1.000000
   44        0.965973   1.000000
   45        1.019082   1.000000
   46        1.047372   1.000000
   47        1.065417   1.000000
   48        1.080734   1.000000
   49        1.132861   1.000000
   50        1.148604   1.000000
   51        1.176231   1.000000
   52        1.201156   1.000000
   53        1.229010   1.000000
   54        1.243848   1.000000
   55        1.270460   1.000000
   56        1.308252   1.000000
   57        1.329149   1.000000
   58        1.371445   1.000000
   59        1.396569   1.000000
   60        1.440463   1.000000
   61        1.480393   1.000000
   62        1.516263   1.000000
   63        1.598290   1.000000
   64        1.632415   1.000000
   65        1.642867   1.000000
   66        1.688468   1.000000
   67        1.739935   1.000000
   68        1.783970   1.000000
   69        1.804854   1.000000
   70        1.835723   1.000000
   71        1.869177   1.000000
   72        1.896880   1.000000
   73        1.918511   1.000000
   74        1.960695   1.000000
   75        1.996417   1.000000
   76        2.020511   1.000000
   77        2.030830   1.000000
   78        2.075932   1.000000
   79        2.142120   1.000000
   80        2.174333   1.000000
   81        2.193975   1.000000
   82        2.201786   1.000000
   83        2.234444   1.000000
   84        2.273093   1.000000
   85        2.297590   1.000000
   86        2.320963   1.000000
   87        2.357073   1.000000
   88        2.376513   1.000000
   89        2.421498   1.000000
   90        2.451199   1.000000
   91        2.536669   1.000000
   92        2.543699   1.000000
   93        2.623620   1.000000
   94        2.649191   1.000000
   95        2.675832   1.000000
   96        2.704142   1.000000
   97        2.782707   1.000000
   98        2.807021   1.000000
   99        2.854380   1.000000
  100        2.906645   1.000000
  101        2.936385   1.000000
  102        2.962342   1.000000
  103        2.977777   1.000000
  104        3.057966   1.000000
  105        3.101451   1.000000
  106        3.126092   1.000000
  107        3.192608   1.000000
  108        3.203041   1.000000
  109        3.240417   1.000000
  110        3.277470   1.000000
  111        3.306077   1.000000
  112        3.355319   1.000000
  113        3.409804   1.000000
  114        3.449491   1.000000
  115        3.489186   1.000000
  116        3.535623   1.000000
  117        3.575574   1.000000
  118        3.592218   1.000000
  119        3.636858   1.000000
  120        3.700461   1.000000
  121        3.719954   1.000000
  122        3.770767   1.000000
  123        3.788308   1.000000
  124        3.808063   1.000000
  125        3.853936   1.000000
  126        3.879716   1.000000
  127        3.891722   1.000000
  128        3.967355   1.000000
  129        3.977497   1.000000
  130        4.004678   1.000000
  131        4.043792   1.000000
  132        4.099651   1.000000
  133        4.133687   1.000000
  134        4.182422   1.000000
  135        4.190791   1.000000
  136        4.240127   1.000000
  137        4.276599   1.000000
  138        4.339697   1.000000
  139        4.358084   1.000000
  140        4.377361   1.000000
  141        4.433155   1.000000
  142        4.477705   1.000000
  143        4.505836   1.000000
  144        4.576119   1.000000
  145        4.610520   1.000000
  146        4.645021   1.000000
  147        4.691224   1.000000
  148        4.751146   1.000000
  149        4.802496   1.000000
  150        4.830155   1.000000
  151        4.906798   1.000000
  152        4.967833   1.000000
  153        5.039558   1.000000
  154        5.076417   1.000000
  155        5.122693   1.000000
  156        5.129475   1.000000
  157        5.185477   1.000004
  158        5.223587   1.000020
  159        5.286069   1.000213
  160        5.335516   1.001067
  161        5.369296   1.002775
  162        5.416948   1.008648
  163        5.445694   1.015062
  164        5.536631   1.035092
  165        5.610138   0.955434
  166        5.631567   0.893624
  167        5.742748   0.337161
  168        5.790353   0.122346
  169        5.810488   0.059541
  170        5.858990  -0.021912
  171        5.919588  -0.032630
  172        5.951200  -0.023702
  173        6.226631  -0.000007
  174        6.290154  -0.000000
  175        6.428378  -0.000000
  176        6.437377  -0.000000
  177        6.792677  -0.000000
  178        6.865905  -0.000000
  179        6.967391  -0.000000
  180        6.993422  -0.000000
  181        7.920483  -0.000000
  182        8.019190  -0.000000
  183        8.123638  -0.000000
  184        8.177119  -0.000000
  185        8.817608  -0.000000
  186        9.009274  -0.000000
  187        9.722359  -0.000000
  188        9.917979   0.000000
  189        9.959636   0.000000
  190       10.086187   0.000000
  191       10.806841   0.000000
  192       10.864314   0.000000
  193       10.905211   0.000000
  194       10.994917   0.000000
  195       11.042458   0.000000
  196       11.119254   0.000000
  197       11.813702   0.000000
  198       11.991730   0.000000
  199       12.504972   0.000000
  200       12.690035   0.000000
  201       13.038822   0.000000
  202       13.108763   0.000000
  203       13.201209   0.000000
  204       13.254290   0.000000
 
  0.3333333E+00  0.3333333E+00  0.0000000E+00  0.7407407E-01
    1       -2.791397   1.000000
    2       -1.918316   1.000000
    3       -1.884015   1.000000
    4       -1.169009   1.000000
    5       -0.734289   1.000000
    6       -0.706357   1.000000
    7       -0.688899   1.000000
    8       -0.591356   1.000000
    9       -0.467440   1.000000
   10       -0.459419   1.000000
   11       -0.435926   1.000000
   12       -0.404840   1.000000
   13       -0.346152   1.000000
   14       -0.324984   1.000000
   15       -0.306185   1.000000
   16       -0.281682   1.000000
   17       -0.207030   1.000000
   18       -0.119942   1.000000
   19       -0.086022   1.000000
   20       -0.004389   1.000000
   21        0.031976   1.000000
   22        0.096110   1.000000
   23        0.130303   1.000000
   24        0.196622   1.000000
   25        0.210370   1.000000
   26        0.223495   1.000000
   27        0.264363   1.000000
   28        0.293258   1.000000
   29        0.305131   1.000000
   30        0.323324   1.000000
   31        0.366790   1.000000
   32        0.377519   1.000000
   33        0.398251   1.000000
   34        0.475572   1.000000
   35        0.512705   1.000000
   36        0.539620   1.000000
   37        0.567557   1.000000
   38        0.646516   1.000000
   39        0.678277   1.000000
   40        0.705982   1.000000
   41        0.729091   1.000000
   42        0.773890   1.000000
   43        0.796151   1.000000
   44        0.893070   1.000000
   45        0.928321   1.000000
   46        0.939380   1.000000
   47        1.100449   1.000000
   48        1.126035   1.000000
   49        1.168967   1.000000
   50        1.205863   1.000000
   51        1.231823   1.000000
   52        1.248887   1.000000
   53        1.301002   1.000000
   54        1.368019   1.000000
   55        1.377342   1.000000
   56        1.436301   1.000000
   57        1.468284   1.000000
   58        1.510548   1.000000
   59        1.553273   1.000000
   60        1.578375   1.000000
   61        1.593522   1.000000
   62        1.627474   1.000000
   63        1.657195   1.000000
   64        1.688105   1.000000
   65        1.704979   1.000000
   66        1.736656   1.000000
   67        1.802630   1.000000
   68        1.824659   1.000000
   69        1.857710   1.000000
   70        1.886796   1.000000
   71        1.930224   1.000000
   72        1.952152   1.000000
   73        1.972081   1.000000
   74        1.992468   1.000000
   75        2.035644   1.000000
   76        2.068548   1.000000
   77        2.107629   1.000000
   78        2.131941   1.000000
   79        2.159038   1.000000
   80        2.173885   1.000000
   81        2.205835   1.000000
   82        2.243909   1.000000
   83        2.289395   1.000000
   84        2.315917   1.000000
   85        2.323866   1.000000
   86        2.363497   1.000000
   87        2.409472   1.000000
   88        2.466287   1.000000
   89        2.485919   1.000000
   90        2.519224   1.000000
   91        2.556278   1.000000
   92        2.570448   1.000000
   93        2.599522   1.000000
   94        2.640284   1.000000
   95        2.676997   1.000000
   96        2.688141   1.000000
   97        2.711456   1.000000
   98        2.736891   1.000000
   99        2.778168   1.000000
  100        2.785264   1.000000
  101        2.842729   1.000000
  102        2.884731   1.000000
  103        2.915499   1.000000
  104        2.925975   1.000000
  105        2.949426   1.000000
  106        2.986326   1.000000
  107        3.021594   1.000000
  108        3.065491   1.000000
  109        3.108811   1.000000
  110        3.153315   1.000000
  111        3.194043   1.000000
  112        3.246291   1.000000
  113        3.263342   1.000000
  114        3.308546   1.000000
  115        3.392097   1.000000
  116        3.414472   1.000000
  117        3.467232   1.000000
  118        3.574756   1.000000
  119        3.585571   1.000000
  120        3.676526   1.000000
  121        3.709114   1.000000
  122        3.767096   1.000000
  123        3.793748   1.000000
  124        3.870050   1.000000
  125        3.915815   1.000000
  126        3.970219   1.000000
  127        3.998514   1.000000
  128        4.020059   1.000000
  129        4.060051   1.000000
  130        4.107964   1.000000
  131        4.149221   1.000000
  132        4.171698   1.000000
  133        4.199058   1.000000
  134        4.231094   1.000000
  135        4.263626   1.000000
  136        4.304409   1.000000
  137        4.368010   1.000000
  138        4.403554   1.000000
  139        4.435586   1.000000
  140        4.457559   1.000000
  141        4.508232   1.000000
  142        4.546482   1.000000
  143        4.594415   1.000000
  144        4.628790   1.000000
  145        4.681985   1.000000
  146        4.738722   1.000000
  147        4.789129   1.000000
  148        4.816207   1.000000
  149        4.880956   1.000000
  150        4.909803   1.000000
  151        4.937965   1.000000
  152        4.966260   1.000000
  153        5.022386   1.000000
  154        5.053880   1.000000
  155        5.070563   1.000000
  156        5.099295   1.000000
  157        5.149606   1.000001
  158        5.186061   1.000004
  159        5.211765   1.000012
  160        5.270343   1.000121
  161        5.303115   1.000382
  162        5.319594   1.000652
  163        5.348248   1.001551
  164        5.413926   1.008109
  165        5.453820   1.017276
  166        5.534253   1.035300
  167        5.602112   0.973380
  168        5.641236   0.859019
  169        5.694478   0.605067
  170        5.730425   0.403875
  171        5.768277   0.211554
  172        5.796872   0.100022
  173        5.890751  -0.035177
  174        5.914753  -0.033625
  175        6.809957  -0.000000
  176        7.108345  -0.000000
  177        7.252880  -0.000000
  178        7.518099  -0.000000
  179        7.952702  -0.000000
  180        8.025562  -0.000000
  181        8.156823  -0.000000
  182        8.249538  -0.000000
  183        8.373767  -0.000000
  184        8.383773  -0.000000
  185        8.828858  -0.000000
  186        8.883474  -0.000000
  187        9.365259  -0.000000
  188        9.787743  -0.000000
  189        9.945584   0.000000
  190       10.057700   0.000000
  191       10.190244   0.000000
  192       10.380918   0.000000
  193       10.865039   0.000000
  194       10.949951   0.000000
  195       10.979312   0.000000
  196       11.030890   0.000000
  197       11.435066   0.000000
  198       11.594869   0.000000
  199       11.671013   0.000000
  200       11.684930   0.000000
  201       11.739453   0.000000
  202       11.853255   0.000000
  203       11.986893   0.000000
  204       12.705211   0.000000
 
 -0.3333333E+00  0.3333333E+00  0.0000000E+00  0.7407407E-01
    1       -2.786484   1.000000
    2       -1.934101   1.000000
    3       -1.884921   1.000000
    4       -1.151482   1.000000
    5       -0.707661   1.000000
    6       -0.698006   1.000000
    7       -0.671090   1.000000
    8       -0.607240   1.000000
    9       -0.506756   1.000000
   10       -0.470158   1.000000
   11       -0.446964   1.000000
   12       -0.387251   1.000000
   13       -0.342619   1.000000
   14       -0.323535   1.000000
   15       -0.297812   1.000000
   16       -0.271950   1.000000
   17       -0.199920   1.000000
   18       -0.122734   1.000000
   19       -0.083162   1.000000
   20       -0.010729   1.000000
   21        0.027982   1.000000
   22        0.073483   1.000000
   23        0.135417   1.000000
   24        0.167979   1.000000
   25        0.187519   1.000000
   26        0.209085   1.000000
   27        0.254097   1.000000
   28        0.279298   1.000000
   29        0.321661   1.000000
   30        0.332131   1.000000
   31        0.374050   1.000000
   32        0.390717   1.000000
   33        0.429830   1.000000
   34        0.475575   1.000000
   35        0.524712   1.000000
   36        0.538833   1.000000
   37        0.584886   1.000000
   38        0.607500   1.000000
   39        0.677389   1.000000
   40        0.730745   1.000000
   41        0.758389   1.000000
   42        0.787978   1.000000
   43        0.824466   1.000000
   44        0.842334   1.000000
   45        0.905651   1.000000
   46        0.924540   1.000000
   47        1.100567   1.000000
   48        1.115280   1.000000
   49        1.168945   1.000000
   50        1.199053   1.000000
   51        1.221134   1.000000
   52        1.245122   1.000000
   53        1.310036   1.000000
   54        1.343437   1.000000
   55        1.391377   1.000000
   56        1.419936   1.000000
   57        1.449449   1.000000
   58        1.517618   1.000000
   59        1.538661   1.000000
   60        1.559560   1.000000
   61        1.601313   1.000000
   62        1.652937   1.000000
   63        1.660799   1.000000
   64        1.712575   1.000000
   65        1.731359   1.000000
   66        1.764164   1.000000
   67        1.784265   1.000000
   68        1.808279   1.000000
   69        1.839248   1.000000
   70        1.901568   1.000000
   71        1.929330   1.000000
   72        1.954259   1.000000
   73        1.983582   1.000000
   74        2.009959   1.000000
   75        2.045084   1.000000
   76        2.065173   1.000000
   77        2.106191   1.000000