<?xml version="1.0" encoding="ISO-8859-1"?>
<modeling>
 <generator>
  <i name="program" type="string">vasp </i>
  <i name="version" type="string">5.4.1  </i>
  <i name="subversion" type="string">05Feb16 (build Jan 29 2020 16:04:39) complex                          parallel </i>
  <i name="platform" type="string">IFC91_ompi </i>
  <i name="date" type="string">2020 06 15 </i>
  <i name="time" type="string">05:04:27 </i>
 </generator>
 <incar>
  <i type="string" name="SYSTEM"> automatically generated by mexm</i>
  <i type="int" name="ISTART">     0</i>
  <i type="string" name="PREC">accurate               ! avoid wrap aro</i>
  <i type="string" name="ALGO"> Fast                   ! blocked Davids</i>
  <i type="int" name="ISPIN">     1</i>
  <i type="int" name="ICHARG">     2</i>
  <i type="int" name="NELM">    70</i>
  <i type="int" name="IBRION">     2</i>
  <i name="EDIFF">      0.00001000</i>
  <i name="EDIFFG">     -0.01000000</i>
  <i type="int" name="NSW">   300</i>
  <i type="int" name="ISIF">     3</i>
  <i type="int" name="ISYM">     1</i>
  <i name="ENCUT">    300.00000000</i>
  <i name="POTIM">      0.15000000</i>
  <i type="string" name="LREAL"> Auto                  ! unpublished met</i>
  <i type="int" name="ISMEAR">     1</i>
  <i name="SIGMA">      0.15000000</i>
  <i type="logical" name="LWAVE"> F  </i>
  <i type="logical" name="LCHARG"> F  </i>
  <i type="logical" name="LVTOT"> F  </i>
  <v type="int" name="KPOINT_BSE">    -1     0     0     0</v>
  <i type="int" name="NELM">    70</i>
 </incar>
 <kpoints>
  <generation param="Gamma">
   <v type="int" name="divisions">       3        3        3 </v>
   <v name="usershift">      0.00000000       0.00000000       0.00000000 </v>
   <v name="genvec1">      0.33333333      -0.00000000       0.00000000 </v>
   <v name="genvec2">      0.00000000       0.33333333      -0.00000000 </v>
   <v name="genvec3">     -0.00000000       0.00000000       0.33333333 </v>
   <v name="shift">      0.00000000       0.00000000       0.00000000 </v>
  </generation>
  <varray name="kpointlist" >
   <v>       0.00000000       0.00000000       0.00000000 </v>
   <v>       0.33333333       0.00000000       0.00000000 </v>
   <v>      -0.00000000       0.33333333       0.00000000 </v>
   <v>       0.33333333       0.33333333      -0.00000000 </v>
   <v>      -0.33333333       0.33333333       0.00000000 </v>
   <v>      -0.00000000       0.00000000       0.33333333 </v>
   <v>       0.33333333       0.00000000       0.33333333 </v>
   <v>      -0.33333333      -0.00000000       0.33333333 </v>
   <v>      -0.00000000       0.33333333       0.33333333 </v>
   <v>       0.33333333       0.33333333       0.33333333 </v>
   <v>      -0.33333333       0.33333333       0.33333333 </v>
   <v>      -0.00000000      -0.33333333       0.33333333 </v>
   <v>       0.33333333      -0.33333333       0.33333333 </v>
   <v>      -0.33333333      -0.33333333       0.33333333 </v>
  </varray>
  <varray name="weights" >
   <v>       0.03703704 </v>
   <v>       0.07407407 </v>
   <v>       0.07407407 </v>
   <v>       0.07407407 </v>
   <v>       0.07407407 </v>
   <v>       0.07407407 </v>
   <v>       0.07407407 </v>
   <v>       0.07407407 </v>
   <v>       0.07407407 </v>
   <v>       0.07407407 </v>
   <v>       0.07407407 </v>
   <v>       0.07407407 </v>
   <v>       0.07407407 </v>
   <v>       0.07407407 </v>
  </varray>
 </kpoints>
 <parameters>
  <separator name="general" >
   <i type="string" name="SYSTEM">automatically generated by mexm</i>
   <i type="logical" name="LCOMPAT"> F  </i>
  </separator>
  <separator name="electronic" >
   <i type="string" name="PREC">accura</i>
   <i name="ENMAX">    300.00000000</i>
   <i name="ENAUG">    461.25700000</i>
   <i name="EDIFF">      0.00001000</i>
   <i type="int" name="IALGO">    68</i>
   <i type="int" name="IWAVPR">    11</i>
   <i type="int" name="NBANDS">   176</i>
   <i name="NELECT">    293.00000000</i>
   <i type="int" name="TURBO">     0</i>
   <i type="int" name="IRESTART">     0</i>
   <i type="int" name="NREBOOT">     0</i>
   <i type="int" name="NMIN">     0</i>
   <i name="EREF">      0.00000000</i>
   <separator name="electronic smearing" >
    <i type="int" name="ISMEAR">     1</i>
    <i name="SIGMA">      0.15000000</i>
    <i name="KSPACING">      0.50000000</i>
    <i type="logical" name="KGAMMA"> T  </i>
   </separator>
   <separator name="electronic projectors" >
    <i type="logical" name="LREAL"> T  </i>
    <v name="ROPT">     -0.00025000     -0.00025000     -0.00025000     -0.00025000</v>
    <i type="int" name="LMAXPAW">  -100</i>
    <i type="int" name="LMAXMIX">     2</i>
    <i type="logical" name="NLSPLINE"> F  </i>
   </separator>
   <separator name="electronic startup" >
    <i type="int" name="ISTART">     0</i>
    <i type="int" name="ICHARG">     2</i>
    <i type="int" name="INIWAV">     1</i>
   </separator>
   <separator name="electronic spin" >
    <i type="int" name="ISPIN">     1</i>
    <i type="logical" name="LNONCOLLINEAR"> F  </i>
    <v name="MAGMOM">      1.00000000      1.00000000      1.00000000      1.00000000      1.00000000      1.00000000      1.00000000      1.00000000      1.00000000      1.00000000      1.00000000      1.00000000      1.00000000      1.00000000      1.00000000      1.00000000      1.00000000      1.00000000      1.00000000      1.00000000
      1.00000000      1.00000000      1.00000000      1.00000000      1.00000000      1.00000000      1.00000000      1.00000000      1.00000000      1.00000000      1.00000000      1.00000000      1.00000000      1.00000000      1.00000000      1.00000000</v>
    <i name="NUPDOWN">     -1.00000000</i>
    <i type="logical" name="LSORBIT"> F  </i>
    <v name="SAXIS">      0.00000000      0.00000000      1.00000000</v>
    <i type="logical" name="LSPIRAL"> F  </i>
    <v name="QSPIRAL">      0.00000000      0.00000000      0.00000000</v>
    <i type="logical" name="LZEROZ"> F  </i>
   </separator>
   <separator name="electronic exchange-correlation" >
    <i type="logical" name="LASPH"> F  </i>
    <i type="logical" name="LMETAGGA"> F  </i>
   </separator>
   <separator name="electronic convergence" >
    <i type="int" name="NELM">    70</i>
    <i type="int" name="NELMDL">    -5</i>
    <i type="int" name="NELMIN">     2</i>
    <i name="ENINI">    300.00000000</i>
    <separator name="electronic convergence detail" >
     <i type="logical" name="LDIAG"> T  </i>
     <i type="logical" name="LSUBROT"> F  </i>
     <i name="WEIMIN">      0.00100000</i>
     <i name="EBREAK">      0.00000001</i>
     <i name="DEPER">      0.30000000</i>
     <i type="int" name="NRMM">     4</i>
     <i name="TIME">      0.40000000</i>
    </separator>
   </separator>
   <separator name="electronic mixer" >
    <i name="AMIX">      0.40000000</i>
    <i name="BMIX">      1.00000000</i>
    <i name="AMIN">      0.10000000</i>
    <i name="AMIX_MAG">      1.60000000</i>
    <i name="BMIX_MAG">      1.00000000</i>
    <separator name="electronic mixer details" >
     <i type="int" name="IMIX">     4</i>
     <i type="logical" name="MIXFIRST"> F  </i>
     <i type="int" name="MAXMIX">   -45</i>
     <i name="WC">    100.00000000</i>
     <i type="int" name="INIMIX">     1</i>
     <i type="int" name="MIXPRE">     1</i>
     <i type="int" name="MREMOVE">     5</i>
    </separator>
   </separator>
   <separator name="electronic dipolcorrection" >
    <i type="logical" name="LDIPOL"> F  </i>
    <i type="logical" name="LMONO"> F  </i>
    <i type="int" name="IDIPOL">     0</i>
    <i name="EPSILON">      1.00000000</i>
    <v name="DIPOL">   -100.00000000   -100.00000000   -100.00000000</v>
    <i name="EFIELD">      0.00000000</i>
   </separator>
  </separator>
  <separator name="grids" >
   <i type="int" name="NGX">    40</i>
   <i type="int" name="NGY">    60</i>
   <i type="int" name="NGZ">    60</i>
   <i type="int" name="NGXF">    80</i>
   <i type="int" name="NGYF">   120</i>
   <i type="int" name="NGZF">   120</i>
   <i type="logical" name="ADDGRID"> F  </i>
  </separator>
  <separator name="ionic" >
   <i type="int" name="NSW">   300</i>
   <i type="int" name="IBRION">     2</i>
   <i type="int" name="ISIF">     3</i>
   <i name="PSTRESS">      0.00000000</i>
   <i name="EDIFFG">     -0.01000000</i>
   <i type="int" name="NFREE">     1</i>
   <i name="POTIM">      0.15000000</i>
   <i name="SMASS">     -3.00000000</i>
   <i name="SCALEE">      1.00000000</i>
  </separator>
  <separator name="ionic md" >
   <i name="TEBEG">      0.00010000</i>
   <i name="TEEND">      0.00010000</i>
   <i type="int" name="NBLOCK">     1</i>
   <i type="int" name="KBLOCK">   300</i>
   <i type="int" name="NPACO">   256</i>
   <i name="APACO">     16.00000000</i>
  </separator>
  <separator name="symmetry" >
   <i type="int" name="ISYM">     1</i>
   <i name="SYMPREC">      0.00001000</i>
  </separator>
  <separator name="dos" >
   <i type="logical" name="LORBIT"> F  </i>
   <v name="RWIGS">     -1.00000000     -1.00000000     -1.00000000     -1.00000000</v>
   <i type="int" name="NEDOS">   301</i>
   <i name="EMIN">     10.00000000</i>
   <i name="EMAX">    -10.00000000</i>
   <i name="EFERMI">      0.00000000</i>
  </separator>
  <separator name="writing" >
   <i type="int" name="NWRITE">     2</i>
   <i type="logical" name="LWAVE"> F  </i>
   <i type="logical" name="LCHARG"> F  </i>
   <i type="logical" name="LPARD"> F  </i>
   <i type="logical" name="LVTOT"> F  </i>
   <i type="logical" name="LVHAR"> F  </i>
   <i type="logical" name="LELF"> F  </i>
   <i type="logical" name="LOPTICS"> F  </i>
   <v name="STM">      0.00000000      0.00000000      0.00000000      0.00000000      0.00000000      0.00000000      0.00000000</v>
  </separator>
  <separator name="performance" >
   <i type="int" name="NPAR">     4</i>
   <i type="int" name="NSIM">     4</i>
   <i type="int" name="NBLK">    -1</i>
   <i type="logical" name="LPLANE"> T  </i>
   <i type="logical" name="LSCALAPACK"> T  </i>
   <i type="logical" name="LSCAAWARE"> F  </i>
   <i type="logical" name="LSCALU"> F  </i>
   <i type="logical" name="LASYNC"> F  </i>
   <i type="logical" name="LORBITALREAL"> F  </i>
  </separator>
  <separator name="miscellaneous" >
   <i type="int" name="IDIOT">     3</i>
   <i type="logical" name="LMUSIC"> F  </i>
   <v name="POMASS">    180.94800000    178.49000000     91.22400000     92.91000000</v>
   <v name="DARWINR">      0.00000000      0.00000000      0.00000000      0.00000000</v>
   <v name="DARWINV">      1.00000000      1.00000000      1.00000000      1.00000000</v>
   <i type="logical" name="LCORR"> T  </i>
  </separator>
  <i type="logical" name="GGA_COMPAT"> T  </i>
  <i type="logical" name="LBERRY"> F  </i>
  <i type="int" name="ICORELEVEL">     0</i>
  <i type="logical" name="LDAU"> F  </i>
  <i type="int" name="I_CONSTRAINED_M">     0</i>
  <separator name="electronic exchange-correlation" >
   <i type="string" name="GGA">--</i>
   <i type="int" name="VOSKOWN">     0</i>
   <i type="logical" name="LHFCALC"> F  </i>
   <i type="string" name="PRECFOCK"></i>
   <i type="logical" name="LSYMGRAD"> F  </i>
   <i type="logical" name="LHFONE"> F  </i>
   <i type="logical" name="LRHFCALC"> F  </i>
   <i type="logical" name="LTHOMAS"> F  </i>
   <i type="logical" name="LMODELHF"> F  </i>
   <i name="ENCUT4O">     -1.00000000</i>
   <i type="int" name="EXXOEP">     0</i>
   <i type="int" name="FOURORBIT">     0</i>
   <i name="AEXX">      0.00000000</i>
   <i name="HFALPHA">      0.00000000</i>
   <i name="MCALPHA">      0.00000000</i>
   <i name="ALDAX">      1.00000000</i>
   <i name="AGGAX">      1.00000000</i>
   <i name="ALDAC">      1.00000000</i>
   <i name="AGGAC">      1.00000000</i>
   <i type="int" name="NKREDX">     1</i>
   <i type="int" name="NKREDY">     1</i>
   <i type="int" name="NKREDZ">     1</i>
   <i type="logical" name="SHIFTRED"> F  </i>
   <i type="logical" name="ODDONLY"> F  </i>
   <i type="logical" name="EVENONLY"> F  </i>
   <i type="int" name="LMAXFOCK">     0</i>
   <i type="int" name="NMAXFOCKAE">     0</i>
   <i type="logical" name="LFOCKAEDFT"> F  </i>
   <i name="HFSCREEN">      0.00000000</i>
   <i name="HFSCREENC">      0.00000000</i>
   <i type="int" name="NBANDSGWLOW">     0</i>
  </separator>
  <separator name="vdW DFT" >
   <i type="logical" name="LUSE_VDW"> F  </i>
   <i name="Zab_VDW">     -0.84910000</i>
   <i name="PARAM1">      0.12340000</i>
   <i name="PARAM2">      1.00000000</i>
   <i name="PARAM3">      0.00000000</i>
  </separator>
  <separator name="model GW" >
   <i type="int" name="MODEL_GW">     0</i>
   <i name="MODEL_EPS0">     11.88329540</i>
   <i name="MODEL_ALPHA">      1.00000000</i>
  </separator>
  <separator name="linear response parameters" >
   <i type="logical" name="LEPSILON"> F  </i>
   <i type="logical" name="LRPA"> F  </i>
   <i type="logical" name="LNABLA"> F  </i>
   <i type="logical" name="LVEL"> F  </i>
   <i type="int" name="KINTER">     0</i>
   <i name="CSHIFT">      0.10000000</i>
   <i name="OMEGAMAX">     -1.00000000</i>
   <i name="DEG_THRESHOLD">      0.00200000</i>
  </separator>
  <separator name="orbital magnetization" >
   <i type="logical" name="NUCIND"> F  </i>
   <v name="MAGPOS">      0.00000000      0.00000000      0.00000000</v>
   <i type="logical" name="LNICSALL"> T  </i>
   <i type="logical" name="ORBITALMAG"> F  </i>
   <i type="logical" name="LMAGBLOCH"> F  </i>
   <i type="logical" name="LCHIMAG"> F  </i>
   <i type="logical" name="LGAUGE"> T  </i>
   <i type="int" name="MAGATOM">     0</i>
   <v name="MAGDIPOL">      0.00000000      0.00000000      0.00000000</v>
   <v name="AVECCONST">      0.00000000      0.00000000      0.00000000</v>
  </separator>
  <separator name="response functions" >
   <i type="logical" name="LADDER"> F  </i>
   <i type="logical" name="LFXC"> F  </i>
   <i type="logical" name="LHARTREE"> T  </i>
   <i type="int" name="IBSE">     0</i>
   <v type="int" name="KPOINT">    -1     0     0     0</v>
   <i type="logical" name="LTCTE"> F  </i>
   <i type="logical" name="LTETE"> F  </i>
   <i type="logical" name="LTRIPLET"> F  </i>
   <i type="logical" name="LFXCEPS"> F  </i>
   <i type="logical" name="LFXHEG"> F  </i>
   <i type="int" name="NATURALO">     0</i>
   <i type="logical" name="L2ORDER"> F  </i>
   <i type="logical" name="LUSEW"> F  </i>
   <i name="ENCUTGW">     -2.00000000</i>
   <i name="ENCUTGWSOFT">     -2.00000000</i>
   <i name="ENCUTLF">     -1.00000000</i>
   <i type="int" name="LMAXMP2">    -1</i>
   <i name="SCISSOR">      0.00000000</i>
   <i type="int" name="NOMEGA">     0</i>
   <i type="int" name="NOMEGAR">     0</i>
   <i type="int" name="NBANDSGW">    -1</i>
   <i type="int" name="NBANDSO">    -1</i>
   <i type="int" name="NBANDSV">    -1</i>
   <i type="int" name="NELM">    70</i>
   <i type="int" name="NELMHF">     1</i>
   <i type="int" name="DIM">     3</i>
   <i type="int" name="ANTIRES">     0</i>
   <i name="OMEGAMAX">    -30.00000000</i>
   <i name="OMEGAMIN">    -30.00000000</i>
   <i name="OMEGATL">   -200.00000000</i>
   <i type="int" name="OMEGAGRID">     0</i>
   <i name="CSHIFT">     -0.10000000</i>
   <i type="logical" name="SELFENERGY"> F  </i>
   <i type="logical" name="LSPECTRAL"> F  </i>
   <i type="logical" name="LSPECTRALGW"> F  </i>
   <i type="logical" name="LSINGLES"> F  </i>
   <i type="logical" name="LFERMIGW"> F  </i>
   <i type="logical" name="ODDONLYGW"> F  </i>
   <i type="logical" name="EVENONLYGW"> F  </i>
   <i type="int" name="NKREDLFX">     1</i>
   <i type="int" name="NKREDLFY">     1</i>
   <i type="int" name="NKREDLFZ">     1</i>
   <i type="int" name="MAXMEM">  1800</i>
   <i type="int" name="TELESCOPE">     0</i>
   <i type="int" name="TAUPAR">     1</i>
   <i type="int" name="OMEGAPAR">    -1</i>
   <i name="LAMBDA">      1.00000000</i>
  </separator>
  <separator name="External order field" >
   <i name="OFIELD_KAPPA">      0.00000000</i>
   <v name="OFIELD_K">      0.00000000      0.00000000      0.00000000</v>
   <i name="OFIELD_Q6_NEAR">      0.00000000</i>
   <i name="OFIELD_Q6_FAR">      0.00000000</i>
   <i name="OFIELD_A">      0.00000000</i>
  </separator>
 </parameters>
 <atominfo>
  <atoms>      36 </atoms>
  <types>       4 </types>
  <array name="atoms" >
   <dimension dim="1">ion</dimension>
   <field type="string">element</field>
   <field type="int">atomtype</field>
   <set>
    <rc><c>Ta</c><c>   1</c></rc>
    <rc><c>Ta</c><c>   1</c></rc>
    <rc><c>Ta</c><c>   1</c></rc>
    <rc><c>Ta</c><c>   1</c></rc>
    <rc><c>Ta</c><c>   1</c></rc>
    <rc><c>Ta</c><c>   1</c></rc>
    <rc><c>Ta</c><c>   1</c></rc>
    <rc><c>Ta</c><c>   1</c></rc>
    <rc><c>Ta</c><c>   1</c></rc>
    <rc><c>Ta</c><c>   1</c></rc>
    <rc><c>Ta</c><c>   1</c></rc>
    <rc><c>Ta</c><c>   1</c></rc>
    <rc><c>Hf</c><c>   2</c></rc>
    <rc><c>Hf</c><c>   2</c></rc>
    <rc><c>Hf</c><c>   2</c></rc>
    <rc><c>Hf</c><c>   2</c></rc>
    <rc><c>Hf</c><c>   2</c></rc>
    <rc><c>Hf</c><c>   2</c></rc>
    <rc><c>Hf</c><c>   2</c></rc>
    <rc><c>Hf</c><c>   2</c></rc>
    <rc><c>Zr</c><c>   3</c></rc>
    <rc><c>Zr</c><c>   3</c></rc>
    <rc><c>Zr</c><c>   3</c></rc>
    <rc><c>Zr</c><c>   3</c></rc>
    <rc><c>Zr</c><c>   3</c></rc>
    <rc><c>Zr</c><c>   3</c></rc>
    <rc><c>Zr</c><c>   3</c></rc>
    <rc><c>Nb</c><c>   4</c></rc>
    <rc><c>Nb</c><c>   4</c></rc>
    <rc><c>Nb</c><c>   4</c></rc>
    <rc><c>Nb</c><c>   4</c></rc>
    <rc><c>Nb</c><c>   4</c></rc>
    <rc><c>Nb</c><c>   4</c></rc>
    <rc><c>Nb</c><c>   4</c></rc>
    <rc><c>Nb</c><c>   4</c></rc>
    <rc><c>Nb</c><c>   4</c></rc>
   </set>
  </array>
  <array name="atomtypes" >
   <dimension dim="1">type</dimension>
   <field type="int">atomspertype</field>
   <field type="string">element</field>
   <field>mass</field>
   <field>valence</field>
   <field type="string">pseudopotential</field>
   <set>
    <rc><c>  12</c><c>Ta</c><c>    180.94800000</c><c>      5.00000000</c><c>  PAW_PBE Ta 17Jan2003                  </c></rc>
    <rc><c>   8</c><c>Hf</c><c>    178.49000000</c><c>      4.00000000</c><c>  PAW_PBE Hf 20Jan2003                  </c></rc>
    <rc><c>   7</c><c>Zr</c><c>     91.22400000</c><c>     12.00000000</c><c>  PAW_PBE Zr_sv 04Jan2005               </c></rc>
    <rc><c>   9</c><c>Nb</c><c>     92.91000000</c><c>     13.00000000</c><c>  PAW_PBE Nb_sv 25May2007               </c></rc>
   </set>
  </array>
 </atominfo>
 <structure name="initialpos" >
  <crystal>
   <varray name="basis" >
    <v>       6.86458798      -0.00534248       0.01408200 </v>
    <v>      -0.00753235      10.15283205       0.01267530 </v>
    <v>       0.02108060       0.01290476      10.23032046 </v>
   </varray>
   <i name="volume">    712.99772389 </i>
   <varray name="rec_basis" >
    <v>       0.14567587       0.00010845      -0.00030032 </v>
    <v>       0.00007691       0.09849490      -0.00012440 </v>
    <v>      -0.00020062      -0.00012218       0.09774922 </v>
   </varray>
  </crystal>
  <varray name="positions" >
   <v>       0.76759400       0.84033200       0.50074900 </v>
   <v>       0.24132600       0.49183100       0.17744000 </v>
   <v>       0.22677500       0.52658200       0.83338300 </v>
   <v>       0.00897700       0.67233500       0.00753900 </v>
   <v>       0.23096000       0.83923000       0.17541400 </v>
   <v>       0.76324400       0.49578100       0.49273500 </v>
   <v>       0.77022900       0.83754400       0.17089800 </v>
   <v>       0.99589300       0.99578400       0.01186800 </v>
   <v>       0.75395200       0.16722200       0.17941900 </v>
   <v>       0.23871300       0.83226800       0.82802100 </v>
   <v>       0.77332900       0.51870600       0.83612600 </v>
   <v>       0.99530600       0.66708900       0.33100000 </v>
   <v>       0.74145300       0.16329300       0.49452100 </v>
   <v>       0.76749700       0.83432700       0.82879300 </v>
   <v>       0.49437000       0.34247800       0.98936900 </v>
   <v>       0.24434600       0.17254800       0.17734700 </v>
   <v>       0.00524700       0.33400000       0.66531500 </v>
   <v>       0.23436200       0.83681900       0.49862600 </v>
   <v>       0.74337500       0.14711600       0.82418100 </v>
   <v>       0.50316700       0.66653000       0.66337500 </v>
   <v>       0.75366200       0.48903700       0.17224200 </v>
   <v>       0.50353900       0.66813300       0.33681600 </v>
   <v>       0.25942600       0.13917500       0.82639200 </v>
   <v>       0.00489500       0.33228000       0.98899900 </v>
   <v>       0.50428900       0.99180000       0.01468000 </v>
   <v>       0.49510600       0.34905900       0.67294600 </v>
   <v>       0.49288500       0.66741800       0.00249200 </v>
   <v>       0.23273900       0.50440700       0.49122000 </v>
   <v>       0.50402300       0.99564200       0.32511100 </v>
   <v>       0.99511400       0.99890100       0.32884400 </v>
   <v>       0.25392300       0.16311600       0.49049900 </v>
   <v>       0.00515200       0.00721300       0.65691700 </v>
   <v>       0.99966900       0.66258600       0.66334800 </v>
   <v>       0.50158000       0.97558200       0.65756600 </v>
   <v>       0.00254900       0.33695500       0.34307500 </v>
   <v>       0.49132600       0.33688100       0.34272700 </v>
  </varray>
 </structure>
 <calculation>
  <scstep>
   <time name="dav">    1.04    1.17</time>
   <time name="total">    1.11    1.67</time>
   <energy>
    <i name="alphaZ">   1560.83727098 </i>
    <i name="ewald"> -19685.56987425 </i>
    <i name="hartreedc">  -6474.25138255 </i>
    <i name="XCdc">   -363.40328694 </i>
    <i name="pawpsdc">  21392.32830167 </i>
    <i name="pawaedc"> -19729.12139590 </i>
    <i name="eentropy">      0.00163267 </i>
    <i name="bandstr">    -40.68088304 </i>
    <i name="atom">  25160.16158175 </i>
    <i name="e_fr_energy">   1820.30196440 </i>
    <i name="e_wo_entrp">   1820.30033173 </i>
    <i name="e_0_energy">   1820.30142018 </i>
   </energy>
  </scstep>
  <scstep>
   <time name="dav">    1.02    1.03</time>
   <time name="total">    1.03    1.22</time>
   <energy>
    <i name="e_fr_energy">   -102.21930760 </i>
    <i name="e_wo_entrp">   -102.22875507 </i>
    <i name="e_0_energy">   -102.22245675 </i>
   </energy>
  </scstep>
  <scstep>
   <time name="dav">    1.45    1.46</time>
   <time name="total">    1.46    1.50</time>
   <energy>
    <i name="e_fr_energy">   -353.49133642 </i>
    <i name="e_wo_entrp">   -353.49608709 </i>
    <i name="e_0_energy">   -353.49291997 </i>
   </energy>
  </scstep>
  <scstep>
   <time name="dav">    1.45    1.46</time>
   <time name="total">    1.45    1.51</time>
   <energy>
    <i name="e_fr_energy">   -382.56706206 </i>
    <i name="e_wo_entrp">   -382.57996722 </i>
    <i name="e_0_energy">   -382.57136378 </i>
   </energy>
  </scstep>
  <scstep>
   <time name="dav">    1.43    1.43</time>
   <time name="total">    1.46    1.52</time>
   <energy>
    <i name="e_fr_energy">   -385.49400027 </i>
    <i name="e_wo_entrp">   -385.50808925 </i>
    <i name="e_0_energy">   -385.49869660 </i>
   </energy>
  </scstep>
  <scstep>
   <time name="diag">    0.08    0.08</time>
   <time name="diis">    0.82    0.83</time>
   <time name="orth">    0.02    0.02</time>
   <time name="total">    1.02    1.11</time>
   <energy>
    <i name="e_fr_energy">   -374.88450782 </i>
    <i name="e_wo_entrp">   -374.90286598 </i>
    <i name="e_0_energy">   -374.89062721 </i>
   </energy>
  </scstep>
  <scstep>
   <time name="diag">    0.08    0.08</time>
   <time name="diis">    0.79    0.79</time>
   <time name="orth">    0.01    0.01</time>
   <time name="total">    0.94    0.99</time>
   <energy>
    <i name="e_fr_energy">   -376.43825081 </i>
    <i name="e_wo_entrp">   -376.42990636 </i>
    <i name="e_0_energy">   -376.43546933 </i>
   </energy>
  </scstep>
  <scstep>
   <time name="diag">    0.08    0.08</time>
   <time name="diis">    0.83    0.84</time>
   <time name="orth">    0.01    0.01</time>
   <time name="total">    1.10    1.15</time>
   <energy>
    <i name="e_fr_energy">   -370.57262831 </i>
    <i name="e_wo_entrp">   -370.59225081 </i>
    <i name="e_0_energy">   -370.57916914 </i>
   </energy>
  </scstep>
  <scstep>
   <time name="diag">    0.10    0.11</time>
   <time name="diis">    0.79    0.80</time>
   <time name="orth">    0.01    0.01</time>
   <time name="total">    0.99    1.13</time>
   <energy>
    <i name="e_fr_energy">   -370.27625835 </i>
    <i name="e_wo_entrp">   -370.29713549 </i>
    <i name="e_0_energy">   -370.28321740 </i>
   </energy>
  </scstep>
  <scstep>
   <time name="diag">    0.08    0.08</time>
   <time name="diis">    0.79    0.79</time>
   <time name="orth">    0.01    0.01</time>
   <time name="total">    0.94    0.99</time>
   <energy>
    <i name="e_fr_energy">   -370.22964364 </i>
    <i name="e_wo_entrp">   -370.25131677 </i>
    <i name="e_0_energy">   -370.23686802 </i>
   </energy>
  </scstep>
  <scstep>
   <time name="diag">    0.07    0.08</time>
   <time name="diis">    0.86    0.88</time>
   <time name="orth">    0.01    0.01</time>
   <time name="total">    1.02    1.08</time>
   <energy>
    <i name="e_fr_energy">   -370.20402255 </i>
    <i name="e_wo_entrp">   -370.22425613 </i>
    <i name="e_0_energy">   -370.21076707 </i>
   </energy>
  </scstep>
  <scstep>
   <time name="diag">    0.08    0.08</time>
   <time name="diis">    0.80    0.80</time>
   <time name="orth">    0.01    0.01</time>
   <time name="total">    0.96    1.02</time>
   <energy>
    <i name="e_fr_energy">   -370.19656974 </i>
    <i name="e_wo_entrp">   -370.21705723 </i>
    <i name="e_0_energy">   -370.20339890 </i>
   </energy>
  </scstep>
  <scstep>
   <time name="diag">    0.07    0.07</time>
   <time name="diis">    0.79    0.80</time>
   <time name="orth">    0.01    0.01</time>
   <time name="total">    0.95    0.99</time>
   <energy>
    <i name="e_fr_energy">   -370.19525035 </i>
    <i name="e_wo_entrp">   -370.21567947 </i>
    <i name="e_0_energy">   -370.20206005 </i>
   </energy>
  </scstep>
  <scstep>
   <time name="diag">    0.10    0.11</time>
   <time name="diis">    0.79    0.82</time>
   <time name="orth">    0.01    0.01</time>
   <time name="total">    0.97    1.09</time>
   <energy>
    <i name="e_fr_energy">   -370.19510133 </i>
    <i name="e_wo_entrp">   -370.21541993 </i>
    <i name="e_0_energy">   -370.20187420 </i>
   </energy>
  </scstep>
  <scstep>
   <time name="diag">    0.11    0.11</time>
   <time name="diis">    0.79    0.79</time>
   <time name="orth">    0.01    0.01</time>
   <time name="total">    0.97    1.03</time>
   <energy>
    <i name="e_fr_energy">   -370.19518935 </i>
    <i name="e_wo_entrp">   -370.21566739 </i>
    <i name="e_0_energy">   -370.20201536 </i>
   </energy>
  </scstep>
  <scstep>
   <time name="diag">    0.08    0.08</time>
   <time name="diis">    0.84    0.85</time>
   <time name="orth">    0.01    0.01</time>
   <time name="total">    1.00    1.05</time>
   <energy>
    <i name="e_fr_energy">   -370.19522808 </i>
    <i name="e_wo_entrp">   -370.21566326 </i>
    <i name="e_0_energy">   -370.20203980 </i>
   </energy>
  </scstep>
  <scstep>
   <time name="diag">    0.07    0.07</time>
   <time name="diis">    0.67    0.68</time>
   <time name="orth">    0.01    0.01</time>
   <time name="total">    0.83    0.88</time>
   <energy>
    <i name="e_fr_energy">   -370.19521256 </i>
    <i name="e_wo_entrp">   -370.21564889 </i>
    <i name="e_0_energy">   -370.20202467 </i>
   </energy>
  </scstep>
  <scstep>
   <time name="diag">    0.08    0.08</time>
   <time name="diis">    0.71    0.71</time>
   <time name="orth">    0.01    0.01</time>
   <time name="total">    0.86    0.92</time>
   <energy>
    <i name="e_fr_energy">   -370.19522918 </i>
    <i name="e_wo_entrp">   -370.21565589 </i>
    <i name="e_0_energy">   -370.20203808 </i>
   </energy>
  </scstep>
  <scstep>
   <time name="diag">    0.08    0.08</time>
   <time name="diis">    0.48    0.48</time>
   <time name="orth">    0.01    0.01</time>
   <time name="total">    0.81    0.87</time>
   <energy>
    <i name="e_fr_energy">   -370.19523606 </i>
    <i name="e_wo_entrp">   -370.21565871 </i>
    <i name="e_0_energy">   -370.20204361 </i>
   </energy>
  </scstep>
  <scstep>
   <time name="diag">    0.08    0.08</time>
   <time name="diis">    0.42    0.42</time>
   <time name="orth">    0.01    0.01</time>
   <time name="total">    0.54    0.59</time>
   <energy>
    <i name="alphaZ">   1560.83727098 </i>
    <i name="ewald"> -19685.56987425 </i>
    <i name="hartreedc">  -6243.59780038 </i>
    <i name="XCdc">   -362.45644537 </i>
    <i name="pawpsdc">  33926.28943221 </i>
    <i name="pawaedc"> -32245.31102663 </i>
    <i name="eentropy">      0.02042337 </i>
    <i name="bandstr">  -2480.56880038 </i>
    <i name="atom">  25160.16158175 </i>
    <i name="e_fr_energy">   -370.19523870 </i>
    <i name="e_wo_entrp">   -370.21566206 </i>
    <i name="e_0_energy">   -370.20204649 </i>
   </energy>
  </scstep>
  <structure>
   <crystal>
    <varray name="basis" >
     <v>       6.86458798      -0.00534248       0.01408200 </v>
     <v>      -0.00753235      10.15283205       0.01267530 </v>
     <v>       0.02108060       0.01290476      10.23032046 </v>
    </varray>
    <i name="volume">    712.99772389 </i>
    <varray name="rec_basis" >
     <v>       0.14567587       0.00010845      -0.00030032 </v>
     <v>       0.00007691       0.09849490      -0.00012440 </v>
     <v>      -0.00020062      -0.00012218       0.09774922 </v>
    </varray>
   </crystal>
   <varray name="positions" >
    <v>       0.76759400       0.84033200       0.50074900 </v>
    <v>       0.24132600       0.49183100       0.17744000 </v>
    <v>       0.22677500       0.52658200       0.83338300 </v>
    <v>       0.00897700       0.67233500       0.00753900 </v>
    <v>       0.23096000       0.83923000       0.17541400 </v>
    <v>       0.76324400       0.49578100       0.49273500 </v>
    <v>       0.77022900       0.83754400       0.17089800 </v>
    <v>       0.99589300       0.99578400       0.01186800 </v>
    <v>       0.75395200       0.16722200       0.17941900 </v>
    <v>       0.23871300       0.83226800       0.82802100 </v>
    <v>       0.77332900       0.51870600       0.83612600 </v>
    <v>       0.99530600       0.66708900       0.33100000 </v>
    <v>       0.74145300       0.16329300       0.49452100 </v>
    <v>       0.76749700       0.83432700       0.82879300 </v>
    <v>       0.49437000       0.34247800       0.98936900 </v>
    <v>       0.24434600       0.17254800       0.17734700 </v>
    <v>       0.00524700       0.33400000       0.66531500 </v>
    <v>       0.23436200       0.83681900       0.49862600 </v>
    <v>       0.74337500       0.14711600       0.82418100 </v>
    <v>       0.50316700       0.66653000       0.66337500 </v>
    <v>       0.75366200       0.48903700       0.17224200 </v>
    <v>       0.50353900       0.66813300       0.33681600 </v>
    <v>       0.25942600       0.13917500       0.82639200 </v>
    <v>       0.00489500       0.33228000       0.98899900 </v>
    <v>       0.50428900       0.99180000       0.01468000 </v>
    <v>       0.49510600       0.34905900       0.67294600 </v>
    <v>       0.49288500       0.66741800       0.00249200 </v>
    <v>       0.23273900       0.50440700       0.49122000 </v>
    <v>       0.50402300       0.99564200       0.32511100 </v>
    <v>       0.99511400       0.99890100       0.32884400 </v>
    <v>       0.25392300       0.16311600       0.49049900 </v>
    <v>       0.00515200       0.00721300       0.65691700 </v>
    <v>       0.99966900       0.66258600       0.66334800 </v>
    <v>       0.50158000       0.97558200       0.65756600 </v>
    <v>       0.00254900       0.33695500       0.34307500 </v>
    <v>       0.49132600       0.33688100       0.34272700 </v>
   </varray>
  </structure>
  <varray name="forces" >
   <v>       0.01415168      -0.02219002       0.00549472 </v>
   <v>      -0.00406564      -0.01346277      -0.17487190 </v>
   <v>      -0.01144564       0.00519646       0.08169104 </v>
   <v>      -0.00920854       0.01206780      -0.00456768 </v>
   <v>      -0.00795404      -0.00752377       0.01696952 </v>
   <v>      -0.11129332       0.01071802      -0.00269147 </v>
   <v>       0.01156145      -0.01014202       0.01616080 </v>
   <v>      -0.01444196       0.00492614       0.00346323 </v>
   <v>      -0.00543476      -0.00610360       0.00843498 </v>
   <v>       0.00096890      -0.01839611      -0.01570920 </v>
   <v>       0.00201378      -0.01316253      -0.02333389 </v>
   <v>       0.00020221      -0.00005773      -0.00792366 </v>
   <v>      -0.00683805       0.01749157       0.00125952 </v>
   <v>      -0.00567741      -0.00229851      -0.00347280 </v>
   <v>       0.00241031      -0.00673546       0.00149558 </v>
   <v>       0.00596455       0.02251198       0.02313048 </v>
   <v>       0.01236615       0.02552358      -0.02012634 </v>
   <v>      -0.02036599       0.10121953      -0.00246461 </v>
   <v>       0.01601613       0.01013815      -0.00447588 </v>
   <v>      -0.00394747      -0.00651192      -0.00769287 </v>
   <v>       0.01491152       0.00374899       0.02297076 </v>
   <v>      -0.04318186      -0.02409931       0.00704348 </v>
   <v>      -0.00342892       0.00049601      -0.01610331 </v>
   <v>       0.00816676      -0.00994315       0.01079832 </v>
   <v>       0.01586799       0.00261733      -0.00045493 </v>
   <v>      -0.02043849       0.01956149      -0.02422667 </v>
   <v>      -0.00240486       0.00363627       0.00692946 </v>
   <v>       0.11577015      -0.05306524       0.10366559 </v>
   <v>       0.00623643      -0.00190125      -0.00687519 </v>
   <v>       0.00117456       0.01428498      -0.01148548 </v>
   <v>       0.00054354      -0.10556872      -0.00274252 </v>
   <v>       0.00186953      -0.00531533       0.00549179 </v>
   <v>       0.01147694      -0.00774902      -0.03207778 </v>
   <v>      -0.00138445       0.00763643      -0.00034427 </v>
   <v>       0.04303950       0.04536218       0.02566037 </v>
   <v>      -0.01320066       0.00708951       0.02098081 </v>
  </varray>
  <varray name="stress" >
   <v>      -1.12455757      -0.11183333       0.20934069 </v>
   <v>      -0.11183336      -1.08050531      -0.16908634 </v>
   <v>       0.20934071      -0.16908632      -0.65228503 </v>
  </varray>
  <energy>
   <i name="e_fr_energy">   -370.19523870 </i>
   <i name="e_wo_entrp">   -370.20204649 </i>
   <i name="e_0_energy">      0.02042337 </i>
  </energy>
  <time name="totalsc">   22.08   24.16</time>
 </calculation>
 <calculation>
  <scstep>
   <time name="dav">    1.15    1.18</time>
   <time name="total">    1.23    1.48</time>
   <energy>
    <i name="alphaZ">   1561.63545025 </i>
    <i name="ewald"> -19688.59801535 </i>
    <i name="hartreedc">  -6244.99056786 </i>
    <i name="XCdc">   -362.31130177 </i>
    <i name="pawpsdc">  33926.25312768 </i>
    <i name="pawaedc"> -32245.27361417 </i>
    <i name="eentropy">      0.02047851 </i>
    <i name="bandstr">  -2477.09433013 </i>
    <i name="atom">  25160.16158175 </i>
    <i name="e_fr_energy">   -370.19719108 </i>
    <i name="e_wo_entrp">   -370.21766959 </i>
    <i name="e_0_energy">   -370.20401725 </i>
   </energy>
  </scstep>
  <scstep>
   <time name="diag">    0.11    0.13</time>
   <time name="diis">    0.73    0.86</time>
   <time name="orth">    0.02    0.02</time>
   <time name="total">    0.94    1.13</time>
   <energy>
    <i name="e_fr_energy">   -370.19723270 </i>
    <i name="e_wo_entrp">   -370.21766044 </i>
    <i name="e_0_energy">   -370.20404195 </i>
   </energy>
  </scstep>
  <scstep>
   <time name="diag">    0.08    0.09</time>
   <time name="diis">    0.79    0.80</time>
   <time name="orth">    0.01    0.01</time>
   <time name="total">    0.95    1.06</time>
   <energy>
    <i name="e_fr_energy">   -370.19712225 </i>
    <i name="e_wo_entrp">   -370.21754912 </i>
    <i name="e_0_energy">   -370.20393120 </i>
   </energy>
  </scstep>
  <scstep>
   <time name="diag">    0.07    0.07</time>
   <time name="diis">    0.85    0.85</time>
   <time name="orth">    0.01    0.01</time>
   <time name="total">    1.00    1.06</time>
   <energy>
    <i name="e_fr_energy">   -370.19703466 </i>
    <i name="e_wo_entrp">   -370.21741385 </i>
    <i name="e_0_energy">   -370.20382772 </i>
   </energy>
  </scstep>
  <scstep>
   <time name="diag">    0.09    0.09</time>
   <time name="diis">    0.63    0.64</time>
   <time name="orth">    0.01    0.01</time>
   <time name="total">    0.77    0.83</time>
   <energy>
    <i name="alphaZ">   1561.63545025 </i>
    <i name="ewald"> -19688.59801535 </i>
    <i name="hartreedc">  -6242.87303185 </i>
    <i name="XCdc">   -362.40174525 </i>
    <i name="pawpsdc">  33951.64749717 </i>
    <i name="pawaedc"> -32270.74007090 </i>
    <i name="eentropy">      0.02040538 </i>
    <i name="bandstr">  -2479.04909817 </i>
    <i name="atom">  25160.16158175 </i>
    <i name="e_fr_energy">   -370.19702698 </i>
    <i name="e_wo_entrp">   -370.21743236 </i>
    <i name="e_0_energy">   -370.20382877 </i>
   </energy>
  </scstep>
  <structure>
   <crystal>
    <varray name="basis" >
     <v>       6.86320752      -0.00547922       0.01433761 </v>
     <v>      -0.00773349      10.15086917       0.01236640 </v>
     <v>       0.02145925       0.01259237      10.22912700 </v>
    </varray>
    <i name="volume">    712.63329825 </i>
    <varray name="rec_basis" >
     <v>       0.14570520       0.00011138      -0.00030581 </v>
     <v>       0.00007890       0.09851394      -0.00012144 </v>
     <v>      -0.00020432      -0.00011925       0.09776063 </v>
    </varray>
   </crystal>
   <varray name="positions" >
    <v>       0.76762378       0.84030037       0.50075677 </v>
    <v>       0.24131817       0.49181212       0.17719264 </v>
    <v>       0.22675052       0.52658925       0.83349859 </v>
    <v>       0.00895762       0.67235220       0.00753254 </v>
    <v>       0.23094314       0.83921924       0.17543804 </v>
    <v>       0.76300938       0.49579616       0.49273150 </v>
    <v>       0.77025329       0.83752953       0.17092085 </v>
    <v>       0.99586254       0.99579100       0.01187293 </v>
    <v>       0.75394050       0.16721328       0.17943096 </v>
    <v>       0.23871508       0.83224181       0.82799881 </v>
    <v>       0.77333333       0.51868728       0.83609301 </v>
    <v>       0.99530646       0.66708893       0.33098879 </v>
    <v>       0.74143861       0.16331792       0.49452277 </v>
    <v>       0.76748504       0.83432372       0.82878811 </v>
    <v>       0.49437506       0.34246840       0.98937112 </v>
    <v>       0.24435851       0.17258006       0.17737967 </v>
    <v>       0.00527320       0.33403643       0.66528645 </v>
    <v>       0.23431923       0.83696327       0.49862239 </v>
    <v>       0.74340880       0.14713048       0.82417460 </v>
    <v>       0.50315870       0.66652073       0.66336414 </v>
    <v>       0.75369334       0.48904232       0.17227445 </v>
    <v>       0.50344789       0.66809859       0.33682613 </v>
    <v>       0.25941884       0.13917573       0.82636923 </v>
    <v>       0.00491216       0.33226582       0.98901427 </v>
    <v>       0.50432246       0.99180375       0.01467931 </v>
    <v>       0.49506304       0.34908691       0.67291175 </v>
    <v>       0.49287991       0.66742317       0.00250180 </v>
    <v>       0.23298255       0.50433130       0.49136641 </v>
    <v>       0.50403618       0.99563931       0.32510126 </v>
    <v>       0.99511655       0.99892139       0.32882772 </v>
    <v>       0.25392399       0.16296552       0.49049531 </v>
    <v>       0.00515591       0.00720542       0.65692477 </v>
    <v>       0.99969332       0.66257502       0.66330260 </v>
    <v>       0.50157709       0.97559288       0.65756550 </v>
    <v>       0.00263970       0.33701967       0.34311110 </v>
    <v>       0.49129809       0.33689105       0.34275671 </v>
   </varray>
  </structure>
  <varray name="forces" >
   <v>       0.01187905      -0.02311232       0.00397808 </v>
   <v>      -0.00445034      -0.00945760      -0.16004625 </v>
   <v>      -0.00921100       0.00271432       0.07650401 </v>
   <v>      -0.01247794       0.01054330      -0.00265295 </v>
   <v>      -0.00487967      -0.00901945       0.01356388 </v>
   <v>      -0.10062383       0.00981270      -0.00349180 </v>
   <v>       0.00604548      -0.01101681       0.01433627 </v>
   <v>      -0.01261238       0.00630836       0.00135862 </v>
   <v>      -0.00603260      -0.00279119       0.00651735 </v>
   <v>       0.00271899      -0.01545061      -0.01327053 </v>
   <v>      -0.00109298      -0.01362003      -0.02341422 </v>
   <v>       0.00474315      -0.00406133      -0.00420622 </v>
   <v>      -0.00510442       0.01802001       0.00174242 </v>
   <v>      -0.00674323      -0.00286842      -0.00448883 </v>
   <v>       0.00437631      -0.00758336      -0.00059610 </v>
   <v>       0.00742542       0.02295501       0.01976318 </v>
   <v>       0.01165144       0.02218716      -0.01886234 </v>
   <v>      -0.01679477       0.09069492      -0.00408991 </v>
   <v>       0.01524587       0.01189601      -0.00373108 </v>
   <v>      -0.00573612      -0.00467131      -0.00565786 </v>
   <v>       0.01283762       0.00496596       0.02142543 </v>
   <v>      -0.04313373      -0.02229642       0.00513052 </v>
   <v>      -0.00377186       0.00129799      -0.01413382 </v>
   <v>       0.00584255      -0.01228458       0.00887152 </v>
   <v>       0.01471169       0.00375301      -0.00253073 </v>
   <v>      -0.02010913       0.01516829      -0.01921705 </v>
   <v>       0.00047499       0.00421726       0.00708643 </v>
   <v>       0.11022943      -0.04797851       0.09363077 </v>
   <v>       0.00540677      -0.00259810      -0.00455385 </v>
   <v>       0.00070162       0.01429181      -0.00949550 </v>
   <v>       0.00098565      -0.09469469      -0.00048638 </v>
   <v>       0.00040946      -0.00342807       0.00716190 </v>
   <v>       0.01151872      -0.00893599      -0.03026534 </v>
   <v>      -0.00104359       0.00960558       0.00085264 </v>
   <v>       0.03937983       0.04117589       0.02448046 </v>
   <v>      -0.01276644       0.00626119       0.01878727 </v>
  </varray>
  <varray name="stress" >
   <v>      -0.55438206      -0.07846146       0.18406372 </v>
   <v>      -0.07846146      -0.48234527      -0.12480605 </v>
   <v>       0.18406372      -0.12480607      -0.10520061 </v>
  </varray>
  <energy>
   <i name="e_fr_energy">   -370.19702698 </i>
   <i name="e_wo_entrp">   -370.20382877 </i>
   <i name="e_0_energy">      0.02040538 </i>
  </energy>
  <time name="totalsc">    6.48    7.36</time>
 </calculation>
 <calculation>
  <scstep>
   <time name="dav">    0.94    0.95</time>
   <time name="total">    1.03    1.25</time>
   <energy>
    <i name="alphaZ">   1564.03334788 </i>
    <i name="ewald"> -19697.66390215 </i>
    <i name="hartreedc">  -6247.07378659 </i>
    <i name="XCdc">   -361.96470067 </i>
    <i name="pawpsdc">  33950.27042264 </i>
    <i name="pawaedc"> -32269.35290679 </i>
    <i name="eentropy">      0.02052637 </i>
    <i name="bandstr">  -2468.63278313 </i>
    <i name="atom">  25160.16158175 </i>
    <i name="e_fr_energy">   -370.20220069 </i>
    <i name="e_wo_entrp">   -370.22272706 </i>
    <i name="e_0_energy">   -370.20904281 </i>
   </energy>
  </scstep>
  <scstep>
   <time name="diag">    0.08    0.08</time>
   <time name="diis">    0.72    0.73</time>
   <time name="orth">    0.01    0.01</time>
   <time name="total">    0.91    0.95</time>
   <energy>
    <i name="e_fr_energy">   -370.20242232 </i>
    <i name="e_wo_entrp">   -370.22277295 </i>
    <i name="e_0_energy">   -370.20920586 </i>
   </energy>
  </scstep>
  <scstep>
   <time name="diag">    0.08    0.08</time>
   <time name="diis">    0.82    0.83</time>
   <time name="orth">    0.01    0.01</time>
   <time name="total">    1.03    1.09</time>
   <energy>
    <i name="e_fr_energy">   -370.20136802 </i>
    <i name="e_wo_entrp">   -370.22174586 </i>
    <i name="e_0_energy">   -370.20816063 </i>
   </energy>
  </scstep>
  <scstep>
   <time name="diag">    0.08    0.08</time>
   <time name="diis">    0.81    0.82</time>
   <time name="orth">    0.01    0.01</time>
   <time name="total">    0.98    1.03</time>
   <energy>
    <i name="e_fr_energy">   -370.20059723 </i>
    <i name="e_wo_entrp">   -370.22081597 </i>
    <i name="e_0_energy">   -370.20733681 </i>
   </energy>
  </scstep>
  <scstep>
   <time name="diag">    0.08    0.08</time>
   <time name="diis">    0.71    0.85</time>
   <time name="orth">    0.01    0.01</time>
   <time name="total">    0.87    1.06</time>
   <energy>
    <i name="e_fr_energy">   -370.20052153 </i>
    <i name="e_wo_entrp">   -370.22082293 </i>
    <i name="e_0_energy">   -370.20728867 </i>
   </energy>
  </scstep>
  <scstep>
   <time name="diag">    0.07    0.07</time>
   <time name="diis">    0.76    0.77</time>
   <time name="orth">    0.01    0.01</time>
   <time name="total">    0.91    0.97</time>
   <energy>
    <i name="e_fr_energy">   -370.20054959 </i>
    <i name="e_wo_entrp">   -370.22082508 </i>
    <i name="e_0_energy">   -370.20730808 </i>
   </energy>
  </scstep>
  <scstep>
   <time name="diag">    0.07    0.07</time>
   <time name="diis">    0.77    0.78</time>
   <time name="orth">    0.01    0.01</time>
   <time name="total">    0.92    0.98</time>
   <energy>
    <i name="e_fr_energy">   -370.20056688 </i>
    <i name="e_wo_entrp">   -370.22082107 </i>
    <i name="e_0_energy">   -370.20731828 </i>
   </energy>
  </scstep>
  <scstep>
   <time name="diag">    0.08    0.08</time>
   <time name="diis">    0.51    0.51</time>
   <time name="orth">    0.01    0.01</time>
   <time name="total">    0.68    0.73</time>
   <energy>
    <i name="e_fr_energy">   -370.20058240 </i>
    <i name="e_wo_entrp">   -370.22085216 </i>
    <i name="e_0_energy">   -370.20733899 </i>
   </energy>
  </scstep>
  <scstep>
   <time name="diag">    0.07    0.08</time>
   <time name="diis">    0.45    0.45</time>
   <time name="orth">    0.01    0.01</time>
   <time name="total">    0.61    0.66</time>
   <energy>
    <i name="e_fr_energy">   -370.20059330 </i>
    <i name="e_wo_entrp">   -370.22086095 </i>
    <i name="e_0_energy">   -370.20734918 </i>
   </energy>
  </scstep>
  <scstep>
   <time name="diag">    0.08    0.08</time>
   <time name="diis">    0.38    0.38</time>
   <time name="orth">    0.01    0.01</time>
   <time name="total">    0.50    0.68</time>
   <energy>
    <i name="alphaZ">   1564.03334788 </i>
    <i name="ewald"> -19697.66390215 </i>
    <i name="hartreedc">  -6241.11507500 </i>
    <i name="XCdc">   -362.21644770 </i>
    <i name="pawpsdc">  34016.60484816 </i>
    <i name="pawaedc"> -32335.58536234 </i>
    <i name="eentropy">      0.02026990 </i>
    <i name="bandstr">  -2474.43986252 </i>
    <i name="atom">  25160.16158175 </i>
    <i name="e_fr_energy">   -370.20060202 </i>
    <i name="e_wo_entrp">   -370.22087192 </i>
    <i name="e_0_energy">   -370.20735865 </i>
   </energy>
  </scstep>
  <structure>
   <crystal>
    <varray name="basis" >
     <v>       6.85906614      -0.00588943       0.01510446 </v>
     <v>      -0.00833693      10.14498054       0.01143973 </v>
     <v>       0.02259521       0.01165519      10.22554661 </v>
    </varray>
    <i name="volume">    711.54072455 </i>
    <varray name="rec_basis" >
     <v>       0.14579325       0.00012017      -0.00032229 </v>
     <v>       0.00008488       0.09857111      -0.00011254 </v>
     <v>      -0.00021545      -0.00011045       0.09779489 </v>
    </varray>
   </crystal>
   <varray name="positions" >
    <v>       0.76771313       0.84020548       0.50078008 </v>
    <v>       0.24129470       0.49175544       0.17645049 </v>
    <v>       0.22667705       0.52661100       0.83384541 </v>
    <v>       0.00889949       0.67240381       0.00751317 </v>
    <v>       0.23089256       0.83918694       0.17551018 </v>
    <v>       0.76230540       0.49584164       0.49272100 </v>
    <v>       0.77032617       0.83748610       0.17098939 </v>
    <v>       0.99577116       0.99581200       0.01188774 </v>
    <v>       0.75390597       0.16718711       0.17946684 </v>
    <v>       0.23872133       0.83216321       0.82793221 </v>
    <v>       0.77334631       0.51863111       0.83599401 </v>
    <v>       0.99530784       0.66708873       0.33095516 </v>
    <v>       0.74139541       0.16339271       0.49452809 </v>
    <v>       0.76744916       0.83431389       0.82877343 </v>
    <v>       0.49439026       0.34243959       0.98937748 </v>
    <v>       0.24439605       0.17267625       0.17747768 </v>
    <v>       0.00535182       0.33414575       0.66520078 </v>
    <v>       0.23419091       0.83739616       0.49861159 </v>
    <v>       0.74351023       0.14717392       0.82415541 </v>
    <v>       0.50313380       0.66649290       0.66333156 </v>
    <v>       0.75378739       0.48905828       0.17237180 </v>
    <v>       0.50317450       0.66799532       0.33685654 </v>
    <v>       0.25939737       0.13917793       0.82630090 </v>
    <v>       0.00496363       0.33222326       0.98906008 </v>
    <v>       0.50442287       0.99181500       0.01467722 </v>
    <v>       0.49493416       0.34917063       0.67280900 </v>
    <v>       0.49286462       0.66743868       0.00253122 </v>
    <v>       0.23371331       0.50410417       0.49180568 </v>
    <v>       0.50407571       0.99563123       0.32507203 </v>
    <v>       0.99512420       0.99898255       0.32877889 </v>
    <v>       0.25392696       0.16251398       0.49048421 </v>
    <v>       0.00516764       0.00718266       0.65694809 </v>
    <v>       0.99976632       0.66254209       0.66316638 </v>
    <v>       0.50156838       0.97562555       0.65756401 </v>
    <v>       0.00291186       0.33721371       0.34321940 </v>
    <v>       0.49121433       0.33692122       0.34284584 </v>
   </varray>
  </structure>
  <varray name="forces" >
   <v>       0.00707486      -0.02775131      -0.00232030 </v>
   <v>      -0.00778775       0.00343944      -0.11788431 </v>
   <v>      -0.00296918      -0.00561738       0.05997926 </v>
   <v>      -0.02108346       0.00687523       0.00227175 </v>
   <v>       0.00292840      -0.01124461       0.00852940 </v>
   <v>      -0.07273421       0.00932833      -0.00333004 </v>
   <v>      -0.00727514      -0.01176163       0.01309802 </v>
   <v>      -0.00749456       0.01156933      -0.00412476 </v>
   <v>      -0.00547880       0.00276508       0.00232692 </v>
   <v>       0.00589082      -0.00733283      -0.00713233 </v>
   <v>      -0.00918138      -0.01628907      -0.02739678 </v>
   <v>       0.01758702      -0.01325805       0.00973114 </v>
   <v>       0.00118973       0.01821594       0.00262155 </v>
   <v>      -0.00746398      -0.00457520      -0.00857270 </v>
   <v>       0.01030735      -0.01140685      -0.00706896 </v>
   <v>       0.01027938       0.02060973       0.01148393 </v>
   <v>       0.00833695       0.01576031      -0.01637469 </v>
   <v>      -0.00722248       0.06082578      -0.01114486 </v>
   <v>       0.01482874       0.01852201      -0.00231427 </v>
   <v>      -0.00904920      -0.00101849      -0.00255524 </v>
   <v>       0.00894772       0.00638949       0.01700253 </v>
   <v>      -0.04395557      -0.01510160      -0.00054589 </v>
   <v>      -0.00432512       0.00247094      -0.00964120 </v>
   <v>      -0.00216731      -0.01972677       0.00332795 </v>
   <v>       0.01060544       0.00671602      -0.00670556 </v>
   <v>      -0.01843838       0.00026711      -0.00352952 </v>
   <v>       0.01164239       0.00790488       0.00772024 </v>
   <v>       0.08883516      -0.03203849       0.06338774 </v>
   <v>       0.00411389      -0.00396195       0.00068493 </v>
   <v>      -0.00132794       0.01345240      -0.00350092 </v>
   <v>       0.00117069      -0.06260062       0.00436997 </v>
   <v>      -0.00638276       0.00147872       0.01262550 </v>
   <v>       0.01054131      -0.00921149      -0.02475849 </v>
   <v>       0.00216605       0.01214008       0.00500638 </v>
   <v>       0.02914852       0.03128057       0.02330232 </v>
   <v>      -0.01125719       0.00288494       0.01143127 </v>
  </varray>
  <varray name="stress" >
   <v>       1.76658233       0.05503886       0.03558396 </v>
   <v>       0.05503887       1.87875217       0.00686437 </v>
   <v>       0.03558399       0.00686432       2.00271043 </v>
  </varray>
  <energy>
   <i name="e_fr_energy">   -370.20060202 </i>
   <i name="e_wo_entrp">   -370.20735865 </i>
   <i name="e_0_energy">      0.02026990 </i>
  </energy>
  <time name="totalsc">   10.02   11.20</time>
 </calculation>
 <calculation>
  <scstep>
   <time name="dav">    0.99    1.07</time>
   <time name="total">    1.07    1.36</time>
   <energy>
    <i name="alphaZ">   1568.84430762 </i>
    <i name="ewald"> -19715.71148391 </i>
    <i name="hartreedc">  -6249.63515048 </i>
    <i name="XCdc">   -361.34021135 </i>
    <i name="pawpsdc">  34016.61916631 </i>
    <i name="pawaedc"> -32335.55510511 </i>
    <i name="eentropy">      0.02046511 </i>
    <i name="bandstr">  -2453.60961768 </i>
    <i name="atom">  25160.16158175 </i>
    <i name="e_fr_energy">   -370.20604775 </i>
    <i name="e_wo_entrp">   -370.22651286 </i>
    <i name="e_0_energy">   -370.21286946 </i>
   </energy>
  </scstep>
  <scstep>
   <time name="diag">    0.09    0.09</time>
   <time name="diis">    0.68    0.68</time>
   <time name="orth">    0.01    0.01</time>
   <time name="total">    0.86    0.92</time>
   <energy>
    <i name="e_fr_energy">   -370.20687573 </i>
    <i name="e_wo_entrp">   -370.22692702 </i>
    <i name="e_0_energy">   -370.21355949 </i>
   </energy>
  </scstep>
  <scstep>
   <time name="diag">    0.08    0.08</time>
   <time name="diis">    0.74    0.82</time>
   <time name="orth">    0.01    0.01</time>
   <time name="total">    0.98    1.12</time>
   <energy>
    <i name="e_fr_energy">   -370.20266539 </i>
    <i name="e_wo_entrp">   -370.22285986 </i>
    <i name="e_0_energy">   -370.20939688 </i>
   </energy>
  </scstep>
  <scstep>
   <time name="diag">    0.09    0.11</time>
   <time name="diis">    0.81    0.82</time>
   <time name="orth">    0.01    0.01</time>
   <time name="total">    0.98    1.08</time>
   <energy>
    <i name="e_fr_energy">   -370.19945274 </i>
    <i name="e_wo_entrp">   -370.21927686 </i>
    <i name="e_0_energy">   -370.20606078 </i>
   </energy>
  </scstep>
  <scstep>
   <time name="diag">    0.08    0.08</time>
   <time name="diis">    0.80    0.81</time>
   <time name="orth">    0.01    0.01</time>
   <time name="total">    0.95    1.01</time>
   <energy>
    <i name="e_fr_energy">   -370.19910158 </i>
    <i name="e_wo_entrp">   -370.21909903 </i>
    <i name="e_0_energy">   -370.20576739 </i>
   </energy>
  </scstep>
  <scstep>
   <time name="diag">    0.10    0.11</time>
   <time name="diis">    0.86    0.87</time>
   <time name="orth">    0.01    0.01</time>
   <time name="total">    1.04    1.13</time>
   <energy>
    <i name="e_fr_energy">   -370.19916840 </i>
    <i name="e_wo_entrp">   -370.21911300 </i>
    <i name="e_0_energy">   -370.20581660 </i>
   </energy>
  </scstep>
  <scstep>
   <time name="diag">    0.07    0.08</time>
   <time name="diis">    0.80    0.80</time>
   <time name="orth">    0.01    0.01</time>
   <time name="total">    0.98    1.06</time>
   <energy>
    <i name="e_fr_energy">   -370.19920614 </i>
    <i name="e_wo_entrp">   -370.21910864 </i>
    <i name="e_0_energy">   -370.20584030 </i>
   </energy>
  </scstep>
  <scstep>
   <time name="diag">    0.08    0.08</time>
   <time name="diis">    0.70    0.71</time>
   <time name="orth">    0.01    0.01</time>
   <time name="total">    0.86    0.91</time>
   <energy>
    <i name="e_fr_energy">   -370.19924646 </i>
    <i name="e_wo_entrp">   -370.21917939 </i>
    <i name="e_0_energy">   -370.20589077 </i>
   </energy>
  </scstep>
  <scstep>
   <time name="diag">    0.07    0.08</time>
   <time name="diis">    0.57    0.57</time>
   <time name="orth">    0.01    0.01</time>
   <time name="total">    0.72    0.79</time>
   <energy>
    <i name="e_fr_energy">   -370.19927653 </i>
    <i name="e_wo_entrp">   -370.21920603 </i>
    <i name="e_0_energy">   -370.20591970 </i>
   </energy>
  </scstep>
  <scstep>
   <time name="diag">    0.07    0.07</time>
   <time name="diis">    0.51    0.54</time>
   <time name="orth">    0.01    0.01</time>
   <time name="total">    0.66    0.75</time>
   <energy>
    <i name="e_fr_energy">   -370.19930168 </i>
    <i name="e_wo_entrp">   -370.21923439 </i>
    <i name="e_0_energy">   -370.20594591 </i>
   </energy>
  </scstep>
  <scstep>
   <time name="diag">    0.07    0.08</time>
   <time name="diis">    0.45    0.45</time>
   <time name="orth">    0.01    0.01</time>
   <time name="total">    0.60    0.66</time>
   <energy>
    <i name="e_fr_energy">   -370.19931617 </i>
    <i name="e_wo_entrp">   -370.21923930 </i>
    <i name="e_0_energy">   -370.20595721 </i>
   </energy>
  </scstep>
  <scstep>
   <time name="diag">    0.12    0.13</time>
   <time name="diis">    0.42    0.43</time>
   <time name="orth">    0.01    0.01</time>
   <time name="total">    0.59    0.65</time>
   <energy>
    <i name="alphaZ">   1568.84430762 </i>
    <i name="ewald"> -19715.71148391 </i>
    <i name="hartreedc">  -6237.79567201 </i>
    <i name="XCdc">   -361.84020651 </i>
    <i name="pawpsdc">  34156.45939414 </i>
    <i name="pawaedc"> -32475.13211340 </i>
    <i name="eentropy">      0.01992275 </i>
    <i name="bandstr">  -2465.20505502 </i>
    <i name="atom">  25160.16158175 </i>
    <i name="e_fr_energy">   -370.19932459 </i>
    <i name="e_wo_entrp">   -370.21924734 </i>
    <i name="e_0_energy">   -370.20596551 </i>
   </energy>
  </scstep>
  <structure>
   <crystal>
    <varray name="basis" >
     <v>       6.85078337      -0.00670986       0.01663814 </v>
     <v>      -0.00954380      10.13320328       0.00958638 </v>
     <v>       0.02486712       0.00978085      10.21838583 </v>
    </varray>
    <i name="volume">    709.35874017 </i>
    <varray name="rec_basis" >
     <v>       0.14596971       0.00013782      -0.00035536 </v>
     <v>       0.00009689       0.09868566      -0.00009470 </v>
     <v>      -0.00023777      -0.00009281       0.09786348 </v>
    </varray>
   </crystal>
   <varray name="positions" >
    <v>       0.76789190       0.84001559       0.50082669 </v>
    <v>       0.24124799       0.49164189       0.17496565 </v>
    <v>       0.22652992       0.52665460       0.83453931 </v>
    <v>       0.00878316       0.67250708       0.00747444 </v>
    <v>       0.23079131       0.83912231       0.17565451 </v>
    <v>       0.76089659       0.49593258       0.49270013 </v>
    <v>       0.77047198       0.83739922       0.17112651 </v>
    <v>       0.99558827       0.99585403       0.01191737 </v>
    <v>       0.75383687       0.16713474       0.17953863 </v>
    <v>       0.23873385       0.83200590       0.82779897 </v>
    <v>       0.77337232       0.51851869       0.83579595 </v>
    <v>       0.99531063       0.66708831       0.33088786 </v>
    <v>       0.74130899       0.16354237       0.49453874 </v>
    <v>       0.76737736       0.83429421       0.82874407 </v>
    <v>       0.49442066       0.34238194       0.98939020 </v>
    <v>       0.24447115       0.17286876       0.17767378 </v>
    <v>       0.00550921       0.33436451       0.66502938 </v>
    <v>       0.23393420       0.83826243       0.49859007 </v>
    <v>       0.74371323       0.14726086       0.82411700 </v>
    <v>       0.50308397       0.66643721       0.66326636 </v>
    <v>       0.75397557       0.48909026       0.17256655 </v>
    <v>       0.50262736       0.66778865       0.33691739 </v>
    <v>       0.25935441       0.13918230       0.82616421 </v>
    <v>       0.00506662       0.33213810       0.98915173 </v>
    <v>       0.50462380       0.99183753       0.01467304 </v>
    <v>       0.49467629       0.34933816       0.67260346 </v>
    <v>       0.49283402       0.66746972       0.00259008 </v>
    <v>       0.23517553       0.50364979       0.49268437 </v>
    <v>       0.50415484       0.99561507       0.32501355 </v>
    <v>       0.99513954       0.99910495       0.32868119 </v>
    <v>       0.25393281       0.16161039       0.49046192 </v>
    <v>       0.00519110       0.00713712       0.65699475 </v>
    <v>       0.99991244       0.66247616       0.66289383 </v>
    <v>       0.50155094       0.97569090       0.65756104 </v>
    <v>       0.00345650       0.33760205       0.34343607 </v>
    <v>       0.49104670       0.33698160       0.34302420 </v>
   </varray>
  </structure>
  <varray name="forces" >
   <v>      -0.00329769      -0.03644965      -0.01516855 </v>
   <v>      -0.01296001       0.03067244      -0.03329028 </v>
   <v>       0.01037097      -0.02187841       0.02765059 </v>
   <v>      -0.03996272      -0.00031450       0.01121494 </v>
   <v>       0.01988603      -0.01683484      -0.00318860 </v>
   <v>      -0.01446365       0.00787808      -0.00398815 </v>
   <v>      -0.03596188      -0.01426431       0.00899974 </v>
   <v>       0.00238381       0.02153514      -0.01569494 </v>
   <v>      -0.00515946       0.01543338      -0.00709066 </v>
   <v>       0.01285540       0.00928219       0.00611280 </v>
   <v>      -0.02621930      -0.02046506      -0.03301520 </v>
   <v>       0.04289200      -0.03152796       0.03548405 </v>
   <v>       0.01357266       0.01877040       0.00398911 </v>
   <v>      -0.01004959      -0.00778616      -0.01559670 </v>
   <v>       0.02290082      -0.01937883      -0.01945777 </v>
   <v>       0.01580626       0.01652162      -0.00554239 </v>
   <v>       0.00165701       0.00228758      -0.01067395 </v>
   <v>       0.01252053      -0.00122419      -0.02503856 </v>
   <v>       0.01331039       0.03142806       0.00134927 </v>
   <v>      -0.01636471       0.00731158       0.00538023 </v>
   <v>       0.00096124       0.01014181       0.00717822 </v>
   <v>      -0.04615358      -0.00032997      -0.01237622 </v>
   <v>      -0.00538106       0.00497824      -0.00024143 </v>
   <v>      -0.01862637      -0.03467061      -0.00736965 </v>
   <v>       0.00266967       0.01304975      -0.01598545 </v>
   <v>      -0.01421573      -0.03045591       0.02851022 </v>
   <v>       0.03370212       0.01510012       0.00854881 </v>
   <v>       0.04976160      -0.00235978       0.00612891 </v>
   <v>       0.00235553      -0.00692892       0.01124454 </v>
   <v>      -0.00673718       0.01253983       0.00676850 </v>
   <v>       0.00139246       0.00121976       0.01356280 </v>
   <v>      -0.02146629       0.01119785       0.02480683 </v>
   <v>       0.00789382      -0.01001102      -0.01419012 </v>
   <v>       0.00916450       0.01683848       0.01366305 </v>
   <v>       0.00883091       0.01238680       0.02059543 </v>
   <v>      -0.00786849      -0.00369299      -0.00327943 </v>
  </varray>
  <varray name="stress" >
   <v>       6.33453280       0.29514960      -0.24558286 </v>
   <v>       0.29514963       6.54775988       0.27149767 </v>
   <v>      -0.24558289       0.27149764       6.17779077 </v>
  </varray>
  <energy>
   <i name="e_fr_energy">   -370.19932459 </i>
   <i name="e_wo_entrp">   -370.20596551 </i>
   <i name="e_0_energy">      0.01992275 </i>
  </energy>
  <time name="totalsc">   11.91   13.27</time>
 </calculation>
 <calculation>
  <scstep>
   <time name="dav">    0.93    1.04</time>
   <time name="total">    1.00    1.37</time>
   <energy>
    <i name="alphaZ">   1565.89261003 </i>
    <i name="ewald"> -19704.66231545 </i>
    <i name="hartreedc">  -6232.60366010 </i>
    <i name="XCdc">   -362.37573619 </i>
    <i name="pawpsdc">  34156.67272263 </i>
    <i name="pawaedc"> -32475.32628187 </i>
    <i name="eentropy">      0.01982158 </i>
    <i name="bandstr">  -2477.98283559 </i>
    <i name="atom">  25160.16158175 </i>
    <i name="e_fr_energy">   -370.20409322 </i>
    <i name="e_wo_entrp">   -370.22391480 </i>
    <i name="e_0_energy">   -370.21070041 </i>
   </energy>
  </scstep>
  <scstep>
   <time name="diag">    0.07    0.08</time>
   <time name="diis">    0.68    0.69</time>
   <time name="orth">    0.01    0.01</time>
   <time name="total">    0.87    0.93</time>
   <energy>
    <i name="e_fr_energy">   -370.20452617 </i>
    <i name="e_wo_entrp">   -370.22459087 </i>
    <i name="e_0_energy">   -370.21121440 </i>
   </energy>
  </scstep>
  <scstep>
   <time name="diag">    0.12    0.12</time>
   <time name="diis">    0.79    0.80</time>
   <time name="orth">    0.01    0.01</time>
   <time name="total">    0.99    1.05</time>
   <energy>
    <i name="e_fr_energy">   -370.20293778 </i>
    <i name="e_wo_entrp">   -370.22293822 </i>
    <i name="e_0_energy">   -370.20960459 </i>
   </energy>
  </scstep>
  <scstep>
   <time name="diag">    0.08    0.08</time>
   <time name="diis">    0.80    0.80</time>
   <time name="orth">    0.01    0.01</time>
   <time name="total">    0.96    1.02</time>
   <energy>
    <i name="e_fr_energy">   -370.20167251 </i>
    <i name="e_wo_entrp">   -370.22187522 </i>
    <i name="e_0_energy">   -370.20840675 </i>
   </energy>
  </scstep>
  <scstep>
   <time name="diag">    0.07    0.07</time>
   <time name="diis">    0.80    0.80</time>
   <time name="orth">    0.01    0.01</time>
   <time name="total">    0.95    1.01</time>
   <energy>
    <i name="e_fr_energy">   -370.20149551 </i>
    <i name="e_wo_entrp">   -370.22159927 </i>
    <i name="e_0_energy">   -370.20819676 </i>
   </energy>
  </scstep>
  <scstep>
   <time name="diag">    0.07    0.07</time>
   <time name="diis">    0.80    0.81</time>
   <time name="orth">    0.01    0.01</time>
   <time name="total">    0.95    1.02</time>
   <energy>
    <i name="e_fr_energy">   -370.20147721 </i>
    <i name="e_wo_entrp">   -370.22160982 </i>
    <i name="e_0_energy">   -370.20818808 </i>
   </energy>
  </scstep>
  <scstep>
   <time name="diag">    0.08    0.08</time>
   <time name="diis">    0.72    0.73</time>
   <time name="orth">    0.01    0.01</time>
   <time name="total">    0.90    0.95</time>
   <energy>
    <i name="e_fr_energy">   -370.20145847 </i>
    <i name="e_wo_entrp">   -370.22161806 </i>
    <i name="e_0_energy">   -370.20817834 </i>
   </energy>
  </scstep>
  <scstep>
   <time name="diag">    0.09    0.09</time>
   <time name="diis">    0.64    0.65</time>
   <time name="orth">    0.01    0.01</time>
   <time name="total">    0.77    0.84</time>
   <energy>
    <i name="alphaZ">   1565.89261003 </i>
    <i name="ewald"> -19704.66231545 </i>
    <i name="hartreedc">  -6240.17218845 </i>
    <i name="XCdc">   -362.05641540 </i>
    <i name="pawpsdc">  34072.63079453 </i>
    <i name="pawaedc"> -32391.10359757 </i>
    <i name="eentropy">      0.02014056 </i>
    <i name="bandstr">  -2470.91206779 </i>
    <i name="atom">  25160.16158175 </i>
    <i name="e_fr_energy">   -370.20145780 </i>
    <i name="e_wo_entrp">   -370.22159836 </i>
    <i name="e_0_energy">   -370.20817132 </i>
   </energy>
  </scstep>
  <structure>
   <crystal>
    <varray name="basis" >
     <v>       6.85586101      -0.00620691       0.01569794 </v>
     <v>      -0.00880395      10.14042318       0.01072255 </v>
     <v>       0.02347435       0.01092989      10.22277565 </v>
    </varray>
    <i name="volume">    710.69587687 </i>
    <varray name="rec_basis" >
     <v>       0.14586148       0.00012699      -0.00033507 </v>
     <v>       0.00008952       0.09861540      -0.00010564 </v>
     <v>      -0.00022408      -0.00010363       0.09782142 </v>
    </varray>
   </crystal>
   <varray name="positions" >
    <v>       0.76778220       0.84013212       0.50079814 </v>
    <v>       0.24127637       0.49171175       0.17587655 </v>
    <v>       0.22662036       0.52662777       0.83411361 </v>
    <v>       0.00885454       0.67244371       0.00749818 </v>
    <v>       0.23085349       0.83916196       0.17556597 </v>
    <v>       0.76176127       0.49587684       0.49271279 </v>
    <v>       0.77038252       0.83745252       0.17104242 </v>
    <v>       0.99570053       0.99582824       0.01189917 </v>
    <v>       0.75387930       0.16716688       0.17949459 </v>
    <v>       0.23872615       0.83210246       0.82788073 </v>
    <v>       0.77335633       0.51858771       0.83591747 </v>
    <v>       0.99530891       0.66708857       0.33092915 </v>
    <v>       0.74136202       0.16345052       0.49453218 </v>
    <v>       0.76742142       0.83430630       0.82876207 </v>
    <v>       0.49440201       0.34241732       0.98938241 </v>
    <v>       0.24442507       0.17275058       0.17755346 </v>
    <v>       0.00541255       0.33423026       0.66513452 </v>
    <v>       0.23409167       0.83773077       0.49860315 </v>
    <v>       0.74358862       0.14720750       0.82414057 </v>
    <v>       0.50311455       0.66647140       0.66330636 </v>
    <v>       0.75386011       0.48907060       0.17244709 </v>
    <v>       0.50296322       0.66791552       0.33688003 </v>
    <v>       0.25938075       0.13917964       0.82624806 </v>
    <v>       0.00500343       0.33219035       0.98909553 </v>
    <v>       0.50450047       0.99182369       0.01467562 </v>
    <v>       0.49483450       0.34923538       0.67272951 </v>
    <v>       0.49285281       0.66745066       0.00255396 </v>
    <v>       0.23427828       0.50392850       0.49214551 </v>
    <v>       0.50410626       0.99562500       0.32504943 </v>
    <v>       0.99513009       0.99902984       0.32874111 </v>
    <v>       0.25392931       0.16216497       0.49047569 </v>
    <v>       0.00517671       0.00716506       0.65696613 </v>
    <v>       0.99982270       0.66251665       0.66306105 </v>
    <v>       0.50156164       0.97565079       0.65756286 </v>
    <v>       0.00312222       0.33736365       0.34330316 </v>
    <v>       0.49114962       0.33694453       0.34291476 </v>
   </varray>
  </structure>
  <varray name="forces" >
   <v>       0.00354778      -0.03112458      -0.00754518 </v>
   <v>      -0.01036531       0.01316182      -0.08751686 </v>
   <v>       0.00177909      -0.01183608       0.04872970 </v>
   <v>      -0.02817950       0.00421733       0.00634056 </v>
   <v>       0.01016931      -0.01269794       0.00422454 </v>
   <v>      -0.05169355       0.00857578      -0.00402909 </v>
   <v>      -0.01879901      -0.01179564       0.01143890 </v>
   <v>      -0.00370920       0.01576058      -0.00814078 </v>
   <v>      -0.00555489       0.00666808      -0.00165655 </v>
   <v>       0.00859201      -0.00101467      -0.00205214 </v>
   <v>      -0.01553752      -0.01854869      -0.02966296 </v>
   <v>       0.02701561      -0.01968872       0.01894139 </v>
   <v>       0.00575296       0.01792903       0.00251411 </v>
   <v>      -0.00836311      -0.00552407      -0.01098454 </v>
   <v>       0.01507598      -0.01488921      -0.01159606 </v>
   <v>       0.01256449       0.01860632       0.00473199 </v>
   <v>       0.00631528       0.01086520      -0.01416972 </v>
   <v>      -0.00003563       0.03834385      -0.01718577 </v>
   <v>       0.01421541       0.02380699       0.00004683 </v>
   <v>      -0.01173356       0.00223977       0.00001939 </v>
   <v>       0.00574249       0.00775095       0.01252099 </v>
   <v>      -0.04572447      -0.00920634      -0.00555746 </v>
   <v>      -0.00458584       0.00400087      -0.00539447 </v>
   <v>      -0.00880083      -0.02584503      -0.00089301 </v>
   <v>       0.00728784       0.00886177      -0.01033893 </v>
   <v>      -0.01718455      -0.01164950       0.00918427 </v>
   <v>       0.02097394       0.01132011       0.00796582 </v>
   <v>       0.07541885      -0.02197654       0.04422295 </v>
   <v>       0.00425022      -0.00509577       0.00451403 </v>
   <v>      -0.00384774       0.01337901       0.00035232 </v>
   <v>       0.00069616      -0.04016261       0.00746637 </v>
   <v>      -0.01236676       0.00601508       0.01751676 </v>
   <v>       0.00969834      -0.00980798      -0.02174743 </v>
   <v>       0.00529157       0.01285983       0.00862078 </v>
   <v>       0.02232133       0.02581160       0.02350816 </v>
   <v>      -0.01022718       0.00068939       0.00561109 </v>
  </varray>
  <varray name="stress" >
   <v>       3.88317716       0.16248385      -0.08344620 </v>
   <v>       0.16248382       4.02004372       0.10316598 </v>
   <v>      -0.08344621       0.10316593       3.92044690 </v>
  </varray>
  <energy>
   <i name="e_fr_energy">   -370.20145780 </i>
   <i name="e_wo_entrp">   -370.20817132 </i>
   <i name="e_0_energy">      0.02014056 </i>
  </energy>
  <time name="totalsc">    9.12   10.08</time>
 </calculation>
 <calculation>
  <scstep>
   <time name="dav">    0.92    0.95</time>
   <time name="total">    0.98    1.29</time>
   <energy>
    <i name="alphaZ">   1565.44887216 </i>
    <i name="ewald"> -19702.55087018 </i>
    <i name="hartreedc">  -6239.80292317 </i>
    <i name="XCdc">   -362.13802131 </i>
    <i name="pawpsdc">  34072.96307672 </i>
    <i name="pawaedc"> -32391.48682016 </i>
    <i name="eentropy">      0.02017654 </i>
    <i name="bandstr">  -2472.81761376 </i>
    <i name="atom">  25160.16158175 </i>
    <i name="e_fr_energy">   -370.20254141 </i>
    <i name="e_wo_entrp">   -370.22271795 </i>
    <i name="e_0_energy">   -370.20926692 </i>
   </energy>
  </scstep>
  <scstep>
   <time name="diag">    0.08    0.08</time>
   <time name="diis">    0.66    0.66</time>
   <time name="orth">    0.01    0.01</time>
   <time name="total">    0.81    0.85</time>
   <energy>
    <i name="e_fr_energy">   -370.20267560 </i>
    <i name="e_wo_entrp">   -370.22282428 </i>
    <i name="e_0_energy">   -370.20939183 </i>
   </energy>
  </scstep>
  <scstep>
   <time name="diag">    0.09    0.10</time>
   <time name="diis">    0.74    0.75</time>
   <time name="orth">    0.01    0.01</time>
   <time name="total">    0.91    0.98</time>
   <energy>
    <i name="e_fr_energy">   -370.20260825 </i>
    <i name="e_wo_entrp">   -370.22277216 </i>
    <i name="e_0_energy">   -370.20932956 </i>
   </energy>
  </scstep>
  <scstep>
   <time name="diag">    0.07    0.08</time>
   <time name="diis">    0.53    0.53</time>
   <time name="orth">    0.01    0.01</time>
   <time name="total">    0.68    0.75</time>
   <energy>
    <i name="e_fr_energy">   -370.20258036 </i>
    <i name="e_wo_entrp">   -370.22276077 </i>
    <i name="e_0_energy">   -370.20930717 </i>
   </energy>
  </scstep>
  <scstep>
   <time name="diag">    0.07    0.07</time>
   <time name="diis">    0.33    0.34</time>
   <time name="orth">    0.01    0.01</time>
   <time name="total">    0.45    0.52</time>
   <energy>
    <i name="alphaZ">   1565.44887216 </i>
    <i name="ewald"> -19702.55087018 </i>
    <i name="hartreedc">  -6240.87295497 </i>
    <i name="XCdc">   -362.09281803 </i>
    <i name="pawpsdc">  34058.90979221 </i>
    <i name="pawaedc"> -32377.53288065 </i>
    <i name="eentropy">      0.02016396 </i>
    <i name="bandstr">  -2471.69346048 </i>
    <i name="atom">  25160.16158175 </i>
    <i name="e_fr_energy">   -370.20257423 </i>
    <i name="e_wo_entrp">   -370.22273819 </i>
    <i name="e_0_energy">   -370.20929555 </i>
   </energy>
  </scstep>
  <structure>
   <crystal>
    <varray name="basis" >
     <v>       6.85635072      -0.00623897       0.01583757 </v>
     <v>      -0.00885067      10.14127136       0.01057836 </v>
     <v>       0.02368105       0.01078413      10.22408854 </v>
    </varray>
    <i name="volume">    710.89732879 </i>
    <varray name="rec_basis" >
     <v>       0.14585108       0.00012764      -0.00033796 </v>
     <v>       0.00008997       0.09860715      -0.00010422 </v>
     <v>      -0.00022602      -0.00010222       0.09780886 </v>
    </varray>
   </crystal>
   <varray name="positions" >
    <v>       0.76780382       0.84009850       0.50080009 </v>
    <v>       0.24126504       0.49170493       0.17567897 </v>
    <v>       0.22660539       0.52662755       0.83420919 </v>
    <v>       0.00882449       0.67245668       0.00749662 </v>
    <v>       0.23084875       0.83914964       0.17558340 </v>
    <v>       0.76157625       0.49589028       0.49270891 </v>
    <v>       0.77038674       0.83743814       0.17106208 </v>
    <v>       0.99567838       0.99583939       0.01189902 </v>
    <v>       0.75386837       0.16716397       0.17950171 </v>
    <v>       0.23873282       0.83208495       0.82786539 </v>
    <v>       0.77334960       0.51856775       0.83588369 </v>
    <v>       0.99532585       0.66708031       0.33092966 </v>
    <v>       0.74135619       0.16347427       0.49453437 </v>
    <v>       0.76740847       0.83430185       0.82875435 </v>
    <v>       0.49441463       0.34240485       0.98937898 </v>
    <v>       0.24444099       0.17277927       0.17757671 </v>
    <v>       0.00543358       0.33425858       0.66511002 </v>
    <v>       0.23406379       0.83784094       0.49859369 </v>
    <v>       0.74361947       0.14722689       0.82413640 </v>
    <v>       0.50310189       0.66646628       0.66329929 </v>
    <v>       0.75388409       0.48907731       0.17247343 </v>
    <v>       0.50287552       0.66788919       0.33688439 </v>
    <v>       0.25937326       0.13918178       0.82623098 </v>
    <v>       0.00500918       0.33217031       0.98910513 </v>
    <v>       0.50452682       0.99182985       0.01467087 </v>
    <v>       0.49479585       0.34924871       0.67271100 </v>
    <v>       0.49286242       0.66745876       0.00256363 </v>
    <v>       0.23448368       0.50386996       0.49225923 </v>
    <v>       0.50411748       0.99562111       0.32504495 </v>
    <v>       0.99512939       0.99904872       0.32873064 </v>
    <v>       0.25393034       0.16205000       0.49047637 </v>
    <v>       0.00517161       0.00716261       0.65697847 </v>
    <v>       0.99984460       0.66250540       0.66302242 </v>
    <v>       0.50156300       0.97566326       0.65756609 </v>
    <v>       0.00319517       0.33741664       0.34333640 </v>
    <v>       0.49112507       0.33695138       0.34293647 </v>
   </varray>
  </structure>
  <varray name="forces" >
   <v>       0.00336362      -0.02968623      -0.00779883 </v>
   <v>      -0.01162926       0.01517700      -0.07212457 </v>
   <v>       0.00004056      -0.01029241       0.04295075 </v>
   <v>      -0.02875060       0.00351681       0.00575999 </v>
   <v>       0.00718483      -0.01193702       0.00370780 </v>
   <v>      -0.04120874       0.00766216      -0.00518360 </v>
   <v>      -0.01715288      -0.01087645       0.01145568 </v>
   <v>      -0.00324746       0.01389769      -0.00753580 </v>
   <v>      -0.00435075       0.00723869      -0.00003446 </v>
   <v>       0.00735872       0.00071192      -0.00137751 </v>
   <v>      -0.01437247      -0.01594873      -0.03002779 </v>
   <v>       0.02972293      -0.02198602       0.02172182 </v>
   <v>       0.00733674       0.01761693       0.00208372 </v>
   <v>      -0.00665823      -0.00581674      -0.01270251 </v>
   <v>       0.01603519      -0.01394377      -0.01303271 </v>
   <v>       0.01207911       0.01781064       0.00488008 </v>
   <v>       0.00499336       0.01005946      -0.01452892 </v>
   <v>       0.00057556       0.03026089      -0.01721283 </v>
[...]
    <v>       0.74183789       0.16392316       0.49448014 </v>
    <v>       0.76746758       0.83423298       0.82821090 </v>
    <v>       0.49538093       0.34216189       0.98913011 </v>
    <v>       0.24495945       0.17324261       0.17790888 </v>
    <v>       0.00592824       0.33468936       0.66448685 </v>
    <v>       0.23376981       0.83885100       0.49829012 </v>
    <v>       0.74435387       0.14756438       0.82387416 </v>
    <v>       0.50241048       0.66665532       0.66346488 </v>
    <v>       0.75435769       0.48934553       0.17327137 </v>
    <v>       0.50082437       0.66762523       0.33640686 </v>
    <v>       0.25872553       0.13883450       0.82607819 </v>
    <v>       0.00400694       0.33142571       0.98908071 </v>
    <v>       0.50471578       0.99221663       0.01461181 </v>
    <v>       0.49400084       0.34881893       0.67318158 </v>
    <v>       0.49391649       0.66783200       0.00254247 </v>
    <v>       0.23689210       0.50332045       0.49290216 </v>
    <v>       0.50468677       0.99549171       0.32504378 </v>
    <v>       0.99467126       0.99917995       0.32849654 </v>
    <v>       0.25390394       0.16141789       0.49078294 </v>
    <v>       0.00468199       0.00696408       0.65718024 </v>
    <v>       0.00045136       0.66208976       0.66249213 </v>
    <v>       0.50183375       0.97572787       0.65754331 </v>
    <v>       0.00423429       0.33814004       0.34409894 </v>
    <v>       0.49088971       0.33725671       0.34296831 </v>
   </varray>
  </structure>
  <varray name="forces" >
   <v>       0.00356008      -0.00297470      -0.00455810 </v>
   <v>       0.00373302      -0.00974977      -0.01068309 </v>
   <v>      -0.00338191       0.00194131       0.01160891 </v>
   <v>      -0.00422145       0.00001398      -0.00048055 </v>
   <v>       0.00132765       0.00504058      -0.00669555 </v>
   <v>      -0.00121737       0.00760827       0.00714494 </v>
   <v>       0.00175597      -0.00092906      -0.00249849 </v>
   <v>      -0.00414738      -0.00049489       0.00398482 </v>
   <v>      -0.00432749      -0.00054283       0.00222314 </v>
   <v>       0.00091347      -0.00541689       0.00431750 </v>
   <v>       0.00264318       0.00388600      -0.01247660 </v>
   <v>      -0.00044120       0.00838354      -0.00779371 </v>
   <v>      -0.00204138      -0.00164872      -0.00019929 </v>
   <v>      -0.00205624       0.00364960      -0.00468733 </v>
   <v>       0.00142168       0.00000803       0.00928629 </v>
   <v>       0.00080023       0.00031909       0.00119156 </v>
   <v>       0.00841639       0.00077693       0.00563723 </v>
   <v>       0.00323712       0.00179990       0.00062251 </v>
   <v>       0.00266583      -0.00903376      -0.00863030 </v>
   <v>      -0.00496546      -0.00312592       0.00253049 </v>
   <v>       0.00287396       0.00374359       0.00879134 </v>
   <v>       0.00228354       0.00057992      -0.00158359 </v>
   <v>      -0.01029034       0.00034407      -0.00139857 </v>
   <v>      -0.00890507      -0.00059963       0.00462953 </v>
   <v>      -0.00107455       0.00317197       0.00004289 </v>
   <v>      -0.00328051       0.00328641       0.00101309 </v>
   <v>       0.00064001      -0.00099418      -0.00031454 </v>
   <v>       0.00171340      -0.00560176       0.00010394 </v>
   <v>      -0.00159760       0.00228984       0.00210772 </v>
   <v>       0.00483999      -0.00024909       0.00288728 </v>
   <v>       0.00654845      -0.00326175      -0.00390619 </v>
   <v>      -0.00098396      -0.00539485      -0.00685329 </v>
   <v>       0.00004635       0.00002656       0.00582965 </v>
   <v>      -0.00205500       0.00138209      -0.00082149 </v>
   <v>       0.00064363      -0.00284744      -0.00309423 </v>
   <v>       0.00492296       0.00461356       0.00272208 </v>
  </varray>
  <varray name="stress" >
   <v>      -0.30289414       0.00730018      -0.04163791 </v>
   <v>       0.00730022      -0.30843223       0.01189777 </v>
   <v>      -0.04163790       0.01189770      -0.22735187 </v>
  </varray>
  <energy>
   <i name="e_fr_energy">   -370.20924031 </i>
   <i name="e_wo_entrp">   -370.21589472 </i>
   <i name="e_0_energy">      0.01996325 </i>
  </energy>
  <time name="totalsc">    2.91    3.40</time>
 </calculation>
 <calculation>
  <scstep>
   <time name="dav">    0.60    0.61</time>
   <time name="total">    0.68    0.85</time>
   <energy>
    <i name="alphaZ">   1562.02824128 </i>
    <i name="ewald"> -19684.86604700 </i>
    <i name="hartreedc">  -6248.34950955 </i>
    <i name="XCdc">   -362.34100623 </i>
    <i name="pawpsdc">  33959.57140895 </i>
    <i name="pawaedc"> -32278.51610475 </i>
    <i name="eentropy">      0.01996323 </i>
    <i name="bandstr">  -2477.91776800 </i>
    <i name="atom">  25160.16158175 </i>
    <i name="e_fr_energy">   -370.20924031 </i>
    <i name="e_wo_entrp">   -370.22920354 </i>
    <i name="e_0_energy">   -370.21589472 </i>
   </energy>
  </scstep>
  <scstep>
   <time name="diag">    0.07    0.08</time>
   <time name="diis">    0.22    0.22</time>
   <time name="orth">    0.01    0.01</time>
   <time name="total">    0.34    0.38</time>
   <energy>
    <i name="alphaZ">   1562.02824128 </i>
    <i name="ewald"> -19684.86604700 </i>
    <i name="hartreedc">  -6248.34975481 </i>
    <i name="XCdc">   -362.34099858 </i>
    <i name="pawpsdc">  33959.58256690 </i>
    <i name="pawaedc"> -32278.52706771 </i>
    <i name="eentropy">      0.01996323 </i>
    <i name="bandstr">  -2477.91772539 </i>
    <i name="atom">  25160.16158175 </i>
    <i name="e_fr_energy">   -370.20924032 </i>
    <i name="e_wo_entrp">   -370.22920355 </i>
    <i name="e_0_energy">   -370.21589473 </i>
   </energy>
  </scstep>
  <structure>
   <crystal>
    <varray name="basis" >
     <v>       6.86099501      -0.00453665       0.01575575 </v>
     <v>      -0.00633626      10.14879590       0.01289693 </v>
     <v>       0.02356015       0.01312779      10.23195101 </v>
    </varray>
    <i name="volume">    712.45409792 </i>
    <varray name="rec_basis" >
     <v>       0.14575229       0.00009143      -0.00033573 </v>
     <v>       0.00006544       0.09853406      -0.00012657 </v>
     <v>      -0.00022452      -0.00012434       0.09773375 </v>
    </varray>
   </crystal>
   <varray name="positions" >
    <v>       0.76809560       0.83922941       0.50067571 </v>
    <v>       0.24058543       0.49212281       0.17379349 </v>
    <v>       0.22600183       0.52659951       0.83584071 </v>
    <v>       0.00733178       0.67260757       0.00749735 </v>
    <v>       0.23055552       0.83895833       0.17565460 </v>
    <v>       0.76025106       0.49612277       0.49252734 </v>
    <v>       0.77026295       0.83720948       0.17160767 </v>
    <v>       0.99548616       0.99598133       0.01191817 </v>
    <v>       0.75361907       0.16719712       0.17965566 </v>
    <v>       0.23864677       0.83221064       0.82806111 </v>
    <v>       0.77315698       0.51828386       0.83471977 </v>
    <v>       0.99709779       0.66646947       0.33151405 </v>
    <v>       0.74183789       0.16392316       0.49448014 </v>
    <v>       0.76746758       0.83423298       0.82821090 </v>
    <v>       0.49538093       0.34216189       0.98913011 </v>
    <v>       0.24495945       0.17324261       0.17790888 </v>
    <v>       0.00592824       0.33468936       0.66448685 </v>
    <v>       0.23376981       0.83885100       0.49829012 </v>
    <v>       0.74435387       0.14756438       0.82387416 </v>
    <v>       0.50241048       0.66665532       0.66346488 </v>
    <v>       0.75435769       0.48934553       0.17327137 </v>
    <v>       0.50082437       0.66762523       0.33640686 </v>
    <v>       0.25872553       0.13883450       0.82607819 </v>
    <v>       0.00400694       0.33142571       0.98908071 </v>
    <v>       0.50471578       0.99221663       0.01461181 </v>
    <v>       0.49400084       0.34881893       0.67318158 </v>
    <v>       0.49391649       0.66783200       0.00254247 </v>
    <v>       0.23689210       0.50332045       0.49290216 </v>
    <v>       0.50468677       0.99549171       0.32504378 </v>
    <v>       0.99467126       0.99917995       0.32849654 </v>
    <v>       0.25390394       0.16141789       0.49078294 </v>
    <v>       0.00468199       0.00696408       0.65718024 </v>
    <v>       0.00045136       0.66208976       0.66249213 </v>
    <v>       0.50183375       0.97572787       0.65754331 </v>
    <v>       0.00423429       0.33814004       0.34409894 </v>
    <v>       0.49088971       0.33725671       0.34296831 </v>
   </varray>
  </structure>
  <varray name="forces" >
   <v>       0.00356039      -0.00297257      -0.00455560 </v>
   <v>       0.00373310      -0.00974989      -0.01067841 </v>
   <v>      -0.00338286       0.00194265       0.01160604 </v>
   <v>      -0.00421856       0.00001428      -0.00047919 </v>
   <v>       0.00132559       0.00504118      -0.00669119 </v>
   <v>      -0.00121598       0.00760532       0.00714229 </v>
   <v>       0.00175897      -0.00092690      -0.00249527 </v>
   <v>      -0.00414604      -0.00049543       0.00398473 </v>
   <v>      -0.00432584      -0.00054273       0.00222614 </v>
   <v>       0.00091294      -0.00541559       0.00431513 </v>
   <v>       0.00264546       0.00388605      -0.01247393 </v>
   <v>      -0.00043922       0.00838013      -0.00779208 </v>
   <v>      -0.00203984      -0.00164828      -0.00019996 </v>
   <v>      -0.00205423       0.00364906      -0.00468896 </v>
   <v>       0.00142249       0.00000795       0.00928477 </v>
   <v>       0.00080148       0.00032014       0.00119535 </v>
   <v>       0.00841679       0.00077656       0.00563404 </v>
   <v>       0.00323710       0.00180083       0.00062327 </v>
   <v>       0.00266673      -0.00903313      -0.00863154 </v>
   <v>      -0.00496428      -0.00312639       0.00252876 </v>
   <v>       0.00287409       0.00374266       0.00878807 </v>
   <v>       0.00228451       0.00058079      -0.00158511 </v>
   <v>      -0.01028722       0.00034189      -0.00139629 </v>
   <v>      -0.00890139      -0.00059941       0.00462925 </v>
   <v>      -0.00107255       0.00316921       0.00004408 </v>
   <v>      -0.00327864       0.00328541       0.00101477 </v>
   <v>       0.00063967      -0.00099383      -0.00031414 </v>
   <v>       0.00170444      -0.00558347       0.00010421 </v>
   <v>      -0.00159191       0.00228176       0.00209321 </v>
   <v>       0.00483030      -0.00025630       0.00287256 </v>
   <v>       0.00653238      -0.00325473      -0.00389930 </v>
   <v>      -0.00098362      -0.00538659      -0.00683887 </v>
   <v>       0.00005060       0.00002469       0.00582541 </v>
   <v>      -0.00204818       0.00136749      -0.00081737 </v>
   <v>       0.00064322      -0.00283606      -0.00308881 </v>
   <v>       0.00491006       0.00460323       0.00271392 </v>
  </varray>
  <varray name="stress" >
   <v>      -0.30364672       0.00729426      -0.04162018 </v>
   <v>       0.00729421      -0.30913853       0.01190309 </v>
   <v>      -0.04162021       0.01190314      -0.22797060 </v>
  </varray>
  <energy>
   <i name="e_fr_energy">   -370.20924032 </i>
   <i name="e_wo_entrp">   -370.21589473 </i>
   <i name="e_0_energy">      0.01996323 </i>
  </energy>
  <time name="totalsc">    2.69    3.03</time>
 </calculation>
 <calculation>
  <scstep>
   <time name="dav">    1.18    1.19</time>
   <time name="total">    1.26    1.44</time>
   <energy>
    <i name="alphaZ">   1563.24466726 </i>
    <i name="ewald"> -19690.06296922 </i>
    <i name="hartreedc">  -6249.87841290 </i>
    <i name="XCdc">   -362.11926813 </i>
    <i name="pawpsdc">  33959.58697431 </i>
    <i name="pawaedc"> -32278.53139959 </i>
    <i name="eentropy">      0.01994743 </i>
    <i name="bandstr">  -2472.63152788 </i>
    <i name="atom">  25160.16158175 </i>
    <i name="e_fr_energy">   -370.21040697 </i>
    <i name="e_wo_entrp">   -370.23035440 </i>
    <i name="e_0_energy">   -370.21705612 </i>
   </energy>
  </scstep>
  <scstep>
   <time name="diag">    0.08    0.08</time>
   <time name="diis">    0.79    0.80</time>
   <time name="orth">    0.01    0.01</time>
   <time name="total">    0.95    0.99</time>
   <energy>
    <i name="e_fr_energy">   -370.20967998 </i>
    <i name="e_wo_entrp">   -370.22952651 </i>
    <i name="e_0_energy">   -370.21629549 </i>
   </energy>
  </scstep>
  <scstep>
   <time name="diag">    0.08    0.08</time>
   <time name="diis">    0.80    0.81</time>
   <time name="orth">    0.02    0.02</time>
   <time name="total">    0.96    1.01</time>
   <energy>
    <i name="e_fr_energy">   -370.20926979 </i>
    <i name="e_wo_entrp">   -370.22918431 </i>
    <i name="e_0_energy">   -370.21590796 </i>
   </energy>
  </scstep>
  <scstep>
   <time name="diag">    0.10    0.10</time>
   <time name="diis">    0.74    0.88</time>
   <time name="orth">    0.01    0.01</time>
   <time name="total">    0.92    1.09</time>
   <energy>
    <i name="e_fr_energy">   -370.20906040 </i>
    <i name="e_wo_entrp">   -370.22889291 </i>
    <i name="e_0_energy">   -370.21567124 </i>
   </energy>
  </scstep>
  <scstep>
   <time name="diag">    0.07    0.07</time>
   <time name="diis">    0.68    0.69</time>
   <time name="orth">    0.01    0.01</time>
   <time name="total">    0.83    0.91</time>
   <energy>
    <i name="e_fr_energy">   -370.20903400 </i>
    <i name="e_wo_entrp">   -370.22891035 </i>
    <i name="e_0_energy">   -370.21565945 </i>
   </energy>
  </scstep>
  <scstep>
   <time name="diag">    0.08    0.08</time>
   <time name="diis">    0.43    0.50</time>
   <time name="orth">    0.01    0.01</time>
   <time name="total">    0.58    0.97</time>
   <energy>
    <i name="alphaZ">   1563.24466726 </i>
    <i name="ewald"> -19690.06296922 </i>
    <i name="hartreedc">  -6246.58998879 </i>
    <i name="XCdc">   -362.25796862 </i>
    <i name="pawpsdc">  33997.12685383 </i>
    <i name="pawaedc"> -32316.19974325 </i>
    <i name="eentropy">      0.01986856 </i>
    <i name="bandstr">  -2475.65134508 </i>
    <i name="atom">  25160.16158175 </i>
    <i name="e_fr_energy">   -370.20904354 </i>
    <i name="e_wo_entrp">   -370.22891210 </i>
    <i name="e_0_energy">   -370.21566640 </i>
   </energy>
  </scstep>
  <structure>
   <crystal>
    <varray name="basis" >
     <v>       6.85929834      -0.00450808       0.01582560 </v>
     <v>      -0.00629398      10.14629575       0.01290834 </v>
     <v>       0.02366524       0.01313993      10.22903845 </v>
    </varray>
    <i name="volume">    711.89970763 </i>
    <varray name="rec_basis" >
     <v>       0.14578834       0.00009087      -0.00033740 </v>
     <v>       0.00006507       0.09855834      -0.00012676 </v>
     <v>      -0.00022563      -0.00012451       0.09776158 </v>
    </varray>
   </crystal>
   <varray name="positions" >
    <v>       0.76808922       0.83924443       0.50069219 </v>
    <v>       0.24056499       0.49214650       0.17382951 </v>
    <v>       0.22599943       0.52660455       0.83581046 </v>
    <v>       0.00735897       0.67260845       0.00749581 </v>
    <v>       0.23053297       0.83894760       0.17567636 </v>
    <v>       0.76026917       0.49610150       0.49250172 </v>
    <v>       0.77027338       0.83721844       0.17161299 </v>
    <v>       0.99549808       0.99597612       0.01191141 </v>
    <v>       0.75364206       0.16719378       0.17965607 </v>
    <v>       0.23863500       0.83222356       0.82804631 </v>
    <v>       0.77316056       0.51827988       0.83475570 </v>
    <v>       0.99710077       0.66644646       0.33153135 </v>
    <v>       0.74184745       0.16392583       0.49448037 </v>
    <v>       0.76748258       0.83422500       0.82822429 </v>
    <v>       0.49537681       0.34216304       0.98910373 </v>
    <v>       0.24495125       0.17324135       0.17790945 </v>
    <v>       0.00589520       0.33469023       0.66447045 </v>
    <v>       0.23374702       0.83884523       0.49828970 </v>
    <v>       0.74434790       0.14758247       0.82389453 </v>
    <v>       0.50242954       0.66666524       0.66345891 </v>
    <v>       0.75435251       0.48933604       0.17324853 </v>
    <v>       0.50081594       0.66762451       0.33641508 </v>
    <v>       0.25876122       0.13882771       0.82608243 </v>
    <v>       0.00404093       0.33143218       0.98907010 </v>
    <v>       0.50472436       0.99220490       0.01461403 </v>
    <v>       0.49401386       0.34881512       0.67317718 </v>
    <v>       0.49390847       0.66783112       0.00254143 </v>
    <v>       0.23687314       0.50333767       0.49289740 </v>
    <v>       0.50469400       0.99548525       0.32503260 </v>
    <v>       0.99465136       0.99917395       0.32848042 </v>
    <v>       0.25387618       0.16142391       0.49078798 </v>
    <v>       0.00468611       0.00697539       0.65719713 </v>
    <v>       0.00045268       0.66208631       0.66248008 </v>
    <v>       0.50184040       0.97571747       0.65754583 </v>
    <v>       0.00423543       0.33815404       0.34410813 </v>
    <v>       0.49086304       0.33724474       0.34296333 </v>
   </varray>
  </structure>
  <varray name="forces" >
   <v>       0.00242758      -0.00581734      -0.00652846 </v>
   <v>       0.00621137      -0.01032048      -0.01506385 </v>
   <v>       0.00094647      -0.00175262       0.01092010 </v>
   <v>      -0.00647783      -0.00029339       0.00073633 </v>
   <v>       0.00677628       0.00396538      -0.00878740 </v>
   <v>      -0.00626909       0.00996417       0.01151903 </v>
   <v>      -0.00332506      -0.00358847      -0.00327106 </v>
   <v>      -0.00329748       0.00228742       0.00242472 </v>
   <v>      -0.00619049       0.00099025      -0.00108280 </v>
   <v>       0.00317428      -0.00631745       0.00560915 </v>
   <v>      -0.00077147       0.00167514      -0.01431885 </v>
   <v>      -0.00175296       0.01011328      -0.00762967 </v>
   <v>      -0.00316107      -0.00154074       0.00052575 </v>
   <v>      -0.00392345       0.00331153      -0.00517327 </v>
   <v>       0.00060039      -0.00056694       0.01060083 </v>
   <v>       0.00170607       0.00001648      -0.00124233 </v>
   <v>       0.00953687       0.00000481       0.00811162 </v>
   <v>       0.00621077       0.00115730       0.00049106 </v>
   <v>       0.00231431      -0.00726759      -0.00806936 </v>
   <v>      -0.00527733      -0.00516660       0.00166128 </v>
   <v>       0.00138999       0.00394741       0.00711024 </v>
   <v>       0.00257449       0.00110259      -0.00187460 </v>
   <v>      -0.01032880       0.00424043      -0.00100326 </v>
   <v>      -0.00813126      -0.00178578       0.00449497 </v>
   <v>      -0.00185022       0.00413006      -0.00136032 </v>
   <v>      -0.00313232       0.00238569       0.00121577 </v>
   <v>       0.00121907      -0.00027194       0.00061444 </v>
   <v>       0.00535194      -0.00629222       0.00375038 </v>
   <v>      -0.00305295       0.00280967       0.00465145 </v>
   <v>       0.00642173       0.00228099       0.00689105 </v>
   <v>       0.00770604      -0.00329040      -0.00288373 </v>
   <v>      -0.00124677      -0.00426688      -0.00624626 </v>
   <v>      -0.00053119       0.00203833       0.00565604 </v>
   <v>      -0.00222901       0.00389629      -0.00030214 </v>
   <v>      -0.00048970      -0.00561380      -0.00458165 </v>
   <v>       0.00687081       0.00383541       0.00243481 </v>
  </varray>
  <varray name="stress" >
   <v>       0.73220917       0.01560708      -0.04585200 </v>
   <v>       0.01560705       0.73796007      -0.00176859 </v>
   <v>      -0.04585203      -0.00176859       0.82952313 </v>
  </varray>
  <energy>
   <i name="e_fr_energy">   -370.20904354 </i>
   <i name="e_wo_entrp">   -370.21566640 </i>
   <i name="e_0_energy">      0.01986856 </i>
  </energy>
