       N       E                     dE             d eps       ncg     rms          rms(c)
DAV:   1     0.173256148898E+04    0.17326E+04   -0.10529E+05  5208   0.104E+03
DAV:   2    -0.802548897953E+02   -0.18128E+04   -0.17375E+04  5216   0.361E+02
DAV:   3    -0.336024679517E+03   -0.25577E+03   -0.24214E+03  8096   0.106E+02
DAV:   4    -0.368784165534E+03   -0.32759E+02   -0.31272E+02  8224   0.318E+01
DAV:   5    -0.372221999358E+03   -0.34378E+01   -0.33512E+01  7512   0.101E+01    0.657E+01
RMM:   6    -0.362205813583E+03    0.10016E+02   -0.26640E+01  7066   0.978E+00    0.312E+01
RMM:   7    -0.364211258119E+03   -0.20054E+01   -0.30072E+01  7264   0.788E+00    0.123E+01
RMM:   8    -0.357840310385E+03    0.63709E+01   -0.74960E+00  7303   0.404E+00    0.429E+00
RMM:   9    -0.357453794038E+03    0.38652E+00   -0.29436E+00  7367   0.202E+00    0.281E+00
RMM:  10    -0.357455326217E+03   -0.15322E-02   -0.61088E-01  7406   0.125E+00    0.157E+00
RMM:  11    -0.357427904476E+03    0.27422E-01   -0.16661E-01  7331   0.578E-01    0.871E-01
RMM:  12    -0.357423107640E+03    0.47968E-02   -0.83084E-02  7456   0.406E-01    0.437E-01
RMM:  13    -0.357421827448E+03    0.12802E-02   -0.28641E-02  7407   0.241E-01    0.252E-01
RMM:  14    -0.357422207819E+03   -0.38037E-03   -0.12984E-02  7587   0.116E-01    0.140E-01
RMM:  15    -0.357422669006E+03   -0.46119E-03   -0.66472E-03  7525   0.758E-02    0.736E-02
RMM:  16    -0.357422851621E+03   -0.18261E-03   -0.29366E-03  6571   0.441E-02    0.412E-02
RMM:  17    -0.357422916185E+03   -0.64564E-04   -0.13611E-03  6089   0.315E-02    0.177E-02
RMM:  18    -0.357422975697E+03   -0.59511E-04   -0.73028E-04  5658   0.222E-02    0.975E-03
RMM:  19    -0.357423002726E+03   -0.27029E-04   -0.32770E-04  4920   0.160E-02    0.551E-03
RMM:  20    -0.357423016201E+03   -0.13475E-04   -0.17343E-04  4240   0.126E-02    0.318E-03
RMM:  21    -0.357423024195E+03   -0.79943E-05   -0.10412E-04  4143   0.117E-02    0.187E-03
RMM:  22    -0.357423028390E+03   -0.41944E-05   -0.59041E-05  3757   0.953E-03
   1 F= -.35742303E+03 E0= -.35743124E+03  d E =-.357423E+03
       N       E                     dE             d eps       ncg     rms          rms(c)
DAV:   1    -0.357424856644E+03   -0.18324E-02   -0.58546E-02  5768   0.730E-01    0.257E-01
RMM:   2    -0.357424504363E+03    0.35228E-03   -0.45006E-03  7284   0.168E-01    0.898E-02
RMM:   3    -0.357424332616E+03    0.17175E-03   -0.12410E-03  7517   0.589E-02    0.685E-02
RMM:   4    -0.357424205707E+03    0.12691E-03   -0.29702E-04  7364   0.352E-02    0.357E-02
RMM:   5    -0.357424199529E+03    0.61786E-05   -0.93425E-05  6290   0.185E-02
   2 F= -.35742420E+03 E0= -.35743238E+03  d E =-.117114E-02
       N       E                     dE             d eps       ncg     rms          rms(c)
DAV:   1    -0.357431533521E+03   -0.73278E-02   -0.52490E-01  5536   0.219E+00    0.763E-01
RMM:   2    -0.357428403215E+03    0.31303E-02   -0.39792E-02  7285   0.503E-01    0.267E-01
RMM:   3    -0.357426796007E+03    0.16072E-02   -0.10983E-02  7530   0.174E-01    0.206E-01
RMM:   4    -0.357425668338E+03    0.11277E-02   -0.26271E-03  7476   0.105E-01    0.110E-01
RMM:   5    -0.357425599598E+03    0.68740E-04   -0.84617E-04  7459   0.533E-02    0.869E-02
RMM:   6    -0.357425653979E+03   -0.54382E-04   -0.32663E-04  6795   0.296E-02    0.519E-02
RMM:   7    -0.357425692899E+03   -0.38920E-04   -0.16112E-04  5973   0.222E-02    0.261E-02
RMM:   8    -0.357425710782E+03   -0.17882E-04   -0.91189E-05  4944   0.175E-02    0.176E-02
RMM:   9    -0.357425724041E+03   -0.13259E-04   -0.39912E-05  4084   0.130E-02    0.116E-02
RMM:  10    -0.357425733170E+03   -0.91296E-05   -0.16298E-05  3383   0.109E-02
   3 F= -.35742573E+03 E0= -.35743380E+03  d E =-.270478E-02
       N       E                     dE             d eps       ncg     rms          rms(c)
DAV:   1    -0.357426857524E+03   -0.11335E-02   -0.64131E-02  5248   0.699E-01    0.174E-01
RMM:   2    -0.357426820847E+03    0.36677E-04   -0.31529E-03  7254   0.146E-01    0.668E-02
RMM:   3    -0.357426768275E+03    0.52572E-04   -0.61148E-04  7432   0.435E-02    0.455E-02
RMM:   4    -0.357426716250E+03    0.52025E-04   -0.17718E-04  7016   0.242E-02    0.254E-02
RMM:   5    -0.357426707942E+03    0.83075E-05   -0.57080E-05  4707   0.142E-02
   4 F= -.35742671E+03 E0= -.35743475E+03  d E =-.974772E-03
       N       E                     dE             d eps       ncg     rms          rms(c)
DAV:   1    -0.357429215604E+03   -0.24994E-02   -0.57368E-01  5032   0.210E+00    0.503E-01
RMM:   2    -0.357428897852E+03    0.31775E-03   -0.27031E-02  7246   0.429E-01    0.191E-01
RMM:   3    -0.357428409435E+03    0.48842E-03   -0.48151E-03  7346   0.125E-01    0.130E-01
RMM:   4    -0.357427985323E+03    0.42411E-03   -0.13767E-03  7445   0.676E-02    0.753E-02
RMM:   5    -0.357427935530E+03    0.49793E-04   -0.50833E-04  7494   0.390E-02    0.542E-02
RMM:   6    -0.357427923416E+03    0.12113E-04   -0.19539E-04  6654   0.222E-02    0.343E-02
RMM:   7    -0.357427917554E+03    0.58629E-05   -0.76846E-05  4824   0.168E-02
   5 F= -.35742792E+03 E0= -.35743588E+03  d E =-.218438E-02
       N       E                     dE             d eps       ncg     rms          rms(c)
DAV:   1    -0.357427914541E+03    0.88756E-05   -0.11930E-03  5440   0.950E-02    0.227E-02
RMM:   2    -0.357427915494E+03   -0.95329E-06   -0.89497E-05  6417   0.220E-02
   6 F= -.35742792E+03 E0= -.35743587E+03  d E =-.218232E-02
       N       E                     dE             d eps       ncg     rms          rms(c)
DAV:   1    -0.357427916176E+03   -0.16354E-05   -0.35535E-04  5360   0.519E-02    0.165E-02
RMM:   2    -0.357427914949E+03    0.12268E-05   -0.26571E-05  3089   0.129E-02
   7 F= -.35742791E+03 E0= -.35743587E+03  d E =-.218178E-02
       N       E                     dE             d eps       ncg     rms          rms(c)
DAV:   1    -0.357428055942E+03   -0.13977E-03   -0.10143E-02  4928   0.282E-01    0.242E-02
RMM:   2    -0.357428075840E+03   -0.19898E-04   -0.29160E-04  7059   0.487E-02    0.146E-02
RMM:   3    -0.357428070108E+03    0.57320E-05   -0.34088E-05  3488   0.138E-02
   8 F= -.35742807E+03 E0= -.35743602E+03  d E =-.155159E-03
       N       E                     dE             d eps       ncg     rms          rms(c)
DAV:   1    -0.357428290892E+03   -0.21505E-03   -0.91434E-02  4904   0.843E-01    0.682E-02
RMM:   2    -0.357428468141E+03   -0.17725E-03   -0.25963E-03  7209   0.143E-01    0.399E-02
RMM:   3    -0.357428446135E+03    0.22006E-04   -0.38915E-04  6598   0.381E-02    0.298E-02
RMM:   4    -0.357428439637E+03    0.64977E-05   -0.13881E-04  5793   0.182E-02    0.155E-02
RMM:   5    -0.357428438619E+03    0.10185E-05   -0.41471E-05  3650   0.109E-02
   9 F= -.35742844E+03 E0= -.35743636E+03  d E =-.523669E-03
       N       E                     dE             d eps       ncg     rms          rms(c)
DAV:   1    -0.357428124049E+03    0.31559E-03   -0.36540E-01  4856   0.169E+00    0.131E-01
RMM:   2    -0.357428847287E+03   -0.72324E-03   -0.10112E-02  7192   0.285E-01    0.759E-02
RMM:   3    -0.357428771404E+03    0.75883E-04   -0.15472E-03  7141   0.751E-02    0.559E-02
RMM:   4    -0.357428739485E+03    0.31919E-04   -0.43506E-04  7713   0.320E-02    0.293E-02
RMM:   5    -0.357428737832E+03    0.16532E-05   -0.14649E-04  5639   0.192E-02    0.153E-02
RMM:   6    -0.357428740697E+03   -0.28653E-05   -0.68560E-05  4197   0.135E-02
  10 F= -.35742874E+03 E0= -.35743661E+03  d E =-.825748E-03
       N       E                     dE             d eps       ncg     rms          rms(c)
DAV:   1    -0.357428918921E+03   -0.18109E-03   -0.61116E-02  4904   0.694E-01    0.744E-02
RMM:   2    -0.357429000533E+03   -0.81611E-04   -0.18712E-03  7192   0.122E-01    0.394E-02
RMM:   3    -0.357428981194E+03    0.19339E-04   -0.27616E-04  6515   0.326E-02    0.285E-02
RMM:   4    -0.357428969305E+03    0.11888E-04   -0.10541E-04  5717   0.173E-02    0.143E-02
RMM:   5    -0.357428967340E+03    0.19653E-05   -0.32918E-05  3450   0.102E-02
  11 F= -.35742897E+03 E0= -.35743685E+03  d E =-.226643E-03
       N       E                     dE             d eps       ncg     rms          rms(c)
DAV:   1    -0.357428958493E+03    0.10812E-04   -0.20353E-01  4872   0.127E+00    0.131E-01
RMM:   2    -0.357429243394E+03   -0.28490E-03   -0.62218E-03  7245   0.221E-01    0.699E-02
RMM:   3    -0.357429186918E+03    0.56476E-04   -0.95934E-04  7082   0.584E-02    0.499E-02
RMM:   4    -0.357429149352E+03    0.37566E-04   -0.32506E-04  7202   0.292E-02    0.260E-02
RMM:   5    -0.357429145955E+03    0.33967E-05   -0.11391E-04  5070   0.173E-02    0.142E-02
RMM:   6    -0.357429145650E+03    0.30522E-06   -0.53073E-05  4088   0.120E-02
  12 F= -.35742915E+03 E0= -.35743704E+03  d E =-.404953E-03
       N       E                     dE             d eps       ncg     rms          rms(c)
DAV:   1    -0.357429779853E+03   -0.63390E-03   -0.11220E-01  5208   0.981E-01    0.263E-01
RMM:   2    -0.357429512454E+03    0.26740E-03   -0.61712E-03  7262   0.205E-01    0.967E-02
RMM:   3    -0.357429393089E+03    0.11937E-03   -0.13192E-03  7456   0.638E-02    0.686E-02
RMM:   4    -0.357429266377E+03    0.12671E-03   -0.37425E-04  7422   0.365E-02    0.365E-02
RMM:   5    -0.357429261011E+03    0.53660E-05   -0.12354E-04  6564   0.204E-02    0.275E-02
RMM:   6    -0.357429267508E+03   -0.64963E-05   -0.38555E-05  3641   0.114E-02
  13 F= -.35742927E+03 E0= -.35743713E+03  d E =-.121858E-03
       N       E                     dE             d eps       ncg     rms          rms(c)
DAV:   1    -0.357429276713E+03   -0.15702E-04   -0.41725E-04  5320   0.599E-02    0.150E-02
RMM:   2    -0.357429279236E+03   -0.25230E-05   -0.37721E-05  3793   0.152E-02
  14 F= -.35742928E+03 E0= -.35743713E+03  d E =-.133586E-03
       N       E                     dE             d eps       ncg     rms          rms(c)
DAV:   1    -0.357429378499E+03   -0.10179E-03   -0.30654E-02  4904   0.478E-01    0.612E-02
RMM:   2    -0.357429422557E+03   -0.44058E-04   -0.97851E-04  7271   0.843E-02    0.339E-02
RMM:   3    -0.357429400505E+03    0.22052E-04   -0.16347E-04  5597   0.224E-02    0.242E-02
RMM:   4    -0.357429394697E+03    0.58087E-05   -0.61626E-05  4903   0.147E-02
  15 F= -.35742939E+03 E0= -.35743723E+03  d E =-.115461E-03
