<?xml version="1.0" encoding="ISO-8859-1"?>
<modeling>
 <generator>
  <i name="program" type="string">vasp </i>
  <i name="version" type="string">5.4.1  </i>
  <i name="subversion" type="string">05Feb16 (build Jan 29 2020 16:04:39) complex                          parallel </i>
  <i name="platform" type="string">IFC91_ompi </i>
  <i name="date" type="string">2020 05 18 </i>
  <i name="time" type="string">17:04:47 </i>
 </generator>
 <incar>
  <i type="string" name="SYSTEM"> automatically generated by mexm</i>
  <i type="int" name="ISTART">     0</i>
  <i type="string" name="PREC">accurate               ! avoid wrap aro</i>
  <i type="string" name="ALGO"> Fast                   ! blocked Davids</i>
  <i type="int" name="ISPIN">     1</i>
  <i type="int" name="ICHARG">     2</i>
  <i type="int" name="NELM">    70</i>
  <i type="int" name="IBRION">     2</i>
  <i name="EDIFF">      0.00001000</i>
  <i name="EDIFFG">     -0.01000000</i>
  <i type="int" name="NSW">   300</i>
  <i type="int" name="ISIF">     3</i>
  <i type="int" name="ISYM">     1</i>
  <i name="ENCUT">    300.00000000</i>
  <i name="POTIM">      0.15000000</i>
  <i type="string" name="LREAL"> Auto                  ! unpublished met</i>
  <i type="int" name="ISMEAR">     1</i>
  <i name="SIGMA">      0.15000000</i>
  <i type="logical" name="LWAVE"> F  </i>
  <i type="logical" name="LCHARG"> F  </i>
  <i type="logical" name="LVTOT"> F  </i>
  <v type="int" name="KPOINT_BSE">    -1     0     0     0</v>
  <i type="int" name="NELM">    70</i>
 </incar>
 <kpoints>
  <generation param="Gamma">
   <v type="int" name="divisions">       3        3        3 </v>
   <v name="usershift">      0.00000000       0.00000000       0.00000000 </v>
   <v name="genvec1">      0.33333333       0.00000000       0.00000000 </v>
   <v name="genvec2">     -0.00000000       0.33333333       0.00000000 </v>
   <v name="genvec3">      0.00000000       0.00000000       0.33333333 </v>
   <v name="shift">      0.00000000       0.00000000       0.00000000 </v>
  </generation>
  <varray name="kpointlist" >
   <v>       0.00000000       0.00000000       0.00000000 </v>
   <v>       0.33333333      -0.00000000       0.00000000 </v>
   <v>       0.00000000       0.33333333       0.00000000 </v>
   <v>       0.33333333       0.33333333       0.00000000 </v>
   <v>      -0.33333333       0.33333333       0.00000000 </v>
   <v>       0.00000000       0.00000000       0.33333333 </v>
   <v>       0.33333333      -0.00000000       0.33333333 </v>
   <v>       0.00000000       0.33333333       0.33333333 </v>
   <v>       0.33333333       0.33333333       0.33333333 </v>
   <v>      -0.33333333       0.33333333       0.33333333 </v>
  </varray>
  <varray name="weights" >
   <v>       0.03703704 </v>
   <v>       0.07407407 </v>
   <v>       0.07407407 </v>
   <v>       0.07407407 </v>
   <v>       0.07407407 </v>
   <v>       0.07407407 </v>
   <v>       0.14814815 </v>
   <v>       0.14814815 </v>
   <v>       0.14814815 </v>
   <v>       0.14814815 </v>
  </varray>
 </kpoints>
 <parameters>
  <separator name="general" >
   <i type="string" name="SYSTEM">automatically generated by mexm</i>
   <i type="logical" name="LCOMPAT"> F  </i>
  </separator>
  <separator name="electronic" >
   <i type="string" name="PREC">accura</i>
   <i name="ENMAX">    300.00000000</i>
   <i name="ENAUG">    461.25700000</i>
   <i name="EDIFF">      0.00001000</i>
   <i type="int" name="IALGO">    68</i>
   <i type="int" name="IWAVPR">    11</i>
   <i type="int" name="NBANDS">    84</i>
   <i name="NELECT">    140.00000000</i>
   <i type="int" name="TURBO">     0</i>
   <i type="int" name="IRESTART">     0</i>
   <i type="int" name="NREBOOT">     0</i>
   <i type="int" name="NMIN">     0</i>
   <i name="EREF">      0.00000000</i>
   <separator name="electronic smearing" >
    <i type="int" name="ISMEAR">     1</i>
    <i name="SIGMA">      0.15000000</i>
    <i name="KSPACING">      0.50000000</i>
    <i type="logical" name="KGAMMA"> T  </i>
   </separator>
   <separator name="electronic projectors" >
    <i type="logical" name="LREAL"> T  </i>
    <v name="ROPT">     -0.00025000     -0.00025000     -0.00025000     -0.00025000</v>
    <i type="int" name="LMAXPAW">  -100</i>
    <i type="int" name="LMAXMIX">     2</i>
    <i type="logical" name="NLSPLINE"> F  </i>
   </separator>
   <separator name="electronic startup" >
    <i type="int" name="ISTART">     0</i>
    <i type="int" name="ICHARG">     2</i>
    <i type="int" name="INIWAV">     1</i>
   </separator>
   <separator name="electronic spin" >
    <i type="int" name="ISPIN">     1</i>
    <i type="logical" name="LNONCOLLINEAR"> F  </i>
    <v name="MAGMOM">      1.00000000      1.00000000      1.00000000      1.00000000      1.00000000      1.00000000      1.00000000      1.00000000      1.00000000      1.00000000      1.00000000      1.00000000      1.00000000      1.00000000      1.00000000      1.00000000</v>
    <i name="NUPDOWN">     -1.00000000</i>
    <i type="logical" name="LSORBIT"> F  </i>
    <v name="SAXIS">      0.00000000      0.00000000      1.00000000</v>
    <i type="logical" name="LSPIRAL"> F  </i>
    <v name="QSPIRAL">      0.00000000      0.00000000      0.00000000</v>
    <i type="logical" name="LZEROZ"> F  </i>
   </separator>
   <separator name="electronic exchange-correlation" >
    <i type="logical" name="LASPH"> F  </i>
    <i type="logical" name="LMETAGGA"> F  </i>
   </separator>
   <separator name="electronic convergence" >
    <i type="int" name="NELM">    70</i>
    <i type="int" name="NELMDL">    -5</i>
    <i type="int" name="NELMIN">     2</i>
    <i name="ENINI">    300.00000000</i>
    <separator name="electronic convergence detail" >
     <i type="logical" name="LDIAG"> T  </i>
     <i type="logical" name="LSUBROT"> F  </i>
     <i name="WEIMIN">      0.00100000</i>
     <i name="EBREAK">      0.00000003</i>
     <i name="DEPER">      0.30000000</i>
     <i type="int" name="NRMM">     4</i>
     <i name="TIME">      0.40000000</i>
    </separator>
   </separator>
   <separator name="electronic mixer" >
    <i name="AMIX">      0.40000000</i>
    <i name="BMIX">      1.00000000</i>
    <i name="AMIN">      0.10000000</i>
    <i name="AMIX_MAG">      1.60000000</i>
    <i name="BMIX_MAG">      1.00000000</i>
    <separator name="electronic mixer details" >
     <i type="int" name="IMIX">     4</i>
     <i type="logical" name="MIXFIRST"> F  </i>
     <i type="int" name="MAXMIX">   -45</i>
     <i name="WC">    100.00000000</i>
     <i type="int" name="INIMIX">     1</i>
     <i type="int" name="MIXPRE">     1</i>
     <i type="int" name="MREMOVE">     5</i>
    </separator>
   </separator>
   <separator name="electronic dipolcorrection" >
    <i type="logical" name="LDIPOL"> F  </i>
    <i type="logical" name="LMONO"> F  </i>
    <i type="int" name="IDIPOL">     0</i>
    <i name="EPSILON">      1.00000000</i>
    <v name="DIPOL">   -100.00000000   -100.00000000   -100.00000000</v>
    <i name="EFIELD">      0.00000000</i>
   </separator>
  </separator>
  <separator name="grids" >
   <i type="int" name="NGX">    40</i>
   <i type="int" name="NGY">    40</i>
   <i type="int" name="NGZ">    40</i>
   <i type="int" name="NGXF">    80</i>
   <i type="int" name="NGYF">    80</i>
   <i type="int" name="NGZF">    80</i>
   <i type="logical" name="ADDGRID"> F  </i>
  </separator>
  <separator name="ionic" >
   <i type="int" name="NSW">   300</i>
   <i type="int" name="IBRION">     2</i>
   <i type="int" name="ISIF">     3</i>
   <i name="PSTRESS">      0.00000000</i>
   <i name="EDIFFG">     -0.01000000</i>
   <i type="int" name="NFREE">     1</i>
   <i name="POTIM">      0.15000000</i>
   <i name="SMASS">     -3.00000000</i>
   <i name="SCALEE">      1.00000000</i>
  </separator>
  <separator name="ionic md" >
   <i name="TEBEG">      0.00010000</i>
   <i name="TEEND">      0.00010000</i>
   <i type="int" name="NBLOCK">     1</i>
   <i type="int" name="KBLOCK">   300</i>
   <i type="int" name="NPACO">   256</i>
   <i name="APACO">     16.00000000</i>
  </separator>
  <separator name="symmetry" >
   <i type="int" name="ISYM">     1</i>
   <i name="SYMPREC">      0.00001000</i>
  </separator>
  <separator name="dos" >
   <i type="logical" name="LORBIT"> F  </i>
   <v name="RWIGS">     -1.00000000     -1.00000000     -1.00000000     -1.00000000</v>
   <i type="int" name="NEDOS">   301</i>
   <i name="EMIN">     10.00000000</i>
   <i name="EMAX">    -10.00000000</i>
   <i name="EFERMI">      0.00000000</i>
  </separator>
  <separator name="writing" >
   <i type="int" name="NWRITE">     2</i>
   <i type="logical" name="LWAVE"> F  </i>
   <i type="logical" name="LCHARG"> F  </i>
   <i type="logical" name="LPARD"> F  </i>
   <i type="logical" name="LVTOT"> F  </i>
   <i type="logical" name="LVHAR"> F  </i>
   <i type="logical" name="LELF"> F  </i>
   <i type="logical" name="LOPTICS"> F  </i>
   <v name="STM">      0.00000000      0.00000000      0.00000000      0.00000000      0.00000000      0.00000000      0.00000000</v>
  </separator>
  <separator name="performance" >
   <i type="int" name="NPAR">     4</i>
   <i type="int" name="NSIM">     4</i>
   <i type="int" name="NBLK">    -1</i>
   <i type="logical" name="LPLANE"> T  </i>
   <i type="logical" name="LSCALAPACK"> T  </i>
   <i type="logical" name="LSCAAWARE"> F  </i>
   <i type="logical" name="LSCALU"> F  </i>
   <i type="logical" name="LASYNC"> F  </i>
   <i type="logical" name="LORBITALREAL"> F  </i>
  </separator>
  <separator name="miscellaneous" >
   <i type="int" name="IDIOT">     3</i>
   <i type="logical" name="LMUSIC"> F  </i>
   <v name="POMASS">    180.94800000    178.49000000     91.22400000     92.91000000</v>
   <v name="DARWINR">      0.00000000      0.00000000      0.00000000      0.00000000</v>
   <v name="DARWINV">      1.00000000      1.00000000      1.00000000      1.00000000</v>
   <i type="logical" name="LCORR"> T  </i>
  </separator>
  <i type="logical" name="GGA_COMPAT"> T  </i>
  <i type="logical" name="LBERRY"> F  </i>
  <i type="int" name="ICORELEVEL">     0</i>
  <i type="logical" name="LDAU"> F  </i>
  <i type="int" name="I_CONSTRAINED_M">     0</i>
  <separator name="electronic exchange-correlation" >
   <i type="string" name="GGA">--</i>
   <i type="int" name="VOSKOWN">     0</i>
   <i type="logical" name="LHFCALC"> F  </i>
   <i type="string" name="PRECFOCK"></i>
   <i type="logical" name="LSYMGRAD"> F  </i>
   <i type="logical" name="LHFONE"> F  </i>
   <i type="logical" name="LRHFCALC"> F  </i>
   <i type="logical" name="LTHOMAS"> F  </i>
   <i type="logical" name="LMODELHF"> F  </i>
   <i name="ENCUT4O">     -1.00000000</i>
   <i type="int" name="EXXOEP">     0</i>
   <i type="int" name="FOURORBIT">     0</i>
   <i name="AEXX">      0.00000000</i>
   <i name="HFALPHA">      0.00000000</i>
   <i name="MCALPHA">      0.00000000</i>
   <i name="ALDAX">      1.00000000</i>
   <i name="AGGAX">      1.00000000</i>
   <i name="ALDAC">      1.00000000</i>
   <i name="AGGAC">      1.00000000</i>
   <i type="int" name="NKREDX">     1</i>
   <i type="int" name="NKREDY">     1</i>
   <i type="int" name="NKREDZ">     1</i>
   <i type="logical" name="SHIFTRED"> F  </i>
   <i type="logical" name="ODDONLY"> F  </i>
   <i type="logical" name="EVENONLY"> F  </i>
   <i type="int" name="LMAXFOCK">     0</i>
   <i type="int" name="NMAXFOCKAE">     0</i>
   <i type="logical" name="LFOCKAEDFT"> F  </i>
   <i name="HFSCREEN">      0.00000000</i>
   <i name="HFSCREENC">      0.00000000</i>
   <i type="int" name="NBANDSGWLOW">     0</i>
  </separator>
  <separator name="vdW DFT" >
   <i type="logical" name="LUSE_VDW"> F  </i>
   <i name="Zab_VDW">     -0.84910000</i>
   <i name="PARAM1">      0.12340000</i>
   <i name="PARAM2">      1.00000000</i>
   <i name="PARAM3">      0.00000000</i>
  </separator>
  <separator name="model GW" >
   <i type="int" name="MODEL_GW">     0</i>
   <i name="MODEL_EPS0">     12.89770707</i>
   <i name="MODEL_ALPHA">      1.00000000</i>
  </separator>
  <separator name="linear response parameters" >
   <i type="logical" name="LEPSILON"> F  </i>
   <i type="logical" name="LRPA"> F  </i>
   <i type="logical" name="LNABLA"> F  </i>
   <i type="logical" name="LVEL"> F  </i>
   <i type="int" name="KINTER">     0</i>
   <i name="CSHIFT">      0.10000000</i>
   <i name="OMEGAMAX">     -1.00000000</i>
   <i name="DEG_THRESHOLD">      0.00200000</i>
  </separator>
  <separator name="orbital magnetization" >
   <i type="logical" name="NUCIND"> F  </i>
   <v name="MAGPOS">      0.00000000      0.00000000      0.00000000</v>
   <i type="logical" name="LNICSALL"> T  </i>
   <i type="logical" name="ORBITALMAG"> F  </i>
   <i type="logical" name="LMAGBLOCH"> F  </i>
   <i type="logical" name="LCHIMAG"> F  </i>
   <i type="logical" name="LGAUGE"> T  </i>
   <i type="int" name="MAGATOM">     0</i>
   <v name="MAGDIPOL">      0.00000000      0.00000000      0.00000000</v>
   <v name="AVECCONST">      0.00000000      0.00000000      0.00000000</v>
  </separator>
  <separator name="response functions" >
   <i type="logical" name="LADDER"> F  </i>
   <i type="logical" name="LFXC"> F  </i>
   <i type="logical" name="LHARTREE"> T  </i>
   <i type="int" name="IBSE">     0</i>
   <v type="int" name="KPOINT">    -1     0     0     0</v>
   <i type="logical" name="LTCTE"> F  </i>
   <i type="logical" name="LTETE"> F  </i>
   <i type="logical" name="LTRIPLET"> F  </i>
   <i type="logical" name="LFXCEPS"> F  </i>
   <i type="logical" name="LFXHEG"> F  </i>
   <i type="int" name="NATURALO">     0</i>
   <i type="logical" name="L2ORDER"> F  </i>
   <i type="logical" name="LUSEW"> F  </i>
   <i name="ENCUTGW">     -2.00000000</i>
   <i name="ENCUTGWSOFT">     -2.00000000</i>
   <i name="ENCUTLF">     -1.00000000</i>
   <i type="int" name="LMAXMP2">    -1</i>
   <i name="SCISSOR">      0.00000000</i>
   <i type="int" name="NOMEGA">     0</i>
   <i type="int" name="NOMEGAR">     0</i>
   <i type="int" name="NBANDSGW">    -1</i>
   <i type="int" name="NBANDSO">    -1</i>
   <i type="int" name="NBANDSV">    -1</i>
   <i type="int" name="NELM">    70</i>
   <i type="int" name="NELMHF">     1</i>
   <i type="int" name="DIM">     3</i>
   <i type="int" name="ANTIRES">     0</i>
   <i name="OMEGAMAX">    -30.00000000</i>
   <i name="OMEGAMIN">    -30.00000000</i>
   <i name="OMEGATL">   -200.00000000</i>
   <i type="int" name="OMEGAGRID">     0</i>
   <i name="CSHIFT">     -0.10000000</i>
   <i type="logical" name="SELFENERGY"> F  </i>
   <i type="logical" name="LSPECTRAL"> F  </i>
   <i type="logical" name="LSPECTRALGW"> F  </i>
   <i type="logical" name="LSINGLES"> F  </i>
   <i type="logical" name="LFERMIGW"> F  </i>
   <i type="logical" name="ODDONLYGW"> F  </i>
   <i type="logical" name="EVENONLYGW"> F  </i>
   <i type="int" name="NKREDLFX">     1</i>
   <i type="int" name="NKREDLFY">     1</i>
   <i type="int" name="NKREDLFZ">     1</i>
   <i type="int" name="MAXMEM">  1800</i>
   <i type="int" name="TELESCOPE">     0</i>
   <i type="int" name="TAUPAR">     1</i>
   <i type="int" name="OMEGAPAR">    -1</i>
   <i name="LAMBDA">      1.00000000</i>
  </separator>
  <separator name="External order field" >
   <i name="OFIELD_KAPPA">      0.00000000</i>
   <v name="OFIELD_K">      0.00000000      0.00000000      0.00000000</v>
   <i name="OFIELD_Q6_NEAR">      0.00000000</i>
   <i name="OFIELD_Q6_FAR">      0.00000000</i>
   <i name="OFIELD_A">      0.00000000</i>
  </separator>
 </parameters>
 <atominfo>
  <atoms>      16 </atoms>
  <types>       4 </types>
  <array name="atoms" >
   <dimension dim="1">ion</dimension>
   <field type="string">element</field>
   <field type="int">atomtype</field>
   <set>
    <rc><c>Ta</c><c>   1</c></rc>
    <rc><c>Ta</c><c>   1</c></rc>
    <rc><c>Ta</c><c>   1</c></rc>
    <rc><c>Hf</c><c>   2</c></rc>
    <rc><c>Hf</c><c>   2</c></rc>
    <rc><c>Hf</c><c>   2</c></rc>
    <rc><c>Hf</c><c>   2</c></rc>
    <rc><c>Zr</c><c>   3</c></rc>
    <rc><c>Zr</c><c>   3</c></rc>
    <rc><c>Zr</c><c>   3</c></rc>
    <rc><c>Zr</c><c>   3</c></rc>
    <rc><c>Zr</c><c>   3</c></rc>
    <rc><c>Zr</c><c>   3</c></rc>
    <rc><c>Zr</c><c>   3</c></rc>
    <rc><c>Zr</c><c>   3</c></rc>
    <rc><c>Nb</c><c>   4</c></rc>
   </set>
  </array>
  <array name="atomtypes" >
   <dimension dim="1">type</dimension>
   <field type="int">atomspertype</field>
   <field type="string">element</field>
   <field>mass</field>
   <field>valence</field>
   <field type="string">pseudopotential</field>
   <set>
    <rc><c>   3</c><c>Ta</c><c>    180.94800000</c><c>      5.00000000</c><c>  PAW_PBE Ta 17Jan2003                  </c></rc>
    <rc><c>   4</c><c>Hf</c><c>    178.49000000</c><c>      4.00000000</c><c>  PAW_PBE Hf 20Jan2003                  </c></rc>
    <rc><c>   8</c><c>Zr</c><c>     91.22400000</c><c>     12.00000000</c><c>  PAW_PBE Zr_sv 04Jan2005               </c></rc>
    <rc><c>   1</c><c>Nb</c><c>     92.91000000</c><c>     13.00000000</c><c>  PAW_PBE Nb_sv 25May2007               </c></rc>
   </set>
  </array>
 </atominfo>
 <structure name="initialpos" >
  <crystal>
   <varray name="basis" >
    <v>       7.06434060       0.00404751       0.00000000 </v>
    <v>       0.00407027       6.94662939       0.00000000 </v>
    <v>       0.00000000       0.00000000       7.00867025 </v>
   </varray>
   <i name="volume">    343.93885525 </i>
   <varray name="rec_basis" >
    <v>       0.14155608      -0.00008294       0.00000000 </v>
    <v>      -0.00008248       0.14395476       0.00000000 </v>
    <v>       0.00000000       0.00000000       0.14268042 </v>
   </varray>
  </crystal>
  <varray name="positions" >
   <v>       0.00000000       0.00000000       0.95820767 </v>
   <v>       0.50000000       0.00000000       0.03388170 </v>
   <v>       0.50000000       0.50000000       0.47287043 </v>
   <v>       0.00000000       0.00000000       0.53353986 </v>
   <v>       0.00000000       0.50000000       0.52388344 </v>
   <v>       0.28023509       0.74964943       0.76368819 </v>
   <v>       0.71976491       0.25035057       0.76368819 </v>
   <v>       0.23594230       0.24898727       0.23795763 </v>
   <v>       0.28071223       0.25110127       0.76258533 </v>
   <v>       0.00000000       0.50000000       0.96062209 </v>
   <v>       0.23530147       0.75079548       0.23624810 </v>
   <v>       0.76469853       0.24920452       0.23624810 </v>
   <v>       0.50000000       0.00000000       0.47467868 </v>
   <v>       0.76405770       0.75101273       0.23795763 </v>
   <v>       0.71928777       0.74889873       0.76258533 </v>
   <v>       0.50000000       0.50000000       0.04135763 </v>
  </varray>
 </structure>
 <calculation>
  <scstep>
   <time name="dav">    0.22    0.23</time>
   <time name="total">    0.26    0.31</time>
   <energy>
    <i name="alphaZ">    677.04971953 </i>
    <i name="ewald">  -9741.87410129 </i>
    <i name="hartreedc">  -3022.47744248 </i>
    <i name="XCdc">     44.11483214 </i>
    <i name="pawpsdc">  10328.32033343 </i>
    <i name="pawaedc">  -9700.96547995 </i>
    <i name="eentropy">      0.00194607 </i>
    <i name="bandstr">   -192.05854266 </i>
    <i name="atom">  12524.00607526 </i>
    <i name="e_fr_energy">    916.11734005 </i>
    <i name="e_wo_entrp">    916.11539397 </i>
    <i name="e_0_energy">    916.11669136 </i>
   </energy>
  </scstep>
  <scstep>
   <time name="dav">    0.19    0.20</time>
   <time name="total">    0.19    0.23</time>
   <energy>
    <i name="e_fr_energy">    -29.05346688 </i>
    <i name="e_wo_entrp">    -29.04636345 </i>
    <i name="e_0_energy">    -29.05109907 </i>
   </energy>
  </scstep>
  <scstep>
   <time name="dav">    0.25    0.25</time>
   <time name="total">    0.25    0.26</time>
   <energy>
    <i name="e_fr_energy">   -142.86464261 </i>
    <i name="e_wo_entrp">   -142.86736583 </i>
    <i name="e_0_energy">   -142.86555035 </i>
   </energy>
  </scstep>
  <scstep>
   <time name="dav">    0.22    0.22</time>
   <time name="total">    0.22    0.23</time>
   <energy>
    <i name="e_fr_energy">   -156.90076525 </i>
    <i name="e_wo_entrp">   -156.90187394 </i>
    <i name="e_0_energy">   -156.90113481 </i>
   </energy>
  </scstep>
  <scstep>
   <time name="dav">    0.23    0.24</time>
   <time name="total">    0.28    0.29</time>
   <energy>
    <i name="e_fr_energy">   -158.13337114 </i>
    <i name="e_wo_entrp">   -158.13726474 </i>
    <i name="e_0_energy">   -158.13466900 </i>
   </energy>
  </scstep>
  <scstep>
   <time name="diag">    0.05    0.05</time>
   <time name="diis">    0.11    0.11</time>
   <time name="orth">    0.00    0.00</time>
   <time name="total">    0.22    0.23</time>
   <energy>
    <i name="e_fr_energy">   -153.62206509 </i>
    <i name="e_wo_entrp">   -153.62282680 </i>
    <i name="e_0_energy">   -153.62231899 </i>
   </energy>
  </scstep>
  <scstep>
   <time name="diag">    0.02    0.02</time>
   <time name="diis">    0.12    0.12</time>
   <time name="orth">    0.00    0.00</time>
   <time name="total">    0.21    0.21</time>
   <energy>
    <i name="e_fr_energy">   -153.31963293 </i>
    <i name="e_wo_entrp">   -153.32835026 </i>
    <i name="e_0_energy">   -153.32253871 </i>
   </energy>
  </scstep>
  <scstep>
   <time name="diag">    0.02    0.02</time>
   <time name="diis">    0.13    0.13</time>
   <time name="orth">    0.00    0.00</time>
   <time name="total">    0.21    0.22</time>
   <energy>
    <i name="e_fr_energy">   -151.81906014 </i>
    <i name="e_wo_entrp">   -151.82947972 </i>
    <i name="e_0_energy">   -151.82253334 </i>
   </energy>
  </scstep>
  <scstep>
   <time name="diag">    0.02    0.02</time>
   <time name="diis">    0.13    0.13</time>
   <time name="orth">    0.00    0.00</time>
   <time name="total">    0.21    0.22</time>
   <energy>
    <i name="e_fr_energy">   -151.83660179 </i>
    <i name="e_wo_entrp">   -151.84442910 </i>
    <i name="e_0_energy">   -151.83921090 </i>
   </energy>
  </scstep>
  <scstep>
   <time name="diag">    0.02    0.02</time>
   <time name="diis">    0.12    0.12</time>
   <time name="orth">    0.03    0.03</time>
   <time name="total">    0.31    0.31</time>
   <energy>
    <i name="e_fr_energy">   -151.81559771 </i>
    <i name="e_wo_entrp">   -151.82522320 </i>
    <i name="e_0_energy">   -151.81880620 </i>
   </energy>
  </scstep>
  <scstep>
   <time name="diag">    0.03    0.03</time>
   <time name="diis">    0.13    0.13</time>
   <time name="orth">    0.00    0.00</time>
   <time name="total">    0.22    0.22</time>
   <energy>
    <i name="e_fr_energy">   -151.80906907 </i>
    <i name="e_wo_entrp">   -151.81715449 </i>
    <i name="e_0_energy">   -151.81176421 </i>
   </energy>
  </scstep>
  <scstep>
   <time name="diag">    0.03    0.03</time>
   <time name="diis">    0.14    0.14</time>
   <time name="orth">    0.01    0.01</time>
   <time name="total">    0.37    0.38</time>
   <energy>
    <i name="e_fr_energy">   -151.80965304 </i>
    <i name="e_wo_entrp">   -151.81840222 </i>
    <i name="e_0_energy">   -151.81256943 </i>
   </energy>
  </scstep>
  <scstep>
   <time name="diag">    0.02    0.02</time>
   <time name="diis">    0.23    0.23</time>
   <time name="orth">    0.00    0.00</time>
   <time name="total">    0.44    0.47</time>
   <energy>
    <i name="e_fr_energy">   -151.80926142 </i>
    <i name="e_wo_entrp">   -151.81792723 </i>
    <i name="e_0_energy">   -151.81215002 </i>
   </energy>
  </scstep>
  <scstep>
   <time name="diag">    0.02    0.03</time>
   <time name="diis">    0.13    0.17</time>
   <time name="orth">    0.00    0.00</time>
   <time name="total">    0.22    0.29</time>
   <energy>
    <i name="e_fr_energy">   -151.80945789 </i>
    <i name="e_wo_entrp">   -151.81802074 </i>
    <i name="e_0_energy">   -151.81231217 </i>
   </energy>
  </scstep>
  <scstep>
   <time name="diag">    0.02    0.03</time>
   <time name="diis">    0.20    0.21</time>
   <time name="orth">    0.00    0.00</time>
   <time name="total">    0.28    0.32</time>
   <energy>
    <i name="e_fr_energy">   -151.80947120 </i>
    <i name="e_wo_entrp">   -151.81813603 </i>
    <i name="e_0_energy">   -151.81235948 </i>
   </energy>
  </scstep>
  <scstep>
   <time name="diag">    0.02    0.03</time>
   <time name="diis">    0.09    0.12</time>
   <time name="orth">    0.00    0.00</time>
   <time name="total">    0.18    0.21</time>
   <energy>
    <i name="e_fr_energy">   -151.80948844 </i>
    <i name="e_wo_entrp">   -151.81812118 </i>
    <i name="e_0_energy">   -151.81236602 </i>
   </energy>
  </scstep>
  <scstep>
   <time name="diag">    0.02    0.06</time>
   <time name="diis">    0.09    0.10</time>
   <time name="orth">    0.00    0.01</time>
   <time name="total">    0.17    0.23</time>
   <energy>
    <i name="e_fr_energy">   -151.80949639 </i>
    <i name="e_wo_entrp">   -151.81812088 </i>
    <i name="e_0_energy">   -151.81237122 </i>
   </energy>
  </scstep>
  <scstep>
   <time name="diag">    0.02    0.03</time>
   <time name="diis">    0.08    0.08</time>
   <time name="orth">    0.00    0.00</time>
   <time name="total">    0.12    0.13</time>
   <energy>
    <i name="alphaZ">    677.04971953 </i>
    <i name="ewald">  -9741.87410129 </i>
    <i name="hartreedc">  -2901.57375188 </i>
    <i name="XCdc">     41.92056170 </i>
    <i name="pawpsdc">  16559.20205934 </i>
    <i name="pawaedc"> -15922.54922985 </i>
    <i name="eentropy">      0.00862296 </i>
    <i name="bandstr">  -1387.99945771 </i>
    <i name="atom">  12524.00607526 </i>
    <i name="e_fr_energy">   -151.80950192 </i>
    <i name="e_wo_entrp">   -151.81812489 </i>
    <i name="e_0_energy">   -151.81237624 </i>
   </energy>
  </scstep>
  <structure>
   <crystal>
    <varray name="basis" >
     <v>       7.06434060       0.00404751       0.00000000 </v>
     <v>       0.00407027       6.94662939       0.00000000 </v>
     <v>       0.00000000       0.00000000       7.00867025 </v>
    </varray>
    <i name="volume">    343.93885525 </i>
    <varray name="rec_basis" >
     <v>       0.14155608      -0.00008294       0.00000000 </v>
     <v>      -0.00008248       0.14395476       0.00000000 </v>
     <v>       0.00000000       0.00000000       0.14268042 </v>
    </varray>
   </crystal>
   <varray name="positions" >
    <v>       0.00000000       0.00000000       0.95820767 </v>
    <v>       0.50000000       0.00000000       0.03388170 </v>
    <v>       0.50000000       0.50000000       0.47287043 </v>
    <v>       0.00000000       0.00000000       0.53353986 </v>
    <v>       0.00000000       0.50000000       0.52388344 </v>
    <v>       0.28023509       0.74964943       0.76368819 </v>
    <v>       0.71976491       0.25035057       0.76368819 </v>
    <v>       0.23594230       0.24898727       0.23795763 </v>
    <v>       0.28071223       0.25110127       0.76258533 </v>
    <v>       0.00000000       0.50000000       0.96062209 </v>
    <v>       0.23530147       0.75079548       0.23624810 </v>
    <v>       0.76469853       0.24920452       0.23624810 </v>
    <v>       0.50000000       0.00000000       0.47467868 </v>
    <v>       0.76405770       0.75101273       0.23795763 </v>
    <v>       0.71928777       0.74889873       0.76258533 </v>
    <v>       0.50000000       0.50000000       0.04135763 </v>
   </varray>
  </structure>
  <varray name="forces" >
   <v>       0.00000000       0.00000000       0.00409382 </v>
   <v>       0.00000000       0.00000000      -0.00788113 </v>
   <v>      -0.00000000       0.00000000       0.00547960 </v>
   <v>      -0.00000000       0.00000000      -0.00538678 </v>
   <v>      -0.00000000       0.00000000      -0.00210269 </v>
   <v>      -0.00151492       0.00444344      -0.00009136 </v>
   <v>       0.00151492      -0.00444344      -0.00009136 </v>
   <v>      -0.01758272      -0.00053274       0.00863635 </v>
   <v>       0.00136851       0.00340413      -0.00493902 </v>
   <v>      -0.00000000       0.00000000      -0.00482949 </v>
   <v>      -0.01265904       0.00807423       0.00215965 </v>
   <v>       0.01265904      -0.00807423       0.00215965 </v>
   <v>       0.00000000       0.00000000       0.00716617 </v>
   <v>       0.01758272       0.00053274       0.00863635 </v>
   <v>      -0.00136851      -0.00340413      -0.00493902 </v>
   <v>      -0.00000000       0.00000000      -0.00807076 </v>
  </varray>
  <varray name="stress" >
   <v>      -3.00373029       0.12266745       0.00000000 </v>
   <v>       0.12266745      -3.34569658       0.00000000 </v>
   <v>       0.00000000       0.00000000      -3.17611651 </v>
  </varray>
  <energy>
   <i name="e_fr_energy">   -151.80950192 </i>
   <i name="e_wo_entrp">   -151.81237624 </i>
   <i name="e_0_energy">      0.00862296 </i>
  </energy>
  <time name="totalsc">    4.75    5.15</time>
 </calculation>
 <calculation>
  <scstep>
   <time name="dav">    0.19    0.19</time>
   <time name="total">    0.30    0.30</time>
   <energy>
    <i name="alphaZ">    678.30358110 </i>
    <i name="ewald">  -9748.11408915 </i>
    <i name="hartreedc">  -2903.15219127 </i>
    <i name="XCdc">     42.19334837 </i>
    <i name="pawpsdc">  16559.03042848 </i>
    <i name="pawaedc"> -15922.37546284 </i>
    <i name="eentropy">      0.00917007 </i>
    <i name="bandstr">  -1381.71472360 </i>
    <i name="atom">  12524.00607526 </i>
    <i name="e_fr_energy">   -151.81386356 </i>
    <i name="e_wo_entrp">   -151.82303364 </i>
    <i name="e_0_energy">   -151.81692026 </i>
   </energy>
  </scstep>
  <scstep>
   <time name="diag">    0.02    0.02</time>
   <time name="diis">    0.13    0.13</time>
   <time name="orth">    0.00    0.00</time>
   <time name="total">    0.21    0.21</time>
   <energy>
    <i name="e_fr_energy">   -151.81125344 </i>
    <i name="e_wo_entrp">   -151.81950639 </i>
    <i name="e_0_energy">   -151.81400443 </i>
   </energy>
  </scstep>
  <scstep>
   <time name="diag">    0.02    0.02</time>
   <time name="diis">    0.13    0.13</time>
   <time name="orth">    0.00    0.00</time>
   <time name="total">    0.21    0.22</time>
   <energy>
    <i name="e_fr_energy">   -151.81060250 </i>
    <i name="e_wo_entrp">   -151.81946890 </i>
    <i name="e_0_energy">   -151.81355797 </i>
   </energy>
  </scstep>
  <scstep>
   <time name="diag">    0.02    0.02</time>
   <time name="diis">    0.13    0.13</time>
   <time name="orth">    0.00    0.00</time>
   <time name="total">    0.21    0.22</time>
   <energy>
    <i name="e_fr_energy">   -151.81031199 </i>
    <i name="e_wo_entrp">   -151.81906930 </i>
    <i name="e_0_energy">   -151.81323109 </i>
   </energy>
  </scstep>
  <scstep>
   <time name="diag">    0.03    0.03</time>
   <time name="diis">    0.12    0.12</time>
   <time name="orth">    0.00    0.00</time>
   <time name="total">    0.21    0.22</time>
   <energy>
    <i name="e_fr_energy">   -151.81032461 </i>
    <i name="e_wo_entrp">   -151.81905253 </i>
    <i name="e_0_energy">   -151.81323392 </i>
   </energy>
  </scstep>
  <scstep>
   <time name="diag">    0.02    0.02</time>
   <time name="diis">    0.10    0.10</time>
   <time name="orth">    0.00    0.00</time>
   <time name="total">    0.18    0.19</time>
   <energy>
    <i name="e_fr_energy">   -151.81035100 </i>
    <i name="e_wo_entrp">   -151.81909150 </i>
    <i name="e_0_energy">   -151.81326450 </i>
   </energy>
  </scstep>
  <scstep>
   <time name="diag">    0.02    0.02</time>
   <time name="diis">    0.07    0.07</time>
   <time name="orth">    0.00    0.00</time>
   <time name="total">    0.16    0.16</time>
   <energy>
    <i name="e_fr_energy">   -151.81036888 </i>
    <i name="e_wo_entrp">   -151.81913689 </i>
    <i name="e_0_energy">   -151.81329155 </i>
   </energy>
  </scstep>
  <scstep>
   <time name="diag">    0.02    0.02</time>
   <time name="diis">    0.07    0.07</time>
   <time name="orth">    0.00    0.00</time>
   <time name="total">    0.11    0.11</time>
   <energy>
    <i name="alphaZ">    678.30358110 </i>
    <i name="ewald">  -9748.11408915 </i>
    <i name="hartreedc">  -2899.38721802 </i>
    <i name="XCdc">     42.01761484 </i>
    <i name="pawpsdc">  16600.96710024 </i>
    <i name="pawaedc"> -15964.31168754 </i>
    <i name="eentropy">      0.00875870 </i>
    <i name="bandstr">  -1385.30051229 </i>
    <i name="atom">  12524.00607526 </i>
    <i name="e_fr_energy">   -151.81037687 </i>
    <i name="e_wo_entrp">   -151.81913556 </i>
    <i name="e_0_energy">   -151.81329643 </i>
   </energy>
  </scstep>
  <structure>
   <crystal>
    <varray name="basis" >
     <v>       7.06022033       0.00421315       0.00000000 </v>
     <v>       0.00423336       6.94211650       0.00000000 </v>
     <v>       0.00000000       0.00000000       7.00434775 </v>
    </varray>
    <i name="volume">    343.30307545 </i>
    <varray name="rec_basis" >
     <v>       0.14163869      -0.00008637       0.00000000 </v>
     <v>      -0.00008596       0.14404834       0.00000000 </v>
     <v>       0.00000000       0.00000000       0.14276847 </v>
    </varray>
   </crystal>
   <varray name="positions" >
    <v>      -0.00000000       0.00000000       0.95821612 </v>
    <v>       0.50000000       0.00000000       0.03386543 </v>
    <v>       0.50000000       0.50000000       0.47288175 </v>
    <v>      -0.00000000       0.00000000       0.53352874 </v>
    <v>      -0.00000000       0.50000000       0.52387910 </v>
    <v>       0.28023198       0.74965868       0.76368800 </v>
    <v>       0.71976802       0.25034132       0.76368800 </v>
    <v>       0.23590628       0.24898618       0.23797546 </v>
    <v>       0.28071503       0.25110836       0.76257513 </v>
    <v>      -0.00000000       0.50000000       0.96061212 </v>
    <v>       0.23527553       0.75081231       0.23625256 </v>
    <v>       0.76472447       0.24918769       0.23625256 </v>
    <v>       0.50000000       0.00000000       0.47469348 </v>
    <v>       0.76409372       0.75101382       0.23797546 </v>
    <v>       0.71928497       0.74889164       0.76257513 </v>
    <v>       0.50000000       0.50000000       0.04134096 </v>
   </varray>
  </structure>
  <varray name="forces" >
   <v>      -0.00000000       0.00000000       0.01011815 </v>
   <v>      -0.00000000       0.00000000      -0.01045052 </v>
   <v>      -0.00000000       0.00000000       0.01029974 </v>
   <v>      -0.00000000       0.00000000      -0.00997243 </v>
   <v>      -0.00000000       0.00000000      -0.00526370 </v>
   <v>      -0.00294821       0.00333304      -0.00440320 </v>
   <v>       0.00294821      -0.00333304      -0.00440320 </v>
   <v>      -0.01904730       0.00023675       0.01143774 </v>
   <v>      -0.00039413       0.00410476      -0.00866119 </v>
   <v>      -0.00000000       0.00000000      -0.00049675 </v>
   <v>      -0.01418175       0.00657128       0.00585619 </v>
   <v>       0.01418175      -0.00657128       0.00585619 </v>
   <v>      -0.00000000       0.00000000       0.01046982 </v>
   <v>       0.01904730      -0.00023675       0.01143774 </v>
   <v>       0.00039413      -0.00410476      -0.00866119 </v>
   <v>      -0.00000000       0.00000000      -0.01316339 </v>
  </varray>
  <varray name="stress" >
   <v>      -1.21826215       0.09617166       0.00000000 </v>
   <v>       0.09617169      -1.48820323       0.00000000 </v>
   <v>       0.00000000       0.00000000      -1.23274045 </v>
  </varray>
  <energy>
   <i name="e_fr_energy">   -151.81037687 </i>
   <i name="e_wo_entrp">   -151.81329643 </i>
   <i name="e_0_energy">      0.00875870 </i>
  </energy>
  <time name="totalsc">    2.04    2.10</time>
 </calculation>
 <calculation>
  <scstep>
   <time name="dav">    0.18    0.18</time>
   <time name="total">    0.24    0.25</time>
   <energy>
    <i name="alphaZ">    679.24403718 </i>
    <i name="ewald">  -9752.78930683 </i>
    <i name="hartreedc">  -2900.58323500 </i>
    <i name="XCdc">     42.22278046 </i>
    <i name="pawpsdc">  16600.88601255 </i>
    <i name="pawaedc"> -15964.19027324 </i>
    <i name="eentropy">      0.00917224 </i>
    <i name="bandstr">  -1380.61766361 </i>
    <i name="atom">  12524.00607526 </i>
    <i name="e_fr_energy">   -151.81240099 </i>
    <i name="e_wo_entrp">   -151.82157322 </i>
    <i name="e_0_energy">   -151.81545840 </i>
   </energy>
  </scstep>
  <scstep>
   <time name="diag">    0.03    0.03</time>
   <time name="diis">    0.12    0.12</time>
   <time name="orth">    0.00    0.00</time>
   <time name="total">    0.22    0.22</time>
   <energy>
    <i name="e_fr_energy">   -151.81094273 </i>
    <i name="e_wo_entrp">   -151.81943840 </i>
    <i name="e_0_energy">   -151.81377462 </i>
   </energy>
  </scstep>
  <scstep>
   <time name="diag">    0.02    0.02</time>
   <time name="diis">    0.13    0.13</time>
   <time name="orth">    0.00    0.00</time>
   <time name="total">    0.21    0.22</time>
   <energy>
    <i name="e_fr_energy">   -151.81059551 </i>
    <i name="e_wo_entrp">   -151.81954293 </i>
    <i name="e_0_energy">   -151.81357799 </i>
   </energy>
  </scstep>
  <scstep>
   <time name="diag">    0.02    0.02</time>
   <time name="diis">    0.12    0.12</time>
   <time name="orth">    0.00    0.00</time>
   <time name="total">    0.21    0.21</time>
   <energy>
    <i name="e_fr_energy">   -151.81044345 </i>
    <i name="e_wo_entrp">   -151.81930861 </i>
    <i name="e_0_energy">   -151.81339850 </i>
   </energy>
  </scstep>
  <scstep>
   <time name="diag">    0.02    0.02</time>
   <time name="diis">    0.11    0.11</time>
   <time name="orth">    0.00    0.00</time>
   <time name="total">    0.19    0.20</time>
   <energy>
    <i name="e_fr_energy">   -151.81045466 </i>
    <i name="e_wo_entrp">   -151.81929860 </i>
    <i name="e_0_energy">   -151.81340264 </i>
   </energy>
  </scstep>
  <scstep>
   <time name="diag">    0.02    0.02</time>
   <time name="diis">    0.07    0.07</time>
   <time name="orth">    0.00    0.00</time>
   <time name="total">    0.15    0.16</time>
   <energy>
    <i name="e_fr_energy">   -151.81047403 </i>
    <i name="e_wo_entrp">   -151.81932787 </i>
    <i name="e_0_energy">   -151.81342531 </i>
   </energy>
  </scstep>
  <scstep>
   <time name="diag">    0.02    0.02</time>
   <time name="diis">    0.07    0.07</time>
   <time name="orth">    0.00    0.00</time>
   <time name="total">    0.15    0.15</time>
   <energy>
    <i name="e_fr_energy">   -151.81048742 </i>
    <i name="e_wo_entrp">   -151.81936132 </i>
    <i name="e_0_energy">   -151.81344539 </i>
   </energy>
  </scstep>
  <scstep>
   <time name="diag">    0.02    0.02</time>
   <time name="diis">    0.06    0.06</time>
   <time name="orth">    0.00    0.00</time>
   <time name="total">    0.10    0.10</time>
   <energy>
    <i name="alphaZ">    679.24403718 </i>
    <i name="ewald">  -9752.78930683 </i>
    <i name="hartreedc">  -2897.82921569 </i>
    <i name="XCdc">     42.09403805 </i>
    <i name="pawpsdc">  16632.65664066 </i>
    <i name="pawaedc"> -15995.90385539 </i>
    <i name="eentropy">      0.00886906 </i>
    <i name="bandstr">  -1383.29777580 </i>
    <i name="atom">  12524.00607526 </i>
    <i name="e_fr_energy">   -151.81049350 </i>
    <i name="e_wo_entrp">   -151.81936255 </i>
    <i name="e_0_energy">   -151.81344985 </i>
   </energy>
  </scstep>
  <structure>
   <crystal>
    <varray name="basis" >
     <v>       7.05713660       0.00433712       0.00000000 </v>
     <v>       0.00435542       6.93873892       0.00000000 </v>
     <v>       0.00000000       0.00000000       7.00111266 </v>
    </varray>
    <i name="volume">    342.82775075 </i>
    <varray name="rec_basis" >
     <v>       0.14170059      -0.00008894       0.00000000 </v>
     <v>      -0.00008857       0.14411846       0.00000000 </v>
     <v>       0.00000000       0.00000000       0.14283444 </v>
    </varray>
   </crystal>
   <varray name="positions" >
    <v>      -0.00000000       0.00000000       0.95822245 </v>
    <v>       0.50000000       0.00000000       0.03385324 </v>
    <v>       0.50000000       0.50000000       0.47289022 </v>
    <v>      -0.00000000       0.00000000       0.53352041 </v>
    <v>      -0.00000000       0.50000000       0.52387585 </v>
    <v>       0.28022965       0.74966562       0.76368786 </v>
    <v>       0.71977035       0.25033438       0.76368786 </v>
    <v>       0.23587931       0.24898537       0.23798882 </v>
    <v>       0.28071713       0.25111367       0.76256750 </v>
    <v>      -0.00000000       0.50000000       0.96060465 </v>
    <v>       0.23525610       0.75082492       0.23625590 </v>
    <v>       0.76474390       0.24917508       0.23625590 </v>
    <v>       0.50000000       0.00000000       0.47470456 </v>
    <v>       0.76412069       0.75101463       0.23798882 </v>
    <v>       0.71928287       0.74888633       0.76256750 </v>
    <v>       0.50000000       0.50000000       0.04132848 </v>
   </varray>
  </structure>
  <varray name="forces" >
   <v>      -0.00000000       0.00000000       0.01432731 </v>
   <v>      -0.00000000       0.00000000      -0.01245326 </v>
   <v>      -0.00000000       0.00000000       0.01400660 </v>
   <v>      -0.00000000       0.00000000      -0.01311377 </v>
   <v>      -0.00000000       0.00000000      -0.00752866 </v>
   <v>      -0.00381040       0.00272366      -0.00721577 </v>
   <v>       0.00381040      -0.00272366      -0.00721577 </v>
   <v>      -0.01931116       0.00077901       0.01295782 </v>
   <v>      -0.00129658       0.00446523      -0.01077051 </v>
   <v>      -0.00000000       0.00000000       0.00210081 </v>
   <v>      -0.01446746       0.00554866       0.00785000 </v>
   <v>       0.01446746      -0.00554866       0.00785000 </v>
   <v>      -0.00000000       0.00000000       0.01293505 </v>
   <v>       0.01931116      -0.00077901       0.01295782 </v>
   <v>       0.00129658      -0.00446523      -0.01077051 </v>
   <v>      -0.00000000       0.00000000      -0.01591715 </v>
  </varray>
  <varray name="stress" >
   <v>       0.40026148       0.07712701       0.00000000 </v>
   <v>       0.07712700       0.18156925       0.00000000 </v>
   <v>       0.00000000       0.00000000       0.49536684 </v>
  </varray>
  <energy>
   <i name="e_fr_energy">   -151.81049350 </i>
   <i name="e_wo_entrp">   -151.81344985 </i>
   <i name="e_0_energy">      0.00886906 </i>
  </energy>
  <time name="totalsc">    1.90    1.96</time>
 </calculation>
 <calculation>
  <scstep>
   <time name="dav">    0.20    0.20</time>
   <time name="total">    0.30    0.31</time>
   <energy>
    <i name="alphaZ">    679.08810610 </i>
    <i name="ewald">  -9752.01443183 </i>
    <i name="hartreedc">  -2897.64819682 </i>
    <i name="XCdc">     42.06070234 </i>
    <i name="pawpsdc">  16632.53211671 </i>
    <i name="pawaedc"> -15995.75169725 </i>
    <i name="eentropy">      0.00879918 </i>
    <i name="bandstr">  -1384.09205014 </i>
    <i name="atom">  12524.00607526 </i>
    <i name="e_fr_energy">   -151.81057644 </i>
    <i name="e_wo_entrp">   -151.81937562 </i>
    <i name="e_0_energy">   -151.81350950 </i>
   </energy>
  </scstep>
  <scstep>
   <time name="diag">    0.02    0.02</time>
   <time name="diis">    0.12    0.12</time>
   <time name="orth">    0.00    0.00</time>
   <time name="total">    0.20    0.21</time>
   <energy>
    <i name="e_fr_energy">   -151.81054106 </i>
    <i name="e_wo_entrp">   -151.81946207 </i>
    <i name="e_0_energy">   -151.81351473 </i>
   </energy>
  </scstep>
  <scstep>
   <time name="diag">    0.02    0.02</time>
   <time name="diis">    0.10    0.10</time>
   <time name="orth">    0.00    0.00</time>
   <time name="total">    0.18    0.19</time>
   <energy>
    <i name="e_fr_energy">   -151.81052774 </i>
    <i name="e_wo_entrp">   -151.81936539 </i>
    <i name="e_0_energy">   -151.81347362 </i>
   </energy>
  </scstep>
  <scstep>
   <time name="diag">    0.02    0.02</time>
   <time name="diis">    0.06    0.06</time>
   <time name="orth">    0.00    0.00</time>
   <time name="total">    0.09    0.10</time>
   <energy>
    <i name="alphaZ">    679.08810610 </i>
    <i name="ewald">  -9752.01443183 </i>
    <i name="hartreedc">  -2898.17757360 </i>
    <i name="XCdc">     42.08520869 </i>
    <i name="pawpsdc">  16626.23919864 </i>
    <i name="pawaedc"> -15989.39656385 </i>
    <i name="eentropy">      0.00884991 </i>
    <i name="bandstr">  -1383.64939034 </i>
    <i name="atom">  12524.00607526 </i>
    <i name="e_fr_energy">   -151.81052102 </i>
    <i name="e_wo_entrp">   -151.81937093 </i>
    <i name="e_0_energy">   -151.81347099 </i>
   </energy>
  </scstep>
  <structure>
   <crystal>
    <varray name="basis" >
     <v>       7.05764750       0.00431658       0.00000000 </v>
     <v>       0.00433520       6.93929850       0.00000000 </v>
     <v>       0.00000000       0.00000000       7.00164864 </v>
    </varray>
    <i name="volume">    342.90647029 </i>
    <varray name="rec_basis" >
     <v>       0.14169033      -0.00008852       0.00000000 </v>
     <v>      -0.00008814       0.14410684       0.00000000 </v>
     <v>       0.00000000       0.00000000       0.14282351 </v>
    </varray>
   </crystal>
   <varray name="positions" >
    <v>      -0.00000000       0.00000000       0.95822140 </v>
    <v>       0.50000000       0.00000000       0.03385526 </v>
    <v>       0.50000000       0.50000000       0.47288882 </v>
    <v>      -0.00000000       0.00000000       0.53352179 </v>
    <v>      -0.00000000       0.50000000       0.52387638 </v>
    <v>       0.28023004       0.74966447       0.76368788 </v>
    <v>       0.71976996       0.25033553       0.76368788 </v>
    <v>       0.23588378       0.24898550       0.23798660 </v>
    <v>       0.28071678       0.25111279       0.76256876 </v>
    <v>      -0.00000000       0.50000000       0.96060589 </v>
    <v>       0.23525932       0.75082283       0.23625535 </v>
    <v>       0.76474068       0.24917717       0.23625535 </v>
    <v>       0.50000000       0.00000000       0.47470272 </v>
    <v>       0.76411622       0.75101450       0.23798660 </v>
    <v>       0.71928322       0.74888721       0.76256876 </v>
    <v>       0.50000000       0.50000000       0.04133055 </v>
   </varray>
  </structure>
  <varray name="forces" >
   <v>       0.00000000      -0.00000000       0.01364330 </v>
   <v>       0.00000000      -0.00000000      -0.01148122 </v>
   <v>       0.00000000      -0.00000000       0.01320640 </v>
   <v>       0.00000000      -0.00000000      -0.01233673 </v>
   <v>       0.00000000      -0.00000000      -0.00690960 </v>
   <v>      -0.00347353       0.00271969      -0.00692022 </v>
   <v>       0.00347353      -0.00271969      -0.00692022 </v>
   <v>      -0.01935891       0.00080641       0.01270409 </v>
   <v>      -0.00079952       0.00454574      -0.01039577 </v>
   <v>      -0.00000000      -0.00000000       0.00095308 </v>
   <v>      -0.01440422       0.00564169       0.00732800 </v>
   <v>       0.01440422      -0.00564169       0.00732800 </v>
   <v>      -0.00000000      -0.00000000       0.01257573 </v>
   <v>       0.01935891      -0.00080641       0.01270409 </v>
   <v>       0.00079952      -0.00454574      -0.01039577 </v>
   <v>       0.00000000      -0.00000000      -0.01508317 </v>
  </varray>
  <varray name="stress" >
   <v>       0.41276115       0.07882315       0.00000000 </v>
   <v>       0.07882314       0.19196517       0.00000000 </v>
   <v>       0.00000000       0.00000000       0.47215351 </v>
  </varray>
  <energy>
   <i name="e_fr_energy">   -151.81052102 </i>
   <i name="e_wo_entrp">   -151.81347099 </i>
   <i name="e_0_energy">      0.00884991 </i>
  </energy>
  <time name="totalsc">    1.17    1.20</time>
 </calculation>
 <calculation>
  <scstep>
   <time name="dav">    0.17    0.18</time>
   <time name="total">    0.24    0.24</time>
   <energy>
    <i name="alphaZ">    678.69569235 </i>
    <i name="ewald">  -9750.06386015 </i>
    <i name="hartreedc">  -2897.70529351 </i>
    <i name="XCdc">     42.00066631 </i>
    <i name="pawpsdc">  16626.87524544 </i>
    <i name="pawaedc"> -15990.02951440 </i>
    <i name="eentropy">      0.00868203 </i>
    <i name="bandstr">  -1385.59853868 </i>
    <i name="atom">  12524.00607526 </i>
    <i name="e_fr_energy">   -151.81084534 </i>
    <i name="e_wo_entrp">   -151.81952737 </i>
    <i name="e_0_energy">   -151.81373935 </i>
   </energy>
  </scstep>
  <scstep>
   <time name="diag">    0.02    0.02</time>
   <time name="diis">    0.12    0.12</time>
   <time name="orth">    0.00    0.00</time>
   <time name="total">    0.21    0.21</time>
   <energy>
    <i name="e_fr_energy">   -151.81060084 </i>
    <i name="e_wo_entrp">   -151.81956306 </i>
    <i name="e_0_energy">   -151.81358825 </i>
   </energy>
  </scstep>
  <scstep>
   <time name="diag">    0.02    0.02</time>
   <time name="diis">    0.13    0.13</time>
   <time name="orth">    0.00    0.00</time>
   <time name="total">    0.21    0.22</time>
   <energy>
    <i name="e_fr_energy">   -151.81053477 </i>
    <i name="e_wo_entrp">   -151.81930931 </i>
    <i name="e_0_energy">   -151.81345961 </i>
   </energy>
  </scstep>
  <scstep>
   <time name="diag">    0.02    0.02</time>
   <time name="diis">    0.10    0.10</time>
   <time name="orth">    0.00    0.00</time>
   <time name="total">    0.19    0.20</time>
   <energy>
    <i name="e_fr_energy">   -151.81050404 </i>
    <i name="e_wo_entrp">   -151.81931175 </i>
    <i name="e_0_energy">   -151.81343994 </i>
   </energy>
  </scstep>
  <scstep>
   <time name="diag">    0.03    0.03</time>
   <time name="diis">    0.06    0.06</time>
   <time name="orth">    0.00    0.00</time>
   <time name="total">    0.10    0.11</time>
   <energy>
    <i name="alphaZ">    678.69569235 </i>
    <i name="ewald">  -9750.06386015 </i>
    <i name="hartreedc">  -2898.92769107 </i>
    <i name="XCdc">     42.05752948 </i>
    <i name="pawpsdc">  16612.13830466 </i>
    <i name="pawaedc"> -15975.25148337 </i>
    <i name="eentropy">      0.00881738 </i>
    <i name="bandstr">  -1384.47388576 </i>
    <i name="atom">  12524.00607526 </i>
    <i name="e_fr_energy">   -151.81050123 </i>
    <i name="e_wo_entrp">   -151.81931860 </i>
    <i name="e_0_energy">   -151.81344035 </i>
   </energy>
  </scstep>
  <structure>
   <crystal>
    <varray name="basis" >
     <v>       7.05893391       0.00426486       0.00000000 </v>
     <v>       0.00428428       6.94070750       0.00000000 </v>
     <v>       0.00000000       0.00000000       7.00299820 </v>
    </varray>
    <i name="volume">    343.10473472 </i>
    <varray name="rec_basis" >
     <v>       0.14166450      -0.00008744       0.00000000 </v>
     <v>      -0.00008705       0.14407758       0.00000000 </v>
     <v>       0.00000000       0.00000000       0.14279598 </v>
    </varray>
   </crystal>
   <varray name="positions" >
    <v>      -0.00000000       0.00000000       0.95821876 </v>
    <v>       0.50000000       0.00000000       0.03386034 </v>
    <v>       0.50000000       0.50000000       0.47288528 </v>
    <v>      -0.00000000       0.00000000       0.53352527 </v>
    <v>      -0.00000000       0.50000000       0.52387774 </v>
    <v>       0.28023101       0.74966158       0.76368794 </v>
    <v>       0.71976899       0.25033842       0.76368794 </v>
    <v>       0.23589504       0.24898584       0.23798103 </v>
    <v>       0.28071591       0.25111057       0.76257195 </v>
    <v>      -0.00000000       0.50000000       0.96060901 </v>
    <v>       0.23526743       0.75081757       0.23625395 </v>
    <v>       0.76473257       0.24918243       0.23625395 </v>
    <v>       0.50000000       0.00000000       0.47469810 </v>
    <v>       0.76410496       0.75101416       0.23798103 </v>
    <v>       0.71928409       0.74888943       0.76257195 </v>
    <v>       0.50000000       0.50000000       0.04133576 </v>
   </varray>
  </structure>
  <varray name="forces" >
   <v>      -0.00000000      -0.00000000       0.01137372 </v>
   <v>      -0.00000000      -0.00000000      -0.01149268 </v>
   <v>      -0.00000000      -0.00000000       0.01134864 </v>
   <v>      -0.00000000      -0.00000000      -0.01084270 </v>
   <v>      -0.00000000      -0.00000000      -0.00607291 </v>
   <v>      -0.00334999       0.00330952      -0.00503853 </v>
   <v>       0.00334999      -0.00330952      -0.00503853 </v>
   <v>      -0.01949080       0.00037417       0.01210301 </v>
   <v>      -0.00052742       0.00404859      -0.00926895 </v>
   <v>      -0.00000000      -0.00000000      -0.00024148 </v>
   <v>      -0.01451543       0.00635455       0.00656064 </v>
   <v>       0.01451543      -0.00635455       0.00656064 </v>
   <v>      -0.00000000      -0.00000000       0.01117950 </v>
   <v>       0.01949080      -0.00037417       0.01210301 </v>
   <v>       0.00052742      -0.00404859      -0.00926895 </v>
   <v>      -0.00000000      -0.00000000      -0.01396444 </v>
  </varray>
  <varray name="stress" >
   <v>      -0.15941877       0.08468660       0.00000000 </v>
   <v>       0.08468660      -0.39382972       0.00000000 </v>
   <v>       0.00000000       0.00000000      -0.13753879 </v>
  </varray>
  <energy>
   <i name="e_fr_energy">   -151.81050123 </i>
   <i name="e_wo_entrp">   -151.81344035 </i>
   <i name="e_0_energy">      0.00881738 </i>
  </energy>
  <time name="totalsc">    1.32    1.38</time>
 </calculation>
 <calculation>
  <scstep>
   <time name="dav">    0.19    0.19</time>
   <time name="total">    0.25    0.26</time>
   <energy>
    <i name="alphaZ">    678.90281035 </i>
    <i name="ewald">  -9751.09347085 </i>
    <i name="hartreedc">  -2899.15978284 </i>
    <i name="XCdc">     42.10128571 </i>
    <i name="pawpsdc">  16614.04391148 </i>
    <i name="pawaedc"> -15977.17694924 </i>
    <i name="eentropy">      0.00890683 </i>
    <i name="bandstr">  -1383.44340623 </i>
    <i name="atom">  12524.00607526 </i>
    <i name="e_fr_energy">   -151.81061952 </i>
    <i name="e_wo_entrp">   -151.81952635 </i>
    <i name="e_0_energy">   -151.81358847 </i>
   </energy>
  </scstep>
  <scstep>
   <time name="diag">    0.02    0.02</time>
   <time name="diis">    0.12    0.12</time>
   <time name="orth">    0.01    0.01</time>
   <time name="total">    0.22    0.26</time>
   <energy>
    <i name="e_fr_energy">   -151.81054392 </i>
    <i name="e_wo_entrp">   -151.81928153 </i>
    <i name="e_0_energy">   -151.81345646 </i>
   </energy>
  </scstep>
  <scstep>
   <time name="diag">    0.04    0.04</time>
   <time name="diis">    0.10    0.11</time>
   <time name="orth">    0.00    0.00</time>
   <time name="total">    0.22    0.25</time>
   <energy>
    <i name="e_fr_energy">   -151.81052374 </i>
    <i name="e_wo_entrp">   -151.81937660 </i>
    <i name="e_0_energy">   -151.81347470 </i>
   </energy>
  </scstep>
  <scstep>
   <time name="diag">    0.02    0.02</time>
   <time name="diis">    0.08    0.09</time>
   <time name="orth">    0.00    0.00</time>
   <time name="total">    0.17    0.18</time>
   <energy>
    <i name="e_fr_energy">   -151.81051192 </i>
    <i name="e_wo_entrp">   -151.81934371 </i>
    <i name="e_0_energy">   -151.81345585 </i>
   </energy>
  </scstep>
  <scstep>
   <time name="diag">    0.03    0.03</time>
   <time name="diis">    0.05    0.05</time>
   <time name="orth">    0.01    0.01</time>
   <time name="total">    0.12    0.13</time>
   <energy>
    <i name="alphaZ">    678.90281035 </i>
    <i name="ewald">  -9751.09347085 </i>
    <i name="hartreedc">  -2898.45514339 </i>
    <i name="XCdc">     42.06874728 </i>
    <i name="pawpsdc">  16623.34507746 </i>
    <i name="pawaedc"> -15986.54711140 </i>
    <i name="eentropy">      0.00882468 </i>
    <i name="bandstr">  -1384.04632153 </i>
    <i name="atom">  12524.00607526 </i>
    <i name="e_fr_energy">   -151.81051214 </i>
    <i name="e_wo_entrp">   -151.81933681 </i>
    <i name="e_0_energy">   -151.81345369 </i>
   </energy>
  </scstep>
  <structure>
   <crystal>
    <varray name="basis" >
     <v>       7.05825481       0.00429216       0.00000000 </v>
     <v>       0.00431116       6.93996369       0.00000000 </v>
     <v>       0.00000000       0.00000000       7.00228576 </v>
    </varray>
    <i name="volume">    343.00006117 </i>
    <varray name="rec_basis" >
     <v>       0.14167813      -0.00008801       0.00000000 </v>
     <v>      -0.00008762       0.14409303       0.00000000 </v>
     <v>       0.00000000       0.00000000       0.14281051 </v>
    </varray>
   </crystal>
   <varray name="positions" >
    <v>      -0.00000000       0.00000000       0.95822015 </v>
    <v>       0.50000000       0.00000000       0.03385766 </v>
    <v>       0.50000000       0.50000000       0.47288715 </v>
    <v>      -0.00000000       0.00000000       0.53352343 </v>
    <v>      -0.00000000       0.50000000       0.52387702 </v>
    <v>       0.28023050       0.74966310       0.76368791 </v>
    <v>       0.71976950       0.25033690       0.76368791 </v>
    <v>       0.23588909       0.24898566       0.23798397 </v>
    <v>       0.28071637       0.25111174       0.76257027 </v>
    <v>      -0.00000000       0.50000000       0.96060736 </v>
    <v>       0.23526315       0.75082035       0.23625469 </v>
    <v>       0.76473685       0.24917965       0.23625469 </v>
    <v>       0.50000000       0.00000000       0.47470054 </v>
    <v>       0.76411091       0.75101434       0.23798397 </v>
    <v>       0.71928363       0.74888826       0.76257027 </v>
    <v>       0.50000000       0.50000000       0.04133301 </v>
   </varray>
  </structure>
  <varray name="forces" >
   <v>       0.00000000       0.00000000       0.01260553 </v>
   <v>       0.00000000       0.00000000      -0.01164692 </v>
   <v>       0.00000000       0.00000000       0.01270833 </v>
   <v>       0.00000000       0.00000000      -0.01201903 </v>
   <v>       0.00000000       0.00000000      -0.00665667 </v>
   <v>      -0.00324998       0.00276838      -0.00628681 </v>
   <v>       0.00324998      -0.00276838      -0.00628681 </v>
   <v>      -0.01940510       0.00059460       0.01259364 </v>
   <v>      -0.00076840       0.00441987      -0.01028515 </v>
   <v>       0.00000000       0.00000000       0.00109966 </v>
   <v>      -0.01451138       0.00594916       0.00734770 </v>
   <v>       0.01451138      -0.00594916       0.00734770 </v>
   <v>       0.00000000      -0.00000000       0.01245688 </v>
   <v>       0.01940510      -0.00059460       0.01259364 </v>
   <v>       0.00076840      -0.00441987      -0.01028515 </v>
   <v>       0.00000000       0.00000000      -0.01528653 </v>
  </varray>
  <varray name="stress" >
   <v>      -0.09209802       0.08584851       0.00000000 </v>
   <v>       0.08584853      -0.33364762       0.00000000 </v>
   <v>       0.00000000       0.00000000      -0.04204724 </v>
  </varray>
  <energy>
   <i name="e_fr_energy">   -151.81051214 </i>
   <i name="e_wo_entrp">   -151.81345369 </i>
   <i name="e_0_energy">      0.00882468 </i>
  </energy>
  <time name="totalsc">    1.56    1.67</time>
 </calculation>
 <calculation>
  <scstep>
   <time name="dav">    0.18    0.22</time>
   <time name="total">    0.31    0.36</time>
   <energy>
    <i name="alphaZ">    678.98828501 </i>
    <i name="ewald">  -9751.51831549 </i>
    <i name="hartreedc">  -2898.55598106 </i>
    <i name="XCdc">     42.08708732 </i>
    <i name="pawpsdc">  16622.66168599 </i>
    <i name="pawaedc"> -15985.86404555 </i>
    <i name="eentropy">      0.00886270 </i>
    <i name="bandstr">  -1383.62418416 </i>
    <i name="atom">  12524.00607526 </i>
    <i name="e_fr_energy">   -151.81052998 </i>
    <i name="e_wo_entrp">   -151.81939268 </i>
    <i name="e_0_energy">   -151.81348421 </i>
   </energy>
  </scstep>
  <scstep>
   <time name="diag">    0.02    0.05</time>
   <time name="diis">    0.08    0.11</time>
   <time name="orth">    0.00    0.00</time>
   <time name="total">    0.17    0.23</time>
   <energy>
    <i name="e_fr_energy">   -151.81051858 </i>
    <i name="e_wo_entrp">   -151.81932470 </i>
    <i name="e_0_energy">   -151.81345396 </i>
   </energy>
  </scstep>
  <scstep>
   <time name="diag">    0.02    0.02</time>
   <time name="diis">    0.05    0.05</time>
   <time name="orth">    0.00    0.00</time>
   <time name="total">    0.09    0.59</time>
   <energy>
    <i name="alphaZ">    678.98828501 </i>
    <i name="ewald">  -9751.51831549 </i>
    <i name="hartreedc">  -2898.34318137 </i>
    <i name="XCdc">     42.07699109 </i>
    <i name="pawpsdc">  16625.62114197 </i>
    <i name="pawaedc"> -15988.83003468 </i>
    <i name="eentropy">      0.00884272 </i>
    <i name="bandstr">  -1383.82031993 </i>
    <i name="atom">  12524.00607526 </i>
    <i name="e_fr_energy">   -151.81051542 </i>
    <i name="e_wo_entrp">   -151.81935814 </i>
    <i name="e_0_energy">   -151.81346299 </i>
   </energy>
  </scstep>
  <structure>
   <crystal>
    <varray name="basis" >
     <v>       7.05797464       0.00430343       0.00000000 </v>
     <v>       0.00432225       6.93965682       0.00000000 </v>
     <v>       0.00000000       0.00000000       7.00199184 </v>
    </varray>
    <i name="volume">    342.95688250 </i>
    <varray name="rec_basis" >
     <v>       0.14168376      -0.00008825       0.00000000 </v>
     <v>      -0.00008786       0.14409940       0.00000000 </v>
     <v>       0.00000000       0.00000000       0.14281650 </v>
    </varray>
   </crystal>
   <varray name="positions" >
    <v>      -0.00000000       0.00000000       0.95822073 </v>
    <v>       0.50000000       0.00000000       0.03385655 </v>
    <v>       0.50000000       0.50000000       0.47288792 </v>
    <v>      -0.00000000       0.00000000       0.53352267 </v>
    <v>      -0.00000000       0.50000000       0.52387673 </v>
    <v>       0.28023029       0.74966373       0.76368790 </v>
    <v>       0.71976971       0.25033627       0.76368790 </v>
    <v>       0.23588664       0.24898559       0.23798519 </v>
    <v>       0.28071656       0.25111222       0.76256957 </v>
    <v>      -0.00000000       0.50000000       0.96060668 </v>
    <v>       0.23526138       0.75082149       0.23625499 </v>
    <v>       0.76473862       0.24917851       0.23625499 </v>
    <v>       0.50000000       0.00000000       0.47470155 </v>
    <v>       0.76411336       0.75101441       0.23798519 </v>
    <v>       0.71928344       0.74888778       0.76256957 </v>
    <v>       0.50000000       0.50000000       0.04133187 </v>
   </varray>
  </structure>
  <varray name="forces" >
   <v>       0.00000000       0.00000000       0.01342245 </v>
   <v>       0.00000000       0.00000000      -0.01182756 </v>
   <v>       0.00000000       0.00000000       0.01273490 </v>
   <v>       0.00000000       0.00000000      -0.01240070 </v>
   <v>       0.00000000       0.00000000      -0.00703882 </v>
   <v>      -0.00341682       0.00306494      -0.00680784 </v>
   <v>       0.00341682      -0.00306494      -0.00680784 </v>
   <v>      -0.01929901       0.00080747       0.01241054 </v>
   <v>      -0.00089516       0.00453612      -0.01024388 </v>
   <v>       0.00000000       0.00000000       0.00200610 </v>
   <v>      -0.01440641       0.00561378       0.00725261 </v>
   <v>       0.01440641      -0.00561378       0.00725261 </v>
   <v>       0.00000000       0.00000000       0.01224616 </v>
   <v>       0.01929901      -0.00080747       0.01241054 </v>
   <v>       0.00089516      -0.00453612      -0.01024388 </v>
   <v>       0.00000000       0.00000000      -0.01436539 </v>
  </varray>
  <varray name="stress" >
   <v>      -0.10955094       0.08999424       0.00000000 </v>
   <v>       0.08999432      -0.36596593       0.00000000 </v>
   <v>       0.00000000       0.00000000      -0.09093340 </v>
  </varray>
  <energy>
   <i name="e_fr_energy">   -151.81051542 </i>
   <i name="e_wo_entrp">   -151.81346299 </i>
   <i name="e_0_energy">      0.00884272 </i>
  </energy>
  <time name="totalsc">    0.97    1.61</time>
 </calculation>
 <calculation>
  <scstep>
   <time name="dav">    0.16    0.16</time>
   <time name="total">    0.22    0.22</time>
   <energy>
    <i name="alphaZ">    679.03819311 </i>
    <i name="ewald">  -9751.76636298 </i>
    <i name="hartreedc">  -2898.37438956 </i>
    <i name="XCdc">     42.08651022 </i>
    <i name="pawpsdc">  16625.56817671 </i>
    <i name="pawaedc"> -15988.77555184 </i>
    <i name="eentropy">      0.00886098 </i>
    <i name="bandstr">  -1383.60203176 </i>
    <i name="atom">  12524.00607526 </i>
    <i name="e_fr_energy">   -151.81051986 </i>
    <i name="e_wo_entrp">   -151.81938084 </i>
    <i name="e_0_energy">   -151.81347352 </i>
   </energy>
  </scstep>
  <scstep>
   <time name="diag">    0.02    0.02</time>
   <time name="diis">    0.05    0.05</time>
   <time name="orth">    0.00    0.00</time>
   <time name="total">    0.09    0.10</time>
   <energy>
    <i name="alphaZ">    679.03819311 </i>
    <i name="ewald">  -9751.76636298 </i>
    <i name="hartreedc">  -2898.23595695 </i>
    <i name="XCdc">     42.08049064 </i>
    <i name="pawpsdc">  16627.02947094 </i>
    <i name="pawaedc"> -15990.23714584 </i>
    <i name="eentropy">      0.00882486 </i>
    <i name="bandstr">  -1383.73410461 </i>
    <i name="atom">  12524.00607526 </i>
    <i name="e_fr_energy">   -151.81051557 </i>
    <i name="e_wo_entrp">   -151.81934043 </i>
    <i name="e_0_energy">   -151.81345719 </i>
   </energy>
  </scstep>
  <structure>
   <crystal>
    <varray name="basis" >
     <v>       7.05781107       0.00431000       0.00000000 </v>
     <v>       0.00432872       6.93947766       0.00000000 </v>
     <v>       0.00000000       0.00000000       7.00182024 </v>
    </varray>
    <i name="volume">    342.93167578 </i>
    <varray name="rec_basis" >
     <v>       0.14168704      -0.00008838       0.00000000 </v>
     <v>      -0.00008800       0.14410312       0.00000000 </v>
     <v>       0.00000000       0.00000000       0.14282000 </v>
    </varray>
   </crystal>
   <varray name="positions" >
    <v>      -0.00000000       0.00000000       0.95822107 </v>
    <v>       0.50000000       0.00000000       0.03385591 </v>
    <v>       0.50000000       0.50000000       0.47288837 </v>
    <v>      -0.00000000       0.00000000       0.53352223 </v>
    <v>      -0.00000000       0.50000000       0.52387656 </v>
    <v>       0.28023016       0.74966410       0.76368789 </v>
    <v>       0.71976984       0.25033590       0.76368789 </v>
    <v>       0.23588521       0.24898554       0.23798589 </v>
    <v>       0.28071667       0.25111250       0.76256917 </v>
    <v>      -0.00000000       0.50000000       0.96060629 </v>
    <v>       0.23526035       0.75082216       0.23625517 </v>
    <v>       0.76473965       0.24917784       0.23625517 </v>
    <v>       0.50000000       0.00000000       0.47470213 </v>
    <v>       0.76411479       0.75101446       0.23798589 </v>
    <v>       0.71928333       0.74888750       0.76256917 </v>
    <v>       0.50000000       0.50000000       0.04133121 </v>
   </varray>
  </structure>
  <varray name="forces" >
   <v>       0.00000000       0.00000000       0.01343172 </v>
   <v>       0.00000000       0.00000000      -0.01160731 </v>
   <v>      -0.00000000       0.00000000       0.01294570 </v>
   <v>       0.00000000       0.00000000      -0.01263081 </v>
   <v>      -0.00000000       0.00000000      -0.00698398 </v>
   <v>      -0.00299873       0.00233891      -0.00629560 </v>
   <v>       0.00299873      -0.00233891      -0.00629560 </v>
   <v>      -0.01913416       0.00084881       0.01246954 </v>
   <v>      -0.00070241       0.00462795      -0.01026776 </v>
   <v>      -0.00000000       0.00000000       0.00159000 </v>
   <v>      -0.01421348       0.00547386       0.00728955 </v>
   <v>       0.01421348      -0.00547386       0.00728955 </v>
   <v>      -0.00000000       0.00000000       0.01288260 </v>
   <v>       0.01913416      -0.00084881       0.01246954 </v>
   <v>       0.00070241      -0.00462795      -0.01026776 </v>
   <v>       0.00000000       0.00000000      -0.01601938 </v>
  </varray>
  <varray name="stress" >
   <v>       0.02042719       0.08953952       0.00000000 </v>
   <v>       0.08953956      -0.20412899       0.00000000 </v>
   <v>       0.00000000       0.00000000       0.12693659 </v>
  </varray>
  <energy>
   <i name="e_fr_energy">   -151.81051557 </i>
   <i name="e_wo_entrp">   -151.81345719 </i>
   <i name="e_0_energy">      0.00882486 </i>
  </energy>
  <time name="totalsc">    0.69    0.72</time>
 </calculation>
 <calculation>
  <scstep>
   <time name="dav">    0.12    0.12</time>
   <time name="total">    0.18    0.19</time>
   <energy>
    <i name="alphaZ">    679.05953831 </i>
    <i name="ewald">  -9751.87244672 </i>
    <i name="hartreedc">  -2898.26946913 </i>
    <i name="XCdc">     42.08497995 </i>
    <i name="pawpsdc">  16627.06056985 </i>
    <i name="pawaedc"> -15990.26300505 </i>
    <i name="eentropy">      0.00885342 </i>
    <i name="bandstr">  -1383.62561185 </i>
    <i name="atom">  12524.00607526 </i>
    <i name="e_fr_energy">   -151.81051595 </i>
    <i name="e_wo_entrp">   -151.81936938 </i>
    <i name="e_0_energy">   -151.81346710 </i>
   </energy>
  </scstep>
  <scstep>
   <time name="diag">    0.05    0.05</time>
   <time name="diis">    0.05    0.05</time>
   <time name="orth">    0.00    0.00</time>
   <time name="total">    0.12    0.13</time>
   <energy>
    <i name="alphaZ">    679.05953831 </i>
    <i name="ewald">  -9751.87244672 </i>
    <i name="hartreedc">  -2898.20148814 </i>
    <i name="XCdc">     42.08201728 </i>
    <i name="pawpsdc">  16627.54265494 </i>
    <i name="pawaedc"> -15990.74170394 </i>
    <i name="eentropy">      0.00883754 </i>
    <i name="bandstr">  -1383.69399998 </i>
    <i name="atom">  12524.00607526 </i>
    <i name="e_fr_energy">   -151.81051544 </i>
    <i name="e_wo_entrp">   -151.81935298 </i>
    <i name="e_0_energy">   -151.81346129 </i>
   </energy>
  </scstep>
  <structure>
   <crystal>
    <varray name="basis" >
     <v>       7.05774112       0.00431281       0.00000000 </v>
     <v>       0.00433149       6.93940104       0.00000000 </v>
     <v>       0.00000000       0.00000000       7.00174685 </v>
    </varray>
    <i name="volume">    342.92089625 </i>
    <varray name="rec_basis" >
     <v>       0.14168845      -0.00008844       0.00000000 </v>
     <v>      -0.00008806       0.14410471       0.00000000 </v>
     <v>       0.00000000       0.00000000       0.14282150 </v>
    </varray>
   </crystal>
   <varray name="positions" >
    <v>      -0.00000000       0.00000000       0.95822121 </v>
    <v>       0.50000000       0.00000000       0.03385563 </v>
    <v>       0.50000000       0.50000000       0.47288856 </v>
    <v>      -0.00000000       0.00000000       0.53352204 </v>
    <v>      -0.00000000       0.50000000       0.52387648 </v>
    <v>       0.28023011       0.74966426       0.76368789 </v>
    <v>       0.71976989       0.25033574       0.76368789 </v>
    <v>       0.23588460       0.24898553       0.23798620 </v>
    <v>       0.28071672       0.25111263       0.76256899 </v>
    <v>      -0.00000000       0.50000000       0.96060612 </v>
    <v>       0.23525991       0.75082245       0.23625524 </v>
    <v>       0.76474009       0.24917755       0.23625524 </v>
    <v>       0.50000000       0.00000000       0.47470239 </v>
    <v>       0.76411540       0.75101447       0.23798620 </v>
    <v>       0.71928328       0.74888737       0.76256899 </v>
    <v>       0.50000000       0.50000000       0.04133093 </v>
   </varray>
  </structure>
  <varray name="forces" >
   <v>       0.00000000       0.00000000       0.01330710 </v>
   <v>       0.00000000       0.00000000      -0.01184709 </v>
   <v>       0.00000000       0.00000000       0.01297994 </v>
   <v>       0.00000000       0.00000000      -0.01255171 </v>
   <v>       0.00000000       0.00000000      -0.00704388 </v>
   <v>      -0.00318615       0.00249756      -0.00638122 </v>
   <v>       0.00318615      -0.00249756      -0.00638122 </v>
   <v>      -0.01901516       0.00075654       0.01245524 </v>
   <v>      -0.00088373       0.00443651      -0.01027733 </v>
   <v>       0.00000000       0.00000000       0.00172138 </v>
   <v>      -0.01420079       0.00552123       0.00738319 </v>
   <v>       0.01420079      -0.00552123       0.00738319 </v>
   <v>       0.00000000       0.00000000       0.01258204 </v>
   <v>       0.01901516      -0.00075654       0.01245524 </v>
   <v>       0.00088373      -0.00443651      -0.01027733 </v>
   <v>       0.00000000       0.00000000      -0.01550754 </v>
  </varray>
  <varray name="stress" >
   <v>       0.11789118       0.08456056       0.00000000 </v>
   <v>       0.08456053      -0.10333288       0.00000000 </v>
   <v>       0.00000000       0.00000000       0.21565117 </v>
  </varray>
  <energy>
   <i name="e_fr_energy">   -151.81051544 </i>
   <i name="e_wo_entrp">   -151.81346129 </i>
   <i name="e_0_energy">      0.00883754 </i>
  </energy>
  <time name="totalsc">    0.72    0.75</time>
 </calculation>
 <calculation>
  <scstep>
   <time name="dav">    0.16    0.16</time>
   <time name="total">    0.22    0.23</time>
   <energy>
    <i name="alphaZ">    679.07639765 </i>
    <i name="ewald">  -9752.29351997 </i>
    <i name="hartreedc">  -2897.90518459 </i>
    <i name="XCdc">     42.08439177 </i>
    <i name="pawpsdc">  16627.57609269 </i>
    <i name="pawaedc"> -15990.77179545 </i>
    <i name="eentropy">      0.00894148 </i>
    <i name="bandstr">  -1383.59195833 </i>
    <i name="atom">  12524.00607526 </i>
    <i name="e_fr_energy">   -151.81055949 </i>
    <i name="e_wo_entrp">   -151.81950097 </i>
    <i name="e_0_energy">   -151.81353999 </i>
   </energy>
  </scstep>
  <scstep>
   <time name="diag">    0.06    0.06</time>
   <time name="diis">    0.15    0.15</time>
   <time name="orth">    0.00    0.00</time>
   <time name="total">    0.27    0.27</time>
   <energy>
    <i name="e_fr_energy">   -151.81056633 </i>
    <i name="e_wo_entrp">   -151.81949931 </i>
    <i name="e_0_energy">   -151.81354399 </i>
   </energy>
  </scstep>
  <scstep>
   <time name="diag">    0.02    0.02</time>
   <time name="diis">    0.05    0.05</time>
   <time name="orth">    0.00    0.00</time>
   <time name="total">    0.09    0.09</time>
   <energy>
    <i name="alphaZ">    679.07639765 </i>
    <i name="ewald">  -9752.29351997 </i>
    <i name="hartreedc">  -2897.84916063 </i>
    <i name="XCdc">     42.08197285 </i>
    <i name="pawpsdc">  16627.59512466 </i>
    <i name="pawaedc"> -15990.78678895 </i>
    <i name="eentropy">      0.00894645 </i>
    <i name="bandstr">  -1383.64961217 </i>
    <i name="atom">  12524.00607526 </i>
    <i name="e_fr_energy">   -151.81056485 </i>
    <i name="e_wo_entrp">   -151.81951130 </i>
    <i name="e_0_energy">   -151.81354700 </i>
   </energy>
  </scstep>
  <structure>
   <crystal>
    <varray name="basis" >
     <v>       7.05775529       0.00444885       0.00000000 </v>
     <v>       0.00446546       6.93906338       0.00000000 </v>
     <v>       0.00000000       0.00000000       7.00189983 </v>
    </varray>
    <i name="volume">    342.91238259 </i>
    <varray name="rec_basis" >
     <v>       0.14168817      -0.00009118       0.00000000 </v>
     <v>      -0.00009084       0.14411173       0.00000000 </v>
     <v>       0.00000000       0.00000000       0.14281838 </v>
    </varray>
   </crystal>
   <varray name="positions" >
    <v>       0.00000000       0.00000000       0.95825237 </v>
    <v>       0.50000000       0.00000000       0.03382754 </v>
    <v>       0.50000000       0.50000000       0.47291908 </v>
    <v>       0.00000000       0.00000000       0.53349253 </v>
    <v>       0.00000000       0.50000000       0.52386000 </v>
    <v>       0.28022266       0.74967047       0.76367310 </v>
    <v>       0.71977734       0.25032953       0.76367310 </v>
    <v>       0.23583946       0.24898728       0.23801576 </v>
    <v>       0.28071479       0.25112328       0.76254478 </v>
    <v>       0.00000000       0.50000000       0.96060970 </v>
    <v>       0.23522623       0.75083605       0.23627252 </v>
    <v>       0.76477377       0.24916395       0.23627252 </v>
    <v>       0.50000000       0.00000000       0.47473212 </v>
    <v>       0.76416054       0.75101272       0.23801576 </v>
    <v>       0.71928521       0.74887672       0.76254478 </v>
    <v>       0.50000000       0.50000000       0.04129434 </v>
   </varray>
  </structure>
  <varray name="forces" >
   <v>       0.00000000       0.00000000       0.01085941 </v>
   <v>       0.00000000       0.00000000      -0.00963473 </v>
   <v>       0.00000000       0.00000000       0.01056044 </v>
   <v>       0.00000000       0.00000000      -0.00940359 </v>
   <v>       0.00000000       0.00000000      -0.00502305 </v>
   <v>      -0.00262409       0.00236578      -0.00576016 </v>
   <v>       0.00262409      -0.00236578      -0.00576016 </v>
   <v>      -0.01584750       0.00062790       0.00969339 </v>
   <v>       0.00054341       0.00423900      -0.00849678 </v>
   <v>       0.00000000       0.00000000       0.00231011 </v>
   <v>      -0.01169529       0.00481114       0.00510486 </v>
   <v>       0.01169529      -0.00481114       0.00510486 </v>
   <v>       0.00000000       0.00000000       0.01009390 </v>
   <v>       0.01584750      -0.00062790       0.00969339 </v>
   <v>      -0.00054341      -0.00423900      -0.00849678 </v>
   <v>       0.00000000       0.00000000      -0.01084509 </v>
  </varray>
  <varray name="stress" >
   <v>       0.12166544       0.12076852       0.00000000 </v>
   <v>       0.12076854      -0.15263200       0.00000000 </v>
   <v>       0.00000000       0.00000000       0.20838597 </v>
  </varray>
  <energy>
   <i name="e_fr_energy">   -151.81056485 </i>
   <i name="e_wo_entrp">   -151.81354700 </i>
   <i name="e_0_energy">      0.00894645 </i>
  </energy>
  <time name="totalsc">    0.96    0.99</time>
 </calculation>
 <calculation>
  <scstep>
   <time name="dav">    0.16    0.16</time>
   <time name="total">    0.23    0.23</time>
   <energy>
    <i name="alphaZ">    679.12699286 </i>
    <i name="ewald">  -9753.55404826 </i>
    <i name="hartreedc">  -2896.94012610 </i>
    <i name="XCdc">     42.08875185 </i>
    <i name="pawpsdc">  16627.49993094 </i>
    <i name="pawaedc"> -15990.68942263 </i>
    <i name="eentropy">      0.00923515 </i>
    <i name="bandstr">  -1383.35799670 </i>
    <i name="atom">  12524.00607526 </i>
    <i name="e_fr_energy">   -151.81060762 </i>
    <i name="e_wo_entrp">   -151.81984277 </i>
    <i name="e_0_energy">   -151.81368600 </i>
   </energy>
  </scstep>
  <scstep>
   <time name="diag">    0.02    0.02</time>
   <time name="diis">    0.12    0.12</time>
   <time name="orth">    0.00    0.00</time>
   <time name="total">    0.20    0.21</time>
   <energy>
    <i name="e_fr_energy">   -151.81066810 </i>
    <i name="e_wo_entrp">   -151.81987623 </i>
    <i name="e_0_energy">   -151.81373748 </i>
   </energy>
  </scstep>
  <scstep>
   <time name="diag">    0.02    0.02</time>
   <time name="diis">    0.10    0.10</time>
   <time name="orth">    0.00    0.00</time>
   <time name="total">    0.18    0.18</time>
   <energy>
    <i name="e_fr_energy">   -151.81065834 </i>
    <i name="e_wo_entrp">   -151.81990221 </i>
    <i name="e_0_energy">   -151.81373963 </i>
   </energy>
  </scstep>
  <scstep>
   <time name="diag">    0.02    0.02</time>
   <time name="diis">    0.08    0.08</time>
   <time name="orth">    0.00    0.00</time>
   <time name="total">    0.11    0.12</time>
   <energy>
[...]
       <r>  -46.6878    1.0000 </r>
       <r>  -40.7311    1.0000 </r>
       <r>  -40.6467    1.0000 </r>
       <r>  -40.6240    1.0000 </r>
       <r>  -40.6045    1.0000 </r>
       <r>  -40.5952    1.0000 </r>
       <r>  -40.5790    1.0000 </r>
       <r>  -40.5715    1.0000 </r>
       <r>  -40.5084    1.0000 </r>
       <r>  -22.8572    1.0000 </r>
       <r>  -22.8276    1.0000 </r>
       <r>  -22.8163    1.0000 </r>
       <r>  -19.1780    1.0000 </r>
       <r>  -19.1305    1.0000 </r>
       <r>  -19.0631    1.0000 </r>
       <r>  -18.9612    1.0000 </r>
       <r>  -18.8918    1.0000 </r>
       <r>  -18.7979    1.0000 </r>
       <r>  -18.7741    1.0000 </r>
       <r>  -18.7689    1.0000 </r>
       <r>  -18.7574    1.0000 </r>
       <r>  -18.7410    1.0000 </r>
       <r>  -18.7288    1.0000 </r>
       <r>  -18.7112    1.0000 </r>
       <r>  -18.6980    1.0000 </r>
       <r>  -18.6859    1.0000 </r>
       <r>  -18.6826    1.0000 </r>
       <r>  -18.6310    1.0000 </r>
       <r>  -18.6206    1.0000 </r>
       <r>  -18.6138    1.0000 </r>
       <r>  -18.5954    1.0000 </r>
       <r>  -18.5644    1.0000 </r>
       <r>  -18.4903    1.0000 </r>
       <r>  -18.4116    1.0000 </r>
       <r>  -18.3725    1.0000 </r>
       <r>  -18.3000    1.0000 </r>
       <r>    2.5518    1.0000 </r>
       <r>    3.3451    1.0000 </r>
       <r>    3.6267    1.0000 </r>
       <r>    4.1130    1.0000 </r>
       <r>    4.1881    1.0000 </r>
       <r>    4.4576    1.0000 </r>
       <r>    4.7408    1.0000 </r>
       <r>    5.1578    1.0000 </r>
       <r>    5.3971    1.0000 </r>
       <r>    5.4579    1.0000 </r>
       <r>    5.5095    1.0000 </r>
       <r>    5.5746    1.0000 </r>
       <r>    5.6745    1.0000 </r>
       <r>    5.7180    1.0000 </r>
       <r>    5.8211    1.0000 </r>
       <r>    5.8740    1.0000 </r>
       <r>    5.9284    1.0000 </r>
       <r>    6.0203    1.0000 </r>
       <r>    6.3088    1.0000 </r>
       <r>    6.3550    1.0000 </r>
       <r>    6.4044    1.0000 </r>
       <r>    6.4342    1.0000 </r>
       <r>    6.5807    1.0000 </r>
       <r>    6.6464    1.0000 </r>
       <r>    6.7721    1.0000 </r>
       <r>    6.8375    1.0000 </r>
       <r>    6.8896    1.0000 </r>
       <r>    6.9321    1.0000 </r>
       <r>    6.9564    1.0000 </r>
       <r>    7.0153    1.0000 </r>
       <r>    7.0751    1.0000 </r>
       <r>    7.1150    1.0000 </r>
       <r>    7.1271    1.0000 </r>
       <r>    7.2910    1.0038 </r>
       <r>    7.4033    1.0293 </r>
       <r>    7.5549    0.8427 </r>
       <r>    7.5897    0.6813 </r>
       <r>    7.7318    0.0309 </r>
       <r>    7.7619   -0.0160 </r>
       <r>    7.7975   -0.0349 </r>
       <r>    7.8518   -0.0264 </r>
       <r>    7.9700   -0.0025 </r>
       <r>    8.0574   -0.0002 </r>
       <r>    8.1020   -0.0000 </r>
       <r>    8.1896   -0.0000 </r>
       <r>    8.2662   -0.0000 </r>
       <r>    8.4104   -0.0000 </r>
       <r>    8.9423   -0.0000 </r>
      </set>
     </set>
    </set>
   </array>
  </eigenvalues>
  <separator name="orbital magnetization" >
   <v name="MAGDIPOLOUT">      0.00000000      0.00000000      0.00000000</v>
  </separator>
  <dos>
   <i name="efermi">      7.62269619 </i>
   <total>
    <array>
     <dimension dim="1">gridpoints</dimension>
     <dimension dim="2">spin</dimension>
     <field>energy</field>
     <field>total</field>
     <field>integrated</field>
     <set>
      <set comment="spin 1">
       <r>   -49.4880     0.0000     0.0000 </r>
       <r>   -49.2827     0.0000     0.0000 </r>
       <r>   -49.0773     0.0000     0.0000 </r>
       <r>   -48.8720     0.0000     0.0000 </r>
       <r>   -48.6666     0.0000     0.0000 </r>
       <r>   -48.4613     0.0000     0.0000 </r>
       <r>   -48.2560     0.0000     0.0000 </r>
       <r>   -48.0506    -0.0000    -0.0000 </r>
       <r>   -47.8453    -0.0000    -0.0000 </r>
       <r>   -47.6399    -0.0000    -0.0000 </r>
       <r>   -47.4346    -0.0000    -0.0000 </r>
       <r>   -47.2293    -0.0000    -0.0000 </r>
       <r>   -47.0239    -0.0332    -0.0068 </r>
       <r>   -46.8186    -0.0269    -0.0123 </r>
       <r>   -46.6132     8.5204     1.7373 </r>
       <r>   -46.4079     1.3966     2.0240 </r>
       <r>   -46.2026    -0.1168     2.0000 </r>
       <r>   -45.9972    -0.0002     2.0000 </r>
       <r>   -45.7919    -0.0000     2.0000 </r>
       <r>   -45.5865    -0.0000     2.0000 </r>
       <r>   -45.3812     0.0000     2.0000 </r>
       <r>   -45.1759     0.0000     2.0000 </r>
       <r>   -44.9705     0.0000     2.0000 </r>
       <r>   -44.7652     0.0000     2.0000 </r>
       <r>   -44.5598     0.0000     2.0000 </r>
       <r>   -44.3545     0.0000     2.0000 </r>
       <r>   -44.1491     0.0000     2.0000 </r>
       <r>   -43.9438     0.0000     2.0000 </r>
       <r>   -43.7385     0.0000     2.0000 </r>
       <r>   -43.5331     0.0000     2.0000 </r>
       <r>   -43.3278     0.0000     2.0000 </r>
       <r>   -43.1224     0.0000     2.0000 </r>
       <r>   -42.9171     0.0000     2.0000 </r>
       <r>   -42.7118     0.0000     2.0000 </r>
       <r>   -42.5064     0.0000     2.0000 </r>
       <r>   -42.3011     0.0000     2.0000 </r>
       <r>   -42.0957    -0.0000     2.0000 </r>
       <r>   -41.8904    -0.0000     2.0000 </r>
       <r>   -41.6851    -0.0000     2.0000 </r>
       <r>   -41.4797    -0.0000     2.0000 </r>
       <r>   -41.2744    -0.0000     2.0000 </r>
       <r>   -41.0690    -0.0374     1.9923 </r>
       <r>   -40.8637    -1.0753     1.7715 </r>
       <r>   -40.6584    22.3266     6.3561 </r>
       <r>   -40.4530    55.7733    17.8086 </r>
       <r>   -40.2477     1.2390    18.0630 </r>
       <r>   -40.0423    -0.3064    18.0001 </r>
       <r>   -39.8370    -0.0006    18.0000 </r>
       <r>   -39.6316    -0.0000    18.0000 </r>
       <r>   -39.4263    -0.0000    18.0000 </r>
       <r>   -39.2210     0.0000    18.0000 </r>
       <r>   -39.0156     0.0000    18.0000 </r>
       <r>   -38.8103     0.0000    18.0000 </r>
       <r>   -38.6049     0.0000    18.0000 </r>
       <r>   -38.3996     0.0000    18.0000 </r>
       <r>   -38.1943     0.0000    18.0000 </r>
       <r>   -37.9889     0.0000    18.0000 </r>
       <r>   -37.7836     0.0000    18.0000 </r>
       <r>   -37.5782     0.0000    18.0000 </r>
       <r>   -37.3729     0.0000    18.0000 </r>
       <r>   -37.1676     0.0000    18.0000 </r>
       <r>   -36.9622     0.0000    18.0000 </r>
       <r>   -36.7569     0.0000    18.0000 </r>
       <r>   -36.5515     0.0000    18.0000 </r>
       <r>   -36.3462     0.0000    18.0000 </r>
       <r>   -36.1409     0.0000    18.0000 </r>
       <r>   -35.9355     0.0000    18.0000 </r>
       <r>   -35.7302     0.0000    18.0000 </r>
       <r>   -35.5248     0.0000    18.0000 </r>
       <r>   -35.3195     0.0000    18.0000 </r>
       <r>   -35.1141     0.0000    18.0000 </r>
       <r>   -34.9088     0.0000    18.0000 </r>
       <r>   -34.7035     0.0000    18.0000 </r>
       <r>   -34.4981     0.0000    18.0000 </r>
       <r>   -34.2928     0.0000    18.0000 </r>
       <r>   -34.0874     0.0000    18.0000 </r>
       <r>   -33.8821     0.0000    18.0000 </r>
       <r>   -33.6768     0.0000    18.0000 </r>
       <r>   -33.4714     0.0000    18.0000 </r>
       <r>   -33.2661     0.0000    18.0000 </r>
       <r>   -33.0607     0.0000    18.0000 </r>
       <r>   -32.8554     0.0000    18.0000 </r>
       <r>   -32.6501     0.0000    18.0000 </r>
       <r>   -32.4447     0.0000    18.0000 </r>
       <r>   -32.2394     0.0000    18.0000 </r>
       <r>   -32.0340     0.0000    18.0000 </r>
       <r>   -31.8287     0.0000    18.0000 </r>
       <r>   -31.6233     0.0000    18.0000 </r>
       <r>   -31.4180     0.0000    18.0000 </r>
       <r>   -31.2127     0.0000    18.0000 </r>
       <r>   -31.0073     0.0000    18.0000 </r>
       <r>   -30.8020     0.0000    18.0000 </r>
       <r>   -30.5966     0.0000    18.0000 </r>
       <r>   -30.3913     0.0000    18.0000 </r>
       <r>   -30.1860     0.0000    18.0000 </r>
       <r>   -29.9806     0.0000    18.0000 </r>
       <r>   -29.7753     0.0000    18.0000 </r>
       <r>   -29.5699     0.0000    18.0000 </r>
       <r>   -29.3646     0.0000    18.0000 </r>
       <r>   -29.1593     0.0000    18.0000 </r>
       <r>   -28.9539     0.0000    18.0000 </r>
       <r>   -28.7486     0.0000    18.0000 </r>
       <r>   -28.5432     0.0000    18.0000 </r>
       <r>   -28.3379     0.0000    18.0000 </r>
       <r>   -28.1326     0.0000    18.0000 </r>
       <r>   -27.9272     0.0000    18.0000 </r>
       <r>   -27.7219     0.0000    18.0000 </r>
       <r>   -27.5165     0.0000    18.0000 </r>
       <r>   -27.3112     0.0000    18.0000 </r>
       <r>   -27.1058     0.0000    18.0000 </r>
       <r>   -26.9005     0.0000    18.0000 </r>
       <r>   -26.6952     0.0000    18.0000 </r>
       <r>   -26.4898     0.0000    18.0000 </r>
       <r>   -26.2845     0.0000    18.0000 </r>
       <r>   -26.0791     0.0000    18.0000 </r>
       <r>   -25.8738     0.0000    18.0000 </r>
       <r>   -25.6685     0.0000    18.0000 </r>
       <r>   -25.4631     0.0000    18.0000 </r>
       <r>   -25.2578     0.0000    18.0000 </r>
       <r>   -25.0524     0.0000    18.0000 </r>
       <r>   -24.8471     0.0000    18.0000 </r>
       <r>   -24.6418     0.0000    18.0000 </r>
       <r>   -24.4364     0.0000    18.0000 </r>
       <r>   -24.2311    -0.0000    18.0000 </r>
       <r>   -24.0257    -0.0000    18.0000 </r>
       <r>   -23.8204    -0.0000    18.0000 </r>
       <r>   -23.6151    -0.0000    18.0000 </r>
       <r>   -23.4097    -0.0000    18.0000 </r>
       <r>   -23.2044    -0.0431    17.9911 </r>
       <r>   -22.9990    -0.8166    17.8235 </r>
       <r>   -22.7937    21.6857    22.2764 </r>
       <r>   -22.5883     9.0243    24.1295 </r>
       <r>   -22.3830    -0.6273    24.0006 </r>
       <r>   -22.1777    -0.0031    24.0000 </r>
       <r>   -21.9723    -0.0000    24.0000 </r>
       <r>   -21.7670    -0.0000    24.0000 </r>
       <r>   -21.5616     0.0000    24.0000 </r>
       <r>   -21.3563     0.0000    24.0000 </r>
       <r>   -21.1510     0.0000    24.0000 </r>
       <r>   -20.9456     0.0000    24.0000 </r>
       <r>   -20.7403     0.0000    24.0000 </r>
       <r>   -20.5349    -0.0000    24.0000 </r>
       <r>   -20.3296    -0.0000    24.0000 </r>
       <r>   -20.1243    -0.0000    24.0000 </r>
       <r>   -19.9189    -0.0000    24.0000 </r>
       <r>   -19.7136    -0.0001    24.0000 </r>
       <r>   -19.5082    -0.0610    23.9875 </r>
       <r>   -19.3029    -0.3208    23.9216 </r>
       <r>   -19.0976    17.9755    27.6127 </r>
       <r>   -18.8922    26.2530    33.0035 </r>
       <r>   -18.6869    79.1111    49.2483 </r>
       <r>   -18.4815    78.5423    65.3762 </r>
       <r>   -18.2762    29.4077    71.4148 </r>
       <r>   -18.0708     3.1785    72.0675 </r>
       <r>   -17.8655    -0.3271    72.0003 </r>
       <r>   -17.6602    -0.0017    72.0000 </r>
       <r>   -17.4548    -0.0000    72.0000 </r>
       <r>   -17.2495    -0.0000    72.0000 </r>
       <r>   -17.0441     0.0000    72.0000 </r>
       <r>   -16.8388     0.0000    72.0000 </r>
       <r>   -16.6335     0.0000    72.0000 </r>
       <r>   -16.4281     0.0000    72.0000 </r>
       <r>   -16.2228     0.0000    72.0000 </r>
       <r>   -16.0174     0.0000    72.0000 </r>
       <r>   -15.8121     0.0000    72.0000 </r>
       <r>   -15.6068     0.0000    72.0000 </r>
       <r>   -15.4014     0.0000    72.0000 </r>
       <r>   -15.1961     0.0000    72.0000 </r>
       <r>   -14.9907     0.0000    72.0000 </r>
       <r>   -14.7854     0.0000    72.0000 </r>
       <r>   -14.5801     0.0000    72.0000 </r>
       <r>   -14.3747     0.0000    72.0000 </r>
       <r>   -14.1694     0.0000    72.0000 </r>
       <r>   -13.9640     0.0000    72.0000 </r>
       <r>   -13.7587     0.0000    72.0000 </r>
       <r>   -13.5533     0.0000    72.0000 </r>
       <r>   -13.3480     0.0000    72.0000 </r>
       <r>   -13.1427     0.0000    72.0000 </r>
       <r>   -12.9373     0.0000    72.0000 </r>
       <r>   -12.7320     0.0000    72.0000 </r>
       <r>   -12.5266     0.0000    72.0000 </r>
       <r>   -12.3213     0.0000    72.0000 </r>
       <r>   -12.1160     0.0000    72.0000 </r>
       <r>   -11.9106     0.0000    72.0000 </r>
       <r>   -11.7053     0.0000    72.0000 </r>
       <r>   -11.4999     0.0000    72.0000 </r>
       <r>   -11.2946     0.0000    72.0000 </r>
       <r>   -11.0893     0.0000    72.0000 </r>
       <r>   -10.8839     0.0000    72.0000 </r>
       <r>   -10.6786     0.0000    72.0000 </r>
       <r>   -10.4732     0.0000    72.0000 </r>
       <r>   -10.2679     0.0000    72.0000 </r>
       <r>   -10.0626     0.0000    72.0000 </r>
       <r>    -9.8572     0.0000    72.0000 </r>
       <r>    -9.6519     0.0000    72.0000 </r>
       <r>    -9.4465     0.0000    72.0000 </r>
       <r>    -9.2412     0.0000    72.0000 </r>
       <r>    -9.0358     0.0000    72.0000 </r>
       <r>    -8.8305     0.0000    72.0000 </r>
       <r>    -8.6252     0.0000    72.0000 </r>
       <r>    -8.4198     0.0000    72.0000 </r>
       <r>    -8.2145     0.0000    72.0000 </r>
       <r>    -8.0091     0.0000    72.0000 </r>
       <r>    -7.8038     0.0000    72.0000 </r>
       <r>    -7.5985     0.0000    72.0000 </r>
       <r>    -7.3931     0.0000    72.0000 </r>
       <r>    -7.1878     0.0000    72.0000 </r>
       <r>    -6.9824     0.0000    72.0000 </r>
       <r>    -6.7771     0.0000    72.0000 </r>
       <r>    -6.5718     0.0000    72.0000 </r>
       <r>    -6.3664     0.0000    72.0000 </r>
       <r>    -6.1611     0.0000    72.0000 </r>
       <r>    -5.9557     0.0000    72.0000 </r>
       <r>    -5.7504     0.0000    72.0000 </r>
       <r>    -5.5450     0.0000    72.0000 </r>
       <r>    -5.3397     0.0000    72.0000 </r>
       <r>    -5.1344     0.0000    72.0000 </r>
       <r>    -4.9290     0.0000    72.0000 </r>
       <r>    -4.7237     0.0000    72.0000 </r>
       <r>    -4.5183     0.0000    72.0000 </r>
       <r>    -4.3130     0.0000    72.0000 </r>
       <r>    -4.1077     0.0000    72.0000 </r>
       <r>    -3.9023     0.0000    72.0000 </r>
       <r>    -3.6970     0.0000    72.0000 </r>
       <r>    -3.4916     0.0000    72.0000 </r>
       <r>    -3.2863     0.0000    72.0000 </r>
       <r>    -3.0810     0.0000    72.0000 </r>
       <r>    -2.8756     0.0000    72.0000 </r>
       <r>    -2.6703     0.0000    72.0000 </r>
       <r>    -2.4649     0.0000    72.0000 </r>
       <r>    -2.2596     0.0000    72.0000 </r>
       <r>    -2.0543     0.0000    72.0000 </r>
       <r>    -1.8489     0.0000    72.0000 </r>
       <r>    -1.6436     0.0000    72.0000 </r>
       <r>    -1.4382     0.0000    72.0000 </r>
       <r>    -1.2329     0.0000    72.0000 </r>
       <r>    -1.0275     0.0000    72.0000 </r>
       <r>    -0.8222     0.0000    72.0000 </r>
       <r>    -0.6169     0.0000    72.0000 </r>
       <r>    -0.4115     0.0000    72.0000 </r>
       <r>    -0.2062    -0.0000    72.0000 </r>
       <r>    -0.0008    -0.0000    72.0000 </r>
       <r>     0.2045    -0.0000    72.0000 </r>
       <r>     0.4098    -0.0000    72.0000 </r>
       <r>     0.6152    -0.0000    72.0000 </r>
       <r>     0.8205    -0.0005    71.9999 </r>
       <r>     1.0259    -0.0112    71.9976 </r>
       <r>     1.2312     0.2726    72.0536 </r>
       <r>     1.4365     0.0616    72.0662 </r>
       <r>     1.6419     0.6421    72.1981 </r>
       <r>     1.8472     1.5734    72.5212 </r>
       <r>     2.0526     0.6239    72.6493 </r>
       <r>     2.2579     3.7004    73.4091 </r>
       <r>     2.4632     0.3452    73.4800 </r>
       <r>     2.6686     2.5185    73.9971 </r>
       <r>     2.8739    -0.0252    73.9920 </r>
       <r>     3.0793     2.6391    74.5339 </r>
       <r>     3.2846     4.0769    75.3710 </r>
       <r>     3.4900     4.8199    76.3608 </r>
       <r>     3.6953     4.4362    77.2717 </r>
       <r>     3.9006     3.0070    77.8892 </r>
       <r>     4.1060     6.7827    79.2819 </r>
       <r>     4.3113     6.7830    80.6748 </r>
       <r>     4.5167     7.8965    82.2962 </r>
       <r>     4.7220    10.8538    84.5250 </r>
       <r>     4.9273    15.8498    87.7796 </r>
       <r>     5.1327    18.2042    91.5176 </r>
       <r>     5.3380    15.6554    94.7323 </r>
       <r>     5.5434    18.7884    98.5904 </r>
       <r>     5.7487    16.2911   101.9356 </r>
       <r>     5.9540    16.9479   105.4157 </r>
       <r>     6.1594    11.7791   107.8344 </r>
       <r>     6.3647    14.5564   110.8234 </r>
       <r>     6.5701    20.6865   115.0712 </r>
       <r>     6.7754    22.2803   119.6463 </r>
       <r>     6.9807    29.1559   125.6332 </r>
       <r>     7.1861    28.8521   131.5577 </r>
       <r>     7.3914    21.9625   136.0675 </r>
       <r>     7.5968    16.9312   139.5442 </r>
       <r>     7.8021    21.4389   143.9465 </r>
       <r>     8.0075    26.5210   149.3923 </r>
       <r>     8.2128    25.2456   154.5763 </r>
       <r>     8.4181    20.8273   158.8530 </r>
       <r>     8.6235    12.1861   161.3553 </r>
       <r>     8.8288     8.8057   163.1634 </r>
       <r>     9.0342    12.4707   165.7242 </r>
       <r>     9.2395     8.9963   167.5715 </r>
       <r>     9.4448     2.1883   168.0208 </r>
       <r>     9.6502    -0.0960   168.0011 </r>
       <r>     9.8555    -0.0055   168.0000 </r>
       <r>    10.0609    -0.0000   168.0000 </r>
       <r>    10.2662    -0.0000   168.0000 </r>
       <r>    10.4715     0.0000   168.0000 </r>
       <r>    10.6769     0.0000   168.0000 </r>
       <r>    10.8822     0.0000   168.0000 </r>
       <r>    11.0876     0.0000   168.0000 </r>
       <r>    11.2929     0.0000   168.0000 </r>
       <r>    11.4982     0.0000   168.0000 </r>
       <r>    11.7036     0.0000   168.0000 </r>
       <r>    11.9089     0.0000   168.0000 </r>
       <r>    12.1143     0.0000   168.0000 </r>
      </set>
     </set>
    </array>
   </total>
  </dos>
 </calculation>
 <structure name="finalpos" >
  <crystal>
   <varray name="basis" >
    <v>       7.05779783       0.00485695       0.00000000 </v>
    <v>       0.00486736       6.93805039       0.00000000 </v>
    <v>       0.00000000       0.00000000       7.00235876 </v>
   </varray>
   <i name="volume">    342.88683549 </i>
   <varray name="rec_basis" >
    <v>       0.14168732      -0.00009940       0.00000000 </v>
    <v>      -0.00009919       0.14413278       0.00000000 </v>
    <v>       0.00000000       0.00000000       0.14280902 </v>
   </varray>
  </crystal>
  <varray name="positions" >
   <v>       0.00000000       0.00000000       0.95834584 </v>
   <v>       0.50000000       0.00000000       0.03374326 </v>
   <v>       0.50000000       0.50000000       0.47301062 </v>
   <v>       0.00000000       0.00000000       0.53340398 </v>
   <v>       0.00000000       0.50000000       0.52381053 </v>
   <v>       0.28020031       0.74968912       0.76362875 </v>
   <v>       0.71979969       0.25031088       0.76362875 </v>
   <v>       0.23570402       0.24899253       0.23810446 </v>
   <v>       0.28070902       0.25115524       0.76247215 </v>
   <v>       0.00000000       0.50000000       0.96062045 </v>
   <v>       0.23512518       0.75087686       0.23632436 </v>
   <v>       0.76487482       0.24912314       0.23632436 </v>
   <v>       0.50000000       0.00000000       0.47482133 </v>
   <v>       0.76429598       0.75100747       0.23810446 </v>
   <v>       0.71929098       0.74884476       0.76247215 </v>
   <v>       0.50000000       0.50000000       0.04118459 </v>
  </varray>
 </structure>
</modeling>
