<?xml version="1.0" encoding="ISO-8859-1"?>
<modeling>
 <generator>
  <i name="program" type="string">vasp </i>
  <i name="version" type="string">5.4.1  </i>
  <i name="subversion" type="string">05Feb16 (build Jan 29 2020 16:04:39) complex                          parallel </i>
  <i name="platform" type="string">IFC91_ompi </i>
  <i name="date" type="string">2020 04 11 </i>
  <i name="time" type="string">00:09:24 </i>
 </generator>
 <incar>
  <i type="string" name="SYSTEM"> AuPt</i>
  <i type="int" name="ISTART">     0</i>
  <i type="string" name="PREC">accurate</i>
  <i type="string" name="ALGO"> Fast</i>
  <i type="int" name="ICHARG">     2</i>
  <i type="int" name="NELM">    70</i>
  <i type="int" name="IBRION">     2</i>
  <i name="EDIFF">      0.00001000</i>
  <i name="EDIFFG">     -0.01000000</i>
  <i type="int" name="NSW">   300</i>
  <i type="int" name="ISIF">     3</i>
  <i type="int" name="ISYM">     1</i>
  <i name="ENCUT">    300.00000000</i>
  <i name="POTIM">      0.15000000</i>
  <i type="string" name="LREAL"> Auto</i>
  <i type="int" name="ISMEAR">     1</i>
  <i name="SIGMA">      0.15000000</i>
  <i type="logical" name="LWAVE"> F  </i>
  <i type="logical" name="LCHARG"> F  </i>
  <v type="int" name="KPOINT_BSE">    -1     0     0     0</v>
  <i type="int" name="NELM">    70</i>
 </incar>
 <kpoints>
  <generation param="Gamma">
   <v type="int" name="divisions">       3        3        3 </v>
   <v name="usershift">      0.00000000       0.00000000       0.00000000 </v>
   <v name="genvec1">      0.33333333       0.00000000       0.00000000 </v>
   <v name="genvec2">      0.00000000       0.33333333       0.00000000 </v>
   <v name="genvec3">      0.00000000       0.00000000       0.33333333 </v>
   <v name="shift">      0.00000000       0.00000000       0.00000000 </v>
  </generation>
  <varray name="kpointlist" >
   <v>       0.00000000       0.00000000       0.00000000 </v>
   <v>       0.33333333       0.00000000       0.00000000 </v>
   <v>       0.00000000       0.33333333       0.00000000 </v>
   <v>       0.33333333       0.33333333       0.00000000 </v>
   <v>      -0.33333333       0.33333333       0.00000000 </v>
   <v>       0.00000000       0.00000000       0.33333333 </v>
   <v>       0.33333333       0.00000000       0.33333333 </v>
   <v>      -0.33333333       0.00000000       0.33333333 </v>
   <v>       0.00000000       0.33333333       0.33333333 </v>
   <v>       0.33333333       0.33333333       0.33333333 </v>
   <v>      -0.33333333       0.33333333       0.33333333 </v>
   <v>       0.00000000      -0.33333333       0.33333333 </v>
   <v>       0.33333333      -0.33333333       0.33333333 </v>
   <v>      -0.33333333      -0.33333333       0.33333333 </v>
  </varray>
  <varray name="weights" >
   <v>       0.03703704 </v>
   <v>       0.07407407 </v>
   <v>       0.07407407 </v>
   <v>       0.07407407 </v>
   <v>       0.07407407 </v>
   <v>       0.07407407 </v>
   <v>       0.07407407 </v>
   <v>       0.07407407 </v>
   <v>       0.07407407 </v>
   <v>       0.07407407 </v>
   <v>       0.07407407 </v>
   <v>       0.07407407 </v>
   <v>       0.07407407 </v>
   <v>       0.07407407 </v>
  </varray>
 </kpoints>
 <parameters>
  <separator name="general" >
   <i type="string" name="SYSTEM">AuPt</i>
   <i type="logical" name="LCOMPAT"> F  </i>
  </separator>
  <separator name="electronic" >
   <i type="string" name="PREC">accura</i>
   <i name="ENMAX">    300.00000000</i>
   <i name="ENAUG">    358.96600000</i>
   <i name="EDIFF">      0.00001000</i>
   <i type="int" name="IALGO">    68</i>
   <i type="int" name="IWAVPR">    11</i>
   <i type="int" name="NBANDS">   204</i>
   <i name="NELECT">    336.00000000</i>
   <i type="int" name="TURBO">     0</i>
   <i type="int" name="IRESTART">     0</i>
   <i type="int" name="NREBOOT">     0</i>
   <i type="int" name="NMIN">     0</i>
   <i name="EREF">      0.00000000</i>
   <separator name="electronic smearing" >
    <i type="int" name="ISMEAR">     1</i>
    <i name="SIGMA">      0.15000000</i>
    <i name="KSPACING">      0.50000000</i>
    <i type="logical" name="KGAMMA"> T  </i>
   </separator>
   <separator name="electronic projectors" >
    <i type="logical" name="LREAL"> T  </i>
    <v name="ROPT">     -0.00025000     -0.00025000</v>
    <i type="int" name="LMAXPAW">  -100</i>
    <i type="int" name="LMAXMIX">     2</i>
    <i type="logical" name="NLSPLINE"> F  </i>
   </separator>
   <separator name="electronic startup" >
    <i type="int" name="ISTART">     0</i>
    <i type="int" name="ICHARG">     2</i>
    <i type="int" name="INIWAV">     1</i>
   </separator>
   <separator name="electronic spin" >
    <i type="int" name="ISPIN">     1</i>
    <i type="logical" name="LNONCOLLINEAR"> F  </i>
    <v name="MAGMOM">      1.00000000      1.00000000      1.00000000      1.00000000      1.00000000      1.00000000      1.00000000      1.00000000      1.00000000      1.00000000      1.00000000      1.00000000      1.00000000      1.00000000      1.00000000      1.00000000      1.00000000      1.00000000      1.00000000      1.00000000
      1.00000000      1.00000000      1.00000000      1.00000000      1.00000000      1.00000000      1.00000000      1.00000000      1.00000000      1.00000000      1.00000000      1.00000000</v>
    <i name="NUPDOWN">     -1.00000000</i>
    <i type="logical" name="LSORBIT"> F  </i>
    <v name="SAXIS">      0.00000000      0.00000000      1.00000000</v>
    <i type="logical" name="LSPIRAL"> F  </i>
    <v name="QSPIRAL">      0.00000000      0.00000000      0.00000000</v>
    <i type="logical" name="LZEROZ"> F  </i>
   </separator>
   <separator name="electronic exchange-correlation" >
    <i type="logical" name="LASPH"> F  </i>
    <i type="logical" name="LMETAGGA"> F  </i>
   </separator>
   <separator name="electronic convergence" >
    <i type="int" name="NELM">    70</i>
    <i type="int" name="NELMDL">    -5</i>
    <i type="int" name="NELMIN">     2</i>
    <i name="ENINI">    300.00000000</i>
    <separator name="electronic convergence detail" >
     <i type="logical" name="LDIAG"> T  </i>
     <i type="logical" name="LSUBROT"> F  </i>
     <i name="WEIMIN">      0.00100000</i>
     <i name="EBREAK">      0.00000001</i>
     <i name="DEPER">      0.30000000</i>
     <i type="int" name="NRMM">     4</i>
     <i name="TIME">      0.40000000</i>
    </separator>
   </separator>
   <separator name="electronic mixer" >
    <i name="AMIX">      0.40000000</i>
    <i name="BMIX">      1.00000000</i>
    <i name="AMIN">      0.10000000</i>
    <i name="AMIX_MAG">      1.60000000</i>
    <i name="BMIX_MAG">      1.00000000</i>
    <separator name="electronic mixer details" >
     <i type="int" name="IMIX">     4</i>
     <i type="logical" name="MIXFIRST"> F  </i>
     <i type="int" name="MAXMIX">   -45</i>
     <i name="WC">    100.00000000</i>
     <i type="int" name="INIMIX">     1</i>
     <i type="int" name="MIXPRE">     1</i>
     <i type="int" name="MREMOVE">     5</i>
    </separator>
   </separator>
   <separator name="electronic dipolcorrection" >
    <i type="logical" name="LDIPOL"> F  </i>
    <i type="logical" name="LMONO"> F  </i>
    <i type="int" name="IDIPOL">     0</i>
    <i name="EPSILON">      1.00000000</i>
    <v name="DIPOL">   -100.00000000   -100.00000000   -100.00000000</v>
    <i name="EFIELD">      0.00000000</i>
   </separator>
  </separator>
  <separator name="grids" >
   <i type="int" name="NGX">    60</i>
   <i type="int" name="NGY">    60</i>
   <i type="int" name="NGZ">    60</i>
   <i type="int" name="NGXF">   120</i>
   <i type="int" name="NGYF">   120</i>
   <i type="int" name="NGZF">   120</i>
   <i type="logical" name="ADDGRID"> F  </i>
  </separator>
  <separator name="ionic" >
   <i type="int" name="NSW">   300</i>
   <i type="int" name="IBRION">     2</i>
   <i type="int" name="ISIF">     3</i>
   <i name="PSTRESS">      0.00000000</i>
   <i name="EDIFFG">     -0.01000000</i>
   <i type="int" name="NFREE">     1</i>
   <i name="POTIM">      0.15000000</i>
   <i name="SMASS">     -3.00000000</i>
   <i name="SCALEE">      1.00000000</i>
  </separator>
  <separator name="ionic md" >
   <i name="TEBEG">      0.00010000</i>
   <i name="TEEND">      0.00010000</i>
   <i type="int" name="NBLOCK">     1</i>
   <i type="int" name="KBLOCK">   300</i>
   <i type="int" name="NPACO">   256</i>
   <i name="APACO">     16.00000000</i>
  </separator>
  <separator name="symmetry" >
   <i type="int" name="ISYM">     1</i>
   <i name="SYMPREC">      0.00001000</i>
  </separator>
  <separator name="dos" >
   <i type="logical" name="LORBIT"> F  </i>
   <v name="RWIGS">     -1.00000000     -1.00000000</v>
   <i type="int" name="NEDOS">   301</i>
   <i name="EMIN">     10.00000000</i>
   <i name="EMAX">    -10.00000000</i>
   <i name="EFERMI">      0.00000000</i>
  </separator>
  <separator name="writing" >
   <i type="int" name="NWRITE">     2</i>
   <i type="logical" name="LWAVE"> F  </i>
   <i type="logical" name="LCHARG"> F  </i>
   <i type="logical" name="LPARD"> F  </i>
   <i type="logical" name="LVTOT"> F  </i>
   <i type="logical" name="LVHAR"> F  </i>
   <i type="logical" name="LELF"> F  </i>
   <i type="logical" name="LOPTICS"> F  </i>
   <v name="STM">      0.00000000      0.00000000      0.00000000      0.00000000      0.00000000      0.00000000      0.00000000</v>
  </separator>
  <separator name="performance" >
   <i type="int" name="NPAR">     4</i>
   <i type="int" name="NSIM">     4</i>
   <i type="int" name="NBLK">    -1</i>
   <i type="logical" name="LPLANE"> T  </i>
   <i type="logical" name="LSCALAPACK"> T  </i>
   <i type="logical" name="LSCAAWARE"> F  </i>
   <i type="logical" name="LSCALU"> F  </i>
   <i type="logical" name="LASYNC"> F  </i>
   <i type="logical" name="LORBITALREAL"> F  </i>
  </separator>
  <separator name="miscellaneous" >
   <i type="int" name="IDIOT">     3</i>
   <i type="logical" name="LMUSIC"> F  </i>
   <v name="POMASS">    196.96600000    195.08000000</v>
   <v name="DARWINR">      0.00000000      0.00000000</v>
   <v name="DARWINV">      1.00000000      1.00000000</v>
   <i type="logical" name="LCORR"> T  </i>
  </separator>
  <i type="logical" name="GGA_COMPAT"> T  </i>
  <i type="logical" name="LBERRY"> F  </i>
  <i type="int" name="ICORELEVEL">     0</i>
  <i type="logical" name="LDAU"> F  </i>
  <i type="int" name="I_CONSTRAINED_M">     0</i>
  <separator name="electronic exchange-correlation" >
   <i type="string" name="GGA">--</i>
   <i type="int" name="VOSKOWN">     0</i>
   <i type="logical" name="LHFCALC"> F  </i>
   <i type="string" name="PRECFOCK"></i>
   <i type="logical" name="LSYMGRAD"> F  </i>
   <i type="logical" name="LHFONE"> F  </i>
   <i type="logical" name="LRHFCALC"> F  </i>
   <i type="logical" name="LTHOMAS"> F  </i>
   <i type="logical" name="LMODELHF"> F  </i>
   <i name="ENCUT4O">     -1.00000000</i>
   <i type="int" name="EXXOEP">     0</i>
   <i type="int" name="FOURORBIT">     0</i>
   <i name="AEXX">      0.00000000</i>
   <i name="HFALPHA">      0.00000000</i>
   <i name="MCALPHA">      0.00000000</i>
   <i name="ALDAX">      1.00000000</i>
   <i name="AGGAX">      1.00000000</i>
   <i name="ALDAC">      1.00000000</i>
   <i name="AGGAC">      1.00000000</i>
   <i type="int" name="NKREDX">     1</i>
   <i type="int" name="NKREDY">     1</i>
   <i type="int" name="NKREDZ">     1</i>
   <i type="logical" name="SHIFTRED"> F  </i>
   <i type="logical" name="ODDONLY"> F  </i>
   <i type="logical" name="EVENONLY"> F  </i>
   <i type="int" name="LMAXFOCK">     0</i>
   <i type="int" name="NMAXFOCKAE">     0</i>
   <i type="logical" name="LFOCKAEDFT"> F  </i>
   <i name="HFSCREEN">      0.00000000</i>
   <i name="HFSCREENC">      0.00000000</i>
   <i type="int" name="NBANDSGWLOW">     0</i>
  </separator>
  <separator name="vdW DFT" >
   <i type="logical" name="LUSE_VDW"> F  </i>
   <i name="Zab_VDW">     -0.84910000</i>
   <i name="PARAM1">      0.12340000</i>
   <i name="PARAM2">      1.00000000</i>
   <i name="PARAM3">      0.00000000</i>
  </separator>
  <separator name="model GW" >
   <i type="int" name="MODEL_GW">     0</i>
   <i name="MODEL_EPS0">     20.80075489</i>
   <i name="MODEL_ALPHA">      1.00000000</i>
  </separator>
  <separator name="linear response parameters" >
   <i type="logical" name="LEPSILON"> F  </i>
   <i type="logical" name="LRPA"> F  </i>
   <i type="logical" name="LNABLA"> F  </i>
   <i type="logical" name="LVEL"> F  </i>
   <i type="int" name="KINTER">     0</i>
   <i name="CSHIFT">      0.10000000</i>
   <i name="OMEGAMAX">     -1.00000000</i>
   <i name="DEG_THRESHOLD">      0.00200000</i>
  </separator>
  <separator name="orbital magnetization" >
   <i type="logical" name="NUCIND"> F  </i>
   <v name="MAGPOS">      0.00000000      0.00000000      0.00000000</v>
   <i type="logical" name="LNICSALL"> T  </i>
   <i type="logical" name="ORBITALMAG"> F  </i>
   <i type="logical" name="LMAGBLOCH"> F  </i>
   <i type="logical" name="LCHIMAG"> F  </i>
   <i type="logical" name="LGAUGE"> T  </i>
   <i type="int" name="MAGATOM">     0</i>
   <v name="MAGDIPOL">      0.00000000      0.00000000      0.00000000</v>
   <v name="AVECCONST">      0.00000000      0.00000000      0.00000000</v>
  </separator>
  <separator name="response functions" >
   <i type="logical" name="LADDER"> F  </i>
   <i type="logical" name="LFXC"> F  </i>
   <i type="logical" name="LHARTREE"> T  </i>
   <i type="int" name="IBSE">     0</i>
   <v type="int" name="KPOINT">    -1     0     0     0</v>
   <i type="logical" name="LTCTE"> F  </i>
   <i type="logical" name="LTETE"> F  </i>
   <i type="logical" name="LTRIPLET"> F  </i>
   <i type="logical" name="LFXCEPS"> F  </i>
   <i type="logical" name="LFXHEG"> F  </i>
   <i type="int" name="NATURALO">     0</i>
   <i type="logical" name="L2ORDER"> F  </i>
   <i type="logical" name="LUSEW"> F  </i>
   <i name="ENCUTGW">     -2.00000000</i>
   <i name="ENCUTGWSOFT">     -2.00000000</i>
   <i name="ENCUTLF">     -1.00000000</i>
   <i type="int" name="LMAXMP2">    -1</i>
   <i name="SCISSOR">      0.00000000</i>
   <i type="int" name="NOMEGA">     0</i>
   <i type="int" name="NOMEGAR">     0</i>
   <i type="int" name="NBANDSGW">    -1</i>
   <i type="int" name="NBANDSO">    -1</i>
   <i type="int" name="NBANDSV">    -1</i>
   <i type="int" name="NELM">    70</i>
   <i type="int" name="NELMHF">     1</i>
   <i type="int" name="DIM">     3</i>
   <i type="int" name="ANTIRES">     0</i>
   <i name="OMEGAMAX">    -30.00000000</i>
   <i name="OMEGAMIN">    -30.00000000</i>
   <i name="OMEGATL">   -200.00000000</i>
   <i type="int" name="OMEGAGRID">     0</i>
   <i name="CSHIFT">     -0.10000000</i>
   <i type="logical" name="SELFENERGY"> F  </i>
   <i type="logical" name="LSPECTRAL"> F  </i>
   <i type="logical" name="LSPECTRALGW"> F  </i>
   <i type="logical" name="LSINGLES"> F  </i>
   <i type="logical" name="LFERMIGW"> F  </i>
   <i type="logical" name="ODDONLYGW"> F  </i>
   <i type="logical" name="EVENONLYGW"> F  </i>
   <i type="int" name="NKREDLFX">     1</i>
   <i type="int" name="NKREDLFY">     1</i>
   <i type="int" name="NKREDLFZ">     1</i>
   <i type="int" name="MAXMEM">  1800</i>
   <i type="int" name="TELESCOPE">     0</i>
   <i type="int" name="TAUPAR">     1</i>
   <i type="int" name="OMEGAPAR">    -1</i>
   <i name="LAMBDA">      1.00000000</i>
  </separator>
  <separator name="External order field" >
   <i name="OFIELD_KAPPA">      0.00000000</i>
   <v name="OFIELD_K">      0.00000000      0.00000000      0.00000000</v>
   <i name="OFIELD_Q6_NEAR">      0.00000000</i>
   <i name="OFIELD_Q6_FAR">      0.00000000</i>
   <i name="OFIELD_A">      0.00000000</i>
  </separator>
 </parameters>
 <atominfo>
  <atoms>      32 </atoms>
  <types>       2 </types>
  <array name="atoms" >
   <dimension dim="1">ion</dimension>
   <field type="string">element</field>
   <field type="int">atomtype</field>
   <set>
    <rc><c>Au</c><c>   1</c></rc>
    <rc><c>Au</c><c>   1</c></rc>
    <rc><c>Au</c><c>   1</c></rc>
    <rc><c>Au</c><c>   1</c></rc>
    <rc><c>Au</c><c>   1</c></rc>
    <rc><c>Au</c><c>   1</c></rc>
    <rc><c>Au</c><c>   1</c></rc>
    <rc><c>Au</c><c>   1</c></rc>
    <rc><c>Au</c><c>   1</c></rc>
    <rc><c>Au</c><c>   1</c></rc>
    <rc><c>Au</c><c>   1</c></rc>
    <rc><c>Au</c><c>   1</c></rc>
    <rc><c>Au</c><c>   1</c></rc>
    <rc><c>Au</c><c>   1</c></rc>
    <rc><c>Au</c><c>   1</c></rc>
    <rc><c>Au</c><c>   1</c></rc>
    <rc><c>Pt</c><c>   2</c></rc>
    <rc><c>Pt</c><c>   2</c></rc>
    <rc><c>Pt</c><c>   2</c></rc>
    <rc><c>Pt</c><c>   2</c></rc>
    <rc><c>Pt</c><c>   2</c></rc>
    <rc><c>Pt</c><c>   2</c></rc>
    <rc><c>Pt</c><c>   2</c></rc>
    <rc><c>Pt</c><c>   2</c></rc>
    <rc><c>Pt</c><c>   2</c></rc>
    <rc><c>Pt</c><c>   2</c></rc>
    <rc><c>Pt</c><c>   2</c></rc>
    <rc><c>Pt</c><c>   2</c></rc>
    <rc><c>Pt</c><c>   2</c></rc>
    <rc><c>Pt</c><c>   2</c></rc>
    <rc><c>Pt</c><c>   2</c></rc>
    <rc><c>Pt</c><c>   2</c></rc>
   </set>
  </array>
  <array name="atomtypes" >
   <dimension dim="1">type</dimension>
   <field type="int">atomspertype</field>
   <field type="string">element</field>
   <field>mass</field>
   <field>valence</field>
   <field type="string">pseudopotential</field>
   <set>
    <rc><c>  16</c><c>Au</c><c>    196.96600000</c><c>     11.00000000</c><c> PAW_GGA Au 18Jul2000                   </c></rc>
    <rc><c>  16</c><c>Pt</c><c>    195.08000000</c><c>     10.00000000</c><c> PAW_GGA Pt 05Jan2001                   </c></rc>
   </set>
  </array>
 </atominfo>
 <structure name="initialpos" >
  <crystal>
   <varray name="basis" >
    <v>      10.35204000       0.00000000       0.00000000 </v>
    <v>       0.00000000      10.35204000       0.00000000 </v>
    <v>       0.00000000       0.00000000      10.35204000 </v>
   </varray>
   <i name="volume">   1109.37359393 </i>
   <varray name="rec_basis" >
    <v>       0.09659932       0.00000000       0.00000000 </v>
    <v>       0.00000000       0.09659932       0.00000000 </v>
    <v>       0.00000000       0.00000000       0.09659932 </v>
   </varray>
  </crystal>
  <varray name="positions" >
   <v>       0.25000000       0.25000000       0.00000000 </v>
   <v>       0.00000000       0.25000000       0.25000000 </v>
   <v>       0.00000000       0.00000000       0.50000000 </v>
   <v>       0.25000000       0.00000000       0.75000000 </v>
   <v>       0.25000000       0.75000000       0.00000000 </v>
   <v>       0.00000000       0.75000000       0.25000000 </v>
   <v>       0.25000000       0.75000000       0.50000000 </v>
   <v>       0.25000000       0.50000000       0.75000000 </v>
   <v>       0.00000000       0.75000000       0.75000000 </v>
   <v>       0.50000000       0.00000000       0.00000000 </v>
   <v>       0.50000000       0.00000000       0.50000000 </v>
   <v>       0.75000000       0.25000000       0.50000000 </v>
   <v>       0.75000000       0.00000000       0.75000000 </v>
   <v>       0.50000000       0.50000000       0.00000000 </v>
   <v>       0.75000000       0.75000000       0.00000000 </v>
   <v>       0.75000000       0.75000000       0.50000000 </v>
   <v>       0.00000000       0.00000000       0.00000000 </v>
   <v>       0.25000000       0.00000000       0.25000000 </v>
   <v>       0.25000000       0.25000000       0.50000000 </v>
   <v>       0.00000000       0.25000000       0.75000000 </v>
   <v>       0.00000000       0.50000000       0.00000000 </v>
   <v>       0.25000000       0.50000000       0.25000000 </v>
   <v>       0.00000000       0.50000000       0.50000000 </v>
   <v>       0.75000000       0.25000000       0.00000000 </v>
   <v>       0.75000000       0.00000000       0.25000000 </v>
   <v>       0.50000000       0.25000000       0.25000000 </v>
   <v>       0.50000000       0.25000000       0.75000000 </v>
   <v>       0.75000000       0.50000000       0.25000000 </v>
   <v>       0.50000000       0.75000000       0.25000000 </v>
   <v>       0.50000000       0.50000000       0.50000000 </v>
   <v>       0.75000000       0.50000000       0.75000000 </v>
   <v>       0.50000000       0.75000000       0.75000000 </v>
  </varray>
 </structure>
 <calculation>
  <scstep>
   <time name="dav">    1.30    1.33</time>
   <time name="total">    1.37    1.49</time>
   <energy>
    <i name="alphaZ">   1526.20596848 </i>
    <i name="ewald"> -22516.19513781 </i>
    <i name="hartreedc">  -6170.72049882 </i>
    <i name="XCdc">    238.62603023 </i>
    <i name="pawpsdc">  21137.74008506 </i>
    <i name="pawaedc"> -20313.83370580 </i>
    <i name="eentropy">      0.00554323 </i>
    <i name="bandstr">   1621.78400272 </i>
    <i name="atom">  26512.79889947 </i>
    <i name="e_fr_energy">   2036.41118675 </i>
    <i name="e_wo_entrp">   2036.40564352 </i>
    <i name="e_0_energy">   2036.40933900 </i>
   </energy>
  </scstep>
  <scstep>
   <time name="dav">    1.34    1.35</time>
   <time name="total">    1.34    1.36</time>
   <energy>
    <i name="e_fr_energy">    137.15956991 </i>
    <i name="e_wo_entrp">    137.15958288 </i>
    <i name="e_0_energy">    137.15957424 </i>
   </energy>
  </scstep>
  <scstep>
   <time name="dav">    1.48    1.49</time>
   <time name="total">    1.48    1.49</time>
   <energy>
    <i name="e_fr_energy">    -64.71417679 </i>
    <i name="e_wo_entrp">    -64.73243660 </i>
    <i name="e_0_energy">    -64.72026339 </i>
   </energy>
  </scstep>
  <scstep>
   <time name="dav">    1.75    1.77</time>
   <time name="total">    1.75    1.78</time>
   <energy>
    <i name="e_fr_energy">    -81.16594770 </i>
    <i name="e_wo_entrp">    -81.22336923 </i>
    <i name="e_0_energy">    -81.18508821 </i>
   </energy>
  </scstep>
  <scstep>
   <time name="dav">    1.58    1.74</time>
   <time name="total">    1.65    1.84</time>
   <energy>
    <i name="e_fr_energy">    -81.53395114 </i>
    <i name="e_wo_entrp">    -81.59227185 </i>
    <i name="e_0_energy">    -81.55339137 </i>
   </energy>
  </scstep>
  <scstep>
   <time name="diag">    0.14    0.21</time>
   <time name="diis">    0.78    0.78</time>
   <time name="orth">    0.02    0.02</time>
   <time name="total">    1.08    1.16</time>
   <energy>
    <i name="e_fr_energy">    -78.82984938 </i>
    <i name="e_wo_entrp">    -78.89716502 </i>
    <i name="e_0_energy">    -78.85228792 </i>
   </energy>
  </scstep>
  <scstep>
   <time name="diag">    0.13    0.13</time>
   <time name="diis">    0.93    0.94</time>
   <time name="orth">    0.02    0.02</time>
   <time name="total">    1.20    1.24</time>
   <energy>
    <i name="e_fr_energy">    -80.17871285 </i>
    <i name="e_wo_entrp">    -80.15398336 </i>
    <i name="e_0_energy">    -80.17046969 </i>
   </energy>
  </scstep>
  <scstep>
   <time name="diag">    0.16    0.16</time>
   <time name="diis">    0.81    0.82</time>
   <time name="orth">    0.02    0.02</time>
   <time name="total">    1.22    1.24</time>
   <energy>
    <i name="e_fr_energy">    -79.06258718 </i>
    <i name="e_wo_entrp">    -79.11630984 </i>
    <i name="e_0_energy">    -79.08049473 </i>
   </energy>
  </scstep>
  <scstep>
   <time name="diag">    0.19    0.19</time>
   <time name="diis">    1.83    1.84</time>
   <time name="orth">    0.02    0.02</time>
   <time name="total">    2.63    2.64</time>
   <energy>
    <i name="e_fr_energy">    -78.67040024 </i>
    <i name="e_wo_entrp">    -78.77154100 </i>
    <i name="e_0_energy">    -78.70411382 </i>
   </energy>
  </scstep>
  <scstep>
   <time name="diag">    0.13    0.13</time>
   <time name="diis">    0.78    0.78</time>
   <time name="orth">    0.02    0.02</time>
   <time name="total">    1.06    1.07</time>
   <energy>
    <i name="e_fr_energy">    -78.59121942 </i>
    <i name="e_wo_entrp">    -78.66683650 </i>
    <i name="e_0_energy">    -78.61642511 </i>
   </energy>
  </scstep>
  <scstep>
   <time name="diag">    0.13    0.13</time>
   <time name="diis">    0.78    0.79</time>
   <time name="orth">    0.02    0.02</time>
   <time name="total">    1.06    1.07</time>
   <energy>
    <i name="e_fr_energy">    -78.58225811 </i>
    <i name="e_wo_entrp">    -78.65235885 </i>
    <i name="e_0_energy">    -78.60562502 </i>
   </energy>
  </scstep>
  <scstep>
   <time name="diag">    0.14    0.14</time>
   <time name="diis">    0.81    0.81</time>
   <time name="orth">    0.02    0.02</time>
   <time name="total">    1.08    1.09</time>
   <energy>
    <i name="e_fr_energy">    -78.63190175 </i>
    <i name="e_wo_entrp">    -78.69666972 </i>
    <i name="e_0_energy">    -78.65349107 </i>
   </energy>
  </scstep>
  <scstep>
   <time name="diag">    0.13    0.13</time>
   <time name="diis">    0.80    0.81</time>
   <time name="orth">    0.04    0.04</time>
   <time name="total">    1.09    1.10</time>
   <energy>
    <i name="e_fr_energy">    -78.58451609 </i>
    <i name="e_wo_entrp">    -78.65803641 </i>
    <i name="e_0_energy">    -78.60902286 </i>
   </energy>
  </scstep>
  <scstep>
   <time name="diag">    0.14    0.14</time>
   <time name="diis">    0.78    0.79</time>
   <time name="orth">    0.02    0.02</time>
   <time name="total">    1.08    1.09</time>
   <energy>
    <i name="e_fr_energy">    -78.56953818 </i>
    <i name="e_wo_entrp">    -78.64720518 </i>
    <i name="e_0_energy">    -78.59542718 </i>
   </energy>
  </scstep>
  <scstep>
   <time name="diag">    0.14    0.14</time>
   <time name="diis">    0.78    0.78</time>
   <time name="orth">    0.02    0.02</time>
   <time name="total">    1.07    1.09</time>
   <energy>
    <i name="e_fr_energy">    -78.56109611 </i>
    <i name="e_wo_entrp">    -78.63791824 </i>
    <i name="e_0_energy">    -78.58670348 </i>
   </energy>
  </scstep>
  <scstep>
   <time name="diag">    0.14    0.14</time>
   <time name="diis">    0.84    0.84</time>
   <time name="orth">    0.02    0.02</time>
   <time name="total">    1.16    1.17</time>
   <energy>
    <i name="e_fr_energy">    -78.55975017 </i>
    <i name="e_wo_entrp">    -78.63903922 </i>
    <i name="e_0_energy">    -78.58617985 </i>
   </energy>
  </scstep>
  <scstep>
   <time name="diag">    0.15    0.15</time>
   <time name="diis">    0.67    0.91</time>
   <time name="orth">    0.02    0.02</time>
   <time name="total">    0.95    1.23</time>
   <energy>
    <i name="e_fr_energy">    -78.55946536 </i>
    <i name="e_wo_entrp">    -78.63756904 </i>
    <i name="e_0_energy">    -78.58549992 </i>
   </energy>
  </scstep>
  <scstep>
   <time name="diag">    0.15    0.20</time>
   <time name="diis">    0.72    0.81</time>
   <time name="orth">    0.02    0.02</time>
   <time name="total">    1.01    1.17</time>
   <energy>
    <i name="e_fr_energy">    -78.55928589 </i>
    <i name="e_wo_entrp">    -78.63671486 </i>
    <i name="e_0_energy">    -78.58509555 </i>
   </energy>
  </scstep>
  <scstep>
   <time name="diag">    0.14    0.14</time>
   <time name="diis">    0.78    0.78</time>
   <time name="orth">    0.02    0.02</time>
   <time name="total">    1.08    1.12</time>
   <energy>
    <i name="e_fr_energy">    -78.55947194 </i>
    <i name="e_wo_entrp">    -78.63661169 </i>
    <i name="e_0_energy">    -78.58518519 </i>
   </energy>
  </scstep>
  <scstep>
   <time name="diag">    0.18    0.18</time>
   <time name="diis">    0.64    0.64</time>
   <time name="orth">    0.02    0.02</time>
   <time name="total">    0.99    1.00</time>
   <energy>
    <i name="e_fr_energy">    -78.55934285 </i>
    <i name="e_wo_entrp">    -78.63692145 </i>
    <i name="e_0_energy">    -78.58520239 </i>
   </energy>
  </scstep>
  <scstep>
   <time name="diag">    0.13    0.13</time>
   <time name="diis">    0.50    0.51</time>
   <time name="orth">    0.02    0.02</time>
   <time name="total">    0.73    0.76</time>
   <energy>
    <i name="alphaZ">   1526.20596848 </i>
    <i name="ewald"> -22516.19513781 </i>
    <i name="hartreedc">  -5970.81716291 </i>
    <i name="XCdc">    228.77729095 </i>
    <i name="pawpsdc">  20526.33492035 </i>
    <i name="pawaedc"> -19703.39024288 </i>
    <i name="eentropy">      0.07731172 </i>
    <i name="bandstr">   -682.35119541 </i>
    <i name="atom">  26512.79889947 </i>
    <i name="e_fr_energy">    -78.55934803 </i>
    <i name="e_wo_entrp">    -78.63665976 </i>
    <i name="e_0_energy">    -78.58511861 </i>
   </energy>
  </scstep>
  <structure>
   <crystal>
    <varray name="basis" >
     <v>      10.35204000       0.00000000       0.00000000 </v>
     <v>       0.00000000      10.35204000       0.00000000 </v>
     <v>       0.00000000       0.00000000      10.35204000 </v>
    </varray>
    <i name="volume">   1109.37359393 </i>
    <varray name="rec_basis" >
     <v>       0.09659932       0.00000000       0.00000000 </v>
     <v>       0.00000000       0.09659932       0.00000000 </v>
     <v>       0.00000000       0.00000000       0.09659932 </v>
    </varray>
   </crystal>
   <varray name="positions" >
    <v>       0.25000000       0.25000000       0.00000000 </v>
    <v>       0.00000000       0.25000000       0.25000000 </v>
    <v>       0.00000000       0.00000000       0.50000000 </v>
    <v>       0.25000000       0.00000000       0.75000000 </v>
    <v>       0.25000000       0.75000000       0.00000000 </v>
    <v>       0.00000000       0.75000000       0.25000000 </v>
    <v>       0.25000000       0.75000000       0.50000000 </v>
    <v>       0.25000000       0.50000000       0.75000000 </v>
    <v>       0.00000000       0.75000000       0.75000000 </v>
    <v>       0.50000000       0.00000000       0.00000000 </v>
    <v>       0.50000000       0.00000000       0.50000000 </v>
    <v>       0.75000000       0.25000000       0.50000000 </v>
    <v>       0.75000000       0.00000000       0.75000000 </v>
    <v>       0.50000000       0.50000000       0.00000000 </v>
    <v>       0.75000000       0.75000000       0.00000000 </v>
    <v>       0.75000000       0.75000000       0.50000000 </v>
    <v>       0.00000000       0.00000000       0.00000000 </v>
    <v>       0.25000000       0.00000000       0.25000000 </v>
    <v>       0.25000000       0.25000000       0.50000000 </v>
    <v>       0.00000000       0.25000000       0.75000000 </v>
    <v>       0.00000000       0.50000000       0.00000000 </v>
    <v>       0.25000000       0.50000000       0.25000000 </v>
    <v>       0.00000000       0.50000000       0.50000000 </v>
    <v>       0.75000000       0.25000000       0.00000000 </v>
    <v>       0.75000000       0.00000000       0.25000000 </v>
    <v>       0.50000000       0.25000000       0.25000000 </v>
    <v>       0.50000000       0.25000000       0.75000000 </v>
    <v>       0.75000000       0.50000000       0.25000000 </v>
    <v>       0.50000000       0.75000000       0.25000000 </v>
    <v>       0.50000000       0.50000000       0.50000000 </v>
    <v>       0.75000000       0.50000000       0.75000000 </v>
    <v>       0.50000000       0.75000000       0.75000000 </v>
   </varray>
  </structure>
  <varray name="forces" >
   <v>      -0.08071821       0.00038889       0.07127921 </v>
   <v>       0.00744875       0.06145410      -0.07265260 </v>
   <v>       0.08372060       0.17903030      -0.08486200 </v>
   <v>       0.00402477       0.15619713       0.00126254 </v>
   <v>      -0.00305061       0.00930831       0.15639432 </v>
   <v>       0.00270145      -0.05763046      -0.07825550 </v>
   <v>       0.16930296      -0.16289631      -0.16061479 </v>
   <v>      -0.00247655      -0.14277826      -0.15448953 </v>
   <v>      -0.08596485      -0.16240866       0.09611148 </v>
   <v>       0.07209327       0.05867754       0.13484096 </v>
   <v>      -0.07756036       0.06455420      -0.13605438 </v>
   <v>      -0.07448666       0.22099826       0.00354245 </v>
   <v>      -0.00549951       0.15597449       0.16749357 </v>
   <v>       0.14562156      -0.06066448       0.06254440 </v>
   <v>      -0.00127126      -0.07624178       0.07206228 </v>
   <v>      -0.15011522      -0.22424271      -0.07833268 </v>
   <v>      -0.08648033       0.16092553       0.05778471 </v>
   <v>       0.09265837       0.06876941       0.01649334 </v>
   <v>       0.08712709       0.16440585      -0.06811657 </v>
   <v>      -0.07579445       0.13870944       0.07605034 </v>
   <v>      -0.18289599      -0.16810323       0.00027725 </v>
   <v>       0.07370780      -0.07796732       0.17960352 </v>
   <v>       0.00786635      -0.15535905       0.01517263 </v>
   <v>       0.08298588       0.07676240      -0.01220427 </v>
   <v>      -0.09875529       0.07739815      -0.17775428 </v>
   <v>      -0.01073760       0.06696932       0.08818221 </v>
   <v>       0.08634709       0.15507143      -0.09070883 </v>
   <v>      -0.08211399      -0.07770665       0.00288526 </v>
   <v>      -0.00253625      -0.06114190       0.08514345 </v>
   <v>      -0.00453303      -0.06663514      -0.06529634 </v>
   <v>       0.01586081      -0.15019897      -0.00371212 </v>
   <v>       0.09352340      -0.17161983      -0.10407003 </v>
  </varray>
  <varray name="stress" >
   <v>    -161.98345380       0.03323534      -0.07611772 </v>
   <v>       0.03323530    -161.36274264       0.01545495 </v>
   <v>      -0.07611777       0.01545497    -161.46099666 </v>
  </varray>
  <energy>
   <i name="e_fr_energy">    -78.55934803 </i>
   <i name="e_wo_entrp">    -78.58511861 </i>
   <i name="e_0_energy">      0.07731172 </i>
  </energy>
  <time name="totalsc">   28.20   29.33</time>
 </calculation>
 <calculation>
  <scstep>
   <time name="dav">    1.54    1.55</time>
   <time name="total">    1.65    1.66</time>
   <energy>
    <i name="alphaZ">   1783.51260756 </i>
    <i name="ewald"> -23717.74925844 </i>
    <i name="hartreedc">  -6287.95256002 </i>
    <i name="XCdc">    275.91578071 </i>
    <i name="pawpsdc">  20527.39514770 </i>
    <i name="pawaedc"> -19704.43046841 </i>
    <i name="eentropy">     -0.06724827 </i>
    <i name="bandstr">    384.71085527 </i>
    <i name="atom">  26512.79889947 </i>
    <i name="e_fr_energy">   -225.86624442 </i>
    <i name="e_wo_entrp">   -225.79899615 </i>
    <i name="e_0_energy">   -225.84382833 </i>
   </energy>
  </scstep>
  <scstep>
   <time name="diag">    0.13    0.14</time>
   <time name="diis">    0.84    0.84</time>
   <time name="orth">    0.02    0.02</time>
   <time name="total">    1.10    1.11</time>
   <energy>
    <i name="e_fr_energy">   -100.92438391 </i>
    <i name="e_wo_entrp">   -100.91584832 </i>
    <i name="e_0_energy">   -100.92153871 </i>
   </energy>
  </scstep>
  <scstep>
   <time name="diag">    0.13    0.13</time>
   <time name="diis">    0.80    0.84</time>
   <time name="orth">    0.02    0.02</time>
   <time name="total">    1.07    1.14</time>
   <energy>
    <i name="e_fr_energy">   -113.64552310 </i>
    <i name="e_wo_entrp">   -113.61178886 </i>
    <i name="e_0_energy">   -113.63427835 </i>
   </energy>
  </scstep>
  <scstep>
   <time name="diag">    0.15    0.16</time>
   <time name="diis">    0.76    0.90</time>
   <time name="orth">    0.02    0.02</time>
   <time name="total">    1.05    1.21</time>
   <energy>
    <i name="e_fr_energy">   -106.28018728 </i>
    <i name="e_wo_entrp">   -106.27465721 </i>
    <i name="e_0_energy">   -106.27834392 </i>
   </energy>
  </scstep>
  <scstep>
   <time name="diag">    0.16    0.16</time>
   <time name="diis">    0.76    0.93</time>
   <time name="orth">    0.02    0.03</time>
   <time name="total">    1.09    1.28</time>
   <energy>
    <i name="e_fr_energy">   -100.84131009 </i>
    <i name="e_wo_entrp">   -100.83257603 </i>
    <i name="e_0_energy">   -100.83839874 </i>
   </energy>
  </scstep>
  <scstep>
   <time name="diag">    0.15    0.19</time>
   <time name="diis">    0.81    0.91</time>
   <time name="orth">    0.03    0.04</time>
   <time name="total">    1.12    1.27</time>
   <energy>
    <i name="e_fr_energy">    -98.71351108 </i>
    <i name="e_wo_entrp">    -98.74037074 </i>
    <i name="e_0_energy">    -98.72246430 </i>
   </energy>
  </scstep>
  <scstep>
   <time name="diag">    0.13    0.15</time>
   <time name="diis">    0.83    0.90</time>
   <time name="orth">    0.02    0.02</time>
   <time name="total">    1.09    1.20</time>
   <energy>
    <i name="e_fr_energy">    -98.09660726 </i>
    <i name="e_wo_entrp">    -98.12339875 </i>
    <i name="e_0_energy">    -98.10553776 </i>
   </energy>
  </scstep>
  <scstep>
   <time name="diag">    0.13    0.15</time>
   <time name="diis">    0.80    0.89</time>
   <time name="orth">    0.02    0.02</time>
   <time name="total">    1.07    1.19</time>
   <energy>
    <i name="e_fr_energy">    -97.11605038 </i>
    <i name="e_wo_entrp">    -97.13236031 </i>
    <i name="e_0_energy">    -97.12148702 </i>
   </energy>
  </scstep>
  <scstep>
   <time name="diag">    0.14    0.15</time>
   <time name="diis">    0.79    0.87</time>
   <time name="orth">    0.02    0.02</time>
   <time name="total">    1.07    1.18</time>
   <energy>
    <i name="e_fr_energy">    -98.04789607 </i>
    <i name="e_wo_entrp">    -98.04450039 </i>
    <i name="e_0_energy">    -98.04676418 </i>
   </energy>
  </scstep>
  <scstep>
   <time name="diag">    0.14    0.14</time>
   <time name="diis">    0.95    0.96</time>
   <time name="orth">    0.02    0.02</time>
   <time name="total">    1.26    1.28</time>
   <energy>
    <i name="e_fr_energy">    -97.14472787 </i>
    <i name="e_wo_entrp">    -97.15346858 </i>
    <i name="e_0_energy">    -97.14764144 </i>
   </energy>
  </scstep>
  <scstep>
   <time name="diag">    0.18    0.18</time>
   <time name="diis">    0.83    0.84</time>
   <time name="orth">    0.02    0.02</time>
   <time name="total">    1.17    1.18</time>
   <energy>
    <i name="e_fr_energy">    -97.04488539 </i>
    <i name="e_wo_entrp">    -97.06501143 </i>
    <i name="e_0_energy">    -97.05159407 </i>
   </energy>
  </scstep>
  <scstep>
   <time name="diag">    0.14    0.14</time>
   <time name="diis">    0.84    0.84</time>
   <time name="orth">    0.02    0.02</time>
   <time name="total">    1.12    1.14</time>
   <energy>
    <i name="e_fr_energy">    -96.97872334 </i>
    <i name="e_wo_entrp">    -97.00223062 </i>
    <i name="e_0_energy">    -96.98655910 </i>
   </energy>
  </scstep>
  <scstep>
   <time name="diag">    0.13    0.13</time>
   <time name="diis">    0.91    0.92</time>
   <time name="orth">    0.02    0.02</time>
   <time name="total">    1.18    1.23</time>
   <energy>
    <i name="e_fr_energy">    -96.97268054 </i>
    <i name="e_wo_entrp">    -97.00991573 </i>
    <i name="e_0_energy">    -96.98509227 </i>
   </energy>
  </scstep>
  <scstep>
   <time name="diag">    0.18    0.19</time>
   <time name="diis">    0.81    0.81</time>
   <time name="orth">    0.03    0.03</time>
   <time name="total">    1.13    1.16</time>
   <energy>
    <i name="e_fr_energy">    -96.88407415 </i>
    <i name="e_wo_entrp">    -96.90568968 </i>
    <i name="e_0_energy">    -96.89127933 </i>
   </energy>
  </scstep>
  <scstep>
   <time name="diag">    0.13    0.14</time>
   <time name="diis">    0.84    0.85</time>
   <time name="orth">    0.02    0.02</time>
   <time name="total">    1.11    1.17</time>
   <energy>
    <i name="e_fr_energy">    -96.85884965 </i>
    <i name="e_wo_entrp">    -96.88059096 </i>
    <i name="e_0_energy">    -96.86609675 </i>
   </energy>
  </scstep>
  <scstep>
   <time name="diag">    0.14    0.14</time>
   <time name="diis">    0.99    1.00</time>
   <time name="orth">    0.02    0.02</time>
   <time name="total">    1.27    1.28</time>
   <energy>
    <i name="e_fr_energy">    -96.85904670 </i>
    <i name="e_wo_entrp">    -96.88049887 </i>
    <i name="e_0_energy">    -96.86619742 </i>
   </energy>
  </scstep>
  <scstep>
   <time name="diag">    0.14    0.14</time>
   <time name="diis">    0.76    0.88</time>
   <time name="orth">    0.02    0.02</time>
   <time name="total">    1.03    1.16</time>
   <energy>
    <i name="e_fr_energy">    -96.85742579 </i>
    <i name="e_wo_entrp">    -96.87903456 </i>
    <i name="e_0_energy">    -96.86462871 </i>
   </energy>
  </scstep>
  <scstep>
   <time name="diag">    0.13    0.13</time>
   <time name="diis">    0.79    0.89</time>
   <time name="orth">    0.02    0.02</time>
   <time name="total">    1.09    1.19</time>
   <energy>
    <i name="e_fr_energy">    -96.85664758 </i>
    <i name="e_wo_entrp">    -96.87826882 </i>
    <i name="e_0_energy">    -96.86385466 </i>
   </energy>
  </scstep>
  <scstep>
   <time name="diag">    0.25    0.25</time>
   <time name="diis">    0.94    0.96</time>
   <time name="orth">    0.02    0.02</time>
   <time name="total">    1.32    1.37</time>
   <energy>
    <i name="e_fr_energy">    -96.85612355 </i>
    <i name="e_wo_entrp">    -96.87723926 </i>
    <i name="e_0_energy">    -96.86316212 </i>
   </energy>
  </scstep>
  <scstep>
   <time name="diag">    0.13    0.13</time>
   <time name="diis">    0.80    0.80</time>
   <time name="orth">    0.02    0.02</time>
   <time name="total">    1.33    1.37</time>
   <energy>
    <i name="e_fr_energy">    -96.85609310 </i>
    <i name="e_wo_entrp">    -96.87718326 </i>
    <i name="e_0_energy">    -96.86312315 </i>
   </energy>
  </scstep>
  <scstep>
   <time name="diag">    0.14    0.16</time>
   <time name="diis">    1.02    1.16</time>
   <time name="orth">    0.02    0.02</time>
   <time name="total">    1.38    1.57</time>
   <energy>
    <i name="e_fr_energy">    -96.85599326 </i>
    <i name="e_wo_entrp">    -96.87704583 </i>
    <i name="e_0_energy">    -96.86301078 </i>
   </energy>
  </scstep>
  <scstep>
   <time name="diag">    0.14    0.14</time>
   <time name="diis">    0.68    0.69</time>
   <time name="orth">    0.03    0.03</time>
   <time name="total">    1.00    1.04</time>
   <energy>
    <i name="alphaZ">   1783.51260756 </i>
    <i name="ewald"> -23717.74925844 </i>
    <i name="hartreedc">  -5270.58213268 </i>
    <i name="XCdc">    233.91436956 </i>
    <i name="pawpsdc">  20509.82197189 </i>
    <i name="pawaedc"> -19696.25286180 </i>
    <i name="eentropy">      0.02097921 </i>
    <i name="bandstr">   -452.34056419 </i>
    <i name="atom">  26512.79889947 </i>
    <i name="e_fr_energy">    -96.85598941 </i>
    <i name="e_wo_entrp">    -96.87696863 </i>
    <i name="e_0_energy">    -96.86298248 </i>
   </energy>
  </scstep>
  <structure>
   <crystal>
    <varray name="basis" >
     <v>       9.82691063       0.00010774      -0.00024676 </v>
     <v>       0.00010774       9.82892290       0.00005010 </v>
     <v>      -0.00024676       0.00005010       9.82860437 </v>
    </varray>
    <i name="volume">    949.32471637 </i>
    <varray name="rec_basis" >
     <v>       0.10176138      -0.00000112       0.00000255 </v>
     <v>      -0.00000112       0.10174055      -0.00000052 </v>
     <v>       0.00000255      -0.00000052       0.10174385 </v>
    </varray>
   </crystal>
   <varray name="positions" >
    <v>       0.24988715       0.25000054       0.00009965 </v>
    <v>       0.00001041       0.25008592       0.24989843 </v>
    <v>       0.00011705       0.00025030       0.49988136 </v>
    <v>       0.25000563       0.00021837       0.75000177 </v>
    <v>       0.24999574       0.75001301       0.00021865 </v>
    <v>       0.00000378       0.74991943       0.24989059 </v>
    <v>       0.25023670       0.74977226       0.49977545 </v>
    <v>       0.24999654       0.49980039       0.74978401 </v>
    <v>      -0.00012018       0.74977294       0.75013437 </v>
    <v>       0.50010079       0.00008203       0.00018852 </v>
    <v>       0.49989157       0.00009025       0.49980979 </v>
    <v>       0.74989586       0.25030897       0.50000495 </v>
    <v>       0.74999231       0.00021806       0.75023417 </v>
    <v>       0.50020359       0.49991519       0.00008744 </v>
    <v>       0.74999822       0.74989341       0.00010075 </v>
    <v>       0.74979013       0.74968649       0.49989049 </v>
    <v>      -0.00012090       0.00022498       0.00008079 </v>
    <v>       0.25012954       0.00009614       0.25002306 </v>
    <v>       0.25012181       0.25022985       0.49990477 </v>
    <v>      -0.00010597       0.25019392       0.75010632 </v>
    <v>      -0.00025570       0.49976498       0.00000039 </v>
    <v>       0.25010305       0.49989100       0.25025110 </v>
    <v>       0.00001100       0.49978280       0.50002121 </v>
    <v>       0.75011602       0.25010732      -0.00001706 </v>
    <v>       0.74986193       0.00010821       0.24975149 </v>
    <v>       0.49998499       0.25009363       0.25012328 </v>
    <v>       0.50012072       0.25021680       0.74987318 </v>
    <v>       0.74988520       0.49989136       0.25000403 </v>
    <v>       0.49999645       0.74991452       0.25011904 </v>
    <v>       0.49999366       0.49990684       0.49990871 </v>
    <v>       0.75002217       0.49979001       0.74999481 </v>
    <v>       0.50013075       0.74976006       0.74985450 </v>
   </varray>
  </structure>
  <varray name="forces" >
   <v>      -0.09359469      -0.00134921       0.07880670 </v>
   <v>       0.00796156       0.06834016      -0.08166162 </v>
   <v>       0.09189468       0.19575010      -0.09143346 </v>
   <v>       0.00341044       0.17075048       0.00181507 </v>
   <v>      -0.00461046       0.00908992       0.17183820 </v>
   <v>       0.00343000      -0.06492193      -0.08722698 </v>
   <v>       0.18721745      -0.17833187      -0.17382142 </v>
   <v>      -0.00224937      -0.15775420      -0.17109108 </v>
   <v>      -0.09158261      -0.17368854       0.10275005 </v>
   <v>       0.08169724       0.06528543       0.14789652 </v>
   <v>      -0.08715698       0.07302016      -0.15022572 </v>
   <v>      -0.08041985       0.24670305       0.00500237 </v>
   <v>      -0.00450936       0.17022442       0.18120746 </v>
   <v>       0.16382573      -0.06945562       0.06915783 </v>
   <v>      -0.00191516      -0.08249532       0.07738981 </v>
   <v>      -0.16766827      -0.24824000      -0.08575400 </v>
   <v>      -0.10604113       0.20158887       0.07468580 </v>
   <v>       0.11472434       0.08504866       0.01675083 </v>
   <v>       0.10687090       0.20673062      -0.08473023 </v>
   <v>      -0.09316825       0.17350119       0.09288552 </v>
   <v>      -0.22386376      -0.21166849       0.00429978 </v>
   <v>       0.09111589      -0.09654508       0.22196905 </v>
   <v>       0.01127814      -0.19944986       0.01729791 </v>
   <v>       0.10741458       0.09411065      -0.01512707 </v>
   <v>      -0.12160617       0.09769231      -0.22265191 </v>
   <v>      -0.01424212       0.08544793       0.11204319 </v>
   <v>       0.10185554       0.19020057      -0.10993671 </v>
   <v>      -0.10243699      -0.09428562       0.00000340 </v>
   <v>      -0.00347749      -0.07604492       0.10585802 </v>
   <v>      -0.00644969      -0.08530549      -0.08550127 </v>
   <v>       0.02224616      -0.18839741      -0.00078975 </v>
   <v>       0.11004968      -0.20555096      -0.12170631 </v>
  </varray>
  <varray name="stress" >
   <v>    -204.93934485       0.12415286      -0.11952223 </v>
   <v>       0.12415287    -203.63624308       0.15457113 </v>
   <v>      -0.11952235       0.15457114    -203.99732895 </v>
  </varray>
  <energy>
   <i name="e_fr_energy">    -96.85598941 </i>
   <i name="e_wo_entrp">    -96.86298248 </i>
   <i name="e_0_energy">      0.02097921 </i>
  </energy>
  <time name="totalsc">   28.38   30.11</time>
 </calculation>
 <calculation>
  <scstep>
   <time name="dav">    1.71    1.73</time>
   <time name="total">    1.82    1.85</time>
   <energy>
    <i name="alphaZ">   2487.54526647 </i>
    <i name="ewald"> -26502.22575873 </i>
    <i name="hartreedc">  -5886.23116201 </i>
    <i name="XCdc">    340.55552377 </i>
    <i name="pawpsdc">  20509.93160572 </i>
    <i name="pawaedc"> -19696.33650944 </i>
    <i name="eentropy">     -0.07234564 </i>
    <i name="bandstr">   1602.74931393 </i>
    <i name="atom">  26512.79889947 </i>
    <i name="e_fr_energy">   -631.28516647 </i>
    <i name="e_wo_entrp">   -631.21282082 </i>
    <i name="e_0_energy">   -631.26105125 </i>
   </energy>
  </scstep>
  <scstep>
   <time name="diag">    0.19    0.19</time>
   <time name="diis">    0.91    0.92</time>
   <time name="orth">    0.02    0.02</time>
   <time name="total">    1.26    1.28</time>
   <energy>
    <i name="e_fr_energy">   -149.30065658 </i>
    <i name="e_wo_entrp">   -149.27492571 </i>
    <i name="e_0_energy">   -149.29207962 </i>
   </energy>
  </scstep>
  <scstep>
   <time name="diag">    0.13    0.13</time>
   <time name="diis">    0.91    0.92</time>
   <time name="orth">    0.02    0.02</time>
   <time name="total">    1.17    1.19</time>
   <energy>
    <i name="e_fr_energy">   -148.81653866 </i>
    <i name="e_wo_entrp">   -148.78176611 </i>
    <i name="e_0_energy">   -148.80494781 </i>
   </energy>
  </scstep>
  <scstep>
   <time name="diag">    0.13    0.13</time>
   <time name="diis">    0.90    0.91</time>
   <time name="orth">    0.02    0.02</time>
   <time name="total">    1.17    1.19</time>
   <energy>
    <i name="e_fr_energy">   -135.62652371 </i>
    <i name="e_wo_entrp">   -135.60214835 </i>
    <i name="e_0_energy">   -135.61839859 </i>
   </energy>
  </scstep>
  <scstep>
   <time name="diag">    0.13    0.13</time>
   <time name="diis">    0.88    0.98</time>
   <time name="orth">    0.02    0.02</time>
   <time name="total">    1.15    1.25</time>
   <energy>
    <i name="e_fr_energy">   -134.82255310 </i>
    <i name="e_wo_entrp">   -134.82592894 </i>
    <i name="e_0_energy">   -134.82367838 </i>
   </energy>
  </scstep>
  <scstep>
   <time name="diag">    0.23    0.24</time>
   <time name="diis">    0.96    0.96</time>
   <time name="orth">    0.02    0.02</time>
   <time name="total">    1.38    1.39</time>
   <energy>
    <i name="e_fr_energy">   -135.16215922 </i>
    <i name="e_wo_entrp">   -135.14469785 </i>
    <i name="e_0_energy">   -135.15633877 </i>
   </energy>
  </scstep>
  <scstep>
   <time name="diag">    0.13    0.14</time>
   <time name="diis">    0.90    0.95</time>
   <time name="orth">    0.02    0.02</time>
   <time name="total">    1.17    1.24</time>
   <energy>
    <i name="e_fr_energy">   -135.27589792 </i>
    <i name="e_wo_entrp">   -135.26737952 </i>
    <i name="e_0_energy">   -135.27305845 </i>
   </energy>
  </scstep>
  <scstep>
   <time name="diag">    0.14    0.14</time>
   <time name="diis">    0.95    0.96</time>
   <time name="orth">    0.02    0.02</time>
   <time name="total">    1.23    1.26</time>
   <energy>
    <i name="e_fr_energy">   -134.80577819 </i>
    <i name="e_wo_entrp">   -134.79982369 </i>
    <i name="e_0_energy">   -134.80379336 </i>
   </energy>
  </scstep>
  <scstep>
   <time name="diag">    0.14    0.14</time>
   <time name="diis">    0.91    0.94</time>
   <time name="orth">    0.02    0.02</time>
   <time name="total">    1.20    1.25</time>
   <energy>
    <i name="e_fr_energy">   -134.74217504 </i>
    <i name="e_wo_entrp">   -134.72549775 </i>
    <i name="e_0_energy">   -134.73661594 </i>
   </energy>
  </scstep>
  <scstep>
   <time name="diag">    0.14    0.14</time>
   <time name="diis">    0.91    0.92</time>
   <time name="orth">    0.02    0.02</time>
   <time name="total">    1.19    1.23</time>
   <energy>
    <i name="e_fr_energy">   -134.73114128 </i>
    <i name="e_wo_entrp">   -134.71656321 </i>
    <i name="e_0_energy">   -134.72628192 </i>
   </energy>
  </scstep>
  <scstep>
   <time name="diag">    0.14    0.14</time>
   <time name="diis">    1.09    1.10</time>
   <time name="orth">    0.02    0.02</time>
   <time name="total">    1.37    1.39</time>
   <energy>
    <i name="e_fr_energy">   -134.72760333 </i>
    <i name="e_wo_entrp">   -134.71356590 </i>
    <i name="e_0_energy">   -134.72292419 </i>
   </energy>
  </scstep>
  <scstep>
   <time name="diag">    0.18    0.18</time>
   <time name="diis">    0.91    0.92</time>
   <time name="orth">    0.02    0.02</time>
   <time name="total">    1.23    1.24</time>
   <energy>
    <i name="e_fr_energy">   -134.72572447 </i>
    <i name="e_wo_entrp">   -134.71186970 </i>
    <i name="e_0_energy">   -134.72110622 </i>
   </energy>
  </scstep>
  <scstep>
   <time name="diag">    0.13    0.13</time>
   <time name="diis">    0.94    0.95</time>
   <time name="orth">    0.02    0.02</time>
   <time name="total">    1.22    1.24</time>
   <energy>
    <i name="e_fr_energy">   -134.72511317 </i>
    <i name="e_wo_entrp">   -134.71124723 </i>
    <i name="e_0_energy">   -134.72049119 </i>
   </energy>
  </scstep>
  <scstep>
   <time name="diag">    0.17    0.17</time>
   <time name="diis">    1.00    1.01</time>
   <time name="orth">    0.02    0.02</time>
   <time name="total">    1.32    1.35</time>
   <energy>
    <i name="e_fr_energy">   -134.72510700 </i>
    <i name="e_wo_entrp">   -134.71111959 </i>
    <i name="e_0_energy">   -134.72044453 </i>
   </energy>
  </scstep>
  <scstep>
   <time name="diag">    0.13    0.13</time>
   <time name="diis">    0.93    0.94</time>
   <time name="orth">    0.02    0.02</time>
   <time name="total">    1.25    1.26</time>
   <energy>
    <i name="e_fr_energy">   -134.72507102 </i>
    <i name="e_wo_entrp">   -134.71116765 </i>
    <i name="e_0_energy">   -134.72043656 </i>
   </energy>
  </scstep>
  <scstep>
   <time name="diag">    0.13    0.13</time>
   <time name="diis">    0.62    0.62</time>
   <time name="orth">    0.02    0.02</time>
   <time name="total">    0.90    0.91</time>
   <energy>
    <i name="e_fr_energy">   -134.72506031 </i>
    <i name="e_wo_entrp">   -134.71111275 </i>
    <i name="e_0_energy">   -134.72041112 </i>
   </energy>
  </scstep>
  <scstep>
   <time name="diag">    0.14    0.14</time>
   <time name="diis">    0.55    0.55</time>
   <time name="orth">    0.02    0.02</time>
   <time name="total">    0.76    0.78</time>
   <energy>
    <i name="alphaZ">   2487.54526647 </i>
    <i name="ewald"> -26502.22575873 </i>
    <i name="hartreedc">  -3860.89499673 </i>
    <i name="XCdc">    253.18403278 </i>
    <i name="pawpsdc">  20764.49578163 </i>
    <i name="pawaedc"> -19982.04160991 </i>
    <i name="eentropy">     -0.01396272 </i>
    <i name="bandstr">    192.42728592 </i>
    <i name="atom">  26512.79889947 </i>
    <i name="e_fr_energy">   -134.72506181 </i>
    <i name="e_wo_entrp">   -134.71109909 </i>
    <i name="e_0_energy">   -134.72040757 </i>
   </energy>
  </scstep>
  <structure>
   <crystal>
    <varray name="basis" >
     <v>       8.79276655       0.00031993      -0.00073272 </v>
     <v>       0.00031993       8.79874160       0.00014877 </v>
     <v>      -0.00073272       0.00014877       8.79779579 </v>
    </varray>
    <i name="volume">    680.64393567 </i>
    <varray name="rec_basis" >
     <v>       0.11372985      -0.00000414       0.00000947 </v>
     <v>      -0.00000414       0.11365262      -0.00000192 </v>
     <v>       0.00000947      -0.00000192       0.11366484 </v>
    </varray>
   </crystal>
   <varray name="positions" >
    <v>       0.24965305       0.25000167       0.00030635 </v>
    <v>       0.00003201       0.25026412       0.24968775 </v>
    <v>       0.00035985       0.00076944       0.49963527 </v>
    <v>       0.25001730       0.00067131       0.75000542 </v>
    <v>       0.24998690       0.75004000       0.00067217 </v>
    <v>       0.00001161       0.74975232       0.24966367 </v>
    <v>       0.25072773       0.74929990       0.49930971 </v>
    <v>       0.24998935       0.49938637       0.74933602 </v>
    <v>      -0.00036950       0.74930200       0.75041307 </v>
    <v>       0.50030989       0.00025218       0.00057954 </v>
    <v>       0.49966660       0.00027745       0.49941524 </v>
    <v>       0.74967982       0.25094981       0.50001522 </v>
    <v>       0.74997637       0.00067035       0.75071987 </v>
    <v>       0.50062595       0.49973927       0.00026882 </v>
    <v>       0.74999454       0.74967233       0.00030972 </v>
    <v>       0.74935474       0.74903625       0.49966333 </v>
    <v>      -0.00037173       0.00069163       0.00024834 </v>
    <v>       0.25039828       0.00029556       0.25007089 </v>
    <v>       0.25037450       0.25070658       0.49970724 </v>
    <v>      -0.00032579       0.25059615       0.75032685 </v>
    <v>      -0.00078616       0.49927753       0.00000118 </v>
    <v>       0.25031684       0.49966491       0.25077193 </v>
    <v>       0.00003382       0.49933229       0.50006521 </v>
    <v>       0.75035670       0.25032991      -0.00005245 </v>
    <v>       0.74957549       0.00033265       0.24923602 </v>
    <v>       0.49995385       0.25028782       0.25037900 </v>
    <v>       0.50037114       0.25066647       0.74961015 </v>
    <v>       0.74964704       0.49966603       0.25001240 </v>
    <v>       0.49998911       0.74973722       0.25036594 </v>
    <v>       0.49998051       0.49971362       0.49971936 </v>
    <v>       0.75006818       0.49935447       0.74998405 </v>
    <v>       0.50040200       0.74926241       0.74955273 </v>
   </varray>
  </structure>
  <varray name="forces" >
   <v>      -0.10360914      -0.00513085       0.08099038 </v>
   <v>       0.00503121       0.06999204      -0.08918422 </v>
   <v>       0.09722803       0.20219417      -0.09222021 </v>
   <v>       0.00439366       0.17356700       0.00244191 </v>
   <v>      -0.01445928       0.00852814       0.18358996 </v>
   <v>       0.00477084      -0.06725463      -0.09414151 </v>
   <v>       0.19278348      -0.17869094      -0.17283641 </v>
   <v>      -0.00475158      -0.16965881      -0.17523125 </v>
   <v>      -0.08529537      -0.16193664       0.09929281 </v>
   <v>       0.09242530       0.07155481       0.14980472 </v>
   <v>      -0.09861518       0.08513422      -0.15655615 </v>
   <v>      -0.07504167       0.26322856       0.00378564 </v>
   <v>      -0.00119758       0.17372824       0.17864986 </v>
   <v>       0.18076276      -0.08372332       0.07425119 </v>
   <v>      -0.00651156      -0.07914693       0.07772177 </v>
   <v>      -0.17534954      -0.25904039      -0.09180437 </v>
   <v>      -0.14788918       0.28485278       0.12250202 </v>
   <v>       0.16269982       0.12099963       0.00719775 </v>
   <v>       0.14702293       0.29750091      -0.11447929 </v>
   <v>      -0.12257655       0.25265067       0.12534751 </v>
   <v>      -0.30203637      -0.30993224       0.02524760 </v>
   <v>       0.11844404      -0.14111201       0.31087968 </v>
   <v>       0.01804083      -0.29991005       0.01472970 </v>
   <v>       0.15825637       0.12433793      -0.02024514 </v>
   <v>      -0.16877668       0.15161434      -0.33044780 </v>
   <v>      -0.02511690       0.12753468       0.16118363 </v>
   <v>       0.12744524       0.26821344      -0.14573215 </v>
   <v>      -0.14208432      -0.13297267      -0.01128606 </v>
   <v>      -0.00333560      -0.10873700       0.14681412 </v>
   <v>      -0.00690844      -0.12674425      -0.12427381 </v>
   <v>       0.03432269      -0.27928651       0.00829796 </v>
   <v>       0.13992773      -0.27235434      -0.15428982 </v>
  </varray>
  <varray name="stress" >
   <v>    -220.18948965       0.46696485      -0.13302897 </v>
   <v>       0.46696474    -215.95875431       0.76982759 </v>
   <v>      -0.13302918       0.76982745    -217.80370772 </v>
  </varray>
  <energy>
   <i name="e_fr_energy">   -134.72506181 </i>
   <i name="e_wo_entrp">   -134.72040757 </i>
   <i name="e_0_energy">     -0.01396272 </i>
  </energy>
  <time name="totalsc">   23.40   24.05</time>
 </calculation>
 <calculation>
  <scstep>
   <time name="dav">    2.25    2.40</time>
   <time name="total">    2.38    2.54</time>
   <energy>
    <i name="alphaZ">   5547.06653778 </i>
    <i name="ewald"> -34629.66344058 </i>
    <i name="hartreedc">  -5038.43847436 </i>
    <i name="XCdc">    550.64869512 </i>
    <i name="pawpsdc">  20764.40538700 </i>
    <i name="pawaedc"> -19981.93449356 </i>
    <i name="eentropy">     -0.01965940 </i>
    <i name="bandstr">   4682.93149083 </i>
    <i name="atom">  26512.79889947 </i>
    <i name="e_fr_energy">  -1592.20505770 </i>
    <i name="e_wo_entrp">  -1592.18539830 </i>
    <i name="e_0_energy">  -1592.19850457 </i>
   </energy>
  </scstep>
  <scstep>
   <time name="diag">    0.13    0.13</time>
   <time name="diis">    1.32    1.33</time>
   <time name="orth">    0.02    0.02</time>
   <time name="total">    1.60    1.65</time>
   <energy>
    <i name="e_fr_energy">   -217.97993668 </i>
    <i name="e_wo_entrp">   -217.96457318 </i>
    <i name="e_0_energy">   -217.97481552 </i>
   </energy>
  </scstep>
  <scstep>
   <time name="diag">    0.14    0.14</time>
   <time name="diis">    1.32    1.32</time>
   <time name="orth">    0.02    0.02</time>
   <time name="total">    1.59    1.61</time>
   <energy>
    <i name="e_fr_energy">     57.14105241 </i>
    <i name="e_wo_entrp">     57.15045889 </i>
    <i name="e_0_energy">     57.14418790 </i>
   </energy>
  </scstep>
  <scstep>
   <time name="diag">    0.13    0.13</time>
   <time name="diis">    1.43    1.43</time>
   <time name="orth">    0.02    0.02</time>
   <time name="total">    1.70    1.72</time>
   <energy>
    <i name="e_fr_energy">     64.08671061 </i>
    <i name="e_wo_entrp">     64.10216862 </i>
    <i name="e_0_energy">     64.09186328 </i>
   </energy>
  </scstep>
  <scstep>
   <time name="diag">    0.13    0.13</time>
   <time name="diis">    1.32    1.33</time>
   <time name="orth">    0.02    0.02</time>
   <time name="total">    1.62    1.64</time>
   <energy>
    <i name="e_fr_energy">     63.00243290 </i>
    <i name="e_wo_entrp">     63.01963482 </i>
    <i name="e_0_energy">     63.00816688 </i>
   </energy>
  </scstep>
  <scstep>
   <time name="diag">    0.13    0.13</time>
   <time name="diis">    1.28    1.32</time>
   <time name="orth">    0.02    0.02</time>
   <time name="total">    1.56    1.61</time>
   <energy>
    <i name="e_fr_energy">     60.22139446 </i>
    <i name="e_wo_entrp">     60.22893748 </i>
    <i name="e_0_energy">     60.22390880 </i>
   </energy>
  </scstep>
  <scstep>
   <time name="diag">    0.15    0.16</time>
   <time name="diis">    1.41    1.45</time>
   <time name="orth">    0.02    0.02</time>
   <time name="total">    1.70    1.77</time>
   <energy>
    <i name="e_fr_energy">     60.27234838 </i>
    <i name="e_wo_entrp">     60.28057103 </i>
    <i name="e_0_energy">     60.27508926 </i>
   </energy>
  </scstep>
  <scstep>
   <time name="diag">    0.13    0.16</time>
   <time name="diis">    1.23    1.36</time>
   <time name="orth">    0.02    0.02</time>
   <time name="total">    1.51    1.69</time>
   <energy>
    <i name="e_fr_energy">     60.33011556 </i>
    <i name="e_wo_entrp">     60.33753538 </i>
    <i name="e_0_energy">     60.33258883 </i>
   </energy>
  </scstep>
  <scstep>
   <time name="diag">    0.14    0.14</time>
   <time name="diis">    1.32    1.33</time>
   <time name="orth">    0.02    0.02</time>
   <time name="total">    1.60    1.62</time>
   <energy>
    <i name="e_fr_energy">     60.32429174 </i>
    <i name="e_wo_entrp">     60.33184872 </i>
    <i name="e_0_energy">     60.32681074 </i>
   </energy>
  </scstep>
  <scstep>
   <time name="diag">    0.13    0.13</time>
   <time name="diis">    1.42    1.57</time>
   <time name="orth">    0.02    0.02</time>
   <time name="total">    1.71    1.87</time>
   <energy>
    <i name="e_fr_energy">     60.32271809 </i>
    <i name="e_wo_entrp">     60.33006533 </i>
    <i name="e_0_energy">     60.32516717 </i>
   </energy>
  </scstep>
  <scstep>
   <time name="diag">    0.13    0.13</time>
   <time name="diis">    1.28    1.29</time>
   <time name="orth">    0.02    0.02</time>
   <time name="total">    1.56    1.57</time>
   <energy>
    <i name="e_fr_energy">     60.32279791 </i>
    <i name="e_wo_entrp">     60.33037874 </i>
    <i name="e_0_energy">     60.32532485 </i>
   </energy>
  </scstep>
  <scstep>
   <time name="diag">    0.13    0.13</time>
   <time name="diis">    1.28    1.29</time>
   <time name="orth">    0.02    0.02</time>
   <time name="total">    1.56    1.57</time>
   <energy>
    <i name="e_fr_energy">     60.32268258 </i>
    <i name="e_wo_entrp">     60.33020588 </i>
    <i name="e_0_energy">     60.32519035 </i>
   </energy>
  </scstep>
  <scstep>
   <time name="diag">    0.13    0.13</time>
   <time name="diis">    1.03    1.03</time>
   <time name="orth">    0.02    0.02</time>
   <time name="total">    1.30    1.32</time>
   <energy>
    <i name="e_fr_energy">     60.32269936 </i>
    <i name="e_wo_entrp">     60.33025020 </i>
    <i name="e_0_energy">     60.32521631 </i>
   </energy>
  </scstep>
  <scstep>
   <time name="diag">    0.13    0.13</time>
   <time name="diis">    0.75    0.76</time>
   <time name="orth">    0.02    0.02</time>
   <time name="total">    0.97    0.98</time>
   <energy>
    <i name="alphaZ">   5547.06653778 </i>
    <i name="ewald"> -34629.66344058 </i>
    <i name="hartreedc">  -1369.80627495 </i>
    <i name="XCdc">    371.22560494 </i>
    <i name="pawpsdc">  28637.13294076 </i>
    <i name="pawaedc"> -28039.06120078 </i>
    <i name="eentropy">     -0.00752194 </i>
    <i name="bandstr">   3030.63715386 </i>
    <i name="atom">  26512.79889947 </i>
    <i name="e_fr_energy">     60.32269858 </i>
    <i name="e_wo_entrp">     60.33022051 </i>
    <i name="e_0_energy">     60.32520589 </i>
   </energy>
  </scstep>
  <structure>
   <crystal>
    <varray name="basis" >
     <v>       6.72447839       0.00074429      -0.00170463 </v>
     <v>       0.00074429       6.73837899       0.00034611 </v>
     <v>      -0.00170463       0.00034611       6.73617863 </v>
    </varray>
    <i name="volume">    305.23026699 </i>
    <varray name="rec_basis" >
     <v>       0.14871043      -0.00001643       0.00003763 </v>
     <v>      -0.00001643       0.14840365      -0.00000763 </v>
     <v>       0.00003763      -0.00000763       0.14845213 </v>
    </varray>
   </crystal>
   <varray name="positions" >
    <v>       0.24912979       0.25000420       0.00076814 </v>
    <v>       0.00008025       0.25066226       0.24921701 </v>
    <v>       0.00090252       0.00192928       0.49908546 </v>
    <v>       0.25004335       0.00168323       0.75001359 </v>
    <v>       0.24996720       0.75010029       0.00168548 </v>
    <v>       0.00002909       0.74937896       0.24915664 </v>
    <v>       0.25182526       0.74824455       0.49826916 </v>
    <v>       0.24997324       0.49846139       0.74833506 </v>
    <v>      -0.00092671       0.74824984       0.75103577 </v>
    <v>       0.50077733       0.00063229       0.00145324 </v>
    <v>       0.49916369       0.00069570       0.49853367 </v>
    <v>       0.74919688       0.25238157       0.50003810 </v>
    <v>       0.74994077       0.00168082       0.75180508 </v>
    <v>       0.50157005       0.49934621       0.00067415 </v>
    <v>       0.74998636       0.74917838       0.00077663 </v>
    <v>       0.74838157       0.74758353       0.49915573 </v>
    <v>      -0.00093238       0.00173421       0.00062268 </v>
    <v>       0.25099897       0.00074106       0.25017780 </v>
    <v>       0.25093926       0.25177168       0.49926593 </v>
    <v>      -0.00081716       0.25149479       0.75081954 </v>
    <v>      -0.00197182       0.49818851       0.00000290 </v>
    <v>       0.25079480       0.49915975       0.25193567 </v>
    <v>       0.00008486       0.49832579       0.50016354 </v>
    <v>       0.75089467       0.25082720      -0.00013149 </v>
    <v>       0.74893516       0.00083412       0.24808425 </v>
    <v>       0.49988427       0.25072168       0.25095034 </v>
    <v>       0.50093084       0.25167109       0.74902245 </v>
    <v>       0.74911472       0.49916263       0.25003105 </v>
    <v>       0.49997272       0.74934110       0.25091761 </v>
    <v>       0.49995111       0.49928193       0.49929630 </v>
    <v>       0.75017104       0.49838140       0.74996002 </v>
    <v>       0.50100829       0.74815055       0.74887850 </v>
   </varray>
  </structure>
  <varray name="forces" >
   <v>       0.77944422       0.32278652      -0.31295023 </v>
   <v>      -0.12381152      -0.21312390       0.46336507 </v>
   <v>      -0.63381457      -0.97517025       0.45116477 </v>
   <v>       0.06151304      -0.92409180      -0.03184517 </v>
   <v>       0.00964445      -0.36596396      -0.81655669 </v>
   <v>      -0.11186734       0.21640353       0.50460624 </v>
   <v>      -1.23469221       0.97780402       1.02873935 </v>
   <v>       0.08219904       0.71017090       1.21963966 </v>
   <v>       0.57504937       0.98797711      -0.71208298 </v>
   <v>      -0.48683309      -0.18370950      -0.89615523 </v>
   <v>       0.61551386      -0.17580711       0.81390097 </v>
   <v>       0.48713308      -1.33664786      -0.33255977 </v>
   <v>      -0.03128347      -0.84311300      -1.20608757 </v>
   <v>      -1.01144813       0.17149067      -0.20872357 </v>
   <v>      -0.17279471       0.26274724      -0.26314389 </v>
   <v>       1.13773997       1.36544389       0.23893039 </v>
   <v>       0.42452523      -0.62790113      -0.10629338 </v>
   <v>      -0.35574026      -0.08693707      -0.10405049 </v>
   <v>      -0.26092721      -0.50907438       0.16034777 </v>
   <v>       0.35244329      -0.39817702      -0.43156319 </v>
   <v>       0.92006612       0.45938722       0.35760093 </v>
   <v>      -0.31741645       0.07597171      -0.89144342 </v>
   <v>      -0.05809578       0.52032644      -0.29815915 </v>
   <v>      -0.62809390      -0.05835071       0.32115104 </v>
   <v>       0.35974293      -0.03531786       0.73854409 </v>
   <v>       0.01593555      -0.00281986      -0.40033075 </v>
   <v>      -0.42253508      -0.47287881       0.56017373 </v>
   <v>       0.31381183       0.07732342      -0.09542346 </v>
   <v>       0.12145923      -0.01107710      -0.46608150 </v>
   <v>       0.07809550       0.05819249       0.01903766 </v>
   <v>      -0.09188432       0.38599374       0.10939009 </v>
   <v>      -0.39307868       0.62814242       0.58685869 </v>
  </varray>
  <varray name="stress" >
   <v>    5086.34984956       3.17426328       4.63227600 </v>
   <v>       3.17426268    5084.41379934       6.72575518 </v>
   <v>       4.63227537       6.72575517    5073.72255888 </v>
  </varray>
  <energy>
   <i name="e_fr_energy">     60.32269858 </i>
   <i name="e_wo_entrp">     60.32520589 </i>
   <i name="e_0_energy">     -0.00752194 </i>
  </energy>
  <time name="totalsc">   26.60   27.45</time>
 </calculation>
 <calculation>
  <scstep>
   <time name="dav">    1.68    1.79</time>
   <time name="total">    1.82    1.93</time>
   <energy>
    <i name="alphaZ">   2647.01442023 </i>
    <i name="ewald"> -27055.74991798 </i>
    <i name="hartreedc">  -1076.60650666 </i>
    <i name="XCdc">    174.25512054 </i>
    <i name="pawpsdc">  28637.94623116 </i>
    <i name="pawaedc"> -28039.85259438 </i>
    <i name="eentropy">     -0.01593682 </i>
    <i name="bandstr">  -3196.60681954 </i>
    <i name="atom">  26512.79889947 </i>
    <i name="e_fr_energy">  -1396.81710399 </i>
    <i name="e_wo_entrp">  -1396.80116716 </i>
    <i name="e_0_energy">  -1396.81179171 </i>
   </energy>
  </scstep>
  <scstep>
   <time name="diag">    0.13    0.13</time>
   <time name="diis">    0.94    0.95</time>
   <time name="orth">    0.02    0.02</time>
   <time name="total">    1.21    1.27</time>
   <energy>
    <i name="e_fr_energy">   -292.44854545 </i>
    <i name="e_wo_entrp">   -292.40361156 </i>
    <i name="e_0_energy">   -292.43356749 </i>
   </energy>
  </scstep>
  <scstep>
   <time name="diag">    0.13    0.13</time>
   <time name="diis">    0.94    0.97</time>
   <time name="orth">    0.02    0.02</time>
   <time name="total">    1.28    1.35</time>
   <energy>
    <i name="e_fr_energy">   -159.13366900 </i>
    <i name="e_wo_entrp">   -159.11536925 </i>
    <i name="e_0_energy">   -159.12756908 </i>
   </energy>
  </scstep>
  <scstep>
   <time name="diag">    0.17    0.17</time>
   <time name="diis">    0.86    0.97</time>
   <time name="orth">    0.02    0.02</time>
   <time name="total">    1.16    1.33</time>
   <energy>
    <i name="e_fr_energy">   -146.53365081 </i>
    <i name="e_wo_entrp">   -146.53754968 </i>
    <i name="e_0_energy">   -146.53495044 </i>
   </energy>
  </scstep>
  <scstep>
   <time name="diag">    0.20    0.20</time>
   <time name="diis">    0.93    0.98</time>
   <time name="orth">    0.02    0.02</time>
   <time name="total">    1.28    1.36</time>
   <energy>
    <i name="e_fr_energy">   -144.74420078 </i>
    <i name="e_wo_entrp">   -144.72794554 </i>
    <i name="e_0_energy">   -144.73878237 </i>
   </energy>
  </scstep>
  <scstep>
   <time name="diag">    0.14    0.15</time>
   <time name="diis">    0.90    0.93</time>
   <time name="orth">    0.02    0.02</time>
   <time name="total">    1.21    1.26</time>
   <energy>
    <i name="e_fr_energy">   -142.07243399 </i>
    <i name="e_wo_entrp">   -142.07714901 </i>
    <i name="e_0_energy">   -142.07400566 </i>
   </energy>
  </scstep>
  <scstep>
   <time name="diag">    0.22    0.22</time>
   <time name="diis">    0.96    0.96</time>
   <time name="orth">    0.02    0.02</time>
   <time name="total">    1.33    1.35</time>
   <energy>
    <i name="e_fr_energy">   -141.02256910 </i>
    <i name="e_wo_entrp">   -141.01439035 </i>
    <i name="e_0_energy">   -141.01984285 </i>
   </energy>
  </scstep>
  <scstep>
   <time name="diag">    0.15    0.15</time>
   <time name="diis">    0.93    0.93</time>
   <time name="orth">    0.02    0.02</time>
   <time name="total">    1.23    1.24</time>
   <energy>
    <i name="e_fr_energy">   -140.10311664 </i>
    <i name="e_wo_entrp">   -140.09850314 </i>
    <i name="e_0_energy">   -140.10157881 </i>
   </energy>
  </scstep>
  <scstep>
   <time name="diag">    0.13    0.13</time>
   <time name="diis">    1.07    1.08</time>
   <time name="orth">    0.02    0.02</time>
   <time name="total">    1.37    1.39</time>
   <energy>
    <i name="e_fr_energy">   -140.01917160 </i>
    <i name="e_wo_entrp">   -140.00924132 </i>
    <i name="e_0_energy">   -140.01586151 </i>
   </energy>
  </scstep>
  <scstep>
   <time name="diag">    0.14    0.14</time>
   <time name="diis">    0.96    0.97</time>
   <time name="orth">    0.02    0.02</time>
   <time name="total">    1.25    1.27</time>
   <energy>
    <i name="e_fr_energy">   -139.98874649 </i>
    <i name="e_wo_entrp">   -139.97883841 </i>
    <i name="e_0_energy">   -139.98544379 </i>
   </energy>
  </scstep>
  <scstep>
   <time name="diag">    0.17    0.17</time>
   <time name="diis">    0.95    0.97</time>
   <time name="orth">    0.02    0.02</time>
   <time name="total">    1.28    1.31</time>
   <energy>
    <i name="e_fr_energy">   -139.98555311 </i>
    <i name="e_wo_entrp">   -139.97821568 </i>
    <i name="e_0_energy">   -139.98310730 </i>
   </energy>
  </scstep>
  <scstep>
   <time name="diag">    0.17    0.17</time>
   <time name="diis">    0.98    0.99</time>
   <time name="orth">    0.02    0.02</time>
   <time name="total">    1.29    1.31</time>
   <energy>
    <i name="e_fr_energy">   -139.98048850 </i>
    <i name="e_wo_entrp">   -139.97211900 </i>
    <i name="e_0_energy">   -139.97769867 </i>
   </energy>
  </scstep>
  <scstep>
   <time name="diag">    0.13    0.14</time>
   <time name="diis">    0.97    0.97</time>
   <time name="orth">    0.02    0.02</time>
   <time name="total">    1.23    1.24</time>
   <energy>
    <i name="e_fr_energy">   -139.97643753 </i>
    <i name="e_wo_entrp">   -139.96774850 </i>
    <i name="e_0_energy">   -139.97354118 </i>
   </energy>
  </scstep>
  <scstep>
   <time name="diag">    0.14    0.14</time>
   <time name="diis">    0.98    0.99</time>
   <time name="orth">    0.02    0.02</time>
   <time name="total">    1.25    1.26</time>
   <energy>
    <i name="e_fr_energy">   -139.97641015 </i>
    <i name="e_wo_entrp">   -139.96827385 </i>
    <i name="e_0_energy">   -139.97369805 </i>
   </energy>
  </scstep>
  <scstep>
   <time name="diag">    0.13    0.13</time>
   <time name="diis">    0.87    1.08</time>
   <time name="orth">    0.02    0.02</time>
   <time name="total">    1.13    1.35</time>
   <energy>
    <i name="e_fr_energy">   -139.97629588 </i>
    <i name="e_wo_entrp">   -139.96813049 </i>
    <i name="e_0_energy">   -139.97357409 </i>
   </energy>
  </scstep>
  <scstep>
   <time name="diag">    0.14    0.14</time>
   <time name="diis">    0.74    0.75</time>
   <time name="orth">    0.02    0.02</time>
   <time name="total">    1.01    1.02</time>
   <energy>
    <i name="e_fr_energy">   -139.97627696 </i>
    <i name="e_wo_entrp">   -139.96806492 </i>
    <i name="e_0_energy">   -139.97353962 </i>
   </energy>
  </scstep>
  <scstep>
   <time name="diag">    0.13    0.13</time>
   <time name="diis">    0.91    0.92</time>
   <time name="orth">    0.02    0.02</time>
   <time name="total">    1.17    1.18</time>
   <energy>
    <i name="e_fr_energy">   -139.97623652 </i>
    <i name="e_wo_entrp">   -139.96792358 </i>
    <i name="e_0_energy">   -139.97346554 </i>
   </energy>
  </scstep>
  <scstep>
   <time name="diag">    0.13    0.13</time>
   <time name="diis">    0.69    0.70</time>
   <time name="orth">    0.02    0.02</time>
   <time name="total">    0.96    0.97</time>
   <energy>
    <i name="e_fr_energy">   -139.97622530 </i>
    <i name="e_wo_entrp">   -139.96796572 </i>
    <i name="e_0_energy">   -139.97347211 </i>
   </energy>
  </scstep>
  <scstep>
   <time name="diag">    0.13    0.14</time>
   <time name="diis">    0.54    0.54</time>
   <time name="orth">    0.02    0.02</time>
   <time name="total">    0.75    0.76</time>
   <energy>
    <i name="alphaZ">   2647.01442023 </i>
    <i name="ewald"> -27055.74991798 </i>
    <i name="hartreedc">  -3618.07060536 </i>
    <i name="XCdc">    258.39141775 </i>
    <i name="pawpsdc">  20903.44097540 </i>
    <i name="pawaedc"> -20128.66822477 </i>
    <i name="eentropy">     -0.00829072 </i>
    <i name="bandstr">    340.87510573 </i>
    <i name="atom">  26512.79889947 </i>
    <i name="e_fr_energy">   -139.97622025 </i>
    <i name="e_wo_entrp">   -139.96792954 </i>
    <i name="e_0_energy">   -139.97345668 </i>
   </energy>
  </scstep>
  <structure>
   <crystal>
    <varray name="basis" >
     <v>       8.61202360       0.00035701      -0.00081765 </v>
     <v>       0.00035701       8.61869124       0.00016602 </v>
     <v>      -0.00081765       0.00016602       8.61763580 </v>
    </varray>
    <i name="volume">    639.63860090 </i>
    <varray name="rec_basis" >
     <v>       0.11611673      -0.00000481       0.00001102 </v>
     <v>      -0.00000481       0.11602690      -0.00000224 </v>
     <v>       0.00001102      -0.00000224       0.11604111 </v>
    </varray>
   </crystal>
   <varray name="positions" >
    <v>       0.24975410       0.25000116       0.00021783 </v>
    <v>       0.00002282       0.25018780       0.24977809 </v>
    <v>       0.00025516       0.00054717       0.49974073 </v>
    <v>       0.25001235       0.00047737       0.75000389 </v>
    <v>       0.24999051       0.75002849       0.00047770 </v>
    <v>       0.00000830       0.74982385       0.24976096 </v>
    <v>       0.25051568       0.74950222       0.49950914 </v>
    <v>       0.24999258       0.49956360       0.74952809 </v>
    <v>      -0.00026200       0.74950363       0.75029364 </v>
    <v>       0.50021939       0.00017941       0.00041178 </v>
    <v>       0.49976403       0.00019721       0.49958455 </v>
    <v>       0.74977330       0.25067536       0.50001098 </v>
[...]
       <r>    4.9657    1.0000 </r>
       <r>    5.0017    1.0000 </r>
       <r>    5.0403    1.0000 </r>
       <r>    5.1069    1.0000 </r>
       <r>    5.1160    1.0000 </r>
       <r>    5.1456    1.0000 </r>
       <r>    5.1724    1.0000 </r>
       <r>    5.1985    1.0000 </r>
       <r>    5.2388    1.0000 </r>
       <r>    5.2785    1.0002 </r>
       <r>    5.3207    1.0007 </r>
       <r>    5.3424    1.0013 </r>
       <r>    5.3522    1.0017 </r>
       <r>    5.4196    1.0091 </r>
       <r>    5.4586    1.0187 </r>
       <r>    5.4868    1.0272 </r>
       <r>    5.5174    1.0346 </r>
       <r>    5.5715    1.0184 </r>
       <r>    5.6233    0.9198 </r>
       <r>    5.7076    0.5320 </r>
       <r>    5.9858   -0.0138 </r>
       <r>    6.0280   -0.0058 </r>
       <r>    6.0856   -0.0013 </r>
       <r>    6.8936   -0.0000 </r>
       <r>    6.9804   -0.0000 </r>
       <r>    7.0322   -0.0000 </r>
       <r>    7.0795   -0.0000 </r>
       <r>    7.1902   -0.0000 </r>
       <r>    7.2594   -0.0000 </r>
       <r>    7.4963   -0.0000 </r>
       <r>    7.5966   -0.0000 </r>
       <r>    7.6799   -0.0000 </r>
       <r>    7.9734   -0.0000 </r>
       <r>    8.0330   -0.0000 </r>
       <r>    8.1940   -0.0000 </r>
       <r>    9.2104   -0.0000 </r>
       <r>    9.2512   -0.0000 </r>
       <r>    9.2932   -0.0000 </r>
       <r>    9.3584   -0.0000 </r>
       <r>    9.3941   -0.0000 </r>
       <r>    9.4744   -0.0000 </r>
       <r>    9.6862   -0.0000 </r>
       <r>    9.7975   -0.0000 </r>
       <r>    9.9122    0.0000 </r>
       <r>   10.3357    0.0000 </r>
       <r>   10.4593    0.0000 </r>
       <r>   10.5752    0.0000 </r>
       <r>   11.0001    0.0000 </r>
       <r>   11.0415    0.0000 </r>
       <r>   11.1085    0.0000 </r>
       <r>   11.6627    0.0000 </r>
       <r>   11.7340    0.0000 </r>
       <r>   11.8148    0.0000 </r>
       <r>   11.8764    0.0000 </r>
       <r>   11.9051    0.0000 </r>
       <r>   12.0499    0.0000 </r>
      </set>
     </set>
    </set>
   </array>
  </eigenvalues>
  <separator name="orbital magnetization" >
   <v name="MAGDIPOLOUT">      0.00000000      0.00000000      0.00000000</v>
  </separator>
  <dos>
   <i name="efermi">      5.71326310 </i>
   <total>
    <array>
     <dimension dim="1">gridpoints</dimension>
     <dimension dim="2">spin</dimension>
     <field>energy</field>
     <field>total</field>
     <field>integrated</field>
     <set>
      <set comment="spin 1">
       <r>    -4.9319     0.0000     0.0000 </r>
       <r>    -4.8658     0.0000     0.0000 </r>
       <r>    -4.7996     0.0000     0.0000 </r>
       <r>    -4.7335     0.0000     0.0000 </r>
       <r>    -4.6674    -0.0000    -0.0000 </r>
       <r>    -4.6012    -0.0000    -0.0000 </r>
       <r>    -4.5351    -0.0000    -0.0000 </r>
       <r>    -4.4690    -0.0000    -0.0000 </r>
       <r>    -4.4028    -0.0000    -0.0000 </r>
       <r>    -4.3367    -0.0000    -0.0000 </r>
       <r>    -4.2706    -0.0000    -0.0000 </r>
       <r>    -4.2044    -0.0000    -0.0000 </r>
       <r>    -4.1383    -0.0000    -0.0000 </r>
       <r>    -4.0722    -0.0000    -0.0000 </r>
       <r>    -4.0060    -0.0000    -0.0000 </r>
       <r>    -3.9399    -0.0000    -0.0000 </r>
       <r>    -3.8738    -0.0001    -0.0000 </r>
       <r>    -3.8076    -0.0011    -0.0001 </r>
       <r>    -3.7415    -0.0060    -0.0005 </r>
       <r>    -3.6754    -0.0174    -0.0016 </r>
       <r>    -3.6092    -0.0148    -0.0026 </r>
       <r>    -3.5431     0.0682     0.0019 </r>
       <r>    -3.4770     0.2519     0.0186 </r>
       <r>    -3.4108     0.3647     0.0427 </r>
       <r>    -3.3447     0.2223     0.0574 </r>
       <r>    -3.2786     0.0500     0.0607 </r>
       <r>    -3.2124     0.4506     0.0905 </r>
       <r>    -3.1463     1.5584     0.1935 </r>
       <r>    -3.0802     2.3050     0.3460 </r>
       <r>    -3.0140     1.6862     0.4575 </r>
       <r>    -2.9479     0.7216     0.5052 </r>
       <r>    -2.8818     1.4192     0.5991 </r>
       <r>    -2.8156     3.6489     0.8404 </r>
       <r>    -2.7495     4.6623     1.1487 </r>
       <r>    -2.6834     3.1172     1.3549 </r>
       <r>    -2.6172     1.4251     1.4491 </r>
       <r>    -2.5511     1.8085     1.5687 </r>
       <r>    -2.4850     2.9278     1.7623 </r>
       <r>    -2.4189     2.5303     1.9297 </r>
       <r>    -2.3527     1.0659     2.0002 </r>
       <r>    -2.2866     0.5318     2.0353 </r>
       <r>    -2.2205     1.3081     2.1218 </r>
       <r>    -2.1543     1.8858     2.2465 </r>
       <r>    -2.0882     1.5697     2.3504 </r>
       <r>    -2.0221     2.3304     2.5045 </r>
       <r>    -1.9559     5.6720     2.8796 </r>
       <r>    -1.8898     8.8248     3.4632 </r>
       <r>    -1.8237     8.9826     4.0572 </r>
       <r>    -1.7575     8.4979     4.6192 </r>
       <r>    -1.6914     9.1515     5.2244 </r>
       <r>    -1.6253     7.9503     5.7502 </r>
       <r>    -1.5591     3.9809     6.0134 </r>
       <r>    -1.4930     0.5254     6.0482 </r>
       <r>    -1.4269    -0.8051     5.9950 </r>
       <r>    -1.3607    -1.0094     5.9282 </r>
       <r>    -1.2946     0.1698     5.9394 </r>
       <r>    -1.2285     4.7549     6.2539 </r>
       <r>    -1.1623    11.7081     7.0282 </r>
       <r>    -1.0962    15.2007     8.0334 </r>
       <r>    -1.0301    12.2839     8.8458 </r>
       <r>    -0.9639     7.0275     9.3105 </r>
       <r>    -0.8978     4.6544     9.6183 </r>
       <r>    -0.8317     7.9981    10.1473 </r>
       <r>    -0.7655    17.1573    11.2819 </r>
       <r>    -0.6994    27.3045    13.0876 </r>
       <r>    -0.6333    30.7652    15.1222 </r>
       <r>    -0.5671    26.2702    16.8595 </r>
       <r>    -0.5010    21.8354    18.3036 </r>
       <r>    -0.4349    24.4340    19.9194 </r>
       <r>    -0.3687    33.1932    22.1146 </r>
       <r>    -0.3026    42.9096    24.9523 </r>
       <r>    -0.2365    49.2936    28.2122 </r>
       <r>    -0.1703    52.1373    31.6602 </r>
       <r>    -0.1042    52.7338    35.1476 </r>
       <r>    -0.0381    50.8713    38.5119 </r>
       <r>     0.0281    48.0974    41.6927 </r>
       <r>     0.0942    48.6592    44.9106 </r>
       <r>     0.1603    54.2773    48.5001 </r>
       <r>     0.2264    60.9300    52.5296 </r>
       <r>     0.2926    62.7342    56.6783 </r>
       <r>     0.3587    57.7974    60.5006 </r>
       <r>     0.4248    48.6738    63.7195 </r>
       <r>     0.4910    40.5736    66.4028 </r>
       <r>     0.5571    38.8089    68.9693 </r>
       <r>     0.6232    44.0792    71.8844 </r>
       <r>     0.6894    52.1320    75.3320 </r>
       <r>     0.7555    57.4628    79.1321 </r>
       <r>     0.8216    55.8295    82.8243 </r>
       <r>     0.8878    46.4965    85.8992 </r>
       <r>     0.9539    34.9042    88.2075 </r>
       <r>     1.0200    30.8814    90.2498 </r>
       <r>     1.0862    38.9034    92.8225 </r>
       <r>     1.1523    51.9573    96.2586 </r>
       <r>     1.2184    60.0253   100.2282 </r>
       <r>     1.2846    60.4439   104.2255 </r>
       <r>     1.3507    57.3460   108.0180 </r>
       <r>     1.4168    55.7050   111.7019 </r>
       <r>     1.4830    57.3201   115.4926 </r>
       <r>     1.5491    60.5896   119.4995 </r>
       <r>     1.6152    62.8481   123.6558 </r>
       <r>     1.6814    62.8029   127.8092 </r>
       <r>     1.7475    61.2574   131.8603 </r>
       <r>     1.8136    60.2655   135.8458 </r>
       <r>     1.8798    61.0996   139.8864 </r>
       <r>     1.9459    62.3498   144.0098 </r>
       <r>     2.0120    62.0797   148.1153 </r>
       <r>     2.0782    61.5976   152.1889 </r>
       <r>     2.1443    63.3959   156.3814 </r>
       <r>     2.2104    66.3804   160.7713 </r>
       <r>     2.2766    66.9992   165.2021 </r>
       <r>     2.3427    64.4019   169.4612 </r>
       <r>     2.4088    61.3265   173.5169 </r>
       <r>     2.4750    60.3142   177.5056 </r>
       <r>     2.5411    61.4969   181.5725 </r>
       <r>     2.6072    63.5080   185.7725 </r>
       <r>     2.6733    64.9835   190.0700 </r>
       <r>     2.7395    65.3388   194.3910 </r>
       <r>     2.8056    64.4939   198.6561 </r>
       <r>     2.8717    62.5518   202.7929 </r>
       <r>     2.9379    59.3625   206.7186 </r>
       <r>     3.0040    54.8867   210.3484 </r>
       <r>     3.0701    51.3562   213.7448 </r>
       <r>     3.1363    51.4214   217.1454 </r>
       <r>     3.2024    53.4094   220.6775 </r>
       <r>     3.2685    52.9536   224.1794 </r>
       <r>     3.3347    48.5853   227.3925 </r>
       <r>     3.4008    42.7371   230.2188 </r>
       <r>     3.4669    38.8198   232.7861 </r>
       <r>     3.5331    38.8796   235.3573 </r>
       <r>     3.5992    41.9386   238.1308 </r>
       <r>     3.6653    45.1111   241.1141 </r>
       <r>     3.7315    47.3789   244.2474 </r>
       <r>     3.7976    48.9464   247.4843 </r>
       <r>     3.8637    49.3626   250.7488 </r>
       <r>     3.9299    49.2164   254.0036 </r>
       <r>     3.9960    49.2433   257.2602 </r>
       <r>     4.0621    48.7305   260.4828 </r>
       <r>     4.1283    47.7760   263.6424 </r>
       <r>     4.1944    47.7726   266.8017 </r>
       <r>     4.2605    48.8212   270.0304 </r>
       <r>     4.3267    49.3984   273.2972 </r>
       <r>     4.3928    48.4368   276.5004 </r>
       <r>     4.4589    46.3974   279.5688 </r>
       <r>     4.5251    44.5372   282.5142 </r>
       <r>     4.5912    43.1920   285.3706 </r>
       <r>     4.6573    41.3696   288.1064 </r>
       <r>     4.7235    39.2096   290.6995 </r>
       <r>     4.7896    38.5546   293.2492 </r>
       <r>     4.8557    39.9672   295.8923 </r>
       <r>     4.9219    42.6764   298.7146 </r>
       <r>     4.9880    46.3272   301.7783 </r>
       <r>     5.0541    50.2977   305.1047 </r>
       <r>     5.1203    53.5066   308.6432 </r>
       <r>     5.1864    55.2702   312.2983 </r>
       <r>     5.2525    55.3479   315.9586 </r>
       <r>     5.3186    53.8195   319.5178 </r>
       <r>     5.3848    51.0537   322.8942 </r>
       <r>     5.4509    47.0357   326.0047 </r>
       <r>     5.5170    42.2248   328.7972 </r>
       <r>     5.5832    38.6121   331.3507 </r>
       <r>     5.6493    36.7881   333.7836 </r>
       <r>     5.7154    34.6037   336.0720 </r>
       <r>     5.7816    30.9805   338.1208 </r>
       <r>     5.8477    27.5213   339.9409 </r>
       <r>     5.9138    25.2589   341.6113 </r>
       <r>     5.9800    22.3116   343.0868 </r>
       <r>     6.0461    16.7601   344.1952 </r>
       <r>     6.1122     9.9607   344.8540 </r>
       <r>     6.1784     5.0425   345.1874 </r>
       <r>     6.2445     3.6395   345.4281 </r>
       <r>     6.3106     4.4402   345.7218 </r>
       <r>     6.3768     5.1381   346.0615 </r>
       <r>     6.4429     5.2423   346.4082 </r>
       <r>     6.5090     5.3098   346.7594 </r>
       <r>     6.5752     5.1899   347.1026 </r>
       <r>     6.6413     4.7961   347.4198 </r>
       <r>     6.7074     5.1399   347.7597 </r>
       <r>     6.7736     7.2014   348.2359 </r>
       <r>     6.8397    10.5596   348.9343 </r>
       <r>     6.9058    13.9778   349.8587 </r>
       <r>     6.9720    16.3944   350.9429 </r>
       <r>     7.0381    16.9827   352.0660 </r>
       <r>     7.1042    15.6813   353.1030 </r>
       <r>     7.1704    13.8371   354.0181 </r>
       <r>     7.2365    12.1270   354.8201 </r>
       <r>     7.3026     9.5338   355.4506 </r>
       <r>     7.3688     6.8299   355.9023 </r>
       <r>     7.4349     6.4671   356.3299 </r>
       <r>     7.5010     8.0613   356.8631 </r>
       <r>     7.5672     9.0045   357.4586 </r>
       <r>     7.6333     8.1870   358.0000 </r>
       <r>     7.6994     5.7938   358.3831 </r>
       <r>     7.7656     2.5488   358.5517 </r>
       <r>     7.8317     0.9891   358.6171 </r>
       <r>     7.8978     4.3746   358.9064 </r>
       <r>     7.9639    12.2203   359.7146 </r>
       <r>     8.0301    18.8323   360.9600 </r>
       <r>     8.0962    20.1123   362.2901 </r>
       <r>     8.1623    18.3489   363.5035 </r>
       <r>     8.2285    16.7382   364.6105 </r>
       <r>     8.2946    15.6802   365.6474 </r>
       <r>     8.3607    14.1197   366.5812 </r>
       <r>     8.4269    10.2751   367.2607 </r>
       <r>     8.4930     4.6041   367.5652 </r>
       <r>     8.5591     0.5095   367.5989 </r>
       <r>     8.6253    -0.0841   367.5933 </r>
       <r>     8.6914     1.9726   367.7238 </r>
       <r>     8.7575     5.1672   368.0655 </r>
       <r>     8.8237     7.8426   368.5842 </r>
       <r>     8.8898     8.4527   369.1432 </r>
       <r>     8.9559     7.0040   369.6063 </r>
       <r>     9.0221     4.8165   369.9249 </r>
       <r>     9.0882     3.3529   370.1466 </r>
       <r>     9.1543     4.3359   370.4334 </r>
       <r>     9.2205     8.1033   370.9693 </r>
       <r>     9.2866    12.1356   371.7718 </r>
       <r>     9.3527    13.9721   372.6958 </r>
       <r>     9.4189    13.2988   373.5753 </r>
       <r>     9.4850    10.3879   374.2623 </r>
       <r>     9.5511     6.2740   374.6772 </r>
       <r>     9.6173     3.5565   374.9124 </r>
       <r>     9.6834     3.8288   375.1656 </r>
       <r>     9.7495     6.2725   375.5804 </r>
       <r>     9.8157     9.8261   376.2302 </r>
       <r>     9.8818    14.2626   377.1735 </r>
       <r>     9.9479    17.9190   378.3585 </r>
       <r>    10.0141    17.6650   379.5267 </r>
       <r>    10.0802    13.5287   380.4214 </r>
       <r>    10.1463     9.2763   381.0349 </r>
       <r>    10.2125     7.7978   381.5506 </r>
       <r>    10.2786     9.0488   382.1490 </r>
       <r>    10.3447    10.7191   382.8579 </r>
       <r>    10.4109    10.1356   383.5281 </r>
       <r>    10.4770     7.3617   384.0150 </r>
       <r>    10.5431     4.7419   384.3286 </r>
       <r>    10.6092     3.1077   384.5341 </r>
       <r>    10.6754     1.9234   384.6613 </r>
       <r>    10.7415     2.2435   384.8097 </r>
       <r>    10.8076     6.0670   385.2109 </r>
       <r>    10.8738    13.7416   386.1197 </r>
       <r>    10.9399    22.8010   387.6275 </r>
       <r>    11.0060    28.0953   389.4856 </r>
       <r>    11.0722    25.4975   391.1718 </r>
       <r>    11.1383    16.6364   392.2720 </r>
       <r>    11.2044     7.1493   392.7448 </r>
       <r>    11.2706     1.2545   392.8277 </r>
       <r>    11.3367    -0.4501   392.7980 </r>
       <r>    11.4028     0.7694   392.8489 </r>
       <r>    11.4690     4.0221   393.1148 </r>
       <r>    11.5351     8.6953   393.6899 </r>
       <r>    11.6012    13.9212   394.6105 </r>
       <r>    11.6674    18.8208   395.8552 </r>
       <r>    11.7335    22.3447   397.3329 </r>
       <r>    11.7996    23.7292   398.9022 </r>
       <r>    11.8658    22.9158   400.4176 </r>
       <r>    11.9319    20.1104   401.7476 </r>
       <r>    11.9980    15.8793   402.7977 </r>
       <r>    12.0642    10.6316   403.5008 </r>
       <r>    12.1303     5.1375   403.8406 </r>
       <r>    12.1964     1.5361   403.9422 </r>
       <r>    12.2626     0.8392   403.9977 </r>
       <r>    12.3287     1.4296   404.0922 </r>
       <r>    12.3948     1.6405   404.2007 </r>
       <r>    12.4610     1.3491   404.2899 </r>
       <r>    12.5271     1.1174   404.3638 </r>
       <r>    12.5932     1.7914   404.4823 </r>
       <r>    12.6594     3.8965   404.7400 </r>
       <r>    12.7255     5.9986   405.1367 </r>
       <r>    12.7916     5.7769   405.5187 </r>
       <r>    12.8578     3.5349   405.7525 </r>
       <r>    12.9239     1.8883   405.8774 </r>
       <r>    12.9900     2.2061   406.0232 </r>
       <r>    13.0561     3.7346   406.2702 </r>
       <r>    13.1223     5.2852   406.6198 </r>
       <r>    13.1884     6.1265   407.0249 </r>
       <r>    13.2545     5.8261   407.4102 </r>
       <r>    13.3207     4.4541   407.7048 </r>
       <r>    13.3868     2.7622   407.8874 </r>
       <r>    13.4529     1.3938   407.9796 </r>
       <r>    13.5191     0.4730   408.0109 </r>
       <r>    13.5852     0.0045   408.0112 </r>
       <r>    13.6513    -0.0969   408.0048 </r>
       <r>    13.7175    -0.0539   408.0012 </r>
       <r>    13.7836    -0.0154   408.0002 </r>
       <r>    13.8497    -0.0027   408.0000 </r>
       <r>    13.9159    -0.0003   408.0000 </r>
       <r>    13.9820    -0.0000   408.0000 </r>
       <r>    14.0481    -0.0000   408.0000 </r>
       <r>    14.1143    -0.0000   408.0000 </r>
       <r>    14.1804    -0.0000   408.0000 </r>
       <r>    14.2465    -0.0000   408.0000 </r>
       <r>    14.3127    -0.0000   408.0000 </r>
       <r>    14.3788    -0.0000   408.0000 </r>
       <r>    14.4449     0.0000   408.0000 </r>
       <r>    14.5111     0.0000   408.0000 </r>
       <r>    14.5772     0.0000   408.0000 </r>
       <r>    14.6433     0.0000   408.0000 </r>
       <r>    14.7095     0.0000   408.0000 </r>
       <r>    14.7756     0.0000   408.0000 </r>
       <r>    14.8417     0.0000   408.0000 </r>
       <r>    14.9079     0.0000   408.0000 </r>
      </set>
     </set>
    </array>
   </total>
  </dos>
 </calculation>
 <structure name="finalpos" >
  <crystal>
   <varray name="basis" >
    <v>       8.06867289       0.01032772       0.00117558 </v>
    <v>       0.01022768       8.21321950       0.02237426 </v>
    <v>       0.00114137       0.02233548       8.17336642 </v>
   </varray>
   <i name="volume">    541.64230055 </i>
   <varray name="rec_basis" >
    <v>       0.12393632      -0.00015429      -0.00001689 </v>
    <v>      -0.00015580       0.12175603      -0.00033270 </v>
    <v>      -0.00001740      -0.00033328       0.12234952 </v>
   </varray>
  </crystal>
  <varray name="positions" >
   <v>       0.25030718       0.25136691       0.00087173 </v>
   <v>       0.00137243       0.24946173       0.25009923 </v>
   <v>       0.00242182       0.00321693       0.49776977 </v>
   <v>       0.25019617       0.00243964       0.75018966 </v>
   <v>       0.24830633       0.74949375       0.00347095 </v>
   <v>      -0.00074291       0.75027350       0.24859489 </v>
   <v>       0.25093375       0.74812558       0.49885233 </v>
   <v>       0.24835317       0.49965288       0.75019584 </v>
   <v>      -0.00186565       0.74823514       0.75250366 </v>
   <v>       0.49945400       0.00042470      -0.00265917 </v>
   <v>       0.49959911       0.00036032       0.49954525 </v>
   <v>       0.74993016       0.25040953       0.49859141 </v>
   <v>       0.75039419       0.00210017       0.75127677 </v>
   <v>       0.50126800       0.49968853       0.00210326 </v>
   <v>       0.74894081       0.74881694       0.00078571 </v>
   <v>       0.75087462       0.74685436       0.49675947 </v>
   <v>      -0.00224245       0.00615711       0.00264366 </v>
   <v>       0.25500249       0.00228961       0.24981684 </v>
   <v>       0.25359549       0.25542818       0.50067785 </v>
   <v>      -0.00106672       0.25363797       0.75229425 </v>
   <v>      -0.00639991       0.49461853       0.00355834 </v>
   <v>       0.25086168       0.49821171       0.25611184 </v>
   <v>       0.00011807       0.49397229       0.49996547 </v>
   <v>       0.74996583       0.25183466      -0.00052757 </v>
   <v>       0.74436994       0.00425747       0.24179722 </v>
   <v>       0.49833726       0.25192491       0.25258771 </v>
   <v>       0.50219859       0.25648444       0.74703818 </v>
   <v>       0.74772347       0.49692412       0.25018686 </v>
   <v>       0.49982188       0.74847459       0.25234850 </v>
   <v>       0.50146995       0.49844679       0.49734651 </v>
   <v>       0.75225088       0.49443500       0.74949654 </v>
   <v>       0.50425038       0.74198200       0.74570702 </v>
  </varray>
 </structure>
</modeling>
