       N       E                     dE             d eps       ncg     rms          rms(c)
DAV:   1     0.223169089259E+04    0.22317E+04   -0.12367E+05  5928   0.108E+03
DAV:   2    -0.501695636792E+02   -0.22819E+04   -0.22077E+04  6144   0.413E+02
DAV:   3    -0.332315566559E+03   -0.28215E+03   -0.26843E+03  9096   0.985E+01
DAV:   4    -0.365570144548E+03   -0.33255E+02   -0.31807E+02  9008   0.315E+01
DAV:   5    -0.369066603829E+03   -0.34965E+01   -0.34237E+01  8792   0.104E+01    0.609E+01
RMM:   6    -0.358508584184E+03    0.10558E+02   -0.23111E+01  7209   0.103E+01    0.285E+01
RMM:   7    -0.356812795765E+03    0.16958E+01   -0.20586E+01  7264   0.827E+00    0.734E+00
RMM:   8    -0.354872172552E+03    0.19406E+01   -0.34634E+00  8131   0.300E+00    0.418E+00
RMM:   9    -0.354778542027E+03    0.93631E-01   -0.14674E+00  7990   0.156E+00    0.298E+00
RMM:  10    -0.354706257206E+03    0.72285E-01   -0.35617E-01  7895   0.122E+00    0.121E+00
RMM:  11    -0.354685475361E+03    0.20782E-01   -0.11928E-01  7958   0.542E-01    0.613E-01
RMM:  12    -0.354683649014E+03    0.18263E-02   -0.38009E-02  8052   0.269E-01    0.384E-01
RMM:  13    -0.354682894515E+03    0.75450E-03   -0.14756E-02  8170   0.146E-01    0.230E-01
RMM:  14    -0.354683262641E+03   -0.36813E-03   -0.71114E-03  8346   0.910E-02    0.112E-01
RMM:  15    -0.354683349907E+03   -0.87266E-04   -0.29722E-03  8082   0.613E-02    0.381E-02
RMM:  16    -0.354683453508E+03   -0.10360E-03   -0.13920E-03  6526   0.319E-02    0.256E-02
RMM:  17    -0.354683481504E+03   -0.27997E-04   -0.56500E-04  6084   0.243E-02    0.132E-02
RMM:  18    -0.354683499301E+03   -0.17796E-04   -0.25974E-04  5708   0.170E-02    0.793E-03
RMM:  19    -0.354683509463E+03   -0.10162E-04   -0.14183E-04  5120   0.133E-02    0.414E-03
RMM:  20    -0.354683513286E+03   -0.38233E-05   -0.63637E-05  4569   0.109E-02
   1 F= -.35468351E+03 E0= -.35469037E+03  d E =-.354684E+03
       N       E                     dE             d eps       ncg     rms          rms(c)
DAV:   1    -0.354685699493E+03   -0.21900E-02   -0.11124E-01  6456   0.103E+00    0.290E-01
RMM:   2    -0.354685391325E+03    0.30817E-03   -0.84247E-03  7516   0.245E-01    0.991E-02
RMM:   3    -0.354685146181E+03    0.24514E-03   -0.13944E-03  8024   0.773E-02    0.719E-02
RMM:   4    -0.354685013235E+03    0.13295E-03   -0.40426E-04  8036   0.416E-02    0.408E-02
RMM:   5    -0.354684991581E+03    0.21653E-04   -0.13798E-04  7043   0.230E-02    0.306E-02
RMM:   6    -0.354684984357E+03    0.72240E-05   -0.47581E-05  4498   0.130E-02
   2 F= -.35468498E+03 E0= -.35469189E+03  d E =-.147107E-02
       N       E                     dE             d eps       ncg     rms          rms(c)
DAV:   1    -0.354693652918E+03   -0.86613E-02   -0.99941E-01  6048   0.310E+00    0.860E-01
RMM:   2    -0.354690371347E+03    0.32816E-02   -0.71979E-02  7402   0.726E-01    0.294E-01
RMM:   3    -0.354688155878E+03    0.22155E-02   -0.11989E-02  8035   0.222E-01    0.212E-01
RMM:   4    -0.354687021639E+03    0.11342E-02   -0.35118E-03  8144   0.123E-01    0.123E-01
RMM:   5    -0.354686865678E+03    0.15596E-03   -0.12209E-03  8160   0.664E-02    0.940E-02
RMM:   6    -0.354686865280E+03    0.39818E-06   -0.49552E-04  8048   0.376E-02    0.568E-02
RMM:   7    -0.354686859634E+03    0.56460E-05   -0.23295E-04  6887   0.267E-02    0.271E-02
RMM:   8    -0.354686864648E+03   -0.50142E-05   -0.11026E-04  5454   0.190E-02    0.207E-02
RMM:   9    -0.354686866366E+03   -0.17179E-05   -0.53997E-05  4789   0.139E-02
   3 F= -.35468687E+03 E0= -.35469390E+03  d E =-.335308E-02
       N       E                     dE             d eps       ncg     rms          rms(c)
DAV:   1    -0.354688678688E+03   -0.18140E-02   -0.16648E-01  5872   0.121E+00    0.269E-01
RMM:   2    -0.354688600563E+03    0.78124E-04   -0.10046E-02  7411   0.270E-01    0.107E-01
RMM:   3    -0.354688313683E+03    0.28688E-03   -0.15311E-03  7965   0.870E-02    0.765E-02
RMM:   4    -0.354688197278E+03    0.11641E-03   -0.44797E-04  8123   0.408E-02    0.448E-02
RMM:   5    -0.354688179747E+03    0.17531E-04   -0.15539E-04  7225   0.235E-02    0.320E-02
RMM:   6    -0.354688184494E+03   -0.47466E-05   -0.63546E-05  5252   0.136E-02
   4 F= -.35468818E+03 E0= -.35469520E+03  d E =-.131813E-02
       N       E                     dE             d eps       ncg     rms          rms(c)
DAV:   1    -0.354693692069E+03   -0.55123E-02   -0.14917E+00  5824   0.361E+00    0.792E-01
RMM:   2    -0.354693076014E+03    0.61605E-03   -0.87898E-02  7188   0.803E-01    0.308E-01
RMM:   3    -0.354690443525E+03    0.26325E-02   -0.12422E-02  7912   0.257E-01    0.214E-01
RMM:   4    -0.354689511650E+03    0.93188E-03   -0.37056E-03  8158   0.119E-01    0.129E-01
RMM:   5    -0.354689385853E+03    0.12580E-03   -0.12712E-03  8401   0.670E-02    0.953E-02
RMM:   6    -0.354689425206E+03   -0.39353E-04   -0.56178E-04  8421   0.385E-02    0.593E-02
RMM:   7    -0.354689457261E+03   -0.32055E-04   -0.25627E-04  7227   0.279E-02    0.288E-02
RMM:   8    -0.354689480440E+03   -0.23179E-04   -0.11428E-04  5769   0.184E-02    0.205E-02
RMM:   9    -0.354689495504E+03   -0.15064E-04   -0.59706E-05  4748   0.150E-02    0.151E-02
RMM:  10    -0.354689509801E+03   -0.14297E-04   -0.33603E-05  4353   0.129E-02    0.829E-03
RMM:  11    -0.354689517237E+03   -0.74356E-05   -0.15251E-05  3528   0.117E-02
   5 F= -.35468952E+03 E0= -.35469648E+03  d E =-.265087E-02
       N       E                     dE             d eps       ncg     rms          rms(c)
DAV:   1    -0.354689721548E+03   -0.21175E-03   -0.42745E-02  5928   0.612E-01    0.136E-01
RMM:   2    -0.354689714697E+03    0.68516E-05   -0.25578E-03  7216   0.136E-01    0.541E-02
RMM:   3    -0.354689636339E+03    0.78358E-04   -0.37075E-04  7672   0.440E-02    0.380E-02
RMM:   4    -0.354689604015E+03    0.32323E-04   -0.99469E-05  6600   0.212E-02    0.226E-02
RMM:   5    -0.354689595936E+03    0.80789E-05   -0.29095E-05  3451   0.130E-02
   6 F= -.35468960E+03 E0= -.35469657E+03  d E =-.272957E-02
       N       E                     dE             d eps       ncg     rms          rms(c)
DAV:   1    -0.354689797755E+03   -0.19374E-03   -0.49068E-02  5600   0.647E-01    0.806E-02
RMM:   2    -0.354689928444E+03   -0.13069E-03   -0.22292E-03  6697   0.130E-01    0.322E-02
RMM:   3    -0.354689886679E+03    0.41765E-04   -0.21112E-04  7010   0.397E-02    0.264E-02
RMM:   4    -0.354689873007E+03    0.13673E-04   -0.43682E-05  4262   0.135E-02    0.171E-02
RMM:   5    -0.354689869196E+03    0.38110E-05   -0.15884E-05  3167   0.108E-02
   7 F= -.35468987E+03 E0= -.35469686E+03  d E =-.273259E-03
       N       E                     dE             d eps       ncg     rms          rms(c)
DAV:   1    -0.354689555238E+03    0.31777E-03   -0.44100E-01  5584   0.193E+00    0.251E-01
RMM:   2    -0.354690729781E+03   -0.11745E-02   -0.20311E-02  7012   0.391E-01    0.104E-01
RMM:   3    -0.354690409086E+03    0.32069E-03   -0.21861E-03  7732   0.118E-01    0.841E-02
RMM:   4    -0.354690302654E+03    0.10643E-03   -0.54381E-04  8187   0.394E-02    0.511E-02
RMM:   5    -0.354690287635E+03    0.15020E-04   -0.23330E-04  7725   0.279E-02    0.333E-02
RMM:   6    -0.354690277139E+03    0.10495E-04   -0.99007E-05  6319   0.179E-02    0.190E-02
RMM:   7    -0.354690273180E+03    0.39592E-05   -0.37614E-05  3946   0.126E-02
   8 F= -.35469027E+03 E0= -.35469731E+03  d E =-.677244E-03
       N       E                     dE             d eps       ncg     rms          rms(c)
DAV:   1    -0.354690734193E+03   -0.45705E-03   -0.69714E-02  5824   0.810E-01    0.187E-01
RMM:   2    -0.354690713796E+03    0.20397E-04   -0.52079E-03  6890   0.193E-01    0.718E-02
RMM:   3    -0.354690603485E+03    0.11031E-03   -0.71139E-04  7870   0.604E-02    0.500E-02
RMM:   4    -0.354690554379E+03    0.49107E-04   -0.20507E-04  7550   0.270E-02    0.288E-02
RMM:   5    -0.354690548773E+03    0.56054E-05   -0.65275E-05  5325   0.165E-02
   9 F= -.35469055E+03 E0= -.35469759E+03  d E =-.275593E-03
       N       E                     dE             d eps       ncg     rms          rms(c)
DAV:   1    -0.354690942714E+03   -0.38834E-03   -0.13381E-01  5632   0.113E+00    0.247E-01
RMM:   2    -0.354690946793E+03   -0.40794E-05   -0.97993E-03  6668   0.264E-01    0.947E-02
RMM:   3    -0.354690722100E+03    0.22469E-03   -0.12479E-03  7841   0.806E-02    0.657E-02
RMM:   4    -0.354690642705E+03    0.79395E-04   -0.35040E-04  7866   0.350E-02    0.402E-02
RMM:   5    -0.354690636966E+03    0.57390E-05   -0.11941E-04  6635   0.211E-02    0.306E-02
RMM:   6    -0.354690646376E+03   -0.94110E-05   -0.54495E-05  4784   0.130E-02
  10 F= -.35469065E+03 E0= -.35469768E+03  d E =-.373196E-03
       N       E                     dE             d eps       ncg     rms          rms(c)
DAV:   1    -0.354690809903E+03   -0.17294E-03   -0.65155E-02  5816   0.765E-01    0.130E-01
RMM:   2    -0.354690979874E+03   -0.16997E-03   -0.39640E-03  7344   0.167E-01    0.567E-02
RMM:   3    -0.354690903843E+03    0.76031E-04   -0.48397E-04  7788   0.505E-02    0.420E-02
RMM:   4    -0.354690875567E+03    0.28276E-04   -0.14248E-04  6908   0.209E-02    0.243E-02
RMM:   5    -0.354690869149E+03    0.64173E-05   -0.51076E-05  4882   0.139E-02
  11 F= -.35469087E+03 E0= -.35469794E+03  d E =-.222773E-03
       N       E                     dE             d eps       ncg     rms          rms(c)
DAV:   1    -0.354690894539E+03   -0.18972E-04   -0.48891E-03  5696   0.210E-01    0.321E-02
RMM:   2    -0.354690909365E+03   -0.14825E-04   -0.30275E-04  7547   0.453E-02    0.162E-02
RMM:   3    -0.354690900638E+03    0.87270E-05   -0.31510E-05  4084   0.131E-02
  12 F= -.35469090E+03 E0= -.35469799E+03  d E =-.254261E-03
       N       E                     dE             d eps       ncg     rms          rms(c)
DAV:   1    -0.354690923323E+03   -0.13958E-04   -0.19783E-02  5600   0.420E-01    0.675E-02
RMM:   2    -0.354690970848E+03   -0.47525E-04   -0.11938E-03  7394   0.909E-02    0.299E-02
RMM:   3    -0.354690944724E+03    0.26124E-04   -0.13862E-04  6916   0.254E-02    0.218E-02
RMM:   4    -0.354690936033E+03    0.86913E-05   -0.35516E-05  4228   0.129E-02
  13 F= -.35469094E+03 E0= -.35469804E+03  d E =-.289657E-03
       N       E                     dE             d eps       ncg     rms          rms(c)
DAV:   1    -0.354690835144E+03    0.10958E-03   -0.78816E-02  5440   0.843E-01    0.133E-01
RMM:   2    -0.354691035467E+03   -0.20032E-03   -0.46714E-03  7223   0.182E-01    0.575E-02
RMM:   3    -0.354690934996E+03    0.10047E-03   -0.50490E-04  7781   0.524E-02    0.426E-02
RMM:   4    -0.354690902447E+03    0.32548E-04   -0.14249E-04  6667   0.208E-02    0.265E-02
RMM:   5    -0.354690895061E+03    0.73864E-05   -0.58098E-05  5098   0.143E-02
  14 F= -.35469090E+03 E0= -.35469804E+03  d E =-.248684E-03
       N       E                     dE             d eps       ncg     rms          rms(c)
DAV:   1    -0.354690918118E+03   -0.15671E-04   -0.41711E-02  5656   0.614E-01    0.105E-01
RMM:   2    -0.354691004228E+03   -0.86109E-04   -0.25260E-03  6801   0.134E-01    0.425E-02
RMM:   3    -0.354690949410E+03    0.54818E-04   -0.25449E-04  7329   0.408E-02    0.314E-02
RMM:   4    -0.354690929250E+03    0.20161E-04   -0.64177E-05  5833   0.161E-02    0.183E-02
RMM:   5    -0.354690924861E+03    0.43882E-05   -0.16811E-05  3004   0.114E-02
  15 F= -.35469092E+03 E0= -.35469804E+03  d E =-.278485E-03
       N       E                     dE             d eps       ncg     rms          rms(c)
DAV:   1    -0.354690964400E+03   -0.35151E-04   -0.12652E-02  5584   0.327E-01    0.258E-02
RMM:   2    -0.354691007039E+03   -0.42638E-04   -0.49285E-04  6469   0.648E-02    0.122E-02
RMM:   3    -0.354691003326E+03    0.37126E-05   -0.36563E-05  3903   0.202E-02
  16 F= -.35469100E+03 E0= -.35469814E+03  d E =-.784647E-04
       N       E                     dE             d eps       ncg     rms          rms(c)
DAV:   1    -0.354690995173E+03    0.11866E-04   -0.26408E-02  5520   0.470E-01    0.372E-02
RMM:   2    -0.354691081848E+03   -0.86675E-04   -0.10515E-03  7222   0.918E-02    0.197E-02
RMM:   3    -0.354691077654E+03    0.41932E-05   -0.10897E-04  5667   0.267E-02    0.162E-02
RMM:   4    -0.354691077725E+03   -0.70195E-07   -0.40508E-05  4350   0.105E-02
  17 F= -.35469108E+03 E0= -.35469825E+03  d E =-.152863E-03
