<?xml version="1.0" encoding="ISO-8859-1"?>
<modeling>
 <generator>
  <i name="program" type="string">vasp </i>
  <i name="version" type="string">5.4.1  </i>
  <i name="subversion" type="string">05Feb16 (build Jan 29 2020 16:04:39) complex                          parallel </i>
  <i name="platform" type="string">IFC91_ompi </i>
  <i name="date" type="string">2020 06 15 </i>
  <i name="time" type="string">10:16:01 </i>
 </generator>
 <incar>
  <i type="string" name="SYSTEM"> automatically generated by mexm</i>
  <i type="int" name="ISTART">     0</i>
  <i type="string" name="PREC">accurate               ! avoid wrap aro</i>
  <i type="string" name="ALGO"> Fast                   ! blocked Davids</i>
  <i type="int" name="ISPIN">     1</i>
  <i type="int" name="ICHARG">     2</i>
  <i type="int" name="NELM">    70</i>
  <i type="int" name="IBRION">     2</i>
  <i name="EDIFF">      0.00001000</i>
  <i name="EDIFFG">     -0.01000000</i>
  <i type="int" name="NSW">   300</i>
  <i type="int" name="ISIF">     3</i>
  <i type="int" name="ISYM">     1</i>
  <i name="ENCUT">    300.00000000</i>
  <i name="POTIM">      0.15000000</i>
  <i type="string" name="LREAL"> Auto                  ! unpublished met</i>
  <i type="int" name="ISMEAR">     1</i>
  <i name="SIGMA">      0.15000000</i>
  <i type="logical" name="LWAVE"> F  </i>
  <i type="logical" name="LCHARG"> F  </i>
  <i type="logical" name="LVTOT"> F  </i>
  <v type="int" name="KPOINT_BSE">    -1     0     0     0</v>
  <i type="int" name="NELM">    70</i>
 </incar>
 <kpoints>
  <generation param="Gamma">
   <v type="int" name="divisions">       3        3        3 </v>
   <v name="usershift">      0.00000000       0.00000000       0.00000000 </v>
   <v name="genvec1">      0.33333333       0.00000000       0.00000000 </v>
   <v name="genvec2">     -0.00000000       0.33333333       0.00000000 </v>
   <v name="genvec3">     -0.00000000      -0.00000000       0.33333333 </v>
   <v name="shift">      0.00000000       0.00000000       0.00000000 </v>
  </generation>
  <varray name="kpointlist" >
   <v>       0.00000000       0.00000000       0.00000000 </v>
   <v>       0.33333333      -0.00000000       0.00000000 </v>
   <v>       0.00000000       0.33333333      -0.00000000 </v>
   <v>       0.33333333       0.33333333       0.00000000 </v>
   <v>      -0.33333333       0.33333333      -0.00000000 </v>
   <v>       0.00000000       0.00000000       0.33333333 </v>
   <v>       0.33333333      -0.00000000       0.33333333 </v>
   <v>      -0.33333333       0.00000000       0.33333333 </v>
   <v>       0.00000000       0.33333333       0.33333333 </v>
   <v>       0.33333333       0.33333333       0.33333333 </v>
   <v>      -0.33333333       0.33333333       0.33333333 </v>
   <v>       0.00000000      -0.33333333       0.33333333 </v>
   <v>       0.33333333      -0.33333333       0.33333333 </v>
   <v>      -0.33333333      -0.33333333       0.33333333 </v>
  </varray>
  <varray name="weights" >
   <v>       0.03703704 </v>
   <v>       0.07407407 </v>
   <v>       0.07407407 </v>
   <v>       0.07407407 </v>
   <v>       0.07407407 </v>
   <v>       0.07407407 </v>
   <v>       0.07407407 </v>
   <v>       0.07407407 </v>
   <v>       0.07407407 </v>
   <v>       0.07407407 </v>
   <v>       0.07407407 </v>
   <v>       0.07407407 </v>
   <v>       0.07407407 </v>
   <v>       0.07407407 </v>
  </varray>
 </kpoints>
 <parameters>
  <separator name="general" >
   <i type="string" name="SYSTEM">automatically generated by mexm</i>
   <i type="logical" name="LCOMPAT"> F  </i>
  </separator>
  <separator name="electronic" >
   <i type="string" name="PREC">accura</i>
   <i name="ENMAX">    300.00000000</i>
   <i name="ENAUG">    461.25700000</i>
   <i name="EDIFF">      0.00001000</i>
   <i type="int" name="IALGO">    68</i>
   <i type="int" name="IWAVPR">    11</i>
   <i type="int" name="NBANDS">   192</i>
   <i name="NELECT">    315.00000000</i>
   <i type="int" name="TURBO">     0</i>
   <i type="int" name="IRESTART">     0</i>
   <i type="int" name="NREBOOT">     0</i>
   <i type="int" name="NMIN">     0</i>
   <i name="EREF">      0.00000000</i>
   <separator name="electronic smearing" >
    <i type="int" name="ISMEAR">     1</i>
    <i name="SIGMA">      0.15000000</i>
    <i name="KSPACING">      0.50000000</i>
    <i type="logical" name="KGAMMA"> T  </i>
   </separator>
   <separator name="electronic projectors" >
    <i type="logical" name="LREAL"> T  </i>
    <v name="ROPT">     -0.00025000     -0.00025000     -0.00025000     -0.00025000</v>
    <i type="int" name="LMAXPAW">  -100</i>
    <i type="int" name="LMAXMIX">     2</i>
    <i type="logical" name="NLSPLINE"> F  </i>
   </separator>
   <separator name="electronic startup" >
    <i type="int" name="ISTART">     0</i>
    <i type="int" name="ICHARG">     2</i>
    <i type="int" name="INIWAV">     1</i>
   </separator>
   <separator name="electronic spin" >
    <i type="int" name="ISPIN">     1</i>
    <i type="logical" name="LNONCOLLINEAR"> F  </i>
    <v name="MAGMOM">      1.00000000      1.00000000      1.00000000      1.00000000      1.00000000      1.00000000      1.00000000      1.00000000      1.00000000      1.00000000      1.00000000      1.00000000      1.00000000      1.00000000      1.00000000      1.00000000      1.00000000      1.00000000      1.00000000      1.00000000
      1.00000000      1.00000000      1.00000000      1.00000000      1.00000000      1.00000000      1.00000000      1.00000000      1.00000000      1.00000000      1.00000000      1.00000000      1.00000000      1.00000000      1.00000000      1.00000000</v>
    <i name="NUPDOWN">     -1.00000000</i>
    <i type="logical" name="LSORBIT"> F  </i>
    <v name="SAXIS">      0.00000000      0.00000000      1.00000000</v>
    <i type="logical" name="LSPIRAL"> F  </i>
    <v name="QSPIRAL">      0.00000000      0.00000000      0.00000000</v>
    <i type="logical" name="LZEROZ"> F  </i>
   </separator>
   <separator name="electronic exchange-correlation" >
    <i type="logical" name="LASPH"> F  </i>
    <i type="logical" name="LMETAGGA"> F  </i>
   </separator>
   <separator name="electronic convergence" >
    <i type="int" name="NELM">    70</i>
    <i type="int" name="NELMDL">    -5</i>
    <i type="int" name="NELMIN">     2</i>
    <i name="ENINI">    300.00000000</i>
    <separator name="electronic convergence detail" >
     <i type="logical" name="LDIAG"> T  </i>
     <i type="logical" name="LSUBROT"> F  </i>
     <i name="WEIMIN">      0.00100000</i>
     <i name="EBREAK">      0.00000001</i>
     <i name="DEPER">      0.30000000</i>
     <i type="int" name="NRMM">     4</i>
     <i name="TIME">      0.40000000</i>
    </separator>
   </separator>
   <separator name="electronic mixer" >
    <i name="AMIX">      0.40000000</i>
    <i name="BMIX">      1.00000000</i>
    <i name="AMIN">      0.10000000</i>
    <i name="AMIX_MAG">      1.60000000</i>
    <i name="BMIX_MAG">      1.00000000</i>
    <separator name="electronic mixer details" >
     <i type="int" name="IMIX">     4</i>
     <i type="logical" name="MIXFIRST"> F  </i>
     <i type="int" name="MAXMIX">   -45</i>
     <i name="WC">    100.00000000</i>
     <i type="int" name="INIMIX">     1</i>
     <i type="int" name="MIXPRE">     1</i>
     <i type="int" name="MREMOVE">     5</i>
    </separator>
   </separator>
   <separator name="electronic dipolcorrection" >
    <i type="logical" name="LDIPOL"> F  </i>
    <i type="logical" name="LMONO"> F  </i>
    <i type="int" name="IDIPOL">     0</i>
    <i name="EPSILON">      1.00000000</i>
    <v name="DIPOL">   -100.00000000   -100.00000000   -100.00000000</v>
    <i name="EFIELD">      0.00000000</i>
   </separator>
  </separator>
  <separator name="grids" >
   <i type="int" name="NGX">    40</i>
   <i type="int" name="NGY">    60</i>
   <i type="int" name="NGZ">    60</i>
   <i type="int" name="NGXF">    80</i>
   <i type="int" name="NGYF">   120</i>
   <i type="int" name="NGZF">   120</i>
   <i type="logical" name="ADDGRID"> F  </i>
  </separator>
  <separator name="ionic" >
   <i type="int" name="NSW">   300</i>
   <i type="int" name="IBRION">     2</i>
   <i type="int" name="ISIF">     3</i>
   <i name="PSTRESS">      0.00000000</i>
   <i name="EDIFFG">     -0.01000000</i>
   <i type="int" name="NFREE">     1</i>
   <i name="POTIM">      0.15000000</i>
   <i name="SMASS">     -3.00000000</i>
   <i name="SCALEE">      1.00000000</i>
  </separator>
  <separator name="ionic md" >
   <i name="TEBEG">      0.00010000</i>
   <i name="TEEND">      0.00010000</i>
   <i type="int" name="NBLOCK">     1</i>
   <i type="int" name="KBLOCK">   300</i>
   <i type="int" name="NPACO">   256</i>
   <i name="APACO">     16.00000000</i>
  </separator>
  <separator name="symmetry" >
   <i type="int" name="ISYM">     1</i>
   <i name="SYMPREC">      0.00001000</i>
  </separator>
  <separator name="dos" >
   <i type="logical" name="LORBIT"> F  </i>
   <v name="RWIGS">     -1.00000000     -1.00000000     -1.00000000     -1.00000000</v>
   <i type="int" name="NEDOS">   301</i>
   <i name="EMIN">     10.00000000</i>
   <i name="EMAX">    -10.00000000</i>
   <i name="EFERMI">      0.00000000</i>
  </separator>
  <separator name="writing" >
   <i type="int" name="NWRITE">     2</i>
   <i type="logical" name="LWAVE"> F  </i>
   <i type="logical" name="LCHARG"> F  </i>
   <i type="logical" name="LPARD"> F  </i>
   <i type="logical" name="LVTOT"> F  </i>
   <i type="logical" name="LVHAR"> F  </i>
   <i type="logical" name="LELF"> F  </i>
   <i type="logical" name="LOPTICS"> F  </i>
   <v name="STM">      0.00000000      0.00000000      0.00000000      0.00000000      0.00000000      0.00000000      0.00000000</v>
  </separator>
  <separator name="performance" >
   <i type="int" name="NPAR">     4</i>
   <i type="int" name="NSIM">     4</i>
   <i type="int" name="NBLK">    -1</i>
   <i type="logical" name="LPLANE"> T  </i>
   <i type="logical" name="LSCALAPACK"> T  </i>
   <i type="logical" name="LSCAAWARE"> F  </i>
   <i type="logical" name="LSCALU"> F  </i>
   <i type="logical" name="LASYNC"> F  </i>
   <i type="logical" name="LORBITALREAL"> F  </i>
  </separator>
  <separator name="miscellaneous" >
   <i type="int" name="IDIOT">     3</i>
   <i type="logical" name="LMUSIC"> F  </i>
   <v name="POMASS">    180.94800000    178.49000000     92.91000000     91.22400000</v>
   <v name="DARWINR">      0.00000000      0.00000000      0.00000000      0.00000000</v>
   <v name="DARWINV">      1.00000000      1.00000000      1.00000000      1.00000000</v>
   <i type="logical" name="LCORR"> T  </i>
  </separator>
  <i type="logical" name="GGA_COMPAT"> T  </i>
  <i type="logical" name="LBERRY"> F  </i>
  <i type="int" name="ICORELEVEL">     0</i>
  <i type="logical" name="LDAU"> F  </i>
  <i type="int" name="I_CONSTRAINED_M">     0</i>
  <separator name="electronic exchange-correlation" >
   <i type="string" name="GGA">--</i>
   <i type="int" name="VOSKOWN">     0</i>
   <i type="logical" name="LHFCALC"> F  </i>
   <i type="string" name="PRECFOCK"></i>
   <i type="logical" name="LSYMGRAD"> F  </i>
   <i type="logical" name="LHFONE"> F  </i>
   <i type="logical" name="LRHFCALC"> F  </i>
   <i type="logical" name="LTHOMAS"> F  </i>
   <i type="logical" name="LMODELHF"> F  </i>
   <i name="ENCUT4O">     -1.00000000</i>
   <i type="int" name="EXXOEP">     0</i>
   <i type="int" name="FOURORBIT">     0</i>
   <i name="AEXX">      0.00000000</i>
   <i name="HFALPHA">      0.00000000</i>
   <i name="MCALPHA">      0.00000000</i>
   <i name="ALDAX">      1.00000000</i>
   <i name="AGGAX">      1.00000000</i>
   <i name="ALDAC">      1.00000000</i>
   <i name="AGGAC">      1.00000000</i>
   <i type="int" name="NKREDX">     1</i>
   <i type="int" name="NKREDY">     1</i>
   <i type="int" name="NKREDZ">     1</i>
   <i type="logical" name="SHIFTRED"> F  </i>
   <i type="logical" name="ODDONLY"> F  </i>
   <i type="logical" name="EVENONLY"> F  </i>
   <i type="int" name="LMAXFOCK">     0</i>
   <i type="int" name="NMAXFOCKAE">     0</i>
   <i type="logical" name="LFOCKAEDFT"> F  </i>
   <i name="HFSCREEN">      0.00000000</i>
   <i name="HFSCREENC">      0.00000000</i>
   <i type="int" name="NBANDSGWLOW">     0</i>
  </separator>
  <separator name="vdW DFT" >
   <i type="logical" name="LUSE_VDW"> F  </i>
   <i name="Zab_VDW">     -0.84910000</i>
   <i name="PARAM1">      0.12340000</i>
   <i name="PARAM2">      1.00000000</i>
   <i name="PARAM3">      0.00000000</i>
  </separator>
  <separator name="model GW" >
   <i type="int" name="MODEL_GW">     0</i>
   <i name="MODEL_EPS0">     12.10923835</i>
   <i name="MODEL_ALPHA">      1.00000000</i>
  </separator>
  <separator name="linear response parameters" >
   <i type="logical" name="LEPSILON"> F  </i>
   <i type="logical" name="LRPA"> F  </i>
   <i type="logical" name="LNABLA"> F  </i>
   <i type="logical" name="LVEL"> F  </i>
   <i type="int" name="KINTER">     0</i>
   <i name="CSHIFT">      0.10000000</i>
   <i name="OMEGAMAX">     -1.00000000</i>
   <i name="DEG_THRESHOLD">      0.00200000</i>
  </separator>
  <separator name="orbital magnetization" >
   <i type="logical" name="NUCIND"> F  </i>
   <v name="MAGPOS">      0.00000000      0.00000000      0.00000000</v>
   <i type="logical" name="LNICSALL"> T  </i>
   <i type="logical" name="ORBITALMAG"> F  </i>
   <i type="logical" name="LMAGBLOCH"> F  </i>
   <i type="logical" name="LCHIMAG"> F  </i>
   <i type="logical" name="LGAUGE"> T  </i>
   <i type="int" name="MAGATOM">     0</i>
   <v name="MAGDIPOL">      0.00000000      0.00000000      0.00000000</v>
   <v name="AVECCONST">      0.00000000      0.00000000      0.00000000</v>
  </separator>
  <separator name="response functions" >
   <i type="logical" name="LADDER"> F  </i>
   <i type="logical" name="LFXC"> F  </i>
   <i type="logical" name="LHARTREE"> T  </i>
   <i type="int" name="IBSE">     0</i>
   <v type="int" name="KPOINT">    -1     0     0     0</v>
   <i type="logical" name="LTCTE"> F  </i>
   <i type="logical" name="LTETE"> F  </i>
   <i type="logical" name="LTRIPLET"> F  </i>
   <i type="logical" name="LFXCEPS"> F  </i>
   <i type="logical" name="LFXHEG"> F  </i>
   <i type="int" name="NATURALO">     0</i>
   <i type="logical" name="L2ORDER"> F  </i>
   <i type="logical" name="LUSEW"> F  </i>
   <i name="ENCUTGW">     -2.00000000</i>
   <i name="ENCUTGWSOFT">     -2.00000000</i>
   <i name="ENCUTLF">     -1.00000000</i>
   <i type="int" name="LMAXMP2">    -1</i>
   <i name="SCISSOR">      0.00000000</i>
   <i type="int" name="NOMEGA">     0</i>
   <i type="int" name="NOMEGAR">     0</i>
   <i type="int" name="NBANDSGW">    -1</i>
   <i type="int" name="NBANDSO">    -1</i>
   <i type="int" name="NBANDSV">    -1</i>
   <i type="int" name="NELM">    70</i>
   <i type="int" name="NELMHF">     1</i>
   <i type="int" name="DIM">     3</i>
   <i type="int" name="ANTIRES">     0</i>
   <i name="OMEGAMAX">    -30.00000000</i>
   <i name="OMEGAMIN">    -30.00000000</i>
   <i name="OMEGATL">   -200.00000000</i>
   <i type="int" name="OMEGAGRID">     0</i>
   <i name="CSHIFT">     -0.10000000</i>
   <i type="logical" name="SELFENERGY"> F  </i>
   <i type="logical" name="LSPECTRAL"> F  </i>
   <i type="logical" name="LSPECTRALGW"> F  </i>
   <i type="logical" name="LSINGLES"> F  </i>
   <i type="logical" name="LFERMIGW"> F  </i>
   <i type="logical" name="ODDONLYGW"> F  </i>
   <i type="logical" name="EVENONLYGW"> F  </i>
   <i type="int" name="NKREDLFX">     1</i>
   <i type="int" name="NKREDLFY">     1</i>
   <i type="int" name="NKREDLFZ">     1</i>
   <i type="int" name="MAXMEM">  1800</i>
   <i type="int" name="TELESCOPE">     0</i>
   <i type="int" name="TAUPAR">     1</i>
   <i type="int" name="OMEGAPAR">    -1</i>
   <i name="LAMBDA">      1.00000000</i>
  </separator>
  <separator name="External order field" >
   <i name="OFIELD_KAPPA">      0.00000000</i>
   <v name="OFIELD_K">      0.00000000      0.00000000      0.00000000</v>
   <i name="OFIELD_Q6_NEAR">      0.00000000</i>
   <i name="OFIELD_Q6_FAR">      0.00000000</i>
   <i name="OFIELD_A">      0.00000000</i>
  </separator>
 </parameters>
 <atominfo>
  <atoms>      36 </atoms>
  <types>       4 </types>
  <array name="atoms" >
   <dimension dim="1">ion</dimension>
   <field type="string">element</field>
   <field type="int">atomtype</field>
   <set>
    <rc><c>Ta</c><c>   1</c></rc>
    <rc><c>Ta</c><c>   1</c></rc>
    <rc><c>Ta</c><c>   1</c></rc>
    <rc><c>Ta</c><c>   1</c></rc>
    <rc><c>Ta</c><c>   1</c></rc>
    <rc><c>Ta</c><c>   1</c></rc>
    <rc><c>Ta</c><c>   1</c></rc>
    <rc><c>Ta</c><c>   1</c></rc>
    <rc><c>Hf</c><c>   2</c></rc>
    <rc><c>Hf</c><c>   2</c></rc>
    <rc><c>Hf</c><c>   2</c></rc>
    <rc><c>Hf</c><c>   2</c></rc>
    <rc><c>Hf</c><c>   2</c></rc>
    <rc><c>Hf</c><c>   2</c></rc>
    <rc><c>Hf</c><c>   2</c></rc>
    <rc><c>Hf</c><c>   2</c></rc>
    <rc><c>Hf</c><c>   2</c></rc>
    <rc><c>Nb</c><c>   3</c></rc>
    <rc><c>Nb</c><c>   3</c></rc>
    <rc><c>Nb</c><c>   3</c></rc>
    <rc><c>Nb</c><c>   3</c></rc>
    <rc><c>Nb</c><c>   3</c></rc>
    <rc><c>Nb</c><c>   3</c></rc>
    <rc><c>Nb</c><c>   3</c></rc>
    <rc><c>Nb</c><c>   3</c></rc>
    <rc><c>Nb</c><c>   3</c></rc>
    <rc><c>Nb</c><c>   3</c></rc>
    <rc><c>Nb</c><c>   3</c></rc>
    <rc><c>Zr</c><c>   4</c></rc>
    <rc><c>Zr</c><c>   4</c></rc>
    <rc><c>Zr</c><c>   4</c></rc>
    <rc><c>Zr</c><c>   4</c></rc>
    <rc><c>Zr</c><c>   4</c></rc>
    <rc><c>Zr</c><c>   4</c></rc>
    <rc><c>Zr</c><c>   4</c></rc>
    <rc><c>Zr</c><c>   4</c></rc>
   </set>
  </array>
  <array name="atomtypes" >
   <dimension dim="1">type</dimension>
   <field type="int">atomspertype</field>
   <field type="string">element</field>
   <field>mass</field>
   <field>valence</field>
   <field type="string">pseudopotential</field>
   <set>
    <rc><c>   8</c><c>Ta</c><c>    180.94800000</c><c>      5.00000000</c><c>  PAW_PBE Ta 17Jan2003                  </c></rc>
    <rc><c>   9</c><c>Hf</c><c>    178.49000000</c><c>      4.00000000</c><c>  PAW_PBE Hf 20Jan2003                  </c></rc>
    <rc><c>  11</c><c>Nb</c><c>     92.91000000</c><c>     13.00000000</c><c>  PAW_PBE Nb_sv 25May2007               </c></rc>
    <rc><c>   8</c><c>Zr</c><c>     91.22400000</c><c>     12.00000000</c><c>  PAW_PBE Zr_sv 04Jan2005               </c></rc>
   </set>
  </array>
 </atominfo>
 <structure name="initialpos" >
  <crystal>
   <varray name="basis" >
    <v>       6.94488481      -0.01424163       0.04661576 </v>
    <v>      -0.02109057      10.25295741       0.00260390 </v>
    <v>       0.06819519       0.00155635      10.20411188 </v>
   </varray>
   <i name="volume">    726.55430084 </i>
   <varray name="rec_basis" >
    <v>       0.14399794       0.00029645      -0.00096240 </v>
    <v>       0.00020012       0.09753325      -0.00001621 </v>
    <v>      -0.00065788      -0.00002624       0.09800411 </v>
   </varray>
  </crystal>
  <varray name="positions" >
   <v>       0.73908600       0.49561500       0.83273100 </v>
   <v>       0.72960200       0.49838100       0.17159300 </v>
   <v>       0.03838100       0.99151500       0.66893600 </v>
   <v>       0.51849000       0.66953500       0.34062800 </v>
   <v>       0.75331100       0.50582200       0.49492000 </v>
   <v>       0.98413300       0.66842600       0.32838100 </v>
   <v>       0.50056900       0.65201100       0.66101900 </v>
   <v>       0.49291000       0.01335400       0.99729000 </v>
   <v>       0.22932200       0.17092800       0.48686100 </v>
   <v>       0.26668700       0.50653800       0.16813900 </v>
   <v>       0.99808800       0.34078400       0.99950200 </v>
   <v>       0.97581600       0.66173000       0.00534200 </v>
   <v>       0.26422500       0.82202600       0.16927200 </v>
   <v>       0.46710100       0.00504800       0.65856300 </v>
   <v>       0.75782500       0.83338200       0.50562900 </v>
   <v>       0.01097100       0.65772700       0.66877600 </v>
   <v>       0.27134600       0.81582900       0.84388600 </v>
   <v>       0.53509000       0.65959300       0.00195700 </v>
   <v>       0.99603300       0.98232300       0.32312100 </v>
   <v>       0.49774900       0.98646000       0.34530200 </v>
   <v>       0.74131400       0.83190800       0.18209300 </v>
   <v>       0.51450600       0.34500200       0.34403700 </v>
   <v>       0.26338600       0.50477500       0.84071900 </v>
   <v>       0.97740200       0.35106700       0.31688300 </v>
   <v>       0.00634000       0.34742400       0.68046800 </v>
   <v>       0.25012100       0.82995100       0.48956800 </v>
   <v>       0.49299800       0.33373800       0.98796600 </v>
   <v>       0.23268800       0.17398500       0.82819500 </v>
   <v>       0.25136800       0.17381900       0.18404800 </v>
   <v>       0.99976900       0.99826300       0.00600500 </v>
   <v>       0.76763700       0.16282300       0.49893300 </v>
   <v>       0.76506000       0.16854500       0.82062300 </v>
   <v>       0.72979200       0.17379600       0.17727500 </v>
   <v>       0.49289400       0.33735300       0.66592400 </v>
   <v>       0.74439500       0.83547800       0.81809200 </v>
   <v>       0.24358900       0.49505100       0.48732000 </v>
  </varray>
 </structure>
 <calculation>
  <scstep>
   <time name="dav">    1.09    1.13</time>
   <time name="total">    2.55    2.85</time>
   <energy>
    <i name="alphaZ">   1637.58607916 </i>
    <i name="ewald"> -22099.29542703 </i>
    <i name="hartreedc">  -7733.59796607 </i>
    <i name="XCdc">     12.82886760 </i>
    <i name="pawpsdc">  24230.45059827 </i>
    <i name="pawaedc"> -22748.86655826 </i>
    <i name="eentropy">      0.00339032 </i>
    <i name="bandstr">   -264.73631258 </i>
    <i name="atom">  29107.92662258 </i>
    <i name="e_fr_energy">   2142.29929397 </i>
    <i name="e_wo_entrp">   2142.29590365 </i>
    <i name="e_0_energy">   2142.29816386 </i>
   </energy>
  </scstep>
  <scstep>
   <time name="dav">    1.34    1.35</time>
   <time name="total">    1.34    1.45</time>
   <energy>
    <i name="e_fr_energy">    -71.06060440 </i>
    <i name="e_wo_entrp">    -71.04795822 </i>
    <i name="e_0_energy">    -71.05638900 </i>
   </energy>
  </scstep>
  <scstep>
   <time name="dav">    1.50    1.51</time>
   <time name="total">    1.50    1.54</time>
   <energy>
    <i name="e_fr_energy">   -342.32777251 </i>
    <i name="e_wo_entrp">   -342.32497874 </i>
    <i name="e_0_energy">   -342.32684125 </i>
   </energy>
  </scstep>
  <scstep>
   <time name="dav">    1.60    1.61</time>
   <time name="total">    1.60    1.64</time>
   <energy>
    <i name="e_fr_energy">   -373.43043071 </i>
    <i name="e_wo_entrp">   -373.43469292 </i>
    <i name="e_0_energy">   -373.43185145 </i>
   </energy>
  </scstep>
  <scstep>
   <time name="dav">    1.48    1.49</time>
   <time name="total">    1.52    1.55</time>
   <energy>
    <i name="e_fr_energy">   -376.52206506 </i>
    <i name="e_wo_entrp">   -376.52854255 </i>
    <i name="e_0_energy">   -376.52422422 </i>
   </energy>
  </scstep>
  <scstep>
   <time name="diag">    0.09    0.09</time>
   <time name="diis">    0.76    0.77</time>
   <time name="orth">    0.01    0.01</time>
   <time name="total">    0.93    0.98</time>
   <energy>
    <i name="e_fr_energy">   -366.41033433 </i>
    <i name="e_wo_entrp">   -366.40930638 </i>
    <i name="e_0_energy">   -366.40999168 </i>
   </energy>
  </scstep>
  <scstep>
   <time name="diag">    0.15    0.15</time>
   <time name="diis">    0.81    0.81</time>
   <time name="orth">    0.01    0.01</time>
   <time name="total">    1.03    1.07</time>
   <energy>
    <i name="e_fr_energy">   -370.33371478 </i>
    <i name="e_wo_entrp">   -370.32234987 </i>
    <i name="e_0_energy">   -370.32992648 </i>
   </energy>
  </scstep>
  <scstep>
   <time name="diag">    0.10    0.10</time>
   <time name="diis">    0.80    0.80</time>
   <time name="orth">    0.01    0.01</time>
   <time name="total">    1.13    1.16</time>
   <energy>
    <i name="e_fr_energy">   -361.83454503 </i>
    <i name="e_wo_entrp">   -361.85069079 </i>
    <i name="e_0_energy">   -361.83992695 </i>
   </energy>
  </scstep>
  <scstep>
   <time name="diag">    0.10    0.10</time>
   <time name="diis">    0.85    0.86</time>
   <time name="orth">    0.01    0.01</time>
   <time name="total">    1.68    1.74</time>
   <energy>
    <i name="e_fr_energy">   -361.52057433 </i>
    <i name="e_wo_entrp">   -361.53427136 </i>
    <i name="e_0_energy">   -361.52514001 </i>
   </energy>
  </scstep>
  <scstep>
   <time name="diag">    0.09    0.09</time>
   <time name="diis">    0.82    0.83</time>
   <time name="orth">    0.01    0.01</time>
   <time name="total">    1.01    1.05</time>
   <energy>
    <i name="e_fr_energy">   -361.48028784 </i>
    <i name="e_wo_entrp">   -361.49558340 </i>
    <i name="e_0_energy">   -361.48538636 </i>
   </energy>
  </scstep>
  <scstep>
   <time name="diag">    0.08    0.08</time>
   <time name="diis">    0.81    0.82</time>
   <time name="orth">    0.01    0.01</time>
   <time name="total">    1.02    1.05</time>
   <energy>
    <i name="e_fr_energy">   -361.43635520 </i>
    <i name="e_wo_entrp">   -361.45027648 </i>
    <i name="e_0_energy">   -361.44099563 </i>
   </energy>
  </scstep>
  <scstep>
   <time name="diag">    0.14    0.14</time>
   <time name="diis">    0.89    0.90</time>
   <time name="orth">    0.01    0.01</time>
   <time name="total">    1.11    1.14</time>
   <energy>
    <i name="e_fr_energy">   -361.43269608 </i>
    <i name="e_wo_entrp">   -361.44633887 </i>
    <i name="e_0_energy">   -361.43724368 </i>
   </energy>
  </scstep>
  <scstep>
   <time name="diag">    0.08    0.08</time>
   <time name="diis">    0.83    0.84</time>
   <time name="orth">    0.01    0.01</time>
   <time name="total">    0.99    1.05</time>
   <energy>
    <i name="e_fr_energy">   -361.43051241 </i>
    <i name="e_wo_entrp">   -361.44435309 </i>
    <i name="e_0_energy">   -361.43512597 </i>
   </energy>
  </scstep>
  <scstep>
   <time name="diag">    0.08    0.08</time>
   <time name="diis">    0.87    0.87</time>
   <time name="orth">    0.01    0.01</time>
   <time name="total">    1.03    1.08</time>
   <energy>
    <i name="e_fr_energy">   -361.43052074 </i>
    <i name="e_wo_entrp">   -361.44464033 </i>
    <i name="e_0_energy">   -361.43522727 </i>
   </energy>
  </scstep>
  <scstep>
   <time name="diag">    0.08    0.09</time>
   <time name="diis">    0.91    0.93</time>
   <time name="orth">    0.01    0.01</time>
   <time name="total">    1.08    1.13</time>
   <energy>
    <i name="e_fr_energy">   -361.43064233 </i>
    <i name="e_wo_entrp">   -361.44457450 </i>
    <i name="e_0_energy">   -361.43528639 </i>
   </energy>
  </scstep>
  <scstep>
   <time name="diag">    0.08    0.08</time>
   <time name="diis">    0.79    0.79</time>
   <time name="orth">    0.01    0.01</time>
   <time name="total">    0.95    0.98</time>
   <energy>
    <i name="e_fr_energy">   -361.43062759 </i>
    <i name="e_wo_entrp">   -361.44461951 </i>
    <i name="e_0_energy">   -361.43529156 </i>
   </energy>
  </scstep>
  <scstep>
   <time name="diag">    0.08    0.08</time>
   <time name="diis">    0.76    0.77</time>
   <time name="orth">    0.01    0.01</time>
   <time name="total">    0.99    1.02</time>
   <energy>
    <i name="e_fr_energy">   -361.43064348 </i>
    <i name="e_wo_entrp">   -361.44465747 </i>
    <i name="e_0_energy">   -361.43531481 </i>
   </energy>
  </scstep>
  <scstep>
   <time name="diag">    0.08    0.08</time>
   <time name="diis">    0.60    0.60</time>
   <time name="orth">    0.01    0.01</time>
   <time name="total">    0.76    0.79</time>
   <energy>
    <i name="e_fr_energy">   -361.43065210 </i>
    <i name="e_wo_entrp">   -361.44464125 </i>
    <i name="e_0_energy">   -361.43531515 </i>
   </energy>
  </scstep>
  <scstep>
   <time name="diag">    0.08    0.08</time>
   <time name="diis">    0.54    0.55</time>
   <time name="orth">    0.01    0.01</time>
   <time name="total">    0.71    0.74</time>
   <energy>
    <i name="e_fr_energy">   -361.43065738 </i>
    <i name="e_wo_entrp">   -361.44464530 </i>
    <i name="e_0_energy">   -361.43532002 </i>
   </energy>
  </scstep>
  <scstep>
   <time name="diag">    0.08    0.08</time>
   <time name="diis">    0.46    0.47</time>
   <time name="orth">    0.01    0.01</time>
   <time name="total">    0.60    0.62</time>
   <energy>
    <i name="alphaZ">   1637.58607916 </i>
    <i name="ewald"> -22099.29542703 </i>
    <i name="hartreedc">  -7464.93668373 </i>
    <i name="XCdc">      9.23931749 </i>
    <i name="pawpsdc">  36276.47442144 </i>
    <i name="pawaedc"> -34768.11415853 </i>
    <i name="eentropy">      0.01399352 </i>
    <i name="bandstr">  -3060.32482253 </i>
    <i name="atom">  29107.92662258 </i>
    <i name="e_fr_energy">   -361.43065762 </i>
    <i name="e_wo_entrp">   -361.44465115 </i>
    <i name="e_0_energy">   -361.43532213 </i>
   </energy>
  </scstep>
  <structure>
   <crystal>
    <varray name="basis" >
     <v>       6.94488481      -0.01424163       0.04661576 </v>
     <v>      -0.02109057      10.25295741       0.00260390 </v>
     <v>       0.06819519       0.00155635      10.20411188 </v>
    </varray>
    <i name="volume">    726.55430084 </i>
    <varray name="rec_basis" >
     <v>       0.14399794       0.00029645      -0.00096240 </v>
     <v>       0.00020012       0.09753325      -0.00001621 </v>
     <v>      -0.00065788      -0.00002624       0.09800411 </v>
    </varray>
   </crystal>
   <varray name="positions" >
    <v>       0.73908600       0.49561500       0.83273100 </v>
    <v>       0.72960200       0.49838100       0.17159300 </v>
    <v>       0.03838100       0.99151500       0.66893600 </v>
    <v>       0.51849000       0.66953500       0.34062800 </v>
    <v>       0.75331100       0.50582200       0.49492000 </v>
    <v>       0.98413300       0.66842600       0.32838100 </v>
    <v>       0.50056900       0.65201100       0.66101900 </v>
    <v>       0.49291000       0.01335400       0.99729000 </v>
    <v>       0.22932200       0.17092800       0.48686100 </v>
    <v>       0.26668700       0.50653800       0.16813900 </v>
    <v>       0.99808800       0.34078400       0.99950200 </v>
    <v>       0.97581600       0.66173000       0.00534200 </v>
    <v>       0.26422500       0.82202600       0.16927200 </v>
    <v>       0.46710100       0.00504800       0.65856300 </v>
    <v>       0.75782500       0.83338200       0.50562900 </v>
    <v>       0.01097100       0.65772700       0.66877600 </v>
    <v>       0.27134600       0.81582900       0.84388600 </v>
    <v>       0.53509000       0.65959300       0.00195700 </v>
    <v>       0.99603300       0.98232300       0.32312100 </v>
    <v>       0.49774900       0.98646000       0.34530200 </v>
    <v>       0.74131400       0.83190800       0.18209300 </v>
    <v>       0.51450600       0.34500200       0.34403700 </v>
    <v>       0.26338600       0.50477500       0.84071900 </v>
    <v>       0.97740200       0.35106700       0.31688300 </v>
    <v>       0.00634000       0.34742400       0.68046800 </v>
    <v>       0.25012100       0.82995100       0.48956800 </v>
    <v>       0.49299800       0.33373800       0.98796600 </v>
    <v>       0.23268800       0.17398500       0.82819500 </v>
    <v>       0.25136800       0.17381900       0.18404800 </v>
    <v>       0.99976900       0.99826300       0.00600500 </v>
    <v>       0.76763700       0.16282300       0.49893300 </v>
    <v>       0.76506000       0.16854500       0.82062300 </v>
    <v>       0.72979200       0.17379600       0.17727500 </v>
    <v>       0.49289400       0.33735300       0.66592400 </v>
    <v>       0.74439500       0.83547800       0.81809200 </v>
    <v>       0.24358900       0.49505100       0.48732000 </v>
   </varray>
  </structure>
  <varray name="forces" >
   <v>      -0.03373289       0.01686788       0.02055548 </v>
   <v>      -0.04362952       0.03072786      -0.01679056 </v>
   <v>      -0.03626738      -0.02040695      -0.06881844 </v>
   <v>       0.00072542      -0.01385738      -0.00343067 </v>
   <v>       0.00630424      -0.00217624      -0.01581613 </v>
   <v>       0.02070117      -0.05722085       0.04048686 </v>
   <v>       0.02624688      -0.01546054      -0.01818883 </v>
   <v>      -0.11877143      -0.04182069      -0.08171899 </v>
   <v>       0.02577288      -0.01298976       0.01351495 </v>
   <v>       0.03419825      -0.00410456      -0.01716735 </v>
   <v>      -0.01288651       0.05050031      -0.00111016 </v>
   <v>       0.00760697      -0.02675408       0.03209741 </v>
   <v>       0.16762784       0.34956335      -0.27688335 </v>
   <v>      -0.01206215       0.01251957       0.15424400 </v>
   <v>       0.00147638       0.01315922      -0.01163026 </v>
   <v>      -0.00236141      -0.05331005      -0.03017728 </v>
   <v>       0.20498276       0.40886187       0.25039299 </v>
   <v>       0.00261349       0.02439442      -0.00447586 </v>
   <v>      -0.03437665      -0.02709899       0.04851718 </v>
   <v>      -0.02240881       0.02245040      -0.04317633 </v>
   <v>      -0.14237182       0.24048959      -0.29098049 </v>
   <v>       0.01493799       0.02554566       0.03441187 </v>
   <v>       0.04310448      -0.01587482       0.01664951 </v>
   <v>      -0.03319565       0.05512518       0.02973959 </v>
   <v>       0.00147242       0.05878328       0.00091293 </v>
   <v>       0.01624992       0.00892153       0.01386001 </v>
   <v>      -0.00331492      -0.13268835      -0.03639397 </v>
   <v>       0.40027762      -0.35689427       0.33216428 </v>
   <v>       0.21766712      -0.25720979      -0.33940609 </v>
   <v>       0.02366372       0.02111925       0.06383344 </v>
   <v>      -0.03593144      -0.02014790       0.01254443 </v>
   <v>      -0.32845366      -0.19482766       0.24427458 </v>
   <v>      -0.17682289      -0.31095700      -0.32091294 </v>
   <v>       0.00025440       0.03275279      -0.02854461 </v>
   <v>      -0.20027180       0.20136408       0.30127540 </v>
   <v>       0.02097499      -0.00934638      -0.00385260 </v>
  </varray>
  <varray name="stress" >
   <v>      -8.11335429      -0.29045032       0.13459857 </v>
   <v>      -0.29045030      -9.17762347      -0.19487017 </v>
   <v>       0.13459859      -0.19487025      -8.33243562 </v>
  </varray>
  <energy>
   <i name="e_fr_energy">   -361.43065762 </i>
   <i name="e_wo_entrp">   -361.43532213 </i>
   <i name="e_0_energy">      0.01399352 </i>
  </energy>
  <time name="totalsc">   25.31   26.48</time>
 </calculation>
 <calculation>
  <scstep>
   <time name="dav">    1.26    1.26</time>
   <time name="total">    2.08    2.21</time>
   <energy>
    <i name="alphaZ">   1645.25976272 </i>
    <i name="ewald"> -22135.04901058 </i>
    <i name="hartreedc">  -7475.46522658 </i>
    <i name="XCdc">     10.78679342 </i>
    <i name="pawpsdc">  36276.69266851 </i>
    <i name="pawaedc"> -34768.32948896 </i>
    <i name="eentropy">      0.01491277 </i>
    <i name="bandstr">  -3023.35989619 </i>
    <i name="atom">  29107.92662258 </i>
    <i name="e_fr_energy">   -361.52286231 </i>
    <i name="e_wo_entrp">   -361.53777508 </i>
    <i name="e_0_energy">   -361.52783323 </i>
   </energy>
  </scstep>
  <scstep>
   <time name="diag">    0.09    0.09</time>
   <time name="diis">    0.81    0.82</time>
   <time name="orth">    0.01    0.01</time>
   <time name="total">    1.00    1.05</time>
   <energy>
    <i name="e_fr_energy">   -361.50574719 </i>
    <i name="e_wo_entrp">   -361.51810151 </i>
    <i name="e_0_energy">   -361.50986530 </i>
   </energy>
  </scstep>
  <scstep>
   <time name="diag">    0.08    0.08</time>
   <time name="diis">    0.91    0.91</time>
   <time name="orth">    0.01    0.01</time>
   <time name="total">    1.13    1.16</time>
   <energy>
    <i name="e_fr_energy">   -361.47957117 </i>
    <i name="e_wo_entrp">   -361.49431235 </i>
    <i name="e_0_energy">   -361.48448490 </i>
   </energy>
  </scstep>
  <scstep>
   <time name="diag">    0.10    0.10</time>
   <time name="diis">    0.91    0.93</time>
   <time name="orth">    0.01    0.01</time>
   <time name="total">    1.11    1.15</time>
   <energy>
    <i name="e_fr_energy">   -361.47118085 </i>
    <i name="e_wo_entrp">   -361.48520740 </i>
    <i name="e_0_energy">   -361.47585636 </i>
   </energy>
  </scstep>
  <scstep>
   <time name="diag">    0.12    0.12</time>
   <time name="diis">    0.82    0.83</time>
   <time name="orth">    0.01    0.01</time>
   <time name="total">    1.02    1.07</time>
   <energy>
    <i name="e_fr_energy">   -361.46936540 </i>
    <i name="e_wo_entrp">   -361.48342276 </i>
    <i name="e_0_energy">   -361.47405119 </i>
   </energy>
  </scstep>
  <scstep>
   <time name="diag">    0.08    0.08</time>
   <time name="diis">    0.88    0.89</time>
   <time name="orth">    0.01    0.02</time>
   <time name="total">    1.05    1.08</time>
   <energy>
    <i name="e_fr_energy">   -361.46951881 </i>
    <i name="e_wo_entrp">   -361.48358659 </i>
    <i name="e_0_energy">   -361.47420807 </i>
   </energy>
  </scstep>
  <scstep>
   <time name="diag">    0.09    0.09</time>
   <time name="diis">    0.88    0.88</time>
   <time name="orth">    0.01    0.01</time>
   <time name="total">    1.04    1.08</time>
   <energy>
    <i name="e_fr_energy">   -361.46969430 </i>
    <i name="e_wo_entrp">   -361.48371569 </i>
    <i name="e_0_energy">   -361.47436810 </i>
   </energy>
  </scstep>
  <scstep>
   <time name="diag">    0.08    0.08</time>
   <time name="diis">    0.89    0.89</time>
   <time name="orth">    0.01    0.01</time>
   <time name="total">    1.05    1.10</time>
   <energy>
    <i name="e_fr_energy">   -361.46979466 </i>
    <i name="e_wo_entrp">   -361.48382972 </i>
    <i name="e_0_energy">   -361.47447302 </i>
   </energy>
  </scstep>
  <scstep>
   <time name="diag">    0.12    0.16</time>
   <time name="diis">    0.71    0.71</time>
   <time name="orth">    0.01    0.01</time>
   <time name="total">    0.91    1.31</time>
   <energy>
    <i name="e_fr_energy">   -361.46987124 </i>
    <i name="e_wo_entrp">   -361.48394307 </i>
    <i name="e_0_energy">   -361.47456185 </i>
   </energy>
  </scstep>
  <scstep>
   <time name="diag">    0.09    0.09</time>
   <time name="diis">    0.71    0.71</time>
   <time name="orth">    0.01    0.01</time>
   <time name="total">    0.87    0.90</time>
   <energy>
    <i name="e_fr_energy">   -361.46996807 </i>
    <i name="e_wo_entrp">   -361.48403094 </i>
    <i name="e_0_energy">   -361.47465569 </i>
   </energy>
  </scstep>
  <scstep>
   <time name="diag">    0.08    0.08</time>
   <time name="diis">    0.54    0.54</time>
   <time name="orth">    0.01    0.01</time>
   <time name="total">    0.71    0.73</time>
   <energy>
    <i name="e_fr_energy">   -361.47000166 </i>
    <i name="e_wo_entrp">   -361.48406365 </i>
    <i name="e_0_energy">   -361.47468899 </i>
   </energy>
  </scstep>
  <scstep>
   <time name="diag">    0.08    0.08</time>
   <time name="diis">    0.47    0.47</time>
   <time name="orth">    0.01    0.01</time>
   <time name="total">    0.60    0.62</time>
   <energy>
    <i name="alphaZ">   1645.25976272 </i>
    <i name="ewald"> -22135.04901058 </i>
    <i name="hartreedc">  -7453.29979070 </i>
    <i name="XCdc">      9.80300994 </i>
    <i name="pawpsdc">  36476.87783361 </i>
    <i name="pawaedc"> -34968.15537284 </i>
    <i name="eentropy">      0.01406027 </i>
    <i name="bandstr">  -3044.84712393 </i>
    <i name="atom">  29107.92662258 </i>
    <i name="e_fr_energy">   -361.47000892 </i>
    <i name="e_wo_entrp">   -361.48406919 </i>
    <i name="e_0_energy">   -361.47469568 </i>
   </energy>
  </scstep>
  <structure>
   <crystal>
    <varray name="basis" >
     <v>       6.93461428      -0.01458720       0.04671587 </v>
     <v>      -0.02160223      10.23580359       0.00223517 </v>
     <v>       0.06834463       0.00118762      10.18861268 </v>
    </varray>
    <i name="volume">    723.16556678 </i>
    <varray name="rec_basis" >
     <v>       0.14421128       0.00030456      -0.00096740 </v>
     <v>       0.00020559       0.09769672      -0.00001277 </v>
     <v>      -0.00066127      -0.00002283       0.09815323 </v>
    </varray>
   </crystal>
   <varray name="positions" >
    <v>       0.73901548       0.49563871       0.83276047 </v>
    <v>       0.72951144       0.49842425       0.17156959 </v>
    <v>       0.03830629       0.99148611       0.66883874 </v>
    <v>       0.51849150       0.66951544       0.34062313 </v>
    <v>       0.75332435       0.50581895       0.49489751 </v>
    <v>       0.98417533       0.66834528       0.32843825 </v>
    <v>       0.50062389       0.65198926       0.66099296 </v>
    <v>       0.49266343       0.01329464       0.99717524 </v>
    <v>       0.22937547       0.17090974       0.48687993 </v>
    <v>       0.26675849       0.50653231       0.16811433 </v>
    <v>       0.99806138       0.34085525       0.99950053 </v>
    <v>       0.97583129       0.66169225       0.00538746 </v>
    <v>       0.26457970       0.82251999       0.16887754 </v>
    <v>       0.46707377       0.00506560       0.65878189 </v>
    <v>       0.75782830       0.83340058       0.50561248 </v>
    <v>       0.01096627       0.65765175       0.66873324 </v>
    <v>       0.27177146       0.81640668       0.84423905 </v>
    <v>       0.53509561       0.65962744       0.00195062 </v>
    <v>       0.99596057       0.98228464       0.32319015 </v>
    <v>       0.49770300       0.98649164       0.34524096 </v>
    <v>       0.74102237       0.83224713       0.18168154 </v>
    <v>       0.51453676       0.34503809       0.34408566 </v>
    <v>       0.26347553       0.50475271       0.84074221 </v>
    <v>       0.97733264       0.35114471       0.31692548 </v>
    <v>       0.00634331       0.34750698       0.68046926 </v>
    <v>       0.25015471       0.82996364       0.48958750 </v>
    <v>       0.49299103       0.33355070       0.98791446 </v>
    <v>       0.23351604       0.17348230       0.82866246 </v>
    <v>       0.25182525       0.17345664       0.18356461 </v>
    <v>       0.99981752       0.99829287       0.00609531 </v>
    <v>       0.76756186       0.16279445       0.49895114 </v>
    <v>       0.76437125       0.16826898       0.82097268 </v>
    <v>       0.72942663       0.17335662       0.17682162 </v>
    <v>       0.49289507       0.33739924       0.66588350 </v>
    <v>       0.74397429       0.83576159       0.81852116 </v>
    <v>       0.24363273       0.49503787       0.48731434 </v>
   </varray>
  </structure>
  <varray name="forces" >
   <v>      -0.01676944       0.01169852       0.00901156 </v>
   <v>      -0.02920785       0.02720496      -0.01878828 </v>
   <v>      -0.05078328      -0.02232626      -0.04958182 </v>
   <v>      -0.01184661      -0.00144238      -0.00947622 </v>
   <v>       0.01422840      -0.00752261      -0.00019943 </v>
   <v>       0.03336537      -0.04155893       0.02636035 </v>
   <v>       0.01927261       0.00910153      -0.01169276 </v>
   <v>      -0.10968628      -0.04927572      -0.08018338 </v>
   <v>       0.02018464      -0.00592672       0.00585124 </v>
   <v>       0.02253949      -0.00274824      -0.01466704 </v>
   <v>      -0.01143115       0.03173730      -0.00327025 </v>
   <v>       0.02411565      -0.00873657       0.02494041 </v>
   <v>       0.14749036       0.31689234      -0.25204651 </v>
   <v>       0.00022050       0.01584073       0.13662704 </v>
   <v>       0.00051179       0.01193820       0.00096204 </v>
   <v>      -0.00260198      -0.02583653      -0.01425041 </v>
   <v>       0.16809951       0.37250927       0.22313254 </v>
   <v>      -0.01212090       0.03960495      -0.00434722 </v>
   <v>      -0.02565300      -0.01019922       0.04512489 </v>
   <v>      -0.01718119       0.03213564      -0.04721147 </v>
   <v>      -0.12925929       0.21230599      -0.27429958 </v>
   <v>       0.00662108      -0.00565720       0.02037029 </v>
   <v>       0.03114312      -0.01658438       0.01284041 </v>
   <v>      -0.02022748       0.02478087       0.02400456 </v>
   <v>      -0.00227682       0.03384271       0.00566460 </v>
   <v>       0.00972530      -0.00440256       0.01497479 </v>
   <v>      -0.00360695      -0.13017145      -0.03127527 </v>
   <v>       0.37312549      -0.31806962       0.31730864 </v>
   <v>       0.18782749      -0.23042580      -0.31283511 </v>
   <v>       0.02143987       0.01874598       0.05526918 </v>
   <v>      -0.02563374      -0.01155075       0.02100963 </v>
   <v>      -0.30915678      -0.16806558       0.22308346 </v>
   <v>      -0.15421600      -0.28053616      -0.29654309 </v>
   <v>       0.00085966       0.01450226      -0.02371856 </v>
   <v>      -0.16687953       0.17568599       0.27696563 </v>
   <v>       0.01776796      -0.00749058       0.00088515 </v>
  </varray>
  <varray name="stress" >
   <v>      -1.95953688      -0.22689089       0.11756708 </v>
   <v>      -0.22689085      -2.83721409      -0.17523779 </v>
   <v>       0.11756704      -0.17523779      -2.23607770 </v>
  </varray>
  <energy>
   <i name="e_fr_energy">   -361.47000892 </i>
   <i name="e_wo_entrp">   -361.47469568 </i>
   <i name="e_0_energy">      0.01406027 </i>
  </energy>
  <time name="totalsc">   14.35   15.33</time>
 </calculation>
 <calculation>
  <scstep>
   <time name="dav">    1.22    1.22</time>
   <time name="total">    1.91    2.06</time>
   <energy>
    <i name="alphaZ">   1662.25181137 </i>
    <i name="ewald"> -22213.03756207 </i>
    <i name="hartreedc">  -7477.16602459 </i>
    <i name="XCdc">     13.21302765 </i>
    <i name="pawpsdc">  36477.14338388 </i>
    <i name="pawaedc"> -34968.39561315 </i>
    <i name="eentropy">      0.01646847 </i>
    <i name="bandstr">  -2963.70970203 </i>
    <i name="atom">  29107.92662258 </i>
    <i name="e_fr_energy">   -361.75758789 </i>
    <i name="e_wo_entrp">   -361.77405636 </i>
    <i name="e_0_energy">   -361.76307738 </i>
   </energy>
  </scstep>
  <scstep>
   <time name="diag">    0.08    0.09</time>
   <time name="diis">    0.82    0.82</time>
   <time name="orth">    0.01    0.01</time>
   <time name="total">    0.98    1.01</time>
   <energy>
    <i name="e_fr_energy">   -361.66578519 </i>
    <i name="e_wo_entrp">   -361.67557646 </i>
    <i name="e_0_energy">   -361.66904895 </i>
   </energy>
  </scstep>
  <scstep>
   <time name="diag">    0.08    0.08</time>
   <time name="diis">    0.84    0.84</time>
   <time name="orth">    0.01    0.01</time>
   <time name="total">    1.04    1.08</time>
   <energy>
    <i name="e_fr_energy">   -361.54531757 </i>
    <i name="e_wo_entrp">   -361.56135559 </i>
    <i name="e_0_energy">   -361.55066357 </i>
   </energy>
  </scstep>
  <scstep>
   <time name="diag">    0.15    0.15</time>
   <time name="diis">    0.90    0.91</time>
   <time name="orth">    0.01    0.01</time>
   <time name="total">    1.14    1.17</time>
   <energy>
    <i name="e_fr_energy">   -361.50454340 </i>
    <i name="e_wo_entrp">   -361.51861742 </i>
    <i name="e_0_energy">   -361.50923474 </i>
   </energy>
  </scstep>
  <scstep>
   <time name="diag">    0.09    0.09</time>
   <time name="diis">    0.84    0.85</time>
   <time name="orth">    0.01    0.01</time>
   <time name="total">    1.01    1.04</time>
   <energy>
    <i name="e_fr_energy">   -361.49620575 </i>
    <i name="e_wo_entrp">   -361.51033885 </i>
    <i name="e_0_energy">   -361.50091678 </i>
   </energy>
  </scstep>
  <scstep>
   <time name="diag">    0.08    0.09</time>
   <time name="diis">    0.90    0.91</time>
   <time name="orth">    0.01    0.01</time>
   <time name="total">    1.07    1.11</time>
   <energy>
    <i name="e_fr_energy">   -361.49692044 </i>
    <i name="e_wo_entrp">   -361.51110135 </i>
    <i name="e_0_energy">   -361.50164741 </i>
   </energy>
  </scstep>
  <scstep>
   <time name="diag">    0.08    0.08</time>
   <time name="diis">    1.02    1.03</time>
   <time name="orth">    0.01    0.01</time>
   <time name="total">    1.18    1.23</time>
   <energy>
    <i name="e_fr_energy">   -361.49762255 </i>
    <i name="e_wo_entrp">   -361.51173941 </i>
    <i name="e_0_energy">   -361.50232817 </i>
   </energy>
  </scstep>
  <scstep>
   <time name="diag">    0.11    0.11</time>
   <time name="diis">    0.95    0.95</time>
   <time name="orth">    0.02    0.02</time>
   <time name="total">    1.21    1.24</time>
   <energy>
    <i name="e_fr_energy">   -361.49806600 </i>
    <i name="e_wo_entrp">   -361.51218533 </i>
    <i name="e_0_energy">   -361.50277244 </i>
   </energy>
  </scstep>
  <scstep>
   <time name="diag">    0.09    0.09</time>
   <time name="diis">    0.93    0.94</time>
   <time name="orth">    0.01    0.02</time>
   <time name="total">    1.17    1.20</time>
   <energy>
    <i name="e_fr_energy">   -361.49839280 </i>
    <i name="e_wo_entrp">   -361.51261145 </i>
    <i name="e_0_energy">   -361.50313235 </i>
   </energy>
  </scstep>
  <scstep>
   <time name="diag">    0.08    0.08</time>
   <time name="diis">    0.85    0.86</time>
   <time name="orth">    0.01    0.02</time>
   <time name="total">    1.02    1.06</time>
   <energy>
    <i name="e_fr_energy">   -361.49876945 </i>
    <i name="e_wo_entrp">   -361.51296181 </i>
    <i name="e_0_energy">   -361.50350023 </i>
   </energy>
  </scstep>
  <scstep>
   <time name="diag">    0.08    0.08</time>
   <time name="diis">    0.73    0.74</time>
   <time name="orth">    0.01    0.01</time>
   <time name="total">    1.00    1.03</time>
   <energy>
    <i name="e_fr_energy">   -361.49888890 </i>
    <i name="e_wo_entrp">   -361.51308336 </i>
    <i name="e_0_energy">   -361.50362038 </i>
   </energy>
  </scstep>
  <scstep>
   <time name="diag">    0.09    0.09</time>
   <time name="diis">    0.75    0.75</time>
   <time name="orth">    0.01    0.01</time>
   <time name="total">    0.92    1.32</time>
   <energy>
    <i name="e_fr_energy">   -361.49891129 </i>
    <i name="e_wo_entrp">   -361.51309961 </i>
    <i name="e_0_energy">   -361.50364073 </i>
   </energy>
  </scstep>
  <scstep>
   <time name="diag">    0.09    0.09</time>
   <time name="diis">    0.59    0.60</time>
   <time name="orth">    0.01    0.01</time>
   <time name="total">    0.73    0.78</time>
   <energy>
    <i name="alphaZ">   1662.25181137 </i>
    <i name="ewald"> -22213.03756207 </i>
    <i name="hartreedc">  -7428.76060660 </i>
    <i name="XCdc">     11.06215461 </i>
    <i name="pawpsdc">  36932.85876283 </i>
    <i name="pawaedc"> -35423.11501423 </i>
    <i name="eentropy">      0.01419018 </i>
    <i name="bandstr">  -3010.69927577 </i>
    <i name="atom">  29107.92662258 </i>
    <i name="e_fr_energy">   -361.49891710 </i>
    <i name="e_wo_entrp">   -361.51310728 </i>
    <i name="e_0_energy">   -361.50364716 </i>
   </energy>
  </scstep>
  <structure>
   <crystal>
    <varray name="basis" >
     <v>       6.91209782      -0.01534480       0.04693534 </v>
     <v>      -0.02272394      10.19819661       0.00142680 </v>
     <v>       0.06867225       0.00037924      10.15463319 </v>
    </varray>
    <i name="volume">    715.77314620 </i>
    <varray name="rec_basis" >
     <v>       0.14468124       0.00032252      -0.00097844 </v>
     <v>       0.00021772       0.09805704      -0.00000513 </v>
     <v>      -0.00066876      -0.00001527       0.09848174 </v>
    </varray>
   </crystal>
   <varray name="positions" >
    <v>       0.73886066       0.49569077       0.83282518 </v>
    <v>       0.72931262       0.49851923       0.17151819 </v>
    <v>       0.03814225       0.99142264       0.66862519 </v>
    <v>       0.51849479       0.66947249       0.34061244 </v>
    <v>       0.75335366       0.50581225       0.49484812 </v>
    <v>       0.98426826       0.66816802       0.32856395 </v>
    <v>       0.50074439       0.65194151       0.66093577 </v>
    <v>       0.49212207       0.01316426       0.99692326 </v>
    <v>       0.22949286       0.17086963       0.48692149 </v>
    <v>       0.26691546       0.50651982       0.16806015 </v>
    <v>       0.99800293       0.34101171       0.99949731 </v>
    <v>       0.97586486       0.66160935       0.00548729 </v>
    <v>       0.26535860       0.82360478       0.16801147 </v>
    <v>       0.46701396       0.00510427       0.65926250 </v>
    <v>       0.75783553       0.83344139       0.50557622 </v>
    <v>       0.01095588       0.65748649       0.66863935 </v>
    <v>       0.27270567       0.81767532       0.84501426 </v>
    <v>       0.53510795       0.65970308       0.00193661 </v>
    <v>       0.99580152       0.98220039       0.32334199 </v>
    <v>       0.49760200       0.98656110       0.34510695 </v>
    <v>       0.74038218       0.83299180       0.18077814 </v>
    <v>       0.51460430       0.34511737       0.34419250 </v>
    <v>       0.26367210       0.50470378       0.84079317 </v>
    <v>       0.97718037       0.35131536       0.31701875 </v>
    <v>       0.00635059       0.34768921       0.68047203 </v>
    <v>       0.25022873       0.82999139       0.48963032 </v>
    <v>       0.49297570       0.33313938       0.98780128 </v>
    <v>       0.23533395       0.17237846       0.82968879 </v>
    <v>       0.25282917       0.17266089       0.18250321 </v>
    <v>       0.99992404       0.99835846       0.00629359 </v>
    <v>       0.76739686       0.16273176       0.49899098 </v>
    <v>       0.76285896       0.16766280       0.82174046 </v>
    <v>       0.72862438       0.17239168       0.17582613 </v>
    <v>       0.49289743       0.33750078       0.66579457 </v>
    <v>       0.74305060       0.83638436       0.81946348 </v>
    <v>       0.24372873       0.49500903       0.48730191 </v>
   </varray>
  </structure>
  <varray name="forces" >
   <v>       0.02008129       0.00039506      -0.01556903 </v>
   <v>       0.00179338       0.01951553      -0.02353548 </v>
   <v>      -0.08355909      -0.02745272      -0.00752336 </v>
   <v>      -0.04043651       0.02624858      -0.02335460 </v>
   <v>       0.03239517      -0.01917656       0.03491264 </v>
   <v>       0.06235130      -0.00681516      -0.00392088 </v>
   <v>       0.00406837       0.06345921       0.00379428 </v>
   <v>      -0.08521559      -0.06715644      -0.07378901 </v>
   <v>       0.00717577       0.00850945      -0.01136899 </v>
   <v>      -0.00417582       0.00011642      -0.00943266 </v>
   <v>      -0.00797181      -0.01167309      -0.00686766 </v>
   <v>       0.06205105       0.03289857       0.00823180 </v>
   <v>       0.10032095       0.24217999      -0.19311931 </v>
   <v>       0.02792540       0.02177784       0.09375114 </v>
   <v>      -0.00137793       0.00980376       0.02713526 </v>
   <v>      -0.00181195       0.03572911       0.02034806 </v>
   <v>       0.08261636       0.28686111       0.15870214 </v>
   <v>      -0.04464566       0.06974011      -0.00393244 </v>
   <v>      -0.00616760       0.02590418       0.03865823 </v>
   <v>      -0.00579098       0.05302559      -0.05530166 </v>
   <v>      -0.09847624       0.14813587      -0.23481703 </v>
   <v>      -0.01224894      -0.07189119      -0.01074391 </v>
   <v>       0.00391531      -0.01680293       0.00237619 </v>
   <v>       0.00768272      -0.04177481       0.01082158 </v>
   <v>      -0.01052189      -0.01907384       0.01556691 </v>
   <v>      -0.00346299      -0.03471696       0.01897312 </v>
   <v>      -0.00367112      -0.11773412      -0.01792018 </v>
   <v>       0.30799029      -0.23133329       0.28168785 </v>
   <v>       0.11892895      -0.16895892      -0.25220348 </v>
   <v>       0.01666023       0.01317016       0.03422979 </v>
   <v>      -0.00272988       0.00772275       0.03896775 </v>
   <v>      -0.26332611      -0.10775257       0.17545143 </v>
   <v>      -0.10211539      -0.21193924      -0.23992176 </v>
   <v>       0.00137563      -0.02471109      -0.01228293 </v>
   <v>      -0.08984576       0.11681382       0.22104744 </v>
   <v>       0.01021910      -0.00304416       0.01094875 </v>
  </varray>
  <varray name="stress" >
   <v>      12.17855597      -0.08453058       0.08764419 </v>
   <v>      -0.08453058      11.67677308      -0.11401062 </v>
   <v>       0.08764424      -0.11401062      11.78995557 </v>
  </varray>
  <energy>
   <i name="e_fr_energy">   -361.49891710 </i>
   <i name="e_wo_entrp">   -361.50364716 </i>
   <i name="e_0_energy">      0.01419018 </i>
  </energy>
  <time name="totalsc">   16.09   17.14</time>
 </calculation>
 <calculation>
  <scstep>
   <time name="dav">    1.16    1.17</time>
   <time name="total">    1.98    2.10</time>
   <energy>
    <i name="alphaZ">   1661.00020515 </i>
    <i name="ewald"> -22207.83411880 </i>
    <i name="hartreedc">  -7426.78198978 </i>
    <i name="XCdc">     10.80306264 </i>
    <i name="pawpsdc">  36933.52600282 </i>
    <i name="pawaedc"> -35423.71921541 </i>
    <i name="eentropy">      0.01500732 </i>
    <i name="bandstr">  -3016.45643338 </i>
    <i name="atom">  29107.92662258 </i>
    <i name="e_fr_energy">   -361.52085686 </i>
    <i name="e_wo_entrp">   -361.53586418 </i>
    <i name="e_0_energy">   -361.52585930 </i>
   </energy>
  </scstep>
  <scstep>
   <time name="diag">    0.09    0.09</time>
   <time name="diis">    0.85    0.87</time>
   <time name="orth">    0.01    0.01</time>
   <time name="total">    1.02    1.06</time>
   <energy>
    <i name="e_fr_energy">   -361.53222180 </i>
    <i name="e_wo_entrp">   -361.54604169 </i>
    <i name="e_0_energy">   -361.53682843 </i>
   </energy>
  </scstep>
  <scstep>
   <time name="diag">    0.08    0.08</time>
   <time name="diis">    0.81    0.82</time>
   <time name="orth">    0.01    0.01</time>
   <time name="total">    0.98    1.00</time>
   <energy>
    <i name="e_fr_energy">   -361.52646099 </i>
    <i name="e_wo_entrp">   -361.54109884 </i>
    <i name="e_0_energy">   -361.53134028 </i>
   </energy>
  </scstep>
  <scstep>
   <time name="diag">    0.09    0.09</time>
   <time name="diis">    0.91    0.91</time>
   <time name="orth">    0.01    0.01</time>
   <time name="total">    1.08    1.12</time>
   <energy>
    <i name="e_fr_energy">   -361.52615345 </i>
    <i name="e_wo_entrp">   -361.54070903 </i>
    <i name="e_0_energy">   -361.53100531 </i>
   </energy>
  </scstep>
  <scstep>
   <time name="diag">    0.08    0.08</time>
   <time name="diis">    0.86    0.86</time>
   <time name="orth">    0.01    0.01</time>
   <time name="total">    1.02    1.07</time>
   <energy>
    <i name="e_fr_energy">   -361.52607051 </i>
    <i name="e_wo_entrp">   -361.54053201 </i>
    <i name="e_0_energy">   -361.53089101 </i>
   </energy>
  </scstep>
  <scstep>
   <time name="diag">    0.08    0.08</time>
   <time name="diis">    0.93    0.94</time>
   <time name="orth">    0.01    0.01</time>
   <time name="total">    1.10    1.15</time>
   <energy>
    <i name="e_fr_energy">   -361.52604655 </i>
    <i name="e_wo_entrp">   -361.54054197 </i>
    <i name="e_0_energy">   -361.53087836 </i>
   </energy>
  </scstep>
  <scstep>
   <time name="diag">    0.14    0.14</time>
   <time name="diis">    0.78    0.79</time>
   <time name="orth">    0.01    0.01</time>
   <time name="total">    1.01    1.06</time>
   <energy>
    <i name="e_fr_energy">   -361.52602637 </i>
    <i name="e_wo_entrp">   -361.54054265 </i>
    <i name="e_0_energy">   -361.53086513 </i>
   </energy>
  </scstep>
  <scstep>
   <time name="diag">    0.08    0.08</time>
   <time name="diis">    0.51    0.52</time>
   <time name="orth">    0.01    0.01</time>
   <time name="total">    0.65    0.69</time>
   <energy>
    <i name="alphaZ">   1661.00020515 </i>
    <i name="ewald"> -22207.83411880 </i>
    <i name="hartreedc">  -7430.36712824 </i>
    <i name="XCdc">     10.96321800 </i>
    <i name="pawpsdc">  36897.28790238 </i>
    <i name="pawaedc"> -35387.37628918 </i>
    <i name="eentropy">      0.01448317 </i>
    <i name="bandstr">  -3013.14091902 </i>
    <i name="atom">  29107.92662258 </i>
    <i name="e_fr_energy">   -361.52602397 </i>
    <i name="e_wo_entrp">   -361.54050714 </i>
    <i name="e_0_energy">   -361.53085169 </i>
   </energy>
  </scstep>
  <structure>
   <crystal>
    <varray name="basis" >
     <v>       6.91451050      -0.01570706       0.04715603 </v>
     <v>      -0.02326034      10.19957561       0.00099972 </v>
     <v>       0.06900087      -0.00004924      10.15737200 </v>
    </varray>
    <i name="volume">    716.31249961 </i>
    <varray name="rec_basis" >
     <v>       0.14463085       0.00032993      -0.00098250 </v>
     <v>       0.00022272       0.09804380      -0.00000104 </v>
     <v>      -0.00067148      -0.00001118       0.09845522 </v>
    </varray>
   </crystal>
   <varray name="positions" >
    <v>       0.73883438       0.49570982       0.83283293 </v>
    <v>       0.72924439       0.49857226       0.17147672 </v>
    <v>       0.03796322       0.99137294       0.66854200 </v>
    <v>       0.51843803       0.66948266       0.34058599 </v>
    <v>       0.75341040       0.50579120       0.49486447 </v>
    <v>       0.98439131       0.66809809       0.32860464 </v>
    <v>       0.50079352       0.65198639       0.66091900 </v>
    <v>       0.49180622       0.01305185       0.99676137 </v>
    <v>       0.22954531       0.17086361       0.48692515 </v>
    <v>       0.26696568       0.50651545       0.16803155 </v>
    <v>       0.99797059       0.34105627       0.99948948 </v>
    <v>       0.97596626       0.66161195       0.00553064 </v>
    <v>       0.26578440       0.82422955       0.16751168 </v>
    <v>       0.46703194       0.00513943       0.65952613 </v>
    <v>       0.75783591       0.83346555       0.50558987 </v>
    <v>       0.01094946       0.65746224       0.66862572 </v>
    <v>       0.27315820       0.81840948       0.84544655 </v>
    <v>       0.53504831       0.65979813       0.00192803 </v>
    <v>       0.99573545       0.98219552       0.32343424 </v>
    <v>       0.49755826       0.98663770       0.34500483 </v>
    <v>       0.74001421       0.83340259       0.18022547 </v>
    <v>       0.51461069       0.34507552       0.34422027 </v>
    <v>       0.26374796       0.50466988       0.84081370 </v>
    <v>       0.97713674       0.35133565       0.31706269 </v>
    <v>       0.00633783       0.34773576       0.68048836 </v>
    <v>       0.25024991       0.82996743       0.48966426 </v>
    <v>       0.49296470       0.33287727       0.98774327 </v>
    <v>       0.23642414       0.17175842       0.83032998 </v>
    <v>       0.25336140       0.17221151       0.18187551 </v>
    <v>       0.99998584       0.99839483       0.00639796 </v>
    <v>       0.76733357       0.16271685       0.49904345 </v>
    <v>       0.76193671       0.16734013       0.82218886 </v>
    <v>       0.72819201       0.17183928       0.17523554 </v>
    <v>       0.49290030       0.33751299       0.66575072 </v>
    <v>       0.74258909       0.83672101       0.82001785 </v>
    <v>       0.24377767       0.49499577       0.48730813 </v>
   </varray>
  </structure>
  <varray name="forces" >
   <v>       0.02086817      -0.00461909      -0.02390861 </v>
   <v>       0.00721130       0.01798970      -0.00961007 </v>
   <v>      -0.06847144      -0.02561062       0.01258916 </v>
   <v>      -0.03088759       0.03759220      -0.03243886 </v>
   <v>       0.03156156      -0.01300013       0.03034876 </v>
   <v>       0.05197561       0.01063713      -0.02166549 </v>
   <v>       0.00177681       0.06908059       0.01363910 </v>
   <v>      -0.07511757      -0.06680555      -0.07053137 </v>
   <v>      -0.00519850       0.01017583      -0.01816573 </v>
   <v>      -0.00538733       0.00087588       0.00093960 </v>
   <v>      -0.00529223      -0.01940040      -0.01626690 </v>
   <v>       0.05942283       0.04112256       0.00472534 </v>
   <v>       0.07806568       0.19364036      -0.14488017 </v>
   <v>       0.01599440       0.02229369       0.06273095 </v>
   <v>      -0.00311683       0.00459627       0.02540945 </v>
   <v>      -0.00251694       0.05463967       0.03853408 </v>
   <v>       0.04580136       0.22896737       0.11892773 </v>
   <v>      -0.03755512       0.06209076      -0.00064440 </v>
   <v>      -0.00210093       0.02371285       0.02907935 </v>
   <v>      -0.00090596       0.04176123      -0.05027658 </v>
   <v>      -0.08220811       0.09969973      -0.17827191 </v>
   <v>       0.00013247      -0.07916590      -0.02530745 </v>
   <v>       0.00434858      -0.01424201      -0.00761142 </v>
   <v>       0.00102998      -0.05389884      -0.00469475 </v>
   <v>      -0.01209592      -0.03211810       0.03713558 </v>
   <v>      -0.00689679      -0.03622242       0.01108746 </v>
   <v>      -0.00466093      -0.09197958      -0.02285976 </v>
   <v>       0.25617647      -0.18144444       0.24493786 </v>
   <v>       0.08965070      -0.13379929      -0.20778890 </v>
   <v>       0.01809192       0.00764939       0.02584433 </v>
   <v>       0.01350691       0.01345519       0.03990138 </v>
   <v>      -0.22444117      -0.07086969       0.14633806 </v>
   <v>      -0.08019985      -0.16542712      -0.19592392 </v>
   <v>       0.00257301      -0.02933753       0.00080427 </v>
   <v>      -0.05800678       0.08000543       0.17938110 </v>
   <v>       0.00687224      -0.00204512       0.00849274 </v>
  </varray>
  <varray name="stress" >
   <v>      11.03392639      -0.03872034       0.07266606 </v>
   <v>      -0.03872037      10.61446456      -0.08363434 </v>
   <v>       0.07266605      -0.08363434      10.46232717 </v>
  </varray>
  <energy>
   <i name="e_fr_energy">   -361.52602397 </i>
   <i name="e_wo_entrp">   -361.53085169 </i>
   <i name="e_0_energy">      0.01448317 </i>
  </energy>
  <time name="totalsc">   10.50   11.06</time>
 </calculation>
 <calculation>
  <scstep>
   <time name="dav">    0.99    0.99</time>
   <time name="total">    1.82    1.93</time>
   <energy>
    <i name="alphaZ">   1657.25325490 </i>
    <i name="ewald"> -22190.01392712 </i>
    <i name="hartreedc">  -7426.24059686 </i>
    <i name="XCdc">     10.18793514 </i>
    <i name="pawpsdc">  36897.59369626 </i>
    <i name="pawaedc"> -35387.72327623 </i>
    <i name="eentropy">      0.01712668 </i>
    <i name="bandstr">  -3030.52487952 </i>
    <i name="atom">  29107.92662258 </i>
    <i name="e_fr_energy">   -361.52404417 </i>
    <i name="e_wo_entrp">   -361.54117085 </i>
    <i name="e_0_energy">   -361.52975307 </i>
   </energy>
  </scstep>
  <scstep>
   <time name="diag">    0.11    0.11</time>
   <time name="diis">    0.77    0.78</time>
   <time name="orth">    0.01    0.01</time>
   <time name="total">    0.96    1.01</time>
   <energy>
    <i name="e_fr_energy">   -361.62217454 </i>
    <i name="e_wo_entrp">   -361.63531758 </i>
    <i name="e_0_energy">   -361.62655555 </i>
   </energy>
  </scstep>
  <scstep>
   <time name="diag">    0.10    0.10</time>
   <time name="diis">    0.83    0.87</time>
   <time name="orth">    0.01    0.01</time>
   <time name="total">    1.01    1.07</time>
   <energy>
    <i name="e_fr_energy">   -361.57730176 </i>
    <i name="e_wo_entrp">   -361.59329519 </i>
    <i name="e_0_energy">   -361.58263290 </i>
   </energy>
  </scstep>
  <scstep>
   <time name="diag">    0.08    0.08</time>
   <time name="diis">    0.90    0.93</time>
   <time name="orth">    0.01    0.01</time>
   <time name="total">    1.06    1.13</time>
   <energy>
    <i name="e_fr_energy">   -361.57402483 </i>
    <i name="e_wo_entrp">   -361.58973178 </i>
    <i name="e_0_energy">   -361.57926048 </i>
   </energy>
  </scstep>
  <scstep>
   <time name="diag">    0.09    0.09</time>
   <time name="diis">    0.97    0.97</time>
   <time name="orth">    0.01    0.01</time>
   <time name="total">    1.17    1.21</time>
   <energy>
    <i name="e_fr_energy">   -361.57333552 </i>
    <i name="e_wo_entrp">   -361.58868498 </i>
    <i name="e_0_energy">   -361.57845201 </i>
   </energy>
  </scstep>
  <scstep>
   <time name="diag">    0.08    0.08</time>
   <time name="diis">    0.92    0.93</time>
   <time name="orth">    0.01    0.01</time>
   <time name="total">    1.09    1.12</time>
   <energy>
    <i name="e_fr_energy">   -361.57307775 </i>
    <i name="e_wo_entrp">   -361.58857041 </i>
    <i name="e_0_energy">   -361.57824197 </i>
   </energy>
  </scstep>
  <scstep>
   <time name="diag">    0.08    0.08</time>
   <time name="diis">    0.97    0.98</time>
   <time name="orth">    0.01    0.01</time>
   <time name="total">    1.14    1.17</time>
   <energy>
    <i name="e_fr_energy">   -361.57299364 </i>
    <i name="e_wo_entrp">   -361.58854488 </i>
    <i name="e_0_energy">   -361.57817738 </i>
   </energy>
  </scstep>
  <scstep>
   <time name="diag">    0.09    0.09</time>
   <time name="diis">    0.91    0.92</time>
   <time name="orth">    0.01    0.01</time>
   <time name="total">    1.08    1.11</time>
   <energy>
    <i name="e_fr_energy">   -361.57301033 </i>
    <i name="e_wo_entrp">   -361.58845265 </i>
    <i name="e_0_energy">   -361.57815777 </i>
   </energy>
  </scstep>
  <scstep>
   <time name="diag">    0.13    0.13</time>
   <time name="diis">    0.86    0.87</time>
   <time name="orth">    0.01    0.01</time>
   <time name="total">    1.07    1.10</time>
   <energy>
    <i name="e_fr_energy">   -361.57301684 </i>
    <i name="e_wo_entrp">   -361.58854983 </i>
    <i name="e_0_energy">   -361.57819450 </i>
   </energy>
  </scstep>
  <scstep>
   <time name="diag">    0.09    0.09</time>
   <time name="diis">    0.58    0.75</time>
   <time name="orth">    0.01    0.01</time>
   <time name="total">    0.77    0.96</time>
   <energy>
    <i name="e_fr_energy">   -361.57301268 </i>
    <i name="e_wo_entrp">   -361.58849056 </i>
    <i name="e_0_energy">   -361.57817198 </i>
   </energy>
  </scstep>
  <scstep>
   <time name="diag">    0.09    0.09</time>
   <time name="diis">    0.59    0.59</time>
   <time name="orth">    0.01    0.01</time>
   <time name="total">    0.78    0.80</time>
   <energy>
    <i name="alphaZ">   1657.25325490 </i>
    <i name="ewald"> -22190.01392712 </i>
    <i name="hartreedc">  -7436.61509249 </i>
    <i name="XCdc">     10.64711535 </i>
    <i name="pawpsdc">  36792.84290879 </i>
    <i name="pawaedc"> -35283.22652835 </i>
    <i name="eentropy">      0.01548692 </i>
    <i name="bandstr">  -3020.40285332 </i>
    <i name="atom">  29107.92662258 </i>
    <i name="e_fr_energy">   -361.57301275 </i>
    <i name="e_wo_entrp">   -361.58849967 </i>
    <i name="e_0_energy">   -361.57817506 </i>
   </energy>
  </scstep>
  <structure>
   <crystal>
    <varray name="basis" >
     <v>       6.92174856      -0.01679382       0.04781810 </v>
     <v>      -0.02486954      10.20371261      -0.00028154 </v>
     <v>       0.06998672      -0.00133466      10.16558844 </v>
    </varray>
    <i name="volume">    717.93203923 </i>
    <varray name="rec_basis" >
     <v>       0.14447989       0.00035211      -0.00099465 </v>
     <v>       0.00023770       0.09800412       0.00001123 </v>
     <v>      -0.00067962       0.00000106       0.09837577 </v>
    </varray>
   </crystal>
   <varray name="positions" >
    <v>       0.73875555       0.49576697       0.83285618 </v>
    <v>       0.72903982       0.49873131       0.17135236 </v>
    <v>       0.03742630       0.99122383       0.66829250 </v>
    <v>       0.51826782       0.66951317       0.34050664 </v>
    <v>       0.75358057       0.50572807       0.49491352 </v>
    <v>       0.98476030       0.66788835       0.32872666 </v>
    <v>       0.50094084       0.65212101       0.66086870 </v>
    <v>       0.49085901       0.01271461       0.99627584 </v>
    <v>       0.22970261       0.17084556       0.48693614 </v>
    <v>       0.26711627       0.50650237       0.16794576 </v>
    <v>       0.99787360       0.34118994       0.99946601 </v>
    <v>       0.97627035       0.66161975       0.00566065 </v>
    <v>       0.26706159       0.82610358       0.16601276 </v>
    <v>       0.46708584       0.00524494       0.66031679 </v>
    <v>       0.75783704       0.83353804       0.50563080 </v>
    <v>       0.01093021       0.65738949       0.66858484 </v>
    <v>       0.27451543       0.82061175       0.84674313 </v>
    <v>       0.53486950       0.66008323       0.00190231 </v>
    <v>       0.99553731       0.98218092       0.32371091 </v>
    <v>       0.49742711       0.98686746       0.34469858 </v>
    <v>       0.73891088       0.83463471       0.17856797 </v>
    <v>       0.51462983       0.34495001       0.34430355 </v>
    <v>       0.26397544       0.50456822       0.84087526 </v>
    <v>       0.97700592       0.35139650       0.31719445 </v>
    <v>       0.00629959       0.34787540       0.68053735 </v>
    <v>       0.25031344       0.82989554       0.48976606 </v>
    <v>       0.49293167       0.33209104       0.98756923 </v>
    <v>       0.23969331       0.16989877       0.83225289 </v>
    <v>       0.25495751       0.17086353       0.17999284 </v>
    <v>       0.00017117       0.99850394       0.00671098 </v>
    <v>       0.76714373       0.16267215       0.49920083 </v>
    <v>       0.75917079       0.16637221       0.82353371 </v>
    <v>       0.72689532       0.17018219       0.17346422 </v>
    <v>       0.49290892       0.33754960       0.66561921 </v>
    <v>       0.74120502       0.83773083       0.82168058 </v>
    <v>       0.24392442       0.49495599       0.48732677 </v>
   </varray>
  </structure>
  <varray name="forces" >
   <v>       0.02510542      -0.01623123      -0.05123516 </v>
   <v>       0.02226096       0.01864187       0.03304765 </v>
   <v>      -0.02508086      -0.02574939       0.06806523 </v>
   <v>      -0.00509443       0.06676721      -0.05709395 </v>
   <v>       0.02733685       0.00644958       0.01697780 </v>
   <v>       0.02382652       0.05479636      -0.06811426 </v>
   <v>      -0.00297744       0.08505699       0.04314377 </v>
   <v>      -0.03859496      -0.06790327      -0.05646424 </v>
   <v>      -0.04050932       0.01403048      -0.03494002 </v>
   <v>      -0.00993744       0.00484777       0.03386152 </v>
   <v>       0.00315603      -0.04006748      -0.04174626 </v>
   <v>       0.05533072       0.06565610      -0.00861171 </v>
   <v>       0.01130291       0.04814305       0.00098396 </v>
   <v>      -0.01690097       0.01986760      -0.03014194 </v>
   <v>      -0.01038692      -0.01360523       0.02004950 </v>
   <v>      -0.00526637       0.10882963       0.08999401 </v>
   <v>      -0.07081614       0.05297921      -0.00496644 </v>
   <v>      -0.01962041       0.03761061       0.00870920 </v>
   <v>       0.00989187       0.01427540       0.00489608 </v>
   <v>       0.01244298       0.00894699      -0.03477024 </v>
   <v>      -0.03646237      -0.03968100      -0.01566082 </v>
   <v>       0.03673948      -0.09793127      -0.06616310 </v>
   <v>       0.00215938      -0.00622438      -0.03838010 </v>
   <v>      -0.01920112      -0.08327314      -0.04838932 </v>
   <v>      -0.02479292      -0.06053652       0.08998492 </v>
   <v>      -0.01824056      -0.04119165      -0.01041913 </v>
   <v>      -0.00771641      -0.01114966      -0.03465130 </v>
   <v>       0.11228922      -0.03810277       0.14307721 </v>
   <v>       0.00202463      -0.02405797      -0.07697765 </v>
   <v>       0.02248362      -0.00961216      -0.00409043 </v>
   <v>       0.06185676       0.03149931       0.04395861 </v>
   <v>      -0.10938721       0.03784454       0.05817462 </v>
   <v>      -0.01348773      -0.02789608      -0.06383946 </v>
   <v>       0.00754472      -0.04271866       0.03801466 </v>
   <v>       0.04176149      -0.03092469       0.05235665 </v>
   <v>      -0.00303999       0.00061384       0.00136014 </v>
  </varray>
  <varray name="stress" >
   <v>       7.25380747       0.09159071       0.04842088 </v>
   <v>       0.09159074       6.95339667       0.00851630 </v>
   <v>       0.04842086       0.00851630       6.16251412 </v>
  </varray>
  <energy>
   <i name="e_fr_energy">   -361.57301275 </i>
   <i name="e_wo_entrp">   -361.57817506 </i>
   <i name="e_0_energy">      0.01548692 </i>
  </energy>
  <time name="totalsc">   13.62   14.38</time>
 </calculation>
 <calculation>
  <scstep>
   <time name="dav">    1.09    1.09</time>
   <time name="total">    1.85    1.96</time>
   <energy>
    <i name="alphaZ">   1655.70107638 </i>
    <i name="ewald"> -22181.64136576 </i>
    <i name="hartreedc">  -7435.76715586 </i>
    <i name="XCdc">     10.32814505 </i>
    <i name="pawpsdc">  36792.18305964 </i>
    <i name="pawaedc"> -35282.60405495 </i>
    <i name="eentropy">      0.01662571 </i>
    <i name="bandstr">  -3027.71244363 </i>
    <i name="atom">  29107.92662258 </i>
    <i name="e_fr_energy">   -361.56949084 </i>
    <i name="e_wo_entrp">   -361.58611655 </i>
    <i name="e_0_energy">   -361.57503275 </i>
   </energy>
  </scstep>
  <scstep>
   <time name="diag">    0.08    0.08</time>
   <time name="diis">    0.82    0.82</time>
   <time name="orth">    0.01    0.01</time>
   <time name="total">    0.98    1.03</time>
   <energy>
    <i name="e_fr_energy">   -361.58622604 </i>
    <i name="e_wo_entrp">   -361.60112877 </i>
    <i name="e_0_energy">   -361.59119362 </i>
   </energy>
  </scstep>
  <scstep>
   <time name="diag">    0.09    0.09</time>
   <time name="diis">    0.84    0.85</time>
   <time name="orth">    0.01    0.01</time>
   <time name="total">    1.02    1.12</time>
   <energy>
    <i name="e_fr_energy">   -361.57819951 </i>
    <i name="e_wo_entrp">   -361.59427932 </i>
    <i name="e_0_energy">   -361.58355944 </i>
   </energy>
  </scstep>
  <scstep>
   <time name="diag">    0.09    0.09</time>
   <time name="diis">    0.96    0.97</time>
   <time name="orth">    0.01    0.01</time>
   <time name="total">    1.13    1.17</time>
   <energy>
    <i name="e_fr_energy">   -361.57770539 </i>
    <i name="e_wo_entrp">   -361.59369378 </i>
    <i name="e_0_energy">   -361.58303485 </i>
   </energy>
  </scstep>
  <scstep>
   <time name="diag">    0.11    0.11</time>
   <time name="diis">    0.93    0.94</time>
   <time name="orth">    0.01    0.01</time>
   <time name="total">    1.16    1.22</time>
   <energy>
    <i name="e_fr_energy">   -361.57758214 </i>
    <i name="e_wo_entrp">   -361.59340663 </i>
    <i name="e_0_energy">   -361.58285697 </i>
   </energy>
  </scstep>
  <scstep>
   <time name="diag">    0.15    0.15</time>
   <time name="diis">    0.91    0.92</time>
   <time name="orth">    0.01    0.01</time>
   <time name="total">    1.20    1.23</time>
   <energy>
    <i name="e_fr_energy">   -361.57754827 </i>
    <i name="e_wo_entrp">   -361.59344394 </i>
    <i name="e_0_energy">   -361.58284682 </i>
   </energy>
  </scstep>
  <scstep>
   <time name="diag">    0.08    0.09</time>
   <time name="diis">    0.94    0.95</time>
   <time name="orth">    0.01    0.01</time>
   <time name="total">    1.11    1.15</time>
   <energy>
    <i name="e_fr_energy">   -361.57752851 </i>
    <i name="e_wo_entrp">   -361.59344054 </i>
    <i name="e_0_energy">   -361.58283252 </i>
   </energy>
  </scstep>
  <scstep>
   <time name="diag">    0.09    0.09</time>
   <time name="diis">    0.64    0.65</time>
   <time name="orth">    0.01    0.01</time>
   <time name="total">    0.78    0.81</time>
   <energy>
    <i name="alphaZ">   1655.70107638 </i>
    <i name="ewald"> -22181.64136576 </i>
    <i name="hartreedc">  -7440.18807846 </i>
    <i name="XCdc">     10.52384719 </i>
    <i name="pawpsdc">  36752.43113670 </i>
[...]
       <r>    7.3434    1.0000 </r>
       <r>    7.3889    1.0000 </r>
       <r>    7.4037    1.0000 </r>
       <r>    7.4786    1.0002 </r>
       <r>    7.5200    1.0009 </r>
       <r>    7.5377    1.0015 </r>
       <r>    7.5857    1.0053 </r>
       <r>    7.6031    1.0079 </r>
       <r>    7.6282    1.0130 </r>
       <r>    7.6826    1.0288 </r>
       <r>    7.7006    1.0333 </r>
       <r>    7.7951    0.9680 </r>
       <r>    7.8134    0.9209 </r>
       <r>    7.8282    0.8721 </r>
       <r>    7.8622    0.7249 </r>
       <r>    7.8977    0.5343 </r>
       <r>    7.9206    0.4056 </r>
       <r>    7.9571    0.2191 </r>
       <r>    8.0177    0.0209 </r>
       <r>    8.0451   -0.0181 </r>
       <r>    8.0888   -0.0354 </r>
       <r>    8.1027   -0.0341 </r>
       <r>    8.1398   -0.0243 </r>
       <r>    8.1953   -0.0095 </r>
       <r>    8.2017   -0.0084 </r>
       <r>    8.2439   -0.0031 </r>
       <r>    8.3035   -0.0005 </r>
       <r>    8.3332   -0.0002 </r>
       <r>    8.3738   -0.0000 </r>
       <r>    8.4048   -0.0000 </r>
       <r>    8.4639   -0.0000 </r>
       <r>    8.4979   -0.0000 </r>
       <r>    8.5520   -0.0000 </r>
       <r>    8.6102   -0.0000 </r>
       <r>    8.6791   -0.0000 </r>
       <r>    8.7568   -0.0000 </r>
       <r>    8.8366   -0.0000 </r>
       <r>    9.0063   -0.0000 </r>
       <r>    9.1098   -0.0000 </r>
       <r>    9.2106   -0.0000 </r>
       <r>    9.6887   -0.0000 </r>
       <r>    9.8602   -0.0000 </r>
       <r>    9.8681   -0.0000 </r>
       <r>    9.9211   -0.0000 </r>
       <r>    9.9899   -0.0000 </r>
       <r>   10.0444   -0.0000 </r>
       <r>   10.1097   -0.0000 </r>
       <r>   10.1514   -0.0000 </r>
       <r>   10.2145   -0.0000 </r>
      </set>
     </set>
    </set>
   </array>
  </eigenvalues>
  <separator name="orbital magnetization" >
   <v name="MAGDIPOLOUT">      0.00000000      0.00000000      0.00000000</v>
  </separator>
  <dos>
   <i name="efermi">      7.90374763 </i>
   <total>
    <array>
     <dimension dim="1">gridpoints</dimension>
     <dimension dim="2">spin</dimension>
     <field>energy</field>
     <field>total</field>
     <field>integrated</field>
     <set>
      <set comment="spin 1">
       <r>   -49.2266     0.0000     0.0000 </r>
       <r>   -49.0187     0.0000     0.0000 </r>
       <r>   -48.8109     0.0000     0.0000 </r>
       <r>   -48.6031     0.0000     0.0000 </r>
       <r>   -48.3952     0.0000     0.0000 </r>
       <r>   -48.1874     0.0000     0.0000 </r>
       <r>   -47.9796     0.0000     0.0000 </r>
       <r>   -47.7717    -0.0000    -0.0000 </r>
       <r>   -47.5639    -0.0000    -0.0000 </r>
       <r>   -47.3560    -0.0000    -0.0000 </r>
       <r>   -47.1482    -0.0000    -0.0000 </r>
       <r>   -46.9404    -0.0000    -0.0000 </r>
       <r>   -46.7325    -0.0719    -0.0149 </r>
       <r>   -46.5247    -1.8941    -0.4086 </r>
       <r>   -46.3169    44.0607     8.7488 </r>
       <r>   -46.1090    62.7241    21.7852 </r>
       <r>   -45.9012     1.3593    22.0678 </r>
       <r>   -45.6933    -0.3254    22.0001 </r>
       <r>   -45.4855    -0.0006    22.0000 </r>
       <r>   -45.2777    -0.0000    22.0000 </r>
       <r>   -45.0698    -0.0000    22.0000 </r>
       <r>   -44.8620     0.0000    22.0000 </r>
       <r>   -44.6542     0.0000    22.0000 </r>
       <r>   -44.4463     0.0000    22.0000 </r>
       <r>   -44.2385     0.0000    22.0000 </r>
       <r>   -44.0306     0.0000    22.0000 </r>
       <r>   -43.8228     0.0000    22.0000 </r>
       <r>   -43.6150     0.0000    22.0000 </r>
       <r>   -43.4071     0.0000    22.0000 </r>
       <r>   -43.1993     0.0000    22.0000 </r>
       <r>   -42.9915     0.0000    22.0000 </r>
       <r>   -42.7836     0.0000    22.0000 </r>
       <r>   -42.5758     0.0000    22.0000 </r>
       <r>   -42.3679     0.0000    22.0000 </r>
       <r>   -42.1601     0.0000    22.0000 </r>
       <r>   -41.9523     0.0000    22.0000 </r>
       <r>   -41.7444    -0.0000    22.0000 </r>
       <r>   -41.5366    -0.0000    22.0000 </r>
       <r>   -41.3288    -0.0000    22.0000 </r>
       <r>   -41.1209    -0.0000    22.0000 </r>
       <r>   -40.9131    -0.0000    22.0000 </r>
       <r>   -40.7052    -0.0613    21.9873 </r>
       <r>   -40.4974    -0.6178    21.8589 </r>
       <r>   -40.2896    23.1597    26.6723 </r>
       <r>   -40.0817    51.2409    37.3221 </r>
       <r>   -39.8739     3.6746    38.0858 </r>
       <r>   -39.6661    -0.4116    38.0003 </r>
       <r>   -39.4582    -0.0012    38.0000 </r>
       <r>   -39.2504    -0.0000    38.0000 </r>
       <r>   -39.0425    -0.0000    38.0000 </r>
       <r>   -38.8347     0.0000    38.0000 </r>
       <r>   -38.6269     0.0000    38.0000 </r>
       <r>   -38.4190     0.0000    38.0000 </r>
       <r>   -38.2112     0.0000    38.0000 </r>
       <r>   -38.0034     0.0000    38.0000 </r>
       <r>   -37.7955     0.0000    38.0000 </r>
       <r>   -37.5877     0.0000    38.0000 </r>
       <r>   -37.3799     0.0000    38.0000 </r>
       <r>   -37.1720     0.0000    38.0000 </r>
       <r>   -36.9642     0.0000    38.0000 </r>
       <r>   -36.7563     0.0000    38.0000 </r>
       <r>   -36.5485     0.0000    38.0000 </r>
       <r>   -36.3407     0.0000    38.0000 </r>
       <r>   -36.1328     0.0000    38.0000 </r>
       <r>   -35.9250     0.0000    38.0000 </r>
       <r>   -35.7172     0.0000    38.0000 </r>
       <r>   -35.5093     0.0000    38.0000 </r>
       <r>   -35.3015     0.0000    38.0000 </r>
       <r>   -35.0936     0.0000    38.0000 </r>
       <r>   -34.8858     0.0000    38.0000 </r>
       <r>   -34.6780     0.0000    38.0000 </r>
       <r>   -34.4701     0.0000    38.0000 </r>
       <r>   -34.2623     0.0000    38.0000 </r>
       <r>   -34.0545     0.0000    38.0000 </r>
       <r>   -33.8466     0.0000    38.0000 </r>
       <r>   -33.6388     0.0000    38.0000 </r>
       <r>   -33.4309     0.0000    38.0000 </r>
       <r>   -33.2231     0.0000    38.0000 </r>
       <r>   -33.0153     0.0000    38.0000 </r>
       <r>   -32.8074     0.0000    38.0000 </r>
       <r>   -32.5996     0.0000    38.0000 </r>
       <r>   -32.3918     0.0000    38.0000 </r>
       <r>   -32.1839     0.0000    38.0000 </r>
       <r>   -31.9761     0.0000    38.0000 </r>
       <r>   -31.7682     0.0000    38.0000 </r>
       <r>   -31.5604     0.0000    38.0000 </r>
       <r>   -31.3526     0.0000    38.0000 </r>
       <r>   -31.1447     0.0000    38.0000 </r>
       <r>   -30.9369     0.0000    38.0000 </r>
       <r>   -30.7291     0.0000    38.0000 </r>
       <r>   -30.5212     0.0000    38.0000 </r>
       <r>   -30.3134     0.0000    38.0000 </r>
       <r>   -30.1055     0.0000    38.0000 </r>
       <r>   -29.8977     0.0000    38.0000 </r>
       <r>   -29.6899     0.0000    38.0000 </r>
       <r>   -29.4820     0.0000    38.0000 </r>
       <r>   -29.2742     0.0000    38.0000 </r>
       <r>   -29.0664     0.0000    38.0000 </r>
       <r>   -28.8585     0.0000    38.0000 </r>
       <r>   -28.6507     0.0000    38.0000 </r>
       <r>   -28.4428     0.0000    38.0000 </r>
       <r>   -28.2350     0.0000    38.0000 </r>
       <r>   -28.0272     0.0000    38.0000 </r>
       <r>   -27.8193     0.0000    38.0000 </r>
       <r>   -27.6115     0.0000    38.0000 </r>
       <r>   -27.4037     0.0000    38.0000 </r>
       <r>   -27.1958     0.0000    38.0000 </r>
       <r>   -26.9880     0.0000    38.0000 </r>
       <r>   -26.7802     0.0000    38.0000 </r>
       <r>   -26.5723     0.0000    38.0000 </r>
       <r>   -26.3645     0.0000    38.0000 </r>
       <r>   -26.1566     0.0000    38.0000 </r>
       <r>   -25.9488     0.0000    38.0000 </r>
       <r>   -25.7410     0.0000    38.0000 </r>
       <r>   -25.5331     0.0000    38.0000 </r>
       <r>   -25.3253     0.0000    38.0000 </r>
       <r>   -25.1175     0.0000    38.0000 </r>
       <r>   -24.9096     0.0000    38.0000 </r>
       <r>   -24.7018     0.0000    38.0000 </r>
       <r>   -24.4939     0.0000    38.0000 </r>
       <r>   -24.2861     0.0000    38.0000 </r>
       <r>   -24.0783    -0.0000    38.0000 </r>
       <r>   -23.8704    -0.0000    38.0000 </r>
       <r>   -23.6626    -0.0000    38.0000 </r>
       <r>   -23.4548    -0.0000    38.0000 </r>
       <r>   -23.2469    -0.0024    37.9995 </r>
       <r>   -23.0391    -0.4253    37.9111 </r>
       <r>   -22.8312     3.9719    38.7366 </r>
       <r>   -22.6234    45.3694    48.1661 </r>
       <r>   -22.4156   119.4569    72.9937 </r>
       <r>   -22.2077    97.5312    93.2643 </r>
       <r>   -21.9999    47.2219   103.0788 </r>
       <r>   -21.7921     4.9171   104.1007 </r>
       <r>   -21.5842    -0.4821   104.0005 </r>
       <r>   -21.3764    -0.0026   104.0000 </r>
       <r>   -21.1685    -0.0000   104.0000 </r>
       <r>   -20.9607    -0.0000   104.0000 </r>
       <r>   -20.7529     0.0000   104.0000 </r>
       <r>   -20.5450     0.0000   104.0000 </r>
       <r>   -20.3372     0.0000   104.0000 </r>
       <r>   -20.1294    -0.0000   104.0000 </r>
       <r>   -19.9215    -0.0000   104.0000 </r>
       <r>   -19.7137    -0.0000   104.0000 </r>
       <r>   -19.5058    -0.0000   104.0000 </r>
       <r>   -19.2980    -0.0000   104.0000 </r>
       <r>   -19.0902    -0.0283   103.9941 </r>
       <r>   -18.8823    -0.6004   103.8693 </r>
       <r>   -18.6745    13.7114   106.7191 </r>
       <r>   -18.4667    38.6900   114.7603 </r>
       <r>   -18.2588    97.8406   135.0952 </r>
       <r>   -18.0510    74.1907   150.5148 </r>
       <r>   -17.8431     7.5661   152.0873 </r>
       <r>   -17.6353    -0.3959   152.0051 </r>
       <r>   -17.4275    -0.0243   152.0000 </r>
       <r>   -17.2196    -0.0000   152.0000 </r>
       <r>   -17.0118    -0.0000   152.0000 </r>
       <r>   -16.8040     0.0000   152.0000 </r>
       <r>   -16.5961     0.0000   152.0000 </r>
       <r>   -16.3883     0.0000   152.0000 </r>
       <r>   -16.1804     0.0000   152.0000 </r>
       <r>   -15.9726     0.0000   152.0000 </r>
       <r>   -15.7648     0.0000   152.0000 </r>
       <r>   -15.5569     0.0000   152.0000 </r>
       <r>   -15.3491     0.0000   152.0000 </r>
       <r>   -15.1413     0.0000   152.0000 </r>
       <r>   -14.9334     0.0000   152.0000 </r>
       <r>   -14.7256     0.0000   152.0000 </r>
       <r>   -14.5178     0.0000   152.0000 </r>
       <r>   -14.3099     0.0000   152.0000 </r>
       <r>   -14.1021     0.0000   152.0000 </r>
       <r>   -13.8942     0.0000   152.0000 </r>
       <r>   -13.6864     0.0000   152.0000 </r>
       <r>   -13.4786     0.0000   152.0000 </r>
       <r>   -13.2707     0.0000   152.0000 </r>
       <r>   -13.0629     0.0000   152.0000 </r>
       <r>   -12.8551     0.0000   152.0000 </r>
       <r>   -12.6472     0.0000   152.0000 </r>
       <r>   -12.4394     0.0000   152.0000 </r>
       <r>   -12.2315     0.0000   152.0000 </r>
       <r>   -12.0237     0.0000   152.0000 </r>
       <r>   -11.8159     0.0000   152.0000 </r>
       <r>   -11.6080     0.0000   152.0000 </r>
       <r>   -11.4002     0.0000   152.0000 </r>
       <r>   -11.1924     0.0000   152.0000 </r>
       <r>   -10.9845     0.0000   152.0000 </r>
       <r>   -10.7767     0.0000   152.0000 </r>
       <r>   -10.5688     0.0000   152.0000 </r>
       <r>   -10.3610     0.0000   152.0000 </r>
       <r>   -10.1532     0.0000   152.0000 </r>
       <r>    -9.9453     0.0000   152.0000 </r>
       <r>    -9.7375     0.0000   152.0000 </r>
       <r>    -9.5297     0.0000   152.0000 </r>
       <r>    -9.3218     0.0000   152.0000 </r>
       <r>    -9.1140     0.0000   152.0000 </r>
       <r>    -8.9061     0.0000   152.0000 </r>
       <r>    -8.6983     0.0000   152.0000 </r>
       <r>    -8.4905     0.0000   152.0000 </r>
       <r>    -8.2826     0.0000   152.0000 </r>
       <r>    -8.0748     0.0000   152.0000 </r>
       <r>    -7.8670     0.0000   152.0000 </r>
       <r>    -7.6591     0.0000   152.0000 </r>
       <r>    -7.4513     0.0000   152.0000 </r>
       <r>    -7.2434     0.0000   152.0000 </r>
       <r>    -7.0356     0.0000   152.0000 </r>
       <r>    -6.8278     0.0000   152.0000 </r>
       <r>    -6.6199     0.0000   152.0000 </r>
       <r>    -6.4121     0.0000   152.0000 </r>
       <r>    -6.2043     0.0000   152.0000 </r>
       <r>    -5.9964     0.0000   152.0000 </r>
       <r>    -5.7886     0.0000   152.0000 </r>
       <r>    -5.5807     0.0000   152.0000 </r>
       <r>    -5.3729     0.0000   152.0000 </r>
       <r>    -5.1651     0.0000   152.0000 </r>
       <r>    -4.9572     0.0000   152.0000 </r>
       <r>    -4.7494     0.0000   152.0000 </r>
       <r>    -4.5416     0.0000   152.0000 </r>
       <r>    -4.3337     0.0000   152.0000 </r>
       <r>    -4.1259     0.0000   152.0000 </r>
       <r>    -3.9181     0.0000   152.0000 </r>
       <r>    -3.7102     0.0000   152.0000 </r>
       <r>    -3.5024     0.0000   152.0000 </r>
       <r>    -3.2945     0.0000   152.0000 </r>
       <r>    -3.0867     0.0000   152.0000 </r>
       <r>    -2.8789     0.0000   152.0000 </r>
       <r>    -2.6710     0.0000   152.0000 </r>
       <r>    -2.4632     0.0000   152.0000 </r>
       <r>    -2.2554     0.0000   152.0000 </r>
       <r>    -2.0475     0.0000   152.0000 </r>
       <r>    -1.8397     0.0000   152.0000 </r>
       <r>    -1.6318     0.0000   152.0000 </r>
       <r>    -1.4240     0.0000   152.0000 </r>
       <r>    -1.2162     0.0000   152.0000 </r>
       <r>    -1.0083     0.0000   152.0000 </r>
       <r>    -0.8005     0.0000   152.0000 </r>
       <r>    -0.5927     0.0000   152.0000 </r>
       <r>    -0.3848     0.0000   152.0000 </r>
       <r>    -0.1770    -0.0000   152.0000 </r>
       <r>     0.0309    -0.0000   152.0000 </r>
       <r>     0.2387    -0.0000   152.0000 </r>
       <r>     0.4465    -0.0000   152.0000 </r>
       <r>     0.6544    -0.0000   152.0000 </r>
       <r>     0.8622    -0.0014   151.9997 </r>
       <r>     1.0700    -0.0024   151.9992 </r>
       <r>     1.2779     0.3413   152.0701 </r>
       <r>     1.4857     1.2811   152.3364 </r>
       <r>     1.6936     1.7642   152.7031 </r>
       <r>     1.9014     2.1921   153.1587 </r>
       <r>     2.1092     3.7861   153.9456 </r>
       <r>     2.3171     2.7762   154.5226 </r>
       <r>     2.5249     1.9412   154.9260 </r>
       <r>     2.7327     5.1316   155.9926 </r>
       <r>     2.9406     3.0847   156.6337 </r>
       <r>     3.1484     5.3539   157.7464 </r>
       <r>     3.3563     6.2565   159.0467 </r>
       <r>     3.5641     8.6465   160.8438 </r>
       <r>     3.7719     7.1203   162.3237 </r>
       <r>     3.9798     9.2570   164.2476 </r>
       <r>     4.1876    11.7870   166.6974 </r>
       <r>     4.3954    18.8546   170.6161 </r>
       <r>     4.6033    22.1368   175.2170 </r>
       <r>     4.8111    26.0657   180.6344 </r>
       <r>     5.0190    30.6883   187.0126 </r>
       <r>     5.2268    35.6895   194.4302 </r>
       <r>     5.4346    41.7499   203.1074 </r>
       <r>     5.6425    40.9973   211.6281 </r>
       <r>     5.8503    35.1325   218.9300 </r>
       <r>     6.0581    34.3891   226.0773 </r>
       <r>     6.2660    27.1026   231.7102 </r>
       <r>     6.4738    20.6275   235.9974 </r>
       <r>     6.6817    56.7997   247.8025 </r>
       <r>     6.8895    62.8551   260.8661 </r>
       <r>     7.0973    57.9101   272.9020 </r>
       <r>     7.3052    53.3504   283.9902 </r>
       <r>     7.5130    52.5283   294.9075 </r>
       <r>     7.7208    54.3019   306.1935 </r>
       <r>     7.9287    47.8468   316.1378 </r>
       <r>     8.1365    48.6166   326.2422 </r>
       <r>     8.3443    51.4488   336.9352 </r>
       <r>     8.5522    39.9973   345.2481 </r>
       <r>     8.7600    30.9270   351.6759 </r>
       <r>     8.9679    25.8478   357.0480 </r>
       <r>     9.1757    18.4155   360.8754 </r>
       <r>     9.3835    13.8321   363.7503 </r>
       <r>     9.5914    18.7691   367.6512 </r>
       <r>     9.7992    30.2075   373.9294 </r>
       <r>    10.0070    27.0809   379.5579 </r>
       <r>    10.2149    18.0446   383.3082 </r>
       <r>    10.4227     3.5612   384.0484 </r>
       <r>    10.6306    -0.2280   384.0010 </r>
       <r>    10.8384    -0.0046   384.0000 </r>
       <r>    11.0462    -0.0000   384.0000 </r>
       <r>    11.2541    -0.0000   384.0000 </r>
       <r>    11.4619     0.0000   384.0000 </r>
       <r>    11.6697     0.0000   384.0000 </r>
       <r>    11.8776     0.0000   384.0000 </r>
       <r>    12.0854     0.0000   384.0000 </r>
       <r>    12.2933     0.0000   384.0000 </r>
       <r>    12.5011     0.0000   384.0000 </r>
       <r>    12.7089     0.0000   384.0000 </r>
       <r>    12.9168     0.0000   384.0000 </r>
       <r>    13.1246     0.0000   384.0000 </r>
      </set>
     </set>
    </array>
   </total>
  </dos>
 </calculation>
 <structure name="finalpos" >
  <crystal>
   <varray name="basis" >
    <v>       6.93712359      -0.01884774       0.05938034 </v>
    <v>      -0.02783226      10.23687947      -0.00527156 </v>
    <v>       0.08712153      -0.00628596      10.15993493 </v>
   </varray>
   <i name="volume">    721.44418102 </i>
   <varray name="rec_basis" >
    <v>       0.14416361       0.00039132      -0.00123596 </v>
    <v>       0.00026491       0.09768677       0.00005817 </v>
    <v>      -0.00084244       0.00004840       0.09843308 </v>
   </varray>
  </crystal>
  <varray name="positions" >
   <v>       0.73908446       0.49660729       0.83182217 </v>
   <v>       0.72996130       0.49978014       0.17139264 </v>
   <v>       0.03678470       0.99155782       0.67082204 </v>
   <v>       0.51798577       0.66963173       0.34069642 </v>
   <v>       0.75533700       0.50634868       0.49525021 </v>
   <v>       0.98499380       0.66840466       0.32743682 </v>
   <v>       0.49977419       0.65227110       0.66059284 </v>
   <v>       0.48811245       0.00918053       0.99620035 </v>
   <v>       0.22696767       0.17079954       0.48578091 </v>
   <v>       0.26664301       0.50566890       0.16930914 </v>
   <v>       0.99878152       0.34127198       0.99780832 </v>
   <v>       0.97851058       0.66288895       0.00609054 </v>
   <v>       0.26743999       0.82636696       0.16728270 </v>
   <v>       0.46719097       0.00645372       0.65819750 </v>
   <v>       0.75795144       0.83323220       0.50618180 </v>
   <v>       0.01252644       0.65999065       0.67003382 </v>
   <v>       0.27499308       0.82174353       0.84628339 </v>
   <v>       0.53413132       0.66033688       0.00214467 </v>
   <v>       0.99349719       0.98345612       0.32281378 </v>
   <v>       0.49821714       0.98756041       0.34583394 </v>
   <v>       0.73768504       0.83374411       0.17893651 </v>
   <v>       0.51743731       0.34324126       0.34408362 </v>
   <v>       0.26474206       0.50463067       0.83904653 </v>
   <v>       0.97445183       0.34883055       0.31485247 </v>
   <v>       0.00614820       0.34712877       0.68334461 </v>
   <v>       0.24900006       0.83031288       0.48946058 </v>
   <v>       0.49206816       0.33463191       0.98671469 </v>
   <v>       0.24634634       0.16845985       0.83663101 </v>
   <v>       0.25547087       0.17080189       0.17673701 </v>
   <v>       0.00206461       0.99733320       0.00621251 </v>
   <v>       0.77169695       0.16303387       0.50120615 </v>
   <v>       0.75281863       0.16700439       0.82647513 </v>
   <v>       0.72458458       0.16916103       0.17038802 </v>
   <v>       0.49337254       0.33682568       0.66493472 </v>
   <v>       0.74100392       0.83732474       0.82216880 </v>
   <v>       0.24221887       0.49398842       0.48683069 </v>
  </varray>
 </structure>
</modeling>
