<?xml version="1.0" encoding="ISO-8859-1"?>
<modeling>
 <generator>
  <i name="program" type="string">vasp </i>
  <i name="version" type="string">5.4.1  </i>
  <i name="subversion" type="string">05Feb16 (build Jan 29 2020 16:04:39) complex                          parallel </i>
  <i name="platform" type="string">IFC91_ompi </i>
  <i name="date" type="string">2020 04 11 </i>
  <i name="time" type="string">05:50:42 </i>
 </generator>
 <incar>
  <i type="string" name="SYSTEM"> automatically generated by mexm</i>
  <i type="int" name="ISTART">     0</i>
  <i type="string" name="PREC">accurate               ! avoid wrap aro</i>
  <i type="string" name="ALGO"> Fast                   ! blocked Davids</i>
  <i type="int" name="ISPIN">     1</i>
  <i type="int" name="ICHARG">     2</i>
  <i type="int" name="NELM">    70</i>
  <i type="int" name="IBRION">     2</i>
  <i name="EDIFF">      0.00001000</i>
  <i name="EDIFFG">     -0.01000000</i>
  <i type="int" name="NSW">   300</i>
  <i type="int" name="ISIF">     3</i>
  <i type="int" name="ISYM">     1</i>
  <i name="ENCUT">    300.00000000</i>
  <i name="POTIM">      0.15000000</i>
  <i type="string" name="LREAL"> Auto                  ! unpublished met</i>
  <i type="int" name="ISMEAR">     1</i>
  <i name="SIGMA">      0.15000000</i>
  <i type="logical" name="LWAVE"> F  </i>
  <i type="logical" name="LCHARG"> F  </i>
  <i type="logical" name="LVTOT"> F  </i>
  <v type="int" name="KPOINT_BSE">    -1     0     0     0</v>
  <i type="int" name="NELM">    70</i>
 </incar>
 <kpoints>
  <generation param="Gamma">
   <v type="int" name="divisions">       3        3        3 </v>
   <v name="usershift">      0.00000000       0.00000000       0.00000000 </v>
   <v name="genvec1">      0.33333333       0.00000000       0.00000000 </v>
   <v name="genvec2">      0.00000000       0.33333333      -0.00000000 </v>
   <v name="genvec3">      0.00000000       0.00000000       0.33333333 </v>
   <v name="shift">      0.00000000       0.00000000       0.00000000 </v>
  </generation>
  <varray name="kpointlist" >
   <v>       0.00000000       0.00000000       0.00000000 </v>
   <v>       0.33333333      -0.00000000       0.00000000 </v>
   <v>       0.00000000       0.33333333       0.00000000 </v>
   <v>       0.33333333       0.33333333       0.00000000 </v>
   <v>      -0.33333333       0.33333333       0.00000000 </v>
   <v>       0.00000000       0.00000000       0.33333333 </v>
   <v>       0.33333333       0.00000000       0.33333333 </v>
   <v>      -0.33333333      -0.00000000       0.33333333 </v>
   <v>       0.00000000       0.33333333       0.33333333 </v>
   <v>       0.33333333       0.33333333       0.33333333 </v>
   <v>      -0.33333333       0.33333333       0.33333333 </v>
   <v>      -0.00000000      -0.33333333       0.33333333 </v>
   <v>       0.33333333      -0.33333333       0.33333333 </v>
   <v>      -0.33333333      -0.33333333       0.33333333 </v>
  </varray>
  <varray name="weights" >
   <v>       0.03703704 </v>
   <v>       0.07407407 </v>
   <v>       0.07407407 </v>
   <v>       0.07407407 </v>
   <v>       0.07407407 </v>
   <v>       0.07407407 </v>
   <v>       0.07407407 </v>
   <v>       0.07407407 </v>
   <v>       0.07407407 </v>
   <v>       0.07407407 </v>
   <v>       0.07407407 </v>
   <v>       0.07407407 </v>
   <v>       0.07407407 </v>
   <v>       0.07407407 </v>
  </varray>
 </kpoints>
 <parameters>
  <separator name="general" >
   <i type="string" name="SYSTEM">automatically generated by mexm</i>
   <i type="logical" name="LCOMPAT"> F  </i>
  </separator>
  <separator name="electronic" >
   <i type="string" name="PREC">accura</i>
   <i name="ENMAX">    300.00000000</i>
   <i name="ENAUG">    358.96600000</i>
   <i name="EDIFF">      0.00001000</i>
   <i type="int" name="IALGO">    68</i>
   <i type="int" name="IWAVPR">    11</i>
   <i type="int" name="NBANDS">   204</i>
   <i name="NELECT">    335.00000000</i>
   <i type="int" name="TURBO">     0</i>
   <i type="int" name="IRESTART">     0</i>
   <i type="int" name="NREBOOT">     0</i>
   <i type="int" name="NMIN">     0</i>
   <i name="EREF">      0.00000000</i>
   <separator name="electronic smearing" >
    <i type="int" name="ISMEAR">     1</i>
    <i name="SIGMA">      0.15000000</i>
    <i name="KSPACING">      0.50000000</i>
    <i type="logical" name="KGAMMA"> T  </i>
   </separator>
   <separator name="electronic projectors" >
    <i type="logical" name="LREAL"> T  </i>
    <v name="ROPT">     -0.00025000     -0.00025000</v>
    <i type="int" name="LMAXPAW">  -100</i>
    <i type="int" name="LMAXMIX">     2</i>
    <i type="logical" name="NLSPLINE"> F  </i>
   </separator>
   <separator name="electronic startup" >
    <i type="int" name="ISTART">     0</i>
    <i type="int" name="ICHARG">     2</i>
    <i type="int" name="INIWAV">     1</i>
   </separator>
   <separator name="electronic spin" >
    <i type="int" name="ISPIN">     1</i>
    <i type="logical" name="LNONCOLLINEAR"> F  </i>
    <v name="MAGMOM">      1.00000000      1.00000000      1.00000000      1.00000000      1.00000000      1.00000000      1.00000000      1.00000000      1.00000000      1.00000000      1.00000000      1.00000000      1.00000000      1.00000000      1.00000000      1.00000000      1.00000000      1.00000000      1.00000000      1.00000000
      1.00000000      1.00000000      1.00000000      1.00000000      1.00000000      1.00000000      1.00000000      1.00000000      1.00000000      1.00000000      1.00000000      1.00000000</v>
    <i name="NUPDOWN">     -1.00000000</i>
    <i type="logical" name="LSORBIT"> F  </i>
    <v name="SAXIS">      0.00000000      0.00000000      1.00000000</v>
    <i type="logical" name="LSPIRAL"> F  </i>
    <v name="QSPIRAL">      0.00000000      0.00000000      0.00000000</v>
    <i type="logical" name="LZEROZ"> F  </i>
   </separator>
   <separator name="electronic exchange-correlation" >
    <i type="logical" name="LASPH"> F  </i>
    <i type="logical" name="LMETAGGA"> F  </i>
   </separator>
   <separator name="electronic convergence" >
    <i type="int" name="NELM">    70</i>
    <i type="int" name="NELMDL">    -5</i>
    <i type="int" name="NELMIN">     2</i>
    <i name="ENINI">    300.00000000</i>
    <separator name="electronic convergence detail" >
     <i type="logical" name="LDIAG"> T  </i>
     <i type="logical" name="LSUBROT"> F  </i>
     <i name="WEIMIN">      0.00100000</i>
     <i name="EBREAK">      0.00000001</i>
     <i name="DEPER">      0.30000000</i>
     <i type="int" name="NRMM">     4</i>
     <i name="TIME">      0.40000000</i>
    </separator>
   </separator>
   <separator name="electronic mixer" >
    <i name="AMIX">      0.40000000</i>
    <i name="BMIX">      1.00000000</i>
    <i name="AMIN">      0.10000000</i>
    <i name="AMIX_MAG">      1.60000000</i>
    <i name="BMIX_MAG">      1.00000000</i>
    <separator name="electronic mixer details" >
     <i type="int" name="IMIX">     4</i>
     <i type="logical" name="MIXFIRST"> F  </i>
     <i type="int" name="MAXMIX">   -45</i>
     <i name="WC">    100.00000000</i>
     <i type="int" name="INIMIX">     1</i>
     <i type="int" name="MIXPRE">     1</i>
     <i type="int" name="MREMOVE">     5</i>
    </separator>
   </separator>
   <separator name="electronic dipolcorrection" >
    <i type="logical" name="LDIPOL"> F  </i>
    <i type="logical" name="LMONO"> F  </i>
    <i type="int" name="IDIPOL">     0</i>
    <i name="EPSILON">      1.00000000</i>
    <v name="DIPOL">   -100.00000000   -100.00000000   -100.00000000</v>
    <i name="EFIELD">      0.00000000</i>
   </separator>
  </separator>
  <separator name="grids" >
   <i type="int" name="NGX">    48</i>
   <i type="int" name="NGY">    48</i>
   <i type="int" name="NGZ">    48</i>
   <i type="int" name="NGXF">    96</i>
   <i type="int" name="NGYF">    96</i>
   <i type="int" name="NGZF">    96</i>
   <i type="logical" name="ADDGRID"> F  </i>
  </separator>
  <separator name="ionic" >
   <i type="int" name="NSW">   300</i>
   <i type="int" name="IBRION">     2</i>
   <i type="int" name="ISIF">     3</i>
   <i name="PSTRESS">      0.00000000</i>
   <i name="EDIFFG">     -0.01000000</i>
   <i type="int" name="NFREE">     1</i>
   <i name="POTIM">      0.15000000</i>
   <i name="SMASS">     -3.00000000</i>
   <i name="SCALEE">      1.00000000</i>
  </separator>
  <separator name="ionic md" >
   <i name="TEBEG">      0.00010000</i>
   <i name="TEEND">      0.00010000</i>
   <i type="int" name="NBLOCK">     1</i>
   <i type="int" name="KBLOCK">   300</i>
   <i type="int" name="NPACO">   256</i>
   <i name="APACO">     16.00000000</i>
  </separator>
  <separator name="symmetry" >
   <i type="int" name="ISYM">     1</i>
   <i name="SYMPREC">      0.00001000</i>
  </separator>
  <separator name="dos" >
   <i type="logical" name="LORBIT"> F  </i>
   <v name="RWIGS">     -1.00000000     -1.00000000</v>
   <i type="int" name="NEDOS">   301</i>
   <i name="EMIN">     10.00000000</i>
   <i name="EMAX">    -10.00000000</i>
   <i name="EFERMI">      0.00000000</i>
  </separator>
  <separator name="writing" >
   <i type="int" name="NWRITE">     2</i>
   <i type="logical" name="LWAVE"> F  </i>
   <i type="logical" name="LCHARG"> F  </i>
   <i type="logical" name="LPARD"> F  </i>
   <i type="logical" name="LVTOT"> F  </i>
   <i type="logical" name="LVHAR"> F  </i>
   <i type="logical" name="LELF"> F  </i>
   <i type="logical" name="LOPTICS"> F  </i>
   <v name="STM">      0.00000000      0.00000000      0.00000000      0.00000000      0.00000000      0.00000000      0.00000000</v>
  </separator>
  <separator name="performance" >
   <i type="int" name="NPAR">     4</i>
   <i type="int" name="NSIM">     4</i>
   <i type="int" name="NBLK">    -1</i>
   <i type="logical" name="LPLANE"> T  </i>
   <i type="logical" name="LSCALAPACK"> T  </i>
   <i type="logical" name="LSCAAWARE"> F  </i>
   <i type="logical" name="LSCALU"> F  </i>
   <i type="logical" name="LASYNC"> F  </i>
   <i type="logical" name="LORBITALREAL"> F  </i>
  </separator>
  <separator name="miscellaneous" >
   <i type="int" name="IDIOT">     3</i>
   <i type="logical" name="LMUSIC"> F  </i>
   <v name="POMASS">    195.08000000    196.96600000</v>
   <v name="DARWINR">      0.00000000      0.00000000</v>
   <v name="DARWINV">      1.00000000      1.00000000</v>
   <i type="logical" name="LCORR"> T  </i>
  </separator>
  <i type="logical" name="GGA_COMPAT"> T  </i>
  <i type="logical" name="LBERRY"> F  </i>
  <i type="int" name="ICORELEVEL">     0</i>
  <i type="logical" name="LDAU"> F  </i>
  <i type="int" name="I_CONSTRAINED_M">     0</i>
  <separator name="electronic exchange-correlation" >
   <i type="string" name="GGA">--</i>
   <i type="int" name="VOSKOWN">     0</i>
   <i type="logical" name="LHFCALC"> F  </i>
   <i type="string" name="PRECFOCK"></i>
   <i type="logical" name="LSYMGRAD"> F  </i>
   <i type="logical" name="LHFONE"> F  </i>
   <i type="logical" name="LRHFCALC"> F  </i>
   <i type="logical" name="LTHOMAS"> F  </i>
   <i type="logical" name="LMODELHF"> F  </i>
   <i name="ENCUT4O">     -1.00000000</i>
   <i type="int" name="EXXOEP">     0</i>
   <i type="int" name="FOURORBIT">     0</i>
   <i name="AEXX">      0.00000000</i>
   <i name="HFALPHA">      0.00000000</i>
   <i name="MCALPHA">      0.00000000</i>
   <i name="ALDAX">      1.00000000</i>
   <i name="AGGAX">      1.00000000</i>
   <i name="ALDAC">      1.00000000</i>
   <i name="AGGAC">      1.00000000</i>
   <i type="int" name="NKREDX">     1</i>
   <i type="int" name="NKREDY">     1</i>
   <i type="int" name="NKREDZ">     1</i>
   <i type="logical" name="SHIFTRED"> F  </i>
   <i type="logical" name="ODDONLY"> F  </i>
   <i type="logical" name="EVENONLY"> F  </i>
   <i type="int" name="LMAXFOCK">     0</i>
   <i type="int" name="NMAXFOCKAE">     0</i>
   <i type="logical" name="LFOCKAEDFT"> F  </i>
   <i name="HFSCREEN">      0.00000000</i>
   <i name="HFSCREENC">      0.00000000</i>
   <i type="int" name="NBANDSGWLOW">     0</i>
  </separator>
  <separator name="vdW DFT" >
   <i type="logical" name="LUSE_VDW"> F  </i>
   <i name="Zab_VDW">     -0.84910000</i>
   <i name="PARAM1">      0.12340000</i>
   <i name="PARAM2">      1.00000000</i>
   <i name="PARAM3">      0.00000000</i>
  </separator>
  <separator name="model GW" >
   <i type="int" name="MODEL_GW">     0</i>
   <i name="MODEL_EPS0">     10.15579557</i>
   <i name="MODEL_ALPHA">      1.00000000</i>
  </separator>
  <separator name="linear response parameters" >
   <i type="logical" name="LEPSILON"> F  </i>
   <i type="logical" name="LRPA"> F  </i>
   <i type="logical" name="LNABLA"> F  </i>
   <i type="logical" name="LVEL"> F  </i>
   <i type="int" name="KINTER">     0</i>
   <i name="CSHIFT">      0.10000000</i>
   <i name="OMEGAMAX">     -1.00000000</i>
   <i name="DEG_THRESHOLD">      0.00200000</i>
  </separator>
  <separator name="orbital magnetization" >
   <i type="logical" name="NUCIND"> F  </i>
   <v name="MAGPOS">      0.00000000      0.00000000      0.00000000</v>
   <i type="logical" name="LNICSALL"> T  </i>
   <i type="logical" name="ORBITALMAG"> F  </i>
   <i type="logical" name="LMAGBLOCH"> F  </i>
   <i type="logical" name="LCHIMAG"> F  </i>
   <i type="logical" name="LGAUGE"> T  </i>
   <i type="int" name="MAGATOM">     0</i>
   <v name="MAGDIPOL">      0.00000000      0.00000000      0.00000000</v>
   <v name="AVECCONST">      0.00000000      0.00000000      0.00000000</v>
  </separator>
  <separator name="response functions" >
   <i type="logical" name="LADDER"> F  </i>
   <i type="logical" name="LFXC"> F  </i>
   <i type="logical" name="LHARTREE"> T  </i>
   <i type="int" name="IBSE">     0</i>
   <v type="int" name="KPOINT">    -1     0     0     0</v>
   <i type="logical" name="LTCTE"> F  </i>
   <i type="logical" name="LTETE"> F  </i>
   <i type="logical" name="LTRIPLET"> F  </i>
   <i type="logical" name="LFXCEPS"> F  </i>
   <i type="logical" name="LFXHEG"> F  </i>
   <i type="int" name="NATURALO">     0</i>
   <i type="logical" name="L2ORDER"> F  </i>
   <i type="logical" name="LUSEW"> F  </i>
   <i name="ENCUTGW">     -2.00000000</i>
   <i name="ENCUTGWSOFT">     -2.00000000</i>
   <i name="ENCUTLF">     -1.00000000</i>
   <i type="int" name="LMAXMP2">    -1</i>
   <i name="SCISSOR">      0.00000000</i>
   <i type="int" name="NOMEGA">     0</i>
   <i type="int" name="NOMEGAR">     0</i>
   <i type="int" name="NBANDSGW">    -1</i>
   <i type="int" name="NBANDSO">    -1</i>
   <i type="int" name="NBANDSV">    -1</i>
   <i type="int" name="NELM">    70</i>
   <i type="int" name="NELMHF">     1</i>
   <i type="int" name="DIM">     3</i>
   <i type="int" name="ANTIRES">     0</i>
   <i name="OMEGAMAX">    -30.00000000</i>
   <i name="OMEGAMIN">    -30.00000000</i>
   <i name="OMEGATL">   -200.00000000</i>
   <i type="int" name="OMEGAGRID">     0</i>
   <i name="CSHIFT">     -0.10000000</i>
   <i type="logical" name="SELFENERGY"> F  </i>
   <i type="logical" name="LSPECTRAL"> F  </i>
   <i type="logical" name="LSPECTRALGW"> F  </i>
   <i type="logical" name="LSINGLES"> F  </i>
   <i type="logical" name="LFERMIGW"> F  </i>
   <i type="logical" name="ODDONLYGW"> F  </i>
   <i type="logical" name="EVENONLYGW"> F  </i>
   <i type="int" name="NKREDLFX">     1</i>
   <i type="int" name="NKREDLFY">     1</i>
   <i type="int" name="NKREDLFZ">     1</i>
   <i type="int" name="MAXMEM">  1800</i>
   <i type="int" name="TELESCOPE">     0</i>
   <i type="int" name="TAUPAR">     1</i>
   <i type="int" name="OMEGAPAR">    -1</i>
   <i name="LAMBDA">      1.00000000</i>
  </separator>
  <separator name="External order field" >
   <i name="OFIELD_KAPPA">      0.00000000</i>
   <v name="OFIELD_K">      0.00000000      0.00000000      0.00000000</v>
   <i name="OFIELD_Q6_NEAR">      0.00000000</i>
   <i name="OFIELD_Q6_FAR">      0.00000000</i>
   <i name="OFIELD_A">      0.00000000</i>
  </separator>
 </parameters>
 <atominfo>
  <atoms>      32 </atoms>
  <types>       2 </types>
  <array name="atoms" >
   <dimension dim="1">ion</dimension>
   <field type="string">element</field>
   <field type="int">atomtype</field>
   <set>
    <rc><c>Pt</c><c>   1</c></rc>
    <rc><c>Pt</c><c>   1</c></rc>
    <rc><c>Pt</c><c>   1</c></rc>
    <rc><c>Pt</c><c>   1</c></rc>
    <rc><c>Pt</c><c>   1</c></rc>
    <rc><c>Pt</c><c>   1</c></rc>
    <rc><c>Pt</c><c>   1</c></rc>
    <rc><c>Pt</c><c>   1</c></rc>
    <rc><c>Pt</c><c>   1</c></rc>
    <rc><c>Pt</c><c>   1</c></rc>
    <rc><c>Pt</c><c>   1</c></rc>
    <rc><c>Pt</c><c>   1</c></rc>
    <rc><c>Pt</c><c>   1</c></rc>
    <rc><c>Pt</c><c>   1</c></rc>
    <rc><c>Pt</c><c>   1</c></rc>
    <rc><c>Pt</c><c>   1</c></rc>
    <rc><c>Pt</c><c>   1</c></rc>
    <rc><c>Au</c><c>   2</c></rc>
    <rc><c>Au</c><c>   2</c></rc>
    <rc><c>Au</c><c>   2</c></rc>
    <rc><c>Au</c><c>   2</c></rc>
    <rc><c>Au</c><c>   2</c></rc>
    <rc><c>Au</c><c>   2</c></rc>
    <rc><c>Au</c><c>   2</c></rc>
    <rc><c>Au</c><c>   2</c></rc>
    <rc><c>Au</c><c>   2</c></rc>
    <rc><c>Au</c><c>   2</c></rc>
    <rc><c>Au</c><c>   2</c></rc>
    <rc><c>Au</c><c>   2</c></rc>
    <rc><c>Au</c><c>   2</c></rc>
    <rc><c>Au</c><c>   2</c></rc>
    <rc><c>Au</c><c>   2</c></rc>
   </set>
  </array>
  <array name="atomtypes" >
   <dimension dim="1">type</dimension>
   <field type="int">atomspertype</field>
   <field type="string">element</field>
   <field>mass</field>
   <field>valence</field>
   <field type="string">pseudopotential</field>
   <set>
    <rc><c>  17</c><c>Pt</c><c>    195.08000000</c><c>     10.00000000</c><c>  PAW_PBE Pt 04Feb2005                  </c></rc>
    <rc><c>  15</c><c>Au</c><c>    196.96600000</c><c>     11.00000000</c><c>  PAW_PBE Au 04Oct2007                  </c></rc>
   </set>
  </array>
 </atominfo>
 <structure name="initialpos" >
  <crystal>
   <varray name="basis" >
    <v>       8.06867501       0.01032616       0.00117496 </v>
    <v>       0.01022782       8.21322054       0.02237593 </v>
    <v>       0.00114390       0.02233453       8.17336519 </v>
   </varray>
   <i name="volume">    541.64243038 </i>
   <varray name="rec_basis" >
    <v>       0.12393629      -0.00015429      -0.00001692 </v>
    <v>      -0.00015577       0.12175602      -0.00033269 </v>
    <v>      -0.00001739      -0.00033330       0.12234954 </v>
   </varray>
  </crystal>
  <varray name="positions" >
   <v>       0.25030700       0.25136700       0.00087200 </v>
   <v>       0.00137200       0.24946200       0.25009900 </v>
   <v>       0.00242200       0.00321700       0.49777000 </v>
   <v>       0.25019600       0.00244000       0.75019000 </v>
   <v>       0.24830600       0.74949400       0.00347100 </v>
   <v>       0.99925700       0.75027400       0.24859500 </v>
   <v>       0.25093400       0.74812600       0.49885200 </v>
   <v>       0.24835300       0.49965300       0.75019600 </v>
   <v>       0.99813400       0.74823500       0.75250400 </v>
   <v>       0.49945400       0.00042500       0.99734100 </v>
   <v>       0.49959900       0.00036000       0.49954500 </v>
   <v>       0.74993000       0.25041000       0.49859100 </v>
   <v>       0.75039400       0.00210000       0.75127700 </v>
   <v>       0.50126800       0.49968900       0.00210300 </v>
   <v>       0.74894100       0.74881700       0.00078600 </v>
   <v>       0.75087500       0.74685400       0.49675900 </v>
   <v>       0.99360000       0.49461900       0.00355800 </v>
   <v>       0.99775800       0.00615700       0.00264400 </v>
   <v>       0.25500200       0.00229000       0.24981700 </v>
   <v>       0.25359500       0.25542800       0.50067800 </v>
   <v>       0.99893300       0.25363800       0.75229400 </v>
   <v>       0.25086200       0.49821200       0.25611200 </v>
   <v>       0.00011800       0.49397200       0.49996500 </v>
   <v>       0.74996600       0.25183500       0.99947200 </v>
   <v>       0.74437000       0.00425700       0.24179700 </v>
   <v>       0.49833700       0.25192500       0.25258800 </v>
   <v>       0.50219900       0.25648400       0.74703800 </v>
   <v>       0.74772300       0.49692400       0.25018700 </v>
   <v>       0.49982200       0.74847500       0.25234800 </v>
   <v>       0.50147000       0.49844700       0.49734700 </v>
   <v>       0.75225100       0.49443500       0.74949700 </v>
   <v>       0.50425000       0.74198200       0.74570700 </v>
  </varray>
 </structure>
 <calculation>
  <scstep>
   <time name="dav">    0.77    0.78</time>
   <time name="total">    0.81    0.82</time>
   <energy>
    <i name="alphaZ">   1981.85515775 </i>
    <i name="ewald"> -28385.56231555 </i>
    <i name="hartreedc">  -3323.80663154 </i>
    <i name="XCdc">    292.27207831 </i>
    <i name="pawpsdc">  24945.56265257 </i>
    <i name="pawaedc"> -24118.43703705 </i>
    <i name="eentropy">     -0.00032307 </i>
    <i name="bandstr">   3917.13513448 </i>
    <i name="atom">  26284.91115543 </i>
    <i name="e_fr_energy">   1593.92987134 </i>
    <i name="e_wo_entrp">   1593.93019441 </i>
    <i name="e_0_energy">   1593.92997903 </i>
   </energy>
  </scstep>
  <scstep>
   <time name="dav">    0.77    0.77</time>
   <time name="total">    0.77    0.79</time>
   <energy>
    <i name="e_fr_energy">    -87.43821365 </i>
    <i name="e_wo_entrp">    -87.45090913 </i>
    <i name="e_0_energy">    -87.44244547 </i>
   </energy>
  </scstep>
  <scstep>
   <time name="dav">    1.01    1.01</time>
   <time name="total">    1.01    1.02</time>
   <energy>
    <i name="e_fr_energy">   -158.55409664 </i>
    <i name="e_wo_entrp">   -158.57078635 </i>
    <i name="e_0_energy">   -158.55965988 </i>
   </energy>
  </scstep>
  <scstep>
   <time name="dav">    0.90    0.99</time>
   <time name="total">    0.93    1.04</time>
   <energy>
    <i name="e_fr_energy">   -159.92249718 </i>
    <i name="e_wo_entrp">   -159.93815084 </i>
    <i name="e_0_energy">   -159.92771507 </i>
   </energy>
  </scstep>
  <scstep>
   <time name="dav">    0.86    0.88</time>
   <time name="total">    0.92    0.94</time>
   <energy>
    <i name="e_fr_energy">   -159.95022017 </i>
    <i name="e_wo_entrp">   -159.96585782 </i>
    <i name="e_0_energy">   -159.95543272 </i>
   </energy>
  </scstep>
  <scstep>
   <time name="diag">    0.08    0.08</time>
   <time name="diis">    0.42    0.42</time>
   <time name="orth">    0.01    0.01</time>
   <time name="total">    0.57    0.58</time>
   <energy>
    <i name="e_fr_energy">   -150.66564073 </i>
    <i name="e_wo_entrp">   -150.67028862 </i>
    <i name="e_0_energy">   -150.66719003 </i>
   </energy>
  </scstep>
  <scstep>
   <time name="diag">    0.07    0.07</time>
   <time name="diis">    0.45    0.45</time>
   <time name="orth">    0.01    0.01</time>
   <time name="total">    0.59    0.60</time>
   <energy>
    <i name="e_fr_energy">   -151.86149104 </i>
    <i name="e_wo_entrp">   -151.86576334 </i>
    <i name="e_0_energy">   -151.86291514 </i>
   </energy>
  </scstep>
  <scstep>
   <time name="diag">    0.07    0.08</time>
   <time name="diis">    0.48    0.48</time>
   <time name="orth">    0.01    0.01</time>
   <time name="total">    0.63    0.64</time>
   <energy>
    <i name="e_fr_energy">   -151.02373627 </i>
    <i name="e_wo_entrp">   -151.03085492 </i>
    <i name="e_0_energy">   -151.02610915 </i>
   </energy>
  </scstep>
  <scstep>
   <time name="diag">    0.07    0.08</time>
   <time name="diis">    0.37    0.46</time>
   <time name="orth">    0.01    0.02</time>
   <time name="total">    0.51    0.62</time>
   <energy>
    <i name="e_fr_energy">   -149.47826785 </i>
    <i name="e_wo_entrp">   -149.50548117 </i>
    <i name="e_0_energy">   -149.48733895 </i>
   </energy>
  </scstep>
  <scstep>
   <time name="diag">    0.07    0.07</time>
   <time name="diis">    0.41    0.41</time>
   <time name="orth">    0.01    0.01</time>
   <time name="total">    0.55    0.55</time>
   <energy>
    <i name="e_fr_energy">   -149.46758580 </i>
    <i name="e_wo_entrp">   -149.48116430 </i>
    <i name="e_0_energy">   -149.47211197 </i>
   </energy>
  </scstep>
  <scstep>
   <time name="diag">    0.14    0.14</time>
   <time name="diis">    0.44    0.45</time>
   <time name="orth">    0.01    0.01</time>
   <time name="total">    0.66    0.67</time>
   <energy>
    <i name="e_fr_energy">   -149.25610567 </i>
    <i name="e_wo_entrp">   -149.27347359 </i>
    <i name="e_0_energy">   -149.26189497 </i>
   </energy>
  </scstep>
  <scstep>
   <time name="diag">    0.07    0.07</time>
   <time name="diis">    0.41    0.41</time>
   <time name="orth">    0.01    0.01</time>
   <time name="total">    0.58    0.58</time>
   <energy>
    <i name="e_fr_energy">   -149.24114304 </i>
    <i name="e_wo_entrp">   -149.26411721 </i>
    <i name="e_0_energy">   -149.24880110 </i>
   </energy>
  </scstep>
  <scstep>
   <time name="diag">    0.07    0.07</time>
   <time name="diis">    0.41    0.41</time>
   <time name="orth">    0.01    0.01</time>
   <time name="total">    0.54    0.55</time>
   <energy>
    <i name="e_fr_energy">   -149.23941706 </i>
    <i name="e_wo_entrp">   -149.26101336 </i>
    <i name="e_0_energy">   -149.24661583 </i>
   </energy>
  </scstep>
  <scstep>
   <time name="diag">    0.07    0.07</time>
   <time name="diis">    0.40    0.41</time>
   <time name="orth">    0.01    0.01</time>
   <time name="total">    0.55    0.56</time>
   <energy>
    <i name="e_fr_energy">   -149.23830914 </i>
    <i name="e_wo_entrp">   -149.26003712 </i>
    <i name="e_0_energy">   -149.24555180 </i>
   </energy>
  </scstep>
  <scstep>
   <time name="diag">    0.09    0.09</time>
   <time name="diis">    0.46    0.46</time>
   <time name="orth">    0.01    0.01</time>
   <time name="total">    0.64    0.64</time>
   <energy>
    <i name="e_fr_energy">   -149.23777765 </i>
    <i name="e_wo_entrp">   -149.25973636 </i>
    <i name="e_0_energy">   -149.24509722 </i>
   </energy>
  </scstep>
  <scstep>
   <time name="diag">    0.09    0.09</time>
   <time name="diis">    0.42    0.42</time>
   <time name="orth">    0.04    0.05</time>
   <time name="total">    0.62    0.64</time>
   <energy>
    <i name="e_fr_energy">   -149.23760702 </i>
    <i name="e_wo_entrp">   -149.25942309 </i>
    <i name="e_0_energy">   -149.24487904 </i>
   </energy>
  </scstep>
  <scstep>
   <time name="diag">    0.10    0.10</time>
   <time name="diis">    0.32    0.33</time>
   <time name="orth">    0.01    0.01</time>
   <time name="total">    0.46    0.48</time>
   <energy>
    <i name="alphaZ">   1981.85515775 </i>
    <i name="ewald"> -28385.56231555 </i>
    <i name="hartreedc">  -2987.45881734 </i>
    <i name="XCdc">    278.55458091 </i>
    <i name="pawpsdc">  30469.82574697 </i>
    <i name="pawaedc"> -29723.01297369 </i>
    <i name="eentropy">      0.02184874 </i>
    <i name="bandstr">   1931.62801944 </i>
    <i name="atom">  26284.91115543 </i>
    <i name="e_fr_energy">   -149.23759734 </i>
    <i name="e_wo_entrp">   -149.25944608 </i>
    <i name="e_0_energy">   -149.24488025 </i>
   </energy>
  </scstep>
  <structure>
   <crystal>
    <varray name="basis" >
     <v>       8.06867501       0.01032616       0.00117496 </v>
     <v>       0.01022782       8.21322054       0.02237593 </v>
     <v>       0.00114390       0.02233453       8.17336519 </v>
    </varray>
    <i name="volume">    541.64243038 </i>
    <varray name="rec_basis" >
     <v>       0.12393629      -0.00015429      -0.00001692 </v>
     <v>      -0.00015577       0.12175602      -0.00033269 </v>
     <v>      -0.00001739      -0.00033330       0.12234954 </v>
    </varray>
   </crystal>
   <varray name="positions" >
    <v>       0.25030700       0.25136700       0.00087200 </v>
    <v>       0.00137200       0.24946200       0.25009900 </v>
    <v>       0.00242200       0.00321700       0.49777000 </v>
    <v>       0.25019600       0.00244000       0.75019000 </v>
    <v>       0.24830600       0.74949400       0.00347100 </v>
    <v>       0.99925700       0.75027400       0.24859500 </v>
    <v>       0.25093400       0.74812600       0.49885200 </v>
    <v>       0.24835300       0.49965300       0.75019600 </v>
    <v>       0.99813400       0.74823500       0.75250400 </v>
    <v>       0.49945400       0.00042500       0.99734100 </v>
    <v>       0.49959900       0.00036000       0.49954500 </v>
    <v>       0.74993000       0.25041000       0.49859100 </v>
    <v>       0.75039400       0.00210000       0.75127700 </v>
    <v>       0.50126800       0.49968900       0.00210300 </v>
    <v>       0.74894100       0.74881700       0.00078600 </v>
    <v>       0.75087500       0.74685400       0.49675900 </v>
    <v>       0.99360000       0.49461900       0.00355800 </v>
    <v>       0.99775800       0.00615700       0.00264400 </v>
    <v>       0.25500200       0.00229000       0.24981700 </v>
    <v>       0.25359500       0.25542800       0.50067800 </v>
    <v>       0.99893300       0.25363800       0.75229400 </v>
    <v>       0.25086200       0.49821200       0.25611200 </v>
    <v>       0.00011800       0.49397200       0.49996500 </v>
    <v>       0.74996600       0.25183500       0.99947200 </v>
    <v>       0.74437000       0.00425700       0.24179700 </v>
    <v>       0.49833700       0.25192500       0.25258800 </v>
    <v>       0.50219900       0.25648400       0.74703800 </v>
    <v>       0.74772300       0.49692400       0.25018700 </v>
    <v>       0.49982200       0.74847500       0.25234800 </v>
    <v>       0.50147000       0.49844700       0.49734700 </v>
    <v>       0.75225100       0.49443500       0.74949700 </v>
    <v>       0.50425000       0.74198200       0.74570700 </v>
   </varray>
  </structure>
  <varray name="forces" >
   <v>       0.10800830       0.24829740      -0.26329483 </v>
   <v>      -0.02831108      -0.04394373       0.10520927 </v>
   <v>      -0.31512837      -0.46047978       0.19789123 </v>
   <v>       0.08182586      -0.52028562      -0.01078155 </v>
   <v>      -0.20008231      -0.20166482      -0.49640765 </v>
   <v>      -0.01375540       0.02014310       0.07676820 </v>
   <v>      -0.61595055       0.57098339       0.54214481 </v>
   <v>      -0.17232136       0.53211144       0.67910266 </v>
   <v>       0.26056191       0.26971253      -0.08572693 </v>
   <v>      -0.26880911      -0.25607157      -0.67621700 </v>
   <v>       0.27335932      -0.23398307       0.55035361 </v>
   <v>       0.29168102      -0.85333147      -0.07905813 </v>
   <v>      -0.04313941      -0.55515967      -0.46602699 </v>
   <v>      -0.51863087       0.25923547      -0.23554965 </v>
   <v>       0.19276022       0.03923422      -0.24114687 </v>
   <v>       0.57470799       0.79942581       0.19493032 </v>
   <v>       0.82880285       0.68359557       0.13405804 </v>
   <v>       0.34645490      -0.55748545      -0.30470475 </v>
   <v>      -0.31997352      -0.23815671       0.01610208 </v>
   <v>      -0.31889451      -0.66005248       0.29986916 </v>
   <v>       0.31580544      -0.46387991      -0.16937592 </v>
   <v>      -0.41850750       0.31764329      -0.80411919 </v>
   <v>      -0.09707171       0.60197697      -0.03323904 </v>
   <v>      -0.30849141      -0.09493453       0.02945438 </v>
   <v>       0.27788210      -0.36546459       0.71505619 </v>
   <v>       0.10192889      -0.23764372      -0.34526568 </v>
   <v>      -0.27729508      -0.60106063       0.33328141 </v>
   <v>       0.38059136       0.26425234      -0.07260983 </v>
   <v>       0.02819371       0.22174378      -0.27255956 </v>
   <v>       0.09812098       0.28727107       0.31988763 </v>
   <v>       0.04292477       0.63091450       0.04813110 </v>
   <v>      -0.28724743       0.59705690       0.31384349 </v>
  </varray>
  <varray name="stress" >
   <v>     -36.81255317       0.39833191       0.46971934 </v>
   <v>       0.39833201     -37.80882775      -0.09699522 </v>
   <v>       0.46971927      -0.09699510     -38.01580478 </v>
  </varray>
  <energy>
   <i name="e_fr_energy">   -149.23759734 </i>
   <i name="e_wo_entrp">   -149.24488025 </i>
   <i name="e_0_energy">      0.02184874 </i>
  </energy>
  <time name="totalsc">   12.79   13.28</time>
 </calculation>
 <calculation>
  <scstep>
   <time name="dav">    0.86    0.91</time>
   <time name="total">    0.92    0.97</time>
   <energy>
    <i name="alphaZ">   2016.38258555 </i>
    <i name="ewald"> -28564.00122836 </i>
    <i name="hartreedc">  -2990.78997385 </i>
    <i name="XCdc">    283.66834456 </i>
    <i name="pawpsdc">  30470.66515513 </i>
    <i name="pawaedc"> -29723.85616018 </i>
    <i name="eentropy">      0.01587701 </i>
    <i name="bandstr">   2072.39425090 </i>
    <i name="atom">  26284.91115543 </i>
    <i name="e_fr_energy">   -150.60999381 </i>
    <i name="e_wo_entrp">   -150.62587082 </i>
    <i name="e_0_energy">   -150.61528614 </i>
   </energy>
  </scstep>
  <scstep>
   <time name="diag">    0.12    0.13</time>
   <time name="diis">    0.48    0.49</time>
   <time name="orth">    0.01    0.01</time>
   <time name="total">    0.67    0.70</time>
   <energy>
    <i name="e_fr_energy">   -149.60165423 </i>
    <i name="e_wo_entrp">   -149.62105917 </i>
    <i name="e_0_energy">   -149.60812254 </i>
   </energy>
  </scstep>
  <scstep>
   <time name="diag">    0.11    0.11</time>
   <time name="diis">    0.46    0.46</time>
   <time name="orth">    0.01    0.01</time>
   <time name="total">    0.63    0.64</time>
   <energy>
    <i name="e_fr_energy">   -149.59566078 </i>
    <i name="e_wo_entrp">   -149.61054830 </i>
    <i name="e_0_energy">   -149.60062329 </i>
   </energy>
  </scstep>
  <scstep>
   <time name="diag">    0.08    0.08</time>
   <time name="diis">    0.41    0.42</time>
   <time name="orth">    0.01    0.01</time>
   <time name="total">    0.56    0.57</time>
   <energy>
    <i name="e_fr_energy">   -149.56582618 </i>
    <i name="e_wo_entrp">   -149.58399633 </i>
    <i name="e_0_energy">   -149.57188290 </i>
   </energy>
  </scstep>
  <scstep>
   <time name="diag">    0.09    0.09</time>
   <time name="diis">    0.38    0.49</time>
   <time name="orth">    0.01    0.02</time>
   <time name="total">    0.53    0.65</time>
   <energy>
    <i name="e_fr_energy">   -149.56670853 </i>
    <i name="e_wo_entrp">   -149.58491449 </i>
    <i name="e_0_energy">   -149.57277718 </i>
   </energy>
  </scstep>
  <scstep>
   <time name="diag">    0.07    0.07</time>
   <time name="diis">    0.41    0.41</time>
   <time name="orth">    0.01    0.01</time>
   <time name="total">    0.55    0.57</time>
   <energy>
    <i name="e_fr_energy">   -149.56809809 </i>
    <i name="e_wo_entrp">   -149.58882654 </i>
    <i name="e_0_energy">   -149.57500758 </i>
   </energy>
  </scstep>
  <scstep>
   <time name="diag">    0.07    0.07</time>
   <time name="diis">    0.41    0.41</time>
   <time name="orth">    0.01    0.01</time>
   <time name="total">    0.54    0.55</time>
   <energy>
    <i name="e_fr_energy">   -149.56268911 </i>
    <i name="e_wo_entrp">   -149.58052516 </i>
    <i name="e_0_energy">   -149.56863446 </i>
   </energy>
  </scstep>
  <scstep>
   <time name="diag">    0.07    0.07</time>
   <time name="diis">    0.39    0.44</time>
   <time name="orth">    0.01    0.02</time>
   <time name="total">    0.52    0.58</time>
   <energy>
    <i name="e_fr_energy">   -149.56233959 </i>
    <i name="e_wo_entrp">   -149.58085318 </i>
    <i name="e_0_energy">   -149.56851079 </i>
   </energy>
  </scstep>
  <scstep>
   <time name="diag">    0.07    0.12</time>
   <time name="diis">    0.42    0.43</time>
   <time name="orth">    0.01    0.01</time>
   <time name="total">    0.56    0.63</time>
   <energy>
    <i name="e_fr_energy">   -149.56228751 </i>
    <i name="e_wo_entrp">   -149.58059686 </i>
    <i name="e_0_energy">   -149.56839062 </i>
   </energy>
  </scstep>
  <scstep>
   <time name="diag">    0.08    0.08</time>
   <time name="diis">    0.36    0.36</time>
   <time name="orth">    0.01    0.01</time>
   <time name="total">    0.54    0.55</time>
   <energy>
    <i name="e_fr_energy">   -149.56227041 </i>
    <i name="e_wo_entrp">   -149.58068361 </i>
    <i name="e_0_energy">   -149.56840815 </i>
   </energy>
  </scstep>
  <scstep>
   <time name="diag">    0.10    0.10</time>
   <time name="diis">    0.23    0.24</time>
   <time name="orth">    0.01    0.01</time>
   <time name="total">    0.38    0.39</time>
   <energy>
    <i name="alphaZ">   2016.38258555 </i>
    <i name="ewald"> -28564.00122836 </i>
    <i name="hartreedc">  -2913.18217138 </i>
    <i name="XCdc">    280.64495247 </i>
    <i name="pawpsdc">  30827.31806434 </i>
    <i name="pawaedc"> -30083.68519645 </i>
    <i name="eentropy">      0.01834594 </i>
    <i name="bandstr">   2002.03121677 </i>
    <i name="atom">  26284.91115543 </i>
    <i name="e_fr_energy">   -149.56227569 </i>
    <i name="e_wo_entrp">   -149.58062163 </i>
    <i name="e_0_energy">   -149.56839101 </i>
   </energy>
  </scstep>
  <structure>
   <crystal>
    <varray name="basis" >
     <v>       8.02326037       0.01075787       0.00174746 </v>
     <v>       0.01067208       8.16574077       0.02212480 </v>
     <v>       0.00172583       0.02208427       8.12585662 </v>
    </varray>
    <i name="volume">    532.36764293 </i>
    <varray name="rec_basis" >
     <v>       0.12463783      -0.00016282      -0.00002603 </v>
     <v>      -0.00016413       0.12246398      -0.00033279 </v>
     <v>      -0.00002636      -0.00033341       0.12306486 </v>
    </varray>
   </crystal>
   <varray name="positions" >
    <v>       0.25050025       0.25180556       0.00040455 </v>
    <v>       0.00132129       0.24938412       0.25028552 </v>
    <v>       0.00185773       0.00240532       0.49812271 </v>
    <v>       0.25034394       0.00152305       0.75017340 </v>
    <v>       0.24794768       0.74914148       0.00259301 </v>
    <v>       0.99923226       0.75030916       0.24873084 </v>
    <v>       0.24982776       0.74913094       0.49980940 </v>
    <v>       0.24804255       0.50058778       0.75139599 </v>
    <v>       0.99860079       0.74871010       0.75235083 </v>
    <v>       0.49897257      -0.00002237       0.99614490 </v>
    <v>       0.50008971      -0.00005558       0.50052059 </v>
    <v>       0.75045511       0.24890602       0.49845505 </v>
    <v>       0.75031797       0.00112407       0.75045448 </v>
    <v>       0.50033721       0.50014812       0.00168478 </v>
    <v>       0.74928673       0.74888686       0.00035875 </v>
    <v>       0.75190402       0.74826047       0.49710017 </v>
    <v>       0.99508507       0.49582108       0.00379188 </v>
    <v>       0.99838076       0.00517531       0.00210705 </v>
    <v>       0.25442859       0.00187098       0.24984674 </v>
    <v>       0.25302440       0.25426416       0.50121225 </v>
    <v>       0.99950054       0.25282068       0.75199624 </v>
    <v>       0.25011081       0.49877655       0.25468669 </v>
    <v>      -0.00005745       0.49503315       0.49990326 </v>
    <v>       0.74941286       0.25166826       0.99952469 </v>
    <v>       0.74486908       0.00360893       0.24306487 </v>
    <v>       0.49852045       0.25150767       0.25197774 </v>
    <v>       0.50170288       0.25542386       0.74763112 </v>
    <v>       0.74840510       0.49738914       0.25005706 </v>
    <v>       0.49987214       0.74886699       0.25186429 </v>
    <v>       0.50164528       0.49895145       0.49791203 </v>
    <v>       0.75232657       0.49554644       0.74957917 </v>
    <v>       0.50373335       0.74303324       0.74625993 </v>
   </varray>
  </structure>
  <varray name="forces" >
   <v>       0.08197547       0.19861298      -0.23392596 </v>
   <v>      -0.02859257      -0.04814833       0.07960838 </v>
   <v>      -0.28558934      -0.43323971       0.18734602 </v>
   <v>       0.06626994      -0.49469447      -0.01074768 </v>
   <v>      -0.17328438      -0.16380953      -0.46099115 </v>
   <v>      -0.01132149       0.03215830       0.06736904 </v>
   <v>      -0.54731847       0.51402640       0.48701218 </v>
   <v>      -0.15542889       0.46653911       0.57979033 </v>
   <v>       0.23416722       0.25389564      -0.08857493 </v>
   <v>      -0.22821613      -0.24736742      -0.57717505 </v>
   <v>       0.23309086      -0.21850617       0.47750840 </v>
   <v>       0.25505095      -0.73570315      -0.04977528 </v>
   <v>      -0.01987034      -0.50836324      -0.40725945 </v>
   <v>      -0.44533879       0.23975061      -0.21369844 </v>
   <v>       0.17783147       0.04938547      -0.21416522 </v>
   <v>       0.50185273       0.73816828       0.19138028 </v>
   <v>       0.73205167       0.60311855       0.09064844 </v>
   <v>       0.29273139      -0.50020134      -0.27507048 </v>
   <v>      -0.27989700      -0.22078341       0.00921004 </v>
   <v>      -0.27423018      -0.55496072       0.24343252 </v>
   <v>       0.25346152      -0.39909595      -0.14427603 </v>
   <v>      -0.33649330       0.27500907      -0.65979426 </v>
   <v>      -0.07067730       0.53558940      -0.01286133 </v>
   <v>      -0.23636629      -0.08612978       0.00936142 </v>
   <v>       0.25891999      -0.34701695       0.61574283 </v>
   <v>       0.07789142      -0.20755722      -0.29075989 </v>
   <v>      -0.23064926      -0.51905004       0.28228774 </v>
   <v>       0.32146965       0.23777917      -0.05815057 </v>
   <v>       0.01303936       0.19910463      -0.23455408 </v>
   <v>       0.05334121       0.24848831       0.28007352 </v>
   <v>       0.03786505       0.54085300       0.04651282 </v>
   <v>      -0.26773621       0.55214851       0.28449583 </v>
  </varray>
  <varray name="stress" >
   <v>      -7.65848145       0.14055314       0.37083496 </v>
   <v>       0.14055281      -7.76629794      -0.26508833 </v>
   <v>       0.37083506      -0.26508852      -8.49621018 </v>
  </varray>
  <energy>
   <i name="e_fr_energy">   -149.56227569 </i>
   <i name="e_wo_entrp">   -149.56839101 </i>
   <i name="e_0_energy">      0.01834594 </i>
  </energy>
  <time name="totalsc">    7.57    7.98</time>
 </calculation>
 <calculation>
  <scstep>
   <time name="dav">    0.90    0.90</time>
   <time name="total">    0.95    0.96</time>
   <energy>
    <i name="alphaZ">   2053.23692380 </i>
    <i name="ewald"> -28749.43393115 </i>
    <i name="hartreedc">  -2918.92701384 </i>
    <i name="XCdc">    286.03541073 </i>
    <i name="pawpsdc">  30827.02067509 </i>
    <i name="pawaedc"> -30083.36124997 </i>
    <i name="eentropy">      0.01492556 </i>
    <i name="bandstr">   2149.68977635 </i>
    <i name="atom">  26284.91115543 </i>
    <i name="e_fr_energy">   -150.81332800 </i>
    <i name="e_wo_entrp">   -150.82825356 </i>
    <i name="e_0_energy">   -150.81830319 </i>
   </energy>
  </scstep>
  <scstep>
   <time name="diag">    0.16    0.16</time>
   <time name="diis">    0.47    0.47</time>
   <time name="orth">    0.01    0.02</time>
   <time name="total">    0.69    0.70</time>
   <energy>
    <i name="e_fr_energy">   -149.72256651 </i>
    <i name="e_wo_entrp">   -149.74026295 </i>
    <i name="e_0_energy">   -149.72846532 </i>
   </energy>
  </scstep>
  <scstep>
   <time name="diag">    0.11    0.11</time>
   <time name="diis">    0.43    0.43</time>
   <time name="orth">    0.01    0.01</time>
   <time name="total">    0.67    0.71</time>
   <energy>
    <i name="e_fr_energy">   -149.71416105 </i>
    <i name="e_wo_entrp">   -149.72720428 </i>
    <i name="e_0_energy">   -149.71850879 </i>
   </energy>
  </scstep>
  <scstep>
   <time name="diag">    0.08    0.08</time>
   <time name="diis">    0.41    0.42</time>
   <time name="orth">    0.01    0.01</time>
   <time name="total">    0.55    0.58</time>
   <energy>
    <i name="e_fr_energy">   -149.68062686 </i>
    <i name="e_wo_entrp">   -149.69641242 </i>
    <i name="e_0_energy">   -149.68588871 </i>
   </energy>
  </scstep>
  <scstep>
   <time name="diag">    0.07    0.07</time>
   <time name="diis">    0.41    0.41</time>
   <time name="orth">    0.01    0.01</time>
   <time name="total">    0.55    0.56</time>
   <energy>
    <i name="e_fr_energy">   -149.68236624 </i>
    <i name="e_wo_entrp">   -149.69731243 </i>
    <i name="e_0_energy">   -149.68734830 </i>
   </energy>
  </scstep>
  <scstep>
   <time name="diag">    0.10    0.10</time>
   <time name="diis">    0.42    0.42</time>
   <time name="orth">    0.01    0.01</time>
   <time name="total">    0.59    0.61</time>
   <energy>
    <i name="e_fr_energy">   -149.68264014 </i>
    <i name="e_wo_entrp">   -149.70031089 </i>
    <i name="e_0_energy">   -149.68853039 </i>
   </energy>
  </scstep>
  <scstep>
   <time name="diag">    0.07    0.07</time>
   <time name="diis">    0.42    0.43</time>
   <time name="orth">    0.01    0.01</time>
   <time name="total">    0.59    0.61</time>
   <energy>
    <i name="e_fr_energy">   -149.67752468 </i>
    <i name="e_wo_entrp">   -149.69241884 </i>
    <i name="e_0_energy">   -149.68248940 </i>
   </energy>
  </scstep>
  <scstep>
   <time name="diag">    0.09    0.09</time>
   <time name="diis">    0.43    0.43</time>
   <time name="orth">    0.01    0.01</time>
   <time name="total">    0.58    0.59</time>
   <energy>
    <i name="e_fr_energy">   -149.67719316 </i>
    <i name="e_wo_entrp">   -149.69269521 </i>
    <i name="e_0_energy">   -149.68236051 </i>
   </energy>
  </scstep>
  <scstep>
   <time name="diag">    0.07    0.07</time>
   <time name="diis">    0.41    0.42</time>
   <time name="orth">    0.01    0.01</time>
   <time name="total">    0.55    0.57</time>
   <energy>
    <i name="e_fr_energy">   -149.67713625 </i>
    <i name="e_wo_entrp">   -149.69243664 </i>
    <i name="e_0_energy">   -149.68223638 </i>
   </energy>
  </scstep>
  <scstep>
   <time name="diag">    0.07    0.07</time>
   <time name="diis">    0.33    0.33</time>
   <time name="orth">    0.01    0.01</time>
   <time name="total">    0.46    0.48</time>
   <energy>
    <i name="e_fr_energy">   -149.67712076 </i>
    <i name="e_wo_entrp">   -149.69252082 </i>
    <i name="e_0_energy">   -149.68225411 </i>
   </energy>
  </scstep>
  <scstep>
   <time name="diag">    0.07    0.07</time>
   <time name="diis">    0.25    0.26</time>
   <time name="orth">    0.01    0.01</time>
   <time name="total">    0.38    0.39</time>
   <energy>
    <i name="alphaZ">   2053.23692380 </i>
    <i name="ewald"> -28749.43393115 </i>
    <i name="hartreedc">  -2838.55236801 </i>
    <i name="XCdc">    282.90937586 </i>
    <i name="pawpsdc">  31226.21379757 </i>
    <i name="pawaedc"> -30486.00046247 </i>
    <i name="eentropy">      0.01533703 </i>
    <i name="bandstr">   2077.02304550 </i>
    <i name="atom">  26284.91115543 </i>
    <i name="e_fr_energy">   -149.67712644 </i>
    <i name="e_wo_entrp">   -149.69246346 </i>
    <i name="e_0_energy">   -149.68223878 </i>
   </energy>
  </scstep>
  <structure>
   <crystal>
    <varray name="basis" >
     <v>       7.97591537       0.01120792       0.00234430 </v>
     <v>       0.01113522       8.11624288       0.02186299 </v>
     <v>       0.00233249       0.02182337       8.07632870 </v>
    </varray>
    <i name="volume">    522.81197161 </i>
    <varray name="rec_basis" >
     <v>       0.12537771      -0.00017192      -0.00003575 </v>
     <v>      -0.00017304       0.12321085      -0.00033288 </v>
     <v>      -0.00003592      -0.00033349       0.12381955 </v>
    </varray>
   </crystal>
   <varray name="positions" >
    <v>       0.25070285       0.25226540      -0.00008563 </v>
    <v>       0.00126812       0.24930247       0.25048110 </v>
    <v>       0.00126618       0.00155427       0.49849260 </v>
    <v>       0.25049909       0.00056155       0.75015596 </v>
    <v>       0.24757211       0.74877184       0.00167238 </v>
    <v>       0.99920632       0.75034602       0.24887329 </v>
    <v>       0.24866783       0.75018476       0.50081342 </v>
    <v>       0.24771692       0.50156800       0.75265434 </v>
    <v>       0.99909016       0.74920824       0.75219020 </v>
    <v>       0.49846796      -0.00049147       0.99489070 </v>
    <v>       0.50060413      -0.00049136       0.50154356 </v>
    <v>       0.75100576       0.24732897       0.49831243 </v>
    <v>       0.75023840       0.00010073       0.74959197 </v>
    <v>       0.49936136       0.50062958       0.00124632 </v>
    <v>       0.74964922       0.74896009      -0.00008928 </v>
    <v>       0.75298274       0.74973520       0.49745787 </v>
    <v>       0.99664193       0.49708146       0.00403703 </v>
    <v>       0.99903377       0.00414590       0.00154394 </v>
    <v>       0.25382745       0.00143164       0.24987797 </v>
    <v>       0.25242621       0.25304385       0.50177250 </v>
    <v>       0.00009563       0.25196362       0.75168395 </v>
    <v>       0.24932333       0.49936854       0.25319217 </v>
    <v>      -0.00024147       0.49614585       0.49983856 </v>
    <v>       0.74883296       0.25149347       0.99957998 </v>
    <v>       0.74539226       0.00292937       0.24439431 </v>
    <v>       0.49871285       0.25107005       0.25133781 </v>
    <v>       0.50118276       0.25431228       0.74825309 </v>
    <v>       0.74912019       0.49787683       0.24992075 </v>
    <v>       0.49992472       0.74927802       0.25135708 </v>
    <v>       0.50182897       0.49948040       0.49850451 </v>
    <v>       0.75240573       0.49671185       0.74966535 </v>
    <v>       0.50319159       0.74413558       0.74683978 </v>
   </varray>
  </structure>
  <varray name="forces" >
   <v>       0.05050730       0.13446315      -0.19622201 </v>
   <v>      -0.02923946      -0.05435411       0.04623669 </v>
   <v>      -0.23836880      -0.38850886       0.16967225 </v>
   <v>       0.04356042      -0.45057256      -0.00913364 </v>
   <v>      -0.13713334      -0.10752928      -0.40128770 </v>
   <v>      -0.00641476       0.04724268       0.05258504 </v>
   <v>      -0.45678522       0.43964544       0.41355891 </v>
   <v>      -0.13129540       0.38581196       0.44628770 </v>
   <v>       0.19411220       0.22822743      -0.08607300 </v>
   <v>      -0.18114013      -0.23368894      -0.45104102 </v>
   <v>       0.17560216      -0.19831813       0.38521212 </v>
   <v>       0.20886137      -0.58974497      -0.01402776 </v>
   <v>       0.01046879      -0.44397606      -0.32383616 </v>
   <v>      -0.34707518       0.21685889      -0.18370346 </v>
   <v>       0.15821000       0.06001079      -0.18078034 </v>
   <v>       0.40755997       0.64566916       0.18224299 </v>
   <v>       0.60164854       0.50354470       0.03696976 </v>
   <v>       0.22924317      -0.41905371      -0.23828368 </v>
   <v>      -0.23160553      -0.19435017      -0.00132241 </v>
   <v>      -0.22436709      -0.43700014       0.17881164 </v>
   <v>       0.17153980      -0.32708629      -0.11224267 </v>
   <v>      -0.23522592       0.22597995      -0.47458869 </v>
   <v>      -0.03460776       0.44822086       0.01305596 </v>
   <v>      -0.14059033      -0.08222861      -0.00745387 </v>
   <v>       0.23434788      -0.32359356       0.48007599 </v>
   <v>       0.04889318      -0.17001659      -0.22701901 </v>
   <v>      -0.18151977      -0.41464963       0.21522194 </v>
   <v>       0.24880928       0.21151675      -0.04294535 </v>
   <v>      -0.00568193       0.17422389      -0.18943297 </v>
   <v>      -0.00043435       0.19781996       0.23212965 </v>
   <v>       0.03290071       0.43435197       0.04480674 </v>
   <v>      -0.23477980       0.48108402       0.24252637 </v>
  </varray>
  <varray name="stress" >
   <v>      26.70120426      -0.11389272       0.30511666 </v>
   <v>      -0.11389309      27.71238020      -0.40848120 </v>
   <v>       0.30511673      -0.40848142      26.62364410 </v>
  </varray>
  <energy>
   <i name="e_fr_energy">   -149.67712644 </i>
   <i name="e_wo_entrp">   -149.68223878 </i>
   <i name="e_0_energy">      0.01533703 </i>
  </energy>
  <time name="totalsc">    7.75    7.96</time>
 </calculation>
 <calculation>
  <scstep>
   <time name="dav">    0.76    0.76</time>
   <time name="total">    0.81    0.82</time>
   <energy>
    <i name="alphaZ">   2045.57631146 </i>
    <i name="ewald"> -28726.56680294 </i>
    <i name="hartreedc">  -2822.60703900 </i>
    <i name="XCdc">    281.79563377 </i>
    <i name="pawpsdc">  31225.81985095 </i>
    <i name="pawaedc"> -30485.57765451 </i>
    <i name="eentropy">      0.01575849 </i>
    <i name="bandstr">   2046.74020445 </i>
    <i name="atom">  26284.91115543 </i>
    <i name="e_fr_energy">   -149.89258190 </i>
    <i name="e_wo_entrp">   -149.90834039 </i>
    <i name="e_0_energy">   -149.89783473 </i>
   </energy>
  </scstep>
  <scstep>
   <time name="diag">    0.07    0.07</time>
   <time name="diis">    0.41    0.41</time>
   <time name="orth">    0.01    0.01</time>
   <time name="total">    0.55    0.55</time>
   <energy>
    <i name="e_fr_energy">   -149.88814389 </i>
    <i name="e_wo_entrp">   -149.90195531 </i>
    <i name="e_0_energy">   -149.89274770 </i>
   </energy>
  </scstep>
  <scstep>
   <time name="diag">    0.07    0.07</time>
   <time name="diis">    0.40    0.41</time>
   <time name="orth">    0.01    0.01</time>
   <time name="total">    0.54    0.56</time>
   <energy>
    <i name="e_fr_energy">   -149.89180778 </i>
    <i name="e_wo_entrp">   -149.90470557 </i>
    <i name="e_0_energy">   -149.89610705 </i>
   </energy>
  </scstep>
  <scstep>
   <time name="diag">    0.07    0.07</time>
   <time name="diis">    0.41    0.41</time>
   <time name="orth">    0.01    0.01</time>
   <time name="total">    0.55    0.55</time>
   <energy>
    <i name="e_fr_energy">   -149.88200224 </i>
    <i name="e_wo_entrp">   -149.89637400 </i>
    <i name="e_0_energy">   -149.88679282 </i>
   </energy>
  </scstep>
  <scstep>
   <time name="diag">    0.07    0.07</time>
   <time name="diis">    0.41    0.41</time>
   <time name="orth">    0.01    0.01</time>
   <time name="total">    0.54    0.55</time>
   <energy>
    <i name="e_fr_energy">   -149.88182845 </i>
    <i name="e_wo_entrp">   -149.89463586 </i>
    <i name="e_0_energy">   -149.88609759 </i>
   </energy>
  </scstep>
  <scstep>
   <time name="diag">    0.16    0.16</time>
   <time name="diis">    0.43    0.43</time>
   <time name="orth">    0.01    0.01</time>
   <time name="total">    0.65    0.66</time>
   <energy>
    <i name="e_fr_energy">   -149.88137364 </i>
    <i name="e_wo_entrp">   -149.89513150 </i>
    <i name="e_0_energy">   -149.88595959 </i>
   </energy>
  </scstep>
  <scstep>
   <time name="diag">    0.10    0.10</time>
   <time name="diis">    0.43    0.43</time>
   <time name="orth">    0.01    0.01</time>
   <time name="total">    0.60    0.61</time>
   <energy>
    <i name="e_fr_energy">   -149.88094293 </i>
    <i name="e_wo_entrp">   -149.89476850 </i>
    <i name="e_0_energy">   -149.88555145 </i>
   </energy>
  </scstep>
  <scstep>
   <time name="diag">    0.10    0.13</time>
   <time name="diis">    0.38    0.47</time>
   <time name="orth">    0.02    0.02</time>
   <time name="total">    0.54    0.68</time>
   <energy>
    <i name="e_fr_energy">   -149.88083490 </i>
    <i name="e_wo_entrp">   -149.89453651 </i>
    <i name="e_0_energy">   -149.88540210 </i>
   </energy>
  </scstep>
  <scstep>
   <time name="diag">    0.08    0.08</time>
   <time name="diis">    0.36    0.37</time>
   <time name="orth">    0.01    0.01</time>
   <time name="total">    0.51    0.52</time>
   <energy>
    <i name="e_fr_energy">   -149.88080834 </i>
    <i name="e_wo_entrp">   -149.89442840 </i>
    <i name="e_0_energy">   -149.88534836 </i>
   </energy>
  </scstep>
  <scstep>
   <time name="diag">    0.08    0.08</time>
   <time name="diis">    0.26    0.26</time>
   <time name="orth">    0.01    0.01</time>
   <time name="total">    0.38    0.39</time>
   <energy>
    <i name="alphaZ">   2045.57631146 </i>
    <i name="ewald"> -28726.56680294 </i>
    <i name="hartreedc">  -2839.12089034 </i>
    <i name="XCdc">    282.43926535 </i>
    <i name="pawpsdc">  31133.00319464 </i>
    <i name="pawaedc"> -30392.02641120 </i>
    <i name="eentropy">      0.01362780 </i>
    <i name="bandstr">   2061.88974713 </i>
    <i name="atom">  26284.91115543 </i>
    <i name="e_fr_energy">   -149.88080267 </i>
    <i name="e_wo_entrp">   -149.89443047 </i>
    <i name="e_0_energy">   -149.88534527 </i>
   </energy>
  </scstep>
  <structure>
   <crystal>
    <varray name="basis" >
     <v>       7.98597346       0.01136298       0.00313641 </v>
     <v>       0.01129405       8.12717057       0.02122268 </v>
     <v>       0.00313614       0.02118989       8.08547543 </v>
    </varray>
    <i name="volume">    524.76988431 </i>
    <varray name="rec_basis" >
     <v>       0.12521982      -0.00017389      -0.00004811 </v>
     <v>      -0.00017495       0.12304514      -0.00032240 </v>
     <v>      -0.00004811      -0.00032290       0.12367943 </v>
    </varray>
   </crystal>
   <varray name="positions" >
    <v>       0.25093494       0.25283221      -0.00080568 </v>
    <v>       0.00117221       0.24913614       0.25069899 </v>
    <v>       0.00038947       0.00020587       0.49908455 </v>
    <v>       0.25068915      -0.00098674       0.75012830 </v>
    <v>       0.24704659       0.74832097       0.00025136 </v>
    <v>       0.99917649       0.75046968       0.24907242 </v>
    <v>       0.24696825       0.75176387       0.50230960 </v>
    <v>       0.24723201       0.50298570       0.75437415 </v>
    <v>       0.99980891       0.74999901       0.75190588 </v>
    <v>       0.49776892      -0.00127349       0.99316243 </v>
    <v>       0.50129831      -0.00118313       0.50299295 </v>
    <v>       0.75179613       0.24511075       0.49819970 </v>
    <v>       0.75021521      -0.00146853       0.74837542 </v>
    <v>       0.49801399       0.50138810       0.00058425 </v>
    <v>       0.75021368       0.74913393      -0.00075023 </v>
    <v>       0.75452183       0.75200960       0.49806323 </v>
    <v>       0.99889416       0.49892115       0.00426089 </v>
    <v>       0.99992991       0.00262552       0.00069210 </v>
    <v>       0.25295934       0.00074980       0.24989515 </v>
    <v>       0.25157637       0.25136919       0.50249879 </v>
    <v>       0.00083009       0.25074434       0.75125515 </v>
    <v>       0.24833449       0.50021441       0.25126601 </v>
    <v>      -0.00042920       0.49777979       0.49982541 </v>
    <v>       0.74817683       0.25121182       0.99959763 </v>
    <v>       0.74622083       0.00182055       0.24623383 </v>
    <v>       0.49893625       0.25044211       0.25046293 </v>
    <v>       0.50047364       0.25275071       0.74909513 </v>
    <v>       0.75009440       0.49862490       0.24974450 </v>
    <v>       0.49994343       0.74990133       0.25064131 </v>
    <v>       0.50193748       0.50022290       0.49936176 </v>
    <v>       0.75252400       0.49834715       0.74981158 </v>
    <v>       0.50234988       0.74583340       0.74771050 </v>
   </varray>
  </structure>
  <varray name="forces" >
   <v>      -0.00076552       0.04704388      -0.13009924 </v>
   <v>      -0.02225577      -0.04738744      -0.00277479 </v>
   <v>      -0.13719205      -0.26828097       0.12599408 </v>
   <v>       0.00906709      -0.33092480      -0.01512950 </v>
   <v>      -0.08789191      -0.02550774      -0.26692700 </v>
   <v>       0.00744693       0.05107710       0.01859182 </v>
   <v>      -0.29499973       0.30719182       0.27214139 </v>
   <v>      -0.09631369       0.24191926       0.23721682 </v>
   <v>       0.11850576       0.16028590      -0.06241035 </v>
   <v>      -0.10632584      -0.18923604      -0.26003188 </v>
   <v>       0.07985957      -0.15210693       0.22715287 </v>
   <v>       0.13763721      -0.35400058       0.02001678 </v>
   <v>       0.04309360      -0.31188040      -0.17296039 </v>
   <v>      -0.18896381       0.16427592      -0.13194984 </v>
   <v>       0.12541841       0.05952960      -0.11804443 </v>
   <v>       0.24577552       0.43759319       0.14708577 </v>
   <v>       0.35498495       0.31488268      -0.02032874 </v>
   <v>       0.12527178      -0.25390060      -0.15910603 </v>
   <v>      -0.14244909      -0.13455280      -0.01569193 </v>
   <v>      -0.13464135      -0.24515117       0.08063893 </v>
   <v>       0.06066652      -0.18363642      -0.04195165 </v>
   <v>      -0.08381122       0.14081124      -0.18464158 </v>
   <v>       0.00419839       0.26290537       0.03937737 </v>
   <v>      -0.02117745      -0.05795988      -0.03339247 </v>
   <v>       0.16497477      -0.23826104       0.23654833 </v>
   <v>       0.00884876      -0.11353703      -0.11905587 </v>
   <v>      -0.09745280      -0.23462788       0.10744363 </v>
   <v>       0.12601320       0.14588592      -0.02393579 </v>
   <v>      -0.02576068       0.11811159      -0.10347554 </v>
   <v>      -0.04349269       0.13307315       0.15580727 </v>
   <v>       0.02992643       0.25569415       0.04529825 </v>
   <v>      -0.15819527       0.30067094       0.14859370 </v>
  </varray>
  <varray name="stress" >
   <v>      18.42196780      -0.08878195       0.32711944 </v>
   <v>      -0.08878214      19.52787997      -0.06253875 </v>
   <v>       0.32711931      -0.06253832      18.44920629 </v>
  </varray>
  <energy>
   <i name="e_fr_energy">   -149.88080267 </i>
   <i name="e_wo_entrp">   -149.88534527 </i>
   <i name="e_0_energy">      0.01362780 </i>
  </energy>
  <time name="totalsc">    6.98    7.24</time>
 </calculation>
 <calculation>
  <scstep>
   <time name="dav">    0.76    0.80</time>
   <time name="total">    0.81    0.85</time>
   <energy>
    <i name="alphaZ">   2033.33582461 </i>
    <i name="ewald"> -28677.04922999 </i>
    <i name="hartreedc">  -2825.56984406 </i>
    <i name="XCdc">    280.72644029 </i>
    <i name="pawpsdc">  31133.24033732 </i>
    <i name="pawaedc"> -30392.27635394 </i>
    <i name="eentropy">      0.01347359 </i>
    <i name="bandstr">   2012.62830481 </i>
    <i name="atom">  26284.91115543 </i>
    <i name="e_fr_energy">   -150.03989195 </i>
    <i name="e_wo_entrp">   -150.05336554 </i>
    <i name="e_0_energy">   -150.04438315 </i>
   </energy>
  </scstep>
  <scstep>
   <time name="diag">    0.07    0.07</time>
   <time name="diis">    0.41    0.41</time>
   <time name="orth">    0.01    0.01</time>
   <time name="total">    0.55    0.56</time>
   <energy>
    <i name="e_fr_energy">   -150.03148543 </i>
    <i name="e_wo_entrp">   -150.04219830 </i>
    <i name="e_0_energy">   -150.03505639 </i>
   </energy>
  </scstep>
  <scstep>
   <time name="diag">    0.08    0.08</time>
   <time name="diis">    0.45    0.45</time>
   <time name="orth">    0.01    0.01</time>
   <time name="total">    0.59    0.59</time>
   <energy>
    <i name="e_fr_energy">   -150.04063252 </i>
    <i name="e_wo_entrp">   -150.04884649 </i>
    <i name="e_0_energy">   -150.04337051 </i>
   </energy>
  </scstep>
  <scstep>
   <time name="diag">    0.07    0.07</time>
   <time name="diis">    0.43    0.43</time>
   <time name="orth">    0.01    0.01</time>
   <time name="total">    0.56    0.57</time>
   <energy>
    <i name="e_fr_energy">   -150.01445041 </i>
    <i name="e_wo_entrp">   -150.02547416 </i>
    <i name="e_0_energy">   -150.01812499 </i>
   </energy>
  </scstep>
  <scstep>
   <time name="diag">    0.08    0.09</time>
   <time name="diis">    0.40    0.41</time>
   <time name="orth">    0.01    0.01</time>
   <time name="total">    0.55    0.57</time>
   <energy>
    <i name="e_fr_energy">   -150.01423101 </i>
    <i name="e_wo_entrp">   -150.02354952 </i>
    <i name="e_0_energy">   -150.01733718 </i>
   </energy>
  </scstep>
  <scstep>
   <time name="diag">    0.07    0.07</time>
   <time name="diis">    0.41    0.41</time>
   <time name="orth">    0.01    0.01</time>
   <time name="total">    0.57    0.59</time>
   <energy>
    <i name="e_fr_energy">   -150.01281749 </i>
    <i name="e_wo_entrp">   -150.02243424 </i>
    <i name="e_0_energy">   -150.01602307 </i>
   </energy>
  </scstep>
  <scstep>
   <time name="diag">    0.07    0.07</time>
   <time name="diis">    0.41    0.41</time>
   <time name="orth">    0.01    0.01</time>
   <time name="total">    0.55    0.55</time>
   <energy>
    <i name="e_fr_energy">   -150.01180646 </i>
    <i name="e_wo_entrp">   -150.02216628 </i>
    <i name="e_0_energy">   -150.01525973 </i>
   </energy>
  </scstep>
  <scstep>
   <time name="diag">    0.07    0.07</time>
   <time name="diis">    0.41    0.41</time>
   <time name="orth">    0.01    0.01</time>
   <time name="total">    0.54    0.55</time>
   <energy>
    <i name="e_fr_energy">   -150.01146514 </i>
    <i name="e_wo_entrp">   -150.02147361 </i>
    <i name="e_0_energy">   -150.01480130 </i>
   </energy>
  </scstep>
  <scstep>
   <time name="diag">    0.08    0.08</time>
   <time name="diis">    0.44    0.44</time>
   <time name="orth">    0.01    0.01</time>
   <time name="total">    0.60    0.61</time>
   <energy>
    <i name="e_fr_energy">   -150.01137723 </i>
    <i name="e_wo_entrp">   -150.02137697 </i>
    <i name="e_0_energy">   -150.01471048 </i>
   </energy>
  </scstep>
  <scstep>
   <time name="diag">    0.08    0.08</time>
   <time name="diis">    0.33    0.33</time>
   <time name="orth">    0.01    0.01</time>
   <time name="total">    0.50    0.50</time>
   <energy>
    <i name="e_fr_energy">   -150.01135800 </i>
    <i name="e_wo_entrp">   -150.02127301 </i>
    <i name="e_0_energy">   -150.01466300 </i>
   </energy>
  </scstep>
  <scstep>
   <time name="diag">    0.07    0.07</time>
   <time name="diis">    0.23    0.23</time>
   <time name="orth">    0.01    0.01</time>
   <time name="total">    0.34    0.34</time>
   <energy>
    <i name="alphaZ">   2033.33582461 </i>
    <i name="ewald"> -28677.04922999 </i>
    <i name="hartreedc">  -2851.91008966 </i>
    <i name="XCdc">    281.75927897 </i>
    <i name="pawpsdc">  31014.53742023 </i>
    <i name="pawaedc"> -30272.65445070 </i>
    <i name="eentropy">      0.00998831 </i>
    <i name="bandstr">   2037.04874400 </i>
    <i name="atom">  26284.91115543 </i>
    <i name="e_fr_energy">   -150.01135879 </i>
    <i name="e_wo_entrp">   -150.02134710 </i>
    <i name="e_0_energy">   -150.01468823 </i>
   </energy>
  </scstep>
  <structure>
   <crystal>
    <varray name="basis" >
     <v>       8.00214976       0.01161235       0.00441034 </v>
     <v>       0.01154950       8.14474544       0.02019288 </v>
     <v>       0.00442863       0.02017108       8.10018599 </v>
    </varray>
    <i name="volume">    527.92894874 </i>
    <varray name="rec_basis" >
     <v>       0.12496671      -0.00017704      -0.00006788 </v>
     <v>      -0.00017800       0.12277956      -0.00030565 </v>
     <v>      -0.00006760      -0.00030598       0.12345475 </v>
    </varray>
   </crystal>
   <varray name="positions" >
    <v>       0.25130784       0.25374246      -0.00196237 </v>
    <v>       0.00101813       0.24886902       0.25104901 </v>
    <v>      -0.00101882      -0.00195971       0.50003545 </v>
    <v>       0.25099447      -0.00347348       0.75008363 </v>
    <v>       0.24620272       0.74759665      -0.00203145 </v>
    <v>       0.99912855       0.75066832       0.24939233 </v>
    <v>       0.24423799       0.75430036       0.50471363 </v>
    <v>       0.24645281       0.50526294       0.75713722 </v>
    <v>       0.00096345       0.75126904       0.75144913 </v>
    <v>       0.49664638      -0.00252973       0.99038604 </v>
    <v>       0.50241312      -0.00229403       0.50532114 </v>
    <v>       0.75306577       0.24154796       0.49801818 </v>
    <v>       0.75017820      -0.00398912       0.74642088 </v>
    <v>       0.49584984       0.50260633      -0.00047903 </v>
    <v>       0.75112047       0.74941304      -0.00181209 </v>
    <v>       0.75699384       0.75566262       0.49903578 </v>
    <v>       0.00251174       0.50187588       0.00462042 </v>
    <v>       0.00136952       0.00018346      -0.00067669 </v>
    <v>       0.25156494      -0.00034530       0.24992280 </v>
    <v>       0.25021123       0.24867959       0.50366546 </v>
    <v>       0.00200993       0.24878595       0.75056603 </v>
    <v>       0.24674645       0.50157276       0.24817198 </v>
    <v>      -0.00073081       0.50040410       0.49980454 </v>
    <v>       0.74712293       0.25075948       0.99962604 </v>
    <v>       0.74755147       0.00003987       0.24918868 </v>
    <v>       0.49929525       0.24943343       0.24905735 </v>
    <v>       0.49933452       0.25024277       0.75044775 </v>
    <v>       0.75165925       0.49982633       0.24946131 </v>
    <v>       0.49997357       0.75090236       0.24949155 </v>
    <v>       0.50211163       0.50141555       0.50073899 </v>
    <v>       0.75271391       0.50097366       0.75004669 </v>
    <v>       0.50099769       0.74856046       0.74910964 </v>
   </varray>
  </structure>
  <varray name="forces" >
   <v>      -0.08175316      -0.09013844      -0.02284973 </v>
   <v>      -0.01253331      -0.03209484      -0.07033033 </v>
   <v>       0.04833825      -0.04941524       0.05846836 </v>
   <v>      -0.05314339      -0.11357579      -0.02299580 </v>
   <v>       0.00171276       0.12857676      -0.03548157 </v>
   <v>       0.02770232       0.05755240      -0.03226971 </v>
   <v>      -0.03691755       0.10343545       0.05347377 </v>
   <v>      -0.04202960       0.01398632      -0.10732871 </v>
   <v>      -0.01778784       0.04048076      -0.01751180 </v>
   <v>       0.00021650      -0.11054022       0.04831434 </v>
   <v>      -0.07349713      -0.08134707      -0.01633163 </v>
   <v>       0.03290514      -0.00175613       0.07157928 </v>
   <v>       0.09173184      -0.09565175       0.08774133 </v>
   <v>       0.05894616       0.08282999      -0.05376841 </v>
   <v>       0.07545336       0.06027212      -0.01788981 </v>
   <v>      -0.00935862       0.07266160       0.09429557 </v>
   <v>      -0.05449132       0.03458122      -0.10536901 </v>
   <v>      -0.03423414       0.00306047      -0.03722388 </v>
   <v>      -0.00758449      -0.04781807      -0.03523609 </v>
   <v>       0.00220703       0.01016193      -0.06345804 </v>
   <v>      -0.09825572       0.01133552       0.05686868 </v>
   <v>       0.13481806       0.01463497       0.23497115 </v>
   <v>       0.06848049      -0.00721226       0.07811432 </v>
   <v>       0.14298992      -0.03135559      -0.06890740 </v>
   <v>       0.05648569      -0.10005608      -0.14749982 </v>
   <v>      -0.05339514      -0.04257014       0.03041085 </v>
   <v>       0.02949452       0.04184531      -0.06373382 </v>
   <v>      -0.04414633       0.05019731      -0.00680423 </v>
   <v>      -0.05163162       0.03824197       0.00692963 </v>
   <v>      -0.10075342       0.03955386       0.05684785 </v>
   <v>       0.02950243       0.01216236       0.04792148 </v>
   <v>      -0.02947167      -0.01203865      -0.00094681 </v>
  </varray>
  <varray name="stress" >
   <v>       8.28014492       0.09076401       0.44172710 </v>
   <v>       0.09076419       9.46751547       0.59613531 </v>
   <v>       0.44172714       0.59613553       8.69317488 </v>
  </varray>
  <energy>
   <i name="e_fr_energy">   -150.01135879 </i>
   <i name="e_wo_entrp">   -150.01468823 </i>
   <i name="e_0_energy">      0.00998831 </i>
  </energy>
  <time name="totalsc">    7.33    7.59</time>
 </calculation>
 <calculation>
  <scstep>
   <time name="dav">    0.77    0.78</time>
   <time name="total">    0.82    0.84</time>
   <energy>
    <i name="alphaZ">   2032.68085919 </i>
    <i name="ewald"> -28673.94517171 </i>
    <i name="hartreedc">  -2851.57230770 </i>
    <i name="XCdc">    281.66882574 </i>
    <i name="pawpsdc">  31014.71888818 </i>
    <i name="pawaedc"> -30272.84639868 </i>
    <i name="eentropy">      0.00983191 </i>
    <i name="bandstr">   2034.36249253 </i>
    <i name="atom">  26284.91115543 </i>
    <i name="e_fr_energy">   -150.01182511 </i>
    <i name="e_wo_entrp">   -150.02165702 </i>
    <i name="e_0_energy">   -150.01510242 </i>
   </energy>
  </scstep>
  <scstep>
   <time name="diag">    0.10    0.10</time>
   <time name="diis">    0.46    0.46</time>
   <time name="orth">    0.01    0.01</time>
   <time name="total">    0.62    0.63</time>
   <energy>
    <i name="e_fr_energy">   -150.01179362 </i>
    <i name="e_wo_entrp">   -150.02158277 </i>
    <i name="e_0_energy">   -150.01505667 </i>
   </energy>
  </scstep>
  <scstep>
   <time name="diag">    0.07    0.07</time>
   <time name="diis">    0.41    0.41</time>
   <time name="orth">    0.01    0.01</time>
   <time name="total">    0.54    0.55</time>
   <energy>
    <i name="e_fr_energy">   -150.01183066 </i>
    <i name="e_wo_entrp">   -150.02139398 </i>
    <i name="e_0_energy">   -150.01501843 </i>
   </energy>
  </scstep>
  <scstep>
   <time name="diag">    0.07    0.07</time>
   <time name="diis">    0.39    0.40</time>
   <time name="orth">    0.01    0.01</time>
   <time name="total">    0.53    0.54</time>
   <energy>
    <i name="e_fr_energy">   -150.01174336 </i>
    <i name="e_wo_entrp">   -150.02153059 </i>
    <i name="e_0_energy">   -150.01500577 </i>
   </energy>
  </scstep>
  <scstep>
   <time name="diag">    0.07    0.07</time>
   <time name="diis">    0.26    0.26</time>
   <time name="orth">    0.01    0.01</time>
   <time name="total">    0.36    0.37</time>
   <energy>
    <i name="alphaZ">   2032.68085919 </i>
    <i name="ewald"> -28673.94517171 </i>
    <i name="hartreedc">  -2853.03273235 </i>
    <i name="XCdc">    281.72603981 </i>
    <i name="pawpsdc">  31009.53510064 </i>
    <i name="pawaedc"> -30267.60424922 </i>
    <i name="eentropy">      0.00968673 </i>
    <i name="bandstr">   2035.70757120 </i>
    <i name="atom">  26284.91115543 </i>
    <i name="e_fr_energy">   -150.01174029 </i>
    <i name="e_wo_entrp">   -150.02142702 </i>
    <i name="e_0_energy">   -150.01496920 </i>
   </energy>
  </scstep>
  <structure>
   <crystal>
    <varray name="basis" >
     <v>       8.00301899       0.01162576       0.00447879 </v>
     <v>       0.01156322       8.14568983       0.02013754 </v>
     <v>       0.00449808       0.02011634       8.10097646 </v>
    </varray>
    <i name="volume">    528.09905670 </i>
    <varray name="rec_basis" >
     <v>       0.12495314      -0.00017721      -0.00006894 </v>
     <v>      -0.00017817       0.12276532      -0.00030475 </v>
     <v>      -0.00006864      -0.00030507       0.12344270 </v>
    </varray>
   </crystal>
   <varray name="positions" >
    <v>       0.25132785       0.25379126      -0.00202441 </v>
    <v>       0.00100986       0.24885470       0.25106779 </v>
    <v>      -0.00109434      -0.00207582       0.50008645 </v>
    <v>       0.25101085      -0.00360682       0.75008121 </v>
    <v>       0.24615749       0.74755779      -0.00215389 </v>
    <v>       0.99912598       0.75067897       0.24940949 </v>
    <v>       0.24409155       0.75443638       0.50484262 </v>
    <v>       0.24641099       0.50538506       0.75728545 </v>
    <v>       0.00102536       0.75133713       0.75142464 </v>
    <v>       0.49658620      -0.00259711       0.99023713 </v>
    <v>       0.50247288      -0.00235358       0.50544600 </v>
    <v>       0.75313386       0.24135693       0.49800841 </v>
    <v>       0.75017624      -0.00412429       0.74631603 </v>
    <v>       0.49573380       0.50267165      -0.00053603 </v>
    <v>       0.75116910       0.74942799      -0.00186905 </v>
    <v>       0.75712639       0.75585849       0.49908795 </v>
    <v>       0.00270573       0.50203431       0.00463969 </v>
    <v>       0.00144674       0.00005250      -0.00075014 </v>
    <v>       0.25149017      -0.00040401       0.24992429 </v>
    <v>       0.25013802       0.24853539       0.50372803 </v>
    <v>       0.00207321       0.24868094       0.75052904 </v>
    <v>       0.24666131       0.50164557       0.24800604 </v>
    <v>      -0.00074698       0.50054481       0.49980344 </v>
    <v>       0.74706642       0.25073523       0.99962757 </v>
    <v>       0.74762281      -0.00005559       0.24934714 </v>
    <v>       0.49931452       0.24937934       0.24898195 </v>
    <v>       0.49927343       0.25010831       0.75052029 </v>
    <v>       0.75174317       0.49989074       0.24944611 </v>
    <v>       0.49997519       0.75095602       0.24942988 </v>
    <v>       0.50212095       0.50147951       0.50081287 </v>
    <v>       0.75272408       0.50111449       0.75005931 </v>
    <v>       0.50092516       0.74870669       0.74918472 </v>
   </varray>
  </structure>
  <varray name="forces" >
   <v>      -0.08607099      -0.09782721      -0.01730895 </v>
   <v>      -0.01195860      -0.03140248      -0.07383178 </v>
   <v>       0.05860942      -0.03851482       0.05514745 </v>
   <v>      -0.05657589      -0.10185209      -0.02355909 </v>
   <v>       0.00582265       0.13855970      -0.02261608 </v>
   <v>       0.02823171       0.05816072      -0.03497244 </v>
   <v>      -0.02497101       0.09390299       0.04160445 </v>
   <v>      -0.03941450       0.00202932      -0.12641287 </v>
   <v>      -0.02572937       0.03491504      -0.01453393 </v>
   <v>       0.00556575      -0.10738705       0.06359273 </v>
   <v>      -0.08147033      -0.07816614      -0.02837539 </v>
   <v>       0.02800055       0.01519610       0.07467774 </v>
   <v>       0.09405175      -0.08631186       0.10199639 </v>
   <v>       0.07277353       0.07965958      -0.04997166 </v>
   <v>       0.07436763       0.06141419      -0.01292636 </v>
   <v>      -0.02143775       0.05386275       0.09105987 </v>
   <v>      -0.07582714       0.02259938      -0.10895905 </v>
   <v>      -0.04128488       0.01427841      -0.03158797 </v>
   <v>      -0.00174489      -0.04410090      -0.03612443 </v>
   <v>       0.00834967       0.02057966      -0.07052116 </v>
   <v>      -0.10612482       0.02140504       0.06127397 </v>
   <v>       0.14614849       0.00944812       0.25609106 </v>
   <v>       0.07064909      -0.02002643       0.07978173 </v>
   <v>       0.15119764      -0.03017922      -0.07019347 </v>
   <v>       0.05217951      -0.09438658      -0.16551989 </v>
   <v>      -0.05615886      -0.03976893       0.03723361 </v>
   <v>       0.03396432       0.05439876      -0.07217365 </v>
   <v>      -0.05208807       0.04656525      -0.00606395 </v>
   <v>      -0.05279732       0.03509446       0.01133191 </v>
   <v>      -0.10351567       0.03546667       0.05235872 </v>
   <v>       0.02947586       0.00119731       0.04867629 </v>
   <v>      -0.02221748      -0.02880974      -0.00917380 </v>
  </varray>
  <varray name="stress" >
   <v>       7.83151588       0.10102965       0.45196626 </v>
   <v>       0.10102970       8.98060317       0.61835493 </v>
   <v>       0.45196619       0.61835476       8.25423342 </v>
  </varray>
  <energy>
   <i name="e_fr_energy">   -150.01174029 </i>
   <i name="e_wo_entrp">   -150.01496920 </i>
   <i name="e_0_energy">      0.00968673 </i>
  </energy>
  <time name="totalsc">    4.01    4.09</time>
 </calculation>
 <calculation>
  <scstep>
   <time name="dav">    0.74    0.74</time>
   <time name="total">    0.81    0.81</time>
   <energy>
    <i name="alphaZ">   2021.03618884 </i>
    <i name="ewald"> -28619.57099342 </i>
    <i name="hartreedc">  -2847.13286796 </i>
    <i name="XCdc">    280.00778652 </i>
    <i name="pawpsdc">  31009.41467462 </i>
    <i name="pawaedc"> -30267.49458247 </i>
    <i name="eentropy">      0.01577386 </i>
    <i name="bandstr">   1988.67330786 </i>
[...]
       <r>    8.7207    1.0000 </r>
       <r>    8.7890    1.0000 </r>
       <r>    8.8228    1.0000 </r>
       <r>    8.8502    1.0000 </r>
       <r>    8.8970    1.0000 </r>
       <r>    8.9160    1.0000 </r>
       <r>    8.9679    1.0000 </r>
       <r>    9.0011    1.0000 </r>
       <r>    9.0496    1.0002 </r>
       <r>    9.0612    1.0003 </r>
       <r>    9.0802    1.0006 </r>
       <r>    9.1074    1.0014 </r>
       <r>    9.1766    1.0082 </r>
       <r>    9.1920    1.0113 </r>
       <r>    9.2314    1.0219 </r>
       <r>    9.2912    1.0355 </r>
       <r>    9.3398    1.0120 </r>
       <r>    9.3534    0.9932 </r>
       <r>    9.3924    0.8975 </r>
       <r>    9.4719    0.5190 </r>
       <r>    9.7843   -0.0066 </r>
       <r>    9.8151   -0.0031 </r>
       <r>    9.8657   -0.0007 </r>
       <r>   10.7075   -0.0000 </r>
       <r>   10.7430   -0.0000 </r>
       <r>   10.7988   -0.0000 </r>
       <r>   10.8892   -0.0000 </r>
       <r>   10.9818   -0.0000 </r>
       <r>   11.0957   -0.0000 </r>
       <r>   11.2890   -0.0000 </r>
       <r>   11.3670   -0.0000 </r>
       <r>   11.4445   -0.0000 </r>
       <r>   11.7426   -0.0000 </r>
       <r>   11.8162   -0.0000 </r>
       <r>   12.0047   -0.0000 </r>
       <r>   13.0285   -0.0000 </r>
       <r>   13.0363   -0.0000 </r>
       <r>   13.1330   -0.0000 </r>
       <r>   13.1906   -0.0000 </r>
       <r>   13.2358   -0.0000 </r>
       <r>   13.3220   -0.0000 </r>
       <r>   13.4419   -0.0000 </r>
       <r>   13.5393   -0.0000 </r>
       <r>   13.7265    0.0000 </r>
       <r>   14.1635    0.0000 </r>
       <r>   14.3329    0.0000 </r>
       <r>   14.4528    0.0000 </r>
       <r>   14.8041    0.0000 </r>
       <r>   14.8585    0.0000 </r>
       <r>   14.9422    0.0000 </r>
       <r>   15.3676    0.0000 </r>
       <r>   15.4754    0.0000 </r>
       <r>   15.5844    0.0000 </r>
       <r>   15.6287    0.0000 </r>
       <r>   15.6655    0.0000 </r>
       <r>   15.8691    0.0000 </r>
      </set>
     </set>
    </set>
   </array>
  </eigenvalues>
  <separator name="orbital magnetization" >
   <v name="MAGDIPOLOUT">      0.00000000      0.00000000      0.00000000</v>
  </separator>
  <dos>
   <i name="efermi">      9.47527098 </i>
   <total>
    <array>
     <dimension dim="1">gridpoints</dimension>
     <dimension dim="2">spin</dimension>
     <field>energy</field>
     <field>total</field>
     <field>integrated</field>
     <set>
      <set comment="spin 1">
       <r>    -1.4263     0.0000     0.0000 </r>
       <r>    -1.3591     0.0000     0.0000 </r>
       <r>    -1.2918     0.0000     0.0000 </r>
       <r>    -1.2246     0.0000     0.0000 </r>
       <r>    -1.1573    -0.0000    -0.0000 </r>
       <r>    -1.0901    -0.0000    -0.0000 </r>
       <r>    -1.0228    -0.0000    -0.0000 </r>
       <r>    -0.9556    -0.0000    -0.0000 </r>
       <r>    -0.8883    -0.0000    -0.0000 </r>
       <r>    -0.8211    -0.0000    -0.0000 </r>
       <r>    -0.7538    -0.0000    -0.0000 </r>
       <r>    -0.6866    -0.0000    -0.0000 </r>
       <r>    -0.6193    -0.0000    -0.0000 </r>
       <r>    -0.5521    -0.0000    -0.0000 </r>
       <r>    -0.4848    -0.0000    -0.0000 </r>
       <r>    -0.4176    -0.0000    -0.0000 </r>
       <r>    -0.3504    -0.0002    -0.0000 </r>
       <r>    -0.2831    -0.0019    -0.0001 </r>
       <r>    -0.2159    -0.0088    -0.0007 </r>
       <r>    -0.1486    -0.0204    -0.0021 </r>
       <r>    -0.0814     0.0000    -0.0021 </r>
       <r>    -0.0141     0.1250     0.0063 </r>
       <r>     0.0531     0.3168     0.0276 </r>
       <r>     0.1204     0.3469     0.0509 </r>
       <r>     0.1876     0.1300     0.0597 </r>
       <r>     0.2549     0.0759     0.0648 </r>
       <r>     0.3221     0.7690     0.1165 </r>
       <r>     0.3894     1.9420     0.2471 </r>
       <r>     0.4566     2.2444     0.3980 </r>
       <r>     0.5239     1.2330     0.4809 </r>
       <r>     0.5911     0.6264     0.5230 </r>
       <r>     0.6583     2.0636     0.6618 </r>
       <r>     0.7256     4.2800     0.9496 </r>
       <r>     0.7928     4.3451     1.2418 </r>
       <r>     0.8601     2.2874     1.3957 </r>
       <r>     0.9273     1.2069     1.4768 </r>
       <r>     0.9946     2.2066     1.6252 </r>
       <r>     1.0618     3.0181     1.8282 </r>
       <r>     1.1291     2.0441     1.9656 </r>
       <r>     1.1963     0.6748     2.0110 </r>
       <r>     1.2636     0.6666     2.0558 </r>
       <r>     1.3308     1.5903     2.1628 </r>
       <r>     1.3981     1.8194     2.2851 </r>
       <r>     1.4653     1.4977     2.3858 </r>
       <r>     1.5326     3.0496     2.5909 </r>
       <r>     1.5998     6.7876     3.0474 </r>
       <r>     1.6671     9.0166     3.6537 </r>
       <r>     1.7343     8.4363     4.2210 </r>
       <r>     1.8015     8.3712     4.7839 </r>
       <r>     1.8688     8.9841     5.3881 </r>
       <r>     1.9360     6.8946     5.8517 </r>
       <r>     2.0033     2.7641     6.0376 </r>
       <r>     2.0705    -0.0025     6.0374 </r>
       <r>     2.1378    -0.8363     5.9812 </r>
       <r>     2.2050    -0.8608     5.9233 </r>
       <r>     2.2723     0.7227     5.9719 </r>
       <r>     2.3395     5.8438     6.3649 </r>
       <r>     2.4068    12.4920     7.2050 </r>
       <r>     2.4740    14.7017     8.1936 </r>
       <r>     2.5413    10.9558     8.9303 </r>
       <r>     2.6085     6.1287     9.3425 </r>
       <r>     2.6758     4.6497     9.6552 </r>
       <r>     2.7430     8.0284    10.1950 </r>
       <r>     2.8103    15.8702    11.2623 </r>
       <r>     2.8775    25.0681    12.9480 </r>
       <r>     2.9447    29.5881    14.9377 </r>
       <r>     3.0120    26.4547    16.7167 </r>
       <r>     3.0792    21.4936    18.1621 </r>
       <r>     3.1465    22.1163    19.6494 </r>
       <r>     3.2137    28.9991    21.5995 </r>
       <r>     3.2810    38.7039    24.2022 </r>
       <r>     3.3482    47.3571    27.3868 </r>
       <r>     3.4155    51.7958    30.8699 </r>
       <r>     3.4827    50.9658    34.2972 </r>
       <r>     3.5500    46.7346    37.4400 </r>
       <r>     3.6172    43.3637    40.3561 </r>
       <r>     3.6845    44.2877    43.3343 </r>
       <r>     3.7517    49.2907    46.6489 </r>
       <r>     3.8190    55.6180    50.3891 </r>
       <r>     3.8862    60.1370    54.4331 </r>
       <r>     3.9535    60.2166    58.4825 </r>
       <r>     4.0207    54.0642    62.1181 </r>
       <r>     4.0879    43.3884    65.0359 </r>
       <r>     4.1552    35.4472    67.4196 </r>
       <r>     4.2224    37.0096    69.9084 </r>
       <r>     4.2897    46.2697    73.0199 </r>
       <r>     4.3569    54.8760    76.7101 </r>
       <r>     4.4242    56.1099    80.4834 </r>
       <r>     4.4914    48.6532    83.7551 </r>
       <r>     4.5587    37.6668    86.2881 </r>
       <r>     4.6259    32.2868    88.4593 </r>
       <r>     4.6932    36.4825    90.9127 </r>
       <r>     4.7604    45.7500    93.9892 </r>
       <r>     4.8277    53.5157    97.5880 </r>
       <r>     4.8949    56.3817   101.3795 </r>
       <r>     4.9622    55.5229   105.1132 </r>
       <r>     5.0294    54.0249   108.7462 </r>
       <r>     5.0967    53.1561   112.3208 </r>
       <r>     5.1639    53.6061   115.9257 </r>
       <r>     5.2311    56.4443   119.7214 </r>
       <r>     5.2984    60.2691   123.7743 </r>
       <r>     5.3656    61.6405   127.9194 </r>
       <r>     5.4329    59.6905   131.9335 </r>
       <r>     5.5001    56.8323   135.7553 </r>
       <r>     5.5674    55.2077   139.4678 </r>
       <r>     5.6346    55.6824   143.2123 </r>
       <r>     5.7019    58.2817   147.1316 </r>
       <r>     5.7691    62.0395   151.3035 </r>
       <r>     5.8364    65.4736   155.7064 </r>
       <r>     5.9036    67.3380   160.2347 </r>
       <r>     5.9709    66.9400   164.7362 </r>
       <r>     6.0381    64.5642   169.0780 </r>
       <r>     6.1054    62.3424   173.2703 </r>
       <r>     6.1726    62.0918   177.4458 </r>
       <r>     6.2399    63.3010   181.7026 </r>
       <r>     6.3071    64.7779   186.0587 </r>
       <r>     6.3743    65.0018   190.4299 </r>
       <r>     6.4416    62.7770   194.6515 </r>
       <r>     6.5088    59.2153   198.6335 </r>
       <r>     6.5761    56.0178   202.4006 </r>
       <r>     6.6433    53.2306   205.9802 </r>
       <r>     6.7106    50.8134   209.3972 </r>
       <r>     6.7778    49.7741   212.7444 </r>
       <r>     6.8451    50.3132   216.1278 </r>
       <r>     6.9123    50.5039   219.5240 </r>
       <r>     6.9796    48.4864   222.7846 </r>
       <r>     7.0468    45.2077   225.8247 </r>
       <r>     7.1141    43.1689   228.7276 </r>
       <r>     7.1813    43.4334   231.6484 </r>
       <r>     7.2486    45.0063   234.6749 </r>
       <r>     7.3158    46.2667   237.7862 </r>
       <r>     7.3831    46.5795   240.9186 </r>
       <r>     7.4503    46.5090   244.0462 </r>
       <r>     7.5175    46.9250   247.2017 </r>
       <r>     7.5848    48.2786   250.4483 </r>
       <r>     7.6520    49.4491   253.7736 </r>
       <r>     7.7193    48.3830   257.0272 </r>
       <r>     7.7865    45.2746   260.0718 </r>
       <r>     7.8538    42.9177   262.9579 </r>
       <r>     7.9210    43.0960   265.8560 </r>
       <r>     7.9883    44.4534   268.8453 </r>
       <r>     8.0555    44.7118   271.8521 </r>
       <r>     8.1228    43.7330   274.7930 </r>
       <r>     8.1900    43.2975   277.7046 </r>
       <r>     8.2573    44.1400   280.6729 </r>
       <r>     8.3245    44.4743   283.6637 </r>
       <r>     8.3918    42.4545   286.5186 </r>
       <r>     8.4590    39.5101   289.1755 </r>
       <r>     8.5263    39.0379   291.8007 </r>
       <r>     8.5935    41.8377   294.6142 </r>
       <r>     8.6607    45.4710   297.6720 </r>
       <r>     8.7280    47.8613   300.8905 </r>
       <r>     8.7952    49.3229   304.2073 </r>
       <r>     8.8625    50.7913   307.6229 </r>
       <r>     8.9297    51.5743   311.0911 </r>
       <r>     8.9970    50.3586   314.4776 </r>
       <r>     9.0642    47.9136   317.6996 </r>
       <r>     9.1315    46.9621   320.8577 </r>
       <r>     9.1987    47.9182   324.0800 </r>
       <r>     9.2660    47.0165   327.2417 </r>
       <r>     9.3332    42.2236   330.0811 </r>
       <r>     9.4005    36.5537   332.5393 </r>
       <r>     9.4677    32.9969   334.7582 </r>
       <r>     9.5350    31.6112   336.8840 </r>
       <r>     9.6022    30.8810   338.9606 </r>
       <r>     9.6695    29.0771   340.9160 </r>
       <r>     9.7367    25.4735   342.6290 </r>
       <r>     9.8039    20.1635   343.9849 </r>
       <r>     9.8712    13.4243   344.8877 </r>
       <r>     9.9384     6.8080   345.3455 </r>
       <r>    10.0057     2.8506   345.5372 </r>
       <r>    10.0729     2.4084   345.6991 </r>
       <r>    10.1402     3.7304   345.9500 </r>
       <r>    10.2074     4.4882   346.2518 </r>
       <r>    10.2747     4.3536   346.5446 </r>
       <r>    10.3419     4.4698   346.8452 </r>
       <r>    10.4092     5.2150   347.1959 </r>
       <r>    10.4764     6.2713   347.6176 </r>
       <r>    10.5437     7.5163   348.1230 </r>
       <r>    10.6109     9.1533   348.7386 </r>
       <r>    10.6782    11.5566   349.5157 </r>
       <r>    10.7454    14.3958   350.4838 </r>
       <r>    10.8126    16.3047   351.5802 </r>
       <r>    10.8799    16.3803   352.6817 </r>
       <r>    10.9471    15.1642   353.7015 </r>
       <r>    11.0144    13.3362   354.5983 </r>
       <r>    11.0816    10.7695   355.3225 </r>
       <r>    11.1489     8.1064   355.8677 </r>
       <r>    11.2161     7.1256   356.3468 </r>
       <r>    11.2834     8.1056   356.8919 </r>
       <r>    11.3506     9.1371   357.5064 </r>
       <r>    11.4179     8.4422   358.0741 </r>
       <r>    11.4851     5.5932   358.4502 </r>
       <r>    11.5524     2.1359   358.5938 </r>
       <r>    11.6196     1.7318   358.7103 </r>
       <r>    11.6869     6.6936   359.1604 </r>
       <r>    11.7541    13.8291   360.0904 </r>
       <r>    11.8214    17.2426   361.2499 </r>
       <r>    11.8886    16.2571   362.3431 </r>
       <r>    11.9558    15.2050   363.3656 </r>
       <r>    12.0231    15.6983   364.4213 </r>
       <r>    12.0903    15.6203   365.4717 </r>
       <r>    12.1576    13.8101   366.4004 </r>
       <r>    12.2248    10.3948   367.0994 </r>
       <r>    12.2921     5.7384   367.4853 </r>
       <r>    12.3593     1.9881   367.6190 </r>
       <r>    12.4266     1.3439   367.7094 </r>
       <r>    12.4938     3.0719   367.9159 </r>
       <r>    12.5611     5.0359   368.2546 </r>
       <r>    12.6283     6.3050   368.6786 </r>
       <r>    12.6956     6.9870   369.1484 </r>
       <r>    12.7628     6.8178   369.6069 </r>
       <r>    12.8301     5.5107   369.9775 </r>
       <r>    12.8973     4.2083   370.2605 </r>
       <r>    12.9646     4.9341   370.5923 </r>
       <r>    13.0318     7.9528   371.1271 </r>
       <r>    13.0990    10.9382   371.8626 </r>
       <r>    13.1663    11.9606   372.6670 </r>
       <r>    13.2335    11.5742   373.4453 </r>
       <r>    13.3008    10.4795   374.1500 </r>
       <r>    13.3680     8.5178   374.7228 </r>
       <r>    13.4353     6.7836   375.1790 </r>
       <r>    13.5025     6.5730   375.6210 </r>
       <r>    13.5698     7.4837   376.1242 </r>
       <r>    13.6370     9.2564   376.7467 </r>
       <r>    13.7043    12.2110   377.5679 </r>
       <r>    13.7715    14.8266   378.5649 </r>
       <r>    13.8388    14.8082   379.5607 </r>
       <r>    13.9060    12.2644   380.3855 </r>
       <r>    13.9733     9.4177   381.0188 </r>
       <r>    14.0405     8.4913   381.5898 </r>
       <r>    14.1078     9.4455   382.2250 </r>
       <r>    14.1750     9.8814   382.8895 </r>
       <r>    14.2422     8.4391   383.4570 </r>
       <r>    14.3095     6.2305   383.8759 </r>
       <r>    14.3767     4.5776   384.1838 </r>
       <r>    14.4440     3.6781   384.4311 </r>
       <r>    14.5112     3.7081   384.6805 </r>
       <r>    14.5785     5.8048   385.0708 </r>
       <r>    14.6457    10.7601   385.7944 </r>
       <r>    14.7130    17.2623   386.9553 </r>
       <r>    14.7802    22.3773   388.4601 </r>
       <r>    14.8475    23.4779   390.0389 </r>
       <r>    14.9147    19.9290   391.3790 </r>
       <r>    14.9820    13.2099   392.2674 </r>
       <r>    15.0492     6.1216   392.6790 </r>
       <r>    15.1165     1.6259   392.7884 </r>
       <r>    15.1837     1.0657   392.8600 </r>
       <r>    15.2510     3.6535   393.1057 </r>
       <r>    15.3182     7.7398   393.6262 </r>
       <r>    15.3854    12.1931   394.4462 </r>
       <r>    15.4527    16.6653   395.5668 </r>
       <r>    15.5199    20.6935   396.9584 </r>
       <r>    15.5872    23.1577   398.5157 </r>
       <r>    15.6544    22.8427   400.0518 </r>
       <r>    15.7217    19.6702   401.3746 </r>
       <r>    15.7889    15.3415   402.4062 </r>
       <r>    15.8562    11.3421   403.1690 </r>
       <r>    15.9234     7.2731   403.6581 </r>
       <r>    15.9907     3.2759   403.8783 </r>
       <r>    16.0579     1.1326   403.9545 </r>
       <r>    16.1252     1.0596   404.0258 </r>
       <r>    16.1924     1.3022   404.1133 </r>
       <r>    16.2597     1.1052   404.1877 </r>
       <r>    16.3269     0.9868   404.2540 </r>
       <r>    16.3942     1.3940   404.3478 </r>
       <r>    16.4614     2.6981   404.5292 </r>
       <r>    16.5286     4.7107   404.8460 </r>
       <r>    16.5959     5.9805   405.2482 </r>
       <r>    16.6631     5.4395   405.6139 </r>
       <r>    16.7304     4.0809   405.8884 </r>
       <r>    16.7976     3.3461   406.1134 </r>
       <r>    16.8649     3.3208   406.3367 </r>
       <r>    16.9321     3.7112   406.5863 </r>
       <r>    16.9994     4.5463   406.8920 </r>
       <r>    17.0666     5.1910   407.2411 </r>
       <r>    17.1339     4.7383   407.5597 </r>
       <r>    17.2011     3.4454   407.7914 </r>
       <r>    17.2684     2.1135   407.9335 </r>
       <r>    17.3356     0.9906   408.0001 </r>
       <r>    17.4029     0.2073   408.0141 </r>
       <r>    17.4701    -0.0906   408.0080 </r>
       <r>    17.5374    -0.0837   408.0024 </r>
       <r>    17.6046    -0.0287   408.0004 </r>
       <r>    17.6718    -0.0056   408.0000 </r>
       <r>    17.7391    -0.0007   408.0000 </r>
       <r>    17.8063    -0.0001   408.0000 </r>
       <r>    17.8736    -0.0000   408.0000 </r>
       <r>    17.9408    -0.0000   408.0000 </r>
       <r>    18.0081    -0.0000   408.0000 </r>
       <r>    18.0753    -0.0000   408.0000 </r>
       <r>    18.1426    -0.0000   408.0000 </r>
       <r>    18.2098    -0.0000   408.0000 </r>
       <r>    18.2771     0.0000   408.0000 </r>
       <r>    18.3443     0.0000   408.0000 </r>
       <r>    18.4116     0.0000   408.0000 </r>
       <r>    18.4788     0.0000   408.0000 </r>
       <r>    18.5461     0.0000   408.0000 </r>
       <r>    18.6133     0.0000   408.0000 </r>
       <r>    18.6806     0.0000   408.0000 </r>
       <r>    18.7478     0.0000   408.0000 </r>
      </set>
     </set>
    </array>
   </total>
  </dos>
 </calculation>
 <structure name="finalpos" >
  <crystal>
   <varray name="basis" >
    <v>       7.99898759       0.01334661       0.00643690 </v>
    <v>       0.01324741       8.18647247       0.02872019 </v>
    <v>       0.00647004       0.02877569       8.10010830 </v>
   </varray>
   <i name="volume">    530.41499561 </i>
   <varray name="rec_basis" >
    <v>       0.12501624      -0.00020195      -0.00009914 </v>
    <v>      -0.00020347       0.12215459      -0.00043379 </v>
    <v>      -0.00009863      -0.00043296       0.12345676 </v>
   </varray>
  </crystal>
  <varray name="positions" >
   <v>       0.25059198       0.25360637      -0.00272334 </v>
   <v>       0.00058617       0.24971376       0.24958143 </v>
   <v>      -0.00107297      -0.00157352       0.50041076 </v>
   <v>       0.25052205      -0.00420152       0.74963300 </v>
   <v>       0.24605067       0.74852977      -0.00236080 </v>
   <v>       0.00020028       0.75054896       0.24951398 </v>
   <v>       0.24263367       0.75705169       0.50556597 </v>
   <v>       0.24546788       0.50521431       0.75564404 </v>
   <v>       0.00066971       0.75135769       0.75135003 </v>
   <v>       0.49674969      -0.00406595       0.99032713 </v>
   <v>       0.50184932      -0.00381238       0.50483483 </v>
   <v>       0.75322129       0.24006784       0.49812924 </v>
   <v>       0.75053515      -0.00562286       0.74793520 </v>
   <v>       0.49589679       0.50331255      -0.00107783 </v>
   <v>       0.75287769       0.74954173      -0.00164764 </v>
   <v>       0.75718468       0.75711805       0.50054588 </v>
   <v>       0.00372294       0.50295155       0.00478864 </v>
   <v>       0.00152950       0.00047093      -0.00179330 </v>
   <v>       0.25088189      -0.00027423       0.24836493 </v>
   <v>       0.24985222       0.24749919       0.50240970 </v>
   <v>       0.00063702       0.24917460       0.75072711 </v>
   <v>       0.24947000       0.50192999       0.25174465 </v>
   <v>      -0.00056263       0.50011008       0.50046837 </v>
   <v>       0.74860782       0.25101898       0.99892692 </v>
   <v>       0.74875683      -0.00158952       0.24688095 </v>
   <v>       0.49959503       0.24812918       0.24877849 </v>
   <v>       0.49972209       0.24983337       0.74954937 </v>
   <v>       0.75040706       0.50086305       0.25031757 </v>
   <v>       0.49927453       0.75144150       0.24994616 </v>
   <v>       0.50087678       0.50213343       0.50266150 </v>
   <v>       0.75293151       0.50143355       0.75099078 </v>
   <v>       0.50033135       0.74809086       0.74957629 </v>
  </varray>
 </structure>
</modeling>
