       N       E                     dE             d eps       ncg     rms          rms(c)
DAV:   1     0.210201057118E+04    0.21020E+04   -0.11956E+05  5744   0.107E+03
DAV:   2    -0.861006744024E+02   -0.21881E+04   -0.21158E+04  6044   0.407E+02
DAV:   3    -0.354507917299E+03   -0.26841E+03   -0.25577E+03  9008   0.977E+01
DAV:   4    -0.384853131254E+03   -0.30345E+02   -0.28761E+02  8664   0.306E+01
DAV:   5    -0.387844485482E+03   -0.29914E+01   -0.29432E+01  8472   0.985E+00    0.668E+01
RMM:   6    -0.376839932379E+03    0.11005E+02   -0.22524E+01  7202   0.107E+01    0.317E+01
RMM:   7    -0.377460721308E+03   -0.62079E+00   -0.23799E+01  7535   0.809E+00    0.104E+01
RMM:   8    -0.372799420339E+03    0.46613E+01   -0.50085E+00  8042   0.335E+00    0.421E+00
RMM:   9    -0.372736952037E+03    0.62468E-01   -0.17450E+00  7942   0.174E+00    0.295E+00
RMM:  10    -0.372666523104E+03    0.70429E-01   -0.38595E-01  7878   0.126E+00    0.115E+00
RMM:  11    -0.372642486893E+03    0.24036E-01   -0.12032E-01  7955   0.525E-01    0.625E-01
RMM:  12    -0.372641391312E+03    0.10956E-02   -0.45156E-02  8037   0.282E-01    0.395E-01
RMM:  13    -0.372639690846E+03    0.17005E-02   -0.13325E-02  7960   0.161E-01    0.239E-01
RMM:  14    -0.372639818979E+03   -0.12813E-03   -0.58879E-03  8115   0.970E-02    0.128E-01
RMM:  15    -0.372639907783E+03   -0.88804E-04   -0.24531E-03  8248   0.611E-02    0.548E-02
RMM:  16    -0.372639914478E+03   -0.66950E-05   -0.10001E-03  6815   0.334E-02    0.333E-02
RMM:  17    -0.372639923633E+03   -0.91550E-05   -0.47407E-04  6586   0.246E-02    0.169E-02
RMM:  18    -0.372639928941E+03   -0.53082E-05   -0.19098E-04  5514   0.162E-02    0.854E-03
RMM:  19    -0.372639932874E+03   -0.39332E-05   -0.89761E-05  4586   0.125E-02
   1 F= -.37263993E+03 E0= -.37264428E+03  d E =-.372640E+03
       N       E                     dE             d eps       ncg     rms          rms(c)
DAV:   1    -0.372640830753E+03   -0.90181E-03   -0.38895E-02  5776   0.511E-01    0.586E-02
RMM:   2    -0.372640914177E+03   -0.83425E-04   -0.14198E-03  7610   0.104E-01    0.338E-02
RMM:   3    -0.372640898959E+03    0.15219E-04   -0.20744E-04  6834   0.291E-02    0.251E-02
RMM:   4    -0.372640890775E+03    0.81834E-05   -0.53884E-05  4754   0.126E-02
   2 F= -.37264089E+03 E0= -.37264521E+03  d E =-.957901E-03
       N       E                     dE             d eps       ncg     rms          rms(c)
DAV:   1    -0.372642782076E+03   -0.18831E-02   -0.34918E-01  5632   0.153E+00    0.178E-01
RMM:   2    -0.372643434038E+03   -0.65196E-03   -0.11960E-02  7752   0.307E-01    0.106E-01
RMM:   3    -0.372643303313E+03    0.13072E-03   -0.17590E-03  7908   0.790E-02    0.769E-02
RMM:   4    -0.372643230460E+03    0.72854E-04   -0.45670E-04  7801   0.312E-02    0.483E-02
RMM:   5    -0.372643213051E+03    0.17408E-04   -0.19929E-04  7552   0.255E-02    0.251E-02
RMM:   6    -0.372643207106E+03    0.59454E-05   -0.82110E-05  5854   0.148E-02
   3 F= -.37264321E+03 E0= -.37264744E+03  d E =-.327423E-02
       N       E                     dE             d eps       ncg     rms          rms(c)
DAV:   1    -0.372643831493E+03   -0.61844E-03   -0.13987E+00  5456   0.307E+00    0.353E-01
RMM:   2    -0.372646429679E+03   -0.25982E-02   -0.47518E-02  7751   0.612E-01    0.209E-01
RMM:   3    -0.372645843422E+03    0.58626E-03   -0.67320E-03  7956   0.155E-01    0.151E-01
RMM:   4    -0.372645574347E+03    0.26908E-03   -0.17569E-03  8262   0.610E-02    0.956E-02
RMM:   5    -0.372645511362E+03    0.62985E-04   -0.76798E-04  8039   0.507E-02    0.505E-02
RMM:   6    -0.372645494377E+03    0.16985E-04   -0.32598E-04  7927   0.295E-02    0.299E-02
RMM:   7    -0.372645488840E+03    0.55364E-05   -0.11969E-04  5976   0.163E-02    0.193E-02
RMM:   8    -0.372645486779E+03    0.20613E-05   -0.43827E-05  4270   0.124E-02
   4 F= -.37264549E+03 E0= -.37264955E+03  d E =-.555390E-02
       N       E                     dE             d eps       ncg     rms          rms(c)
DAV:   1    -0.372649858578E+03   -0.43697E-02   -0.26953E-01  6176   0.168E+00    0.560E-01
RMM:   2    -0.372647940908E+03    0.19177E-02   -0.23786E-02  7552   0.412E-01    0.198E-01
RMM:   3    -0.372647075381E+03    0.86553E-03   -0.52028E-03  8020   0.128E-01    0.144E-01
RMM:   4    -0.372646555108E+03    0.52027E-03   -0.15559E-03  8043   0.820E-02    0.754E-02
RMM:   5    -0.372646478118E+03    0.76990E-04   -0.52128E-04  7901   0.433E-02    0.592E-02
RMM:   6    -0.372646498057E+03   -0.19939E-04   -0.19387E-04  7053   0.236E-02    0.378E-02
RMM:   7    -0.372646515804E+03   -0.17747E-04   -0.79673E-05  5646   0.162E-02    0.177E-02
RMM:   8    -0.372646527162E+03   -0.11358E-04   -0.42366E-05  4140   0.134E-02    0.130E-02
RMM:   9    -0.372646536656E+03   -0.94937E-05   -0.18070E-05  3534   0.109E-02
   5 F= -.37264654E+03 E0= -.37265057E+03  d E =-.104988E-02
       N       E                     dE             d eps       ncg     rms          rms(c)
DAV:   1    -0.372647299331E+03   -0.77217E-03   -0.58967E-02  6144   0.787E-01    0.258E-01
RMM:   2    -0.372646872365E+03    0.42697E-03   -0.50464E-03  7315   0.192E-01    0.886E-02
RMM:   3    -0.372646688028E+03    0.18434E-03   -0.10688E-03  7921   0.594E-02    0.627E-02
RMM:   4    -0.372646589262E+03    0.98766E-04   -0.32402E-04  7711   0.373E-02    0.331E-02
RMM:   5    -0.372646579248E+03    0.10014E-04   -0.10307E-04  6051   0.211E-02    0.263E-02
RMM:   6    -0.372646589085E+03   -0.98367E-05   -0.33864E-05  3816   0.127E-02
   6 F= -.37264659E+03 E0= -.37265061E+03  d E =-.110231E-02
       N       E                     dE             d eps       ncg     rms          rms(c)
DAV:   1    -0.372646989358E+03   -0.41011E-03   -0.22489E-01  5384   0.126E+00    0.113E-01
RMM:   2    -0.372647403383E+03   -0.41403E-03   -0.69542E-03  7528   0.248E-01    0.619E-02
RMM:   3    -0.372647397549E+03    0.58339E-05   -0.99065E-04  7813   0.682E-02    0.460E-02
RMM:   4    -0.372647370564E+03    0.26985E-04   -0.25849E-04  7670   0.253E-02    0.258E-02
RMM:   5    -0.372647371698E+03   -0.11340E-05   -0.98752E-05  5869   0.158E-02
   7 F= -.37264737E+03 E0= -.37265141E+03  d E =-.782613E-03
       N       E                     dE             d eps       ncg     rms          rms(c)
DAV:   1    -0.372645255763E+03    0.21148E-02   -0.18776E+00  5304   0.365E+00    0.323E-01
RMM:   2    -0.372648703220E+03   -0.34475E-02   -0.57872E-02  7469   0.716E-01    0.175E-01
RMM:   3    -0.372648650168E+03    0.53052E-04   -0.81802E-03  7853   0.197E-01    0.130E-01
RMM:   4    -0.372648407565E+03    0.24260E-03   -0.20780E-03  8479   0.709E-02    0.731E-02
RMM:   5    -0.372648407283E+03    0.28184E-06   -0.90637E-04  8106   0.488E-02    0.414E-02
RMM:   6    -0.372648396146E+03    0.11137E-04   -0.30695E-04  7727   0.289E-02    0.196E-02
RMM:   7    -0.372648397562E+03   -0.14162E-05   -0.91188E-05  5442   0.154E-02
   8 F= -.37264840E+03 E0= -.37265251E+03  d E =-.180848E-02
       N       E                     dE             d eps       ncg     rms          rms(c)
DAV:   1    -0.372656761377E+03   -0.83652E-02   -0.38872E-01  7160   0.216E+00    0.794E-01
RMM:   2    -0.372652810077E+03    0.39513E-02   -0.54934E-02  7881   0.584E-01    0.315E-01
RMM:   3    -0.372649806771E+03    0.30033E-02   -0.10539E-02  8081   0.171E-01    0.203E-01
RMM:   4    -0.372648908377E+03    0.89839E-03   -0.33592E-03  8080   0.114E-01    0.113E-01
RMM:   5    -0.372648615011E+03    0.29337E-03   -0.99392E-04  7904   0.649E-02    0.820E-02
RMM:   6    -0.372648615220E+03   -0.20906E-06   -0.40693E-04  7498   0.328E-02    0.582E-02
RMM:   7    -0.372648607441E+03    0.77786E-05   -0.14716E-04  6775   0.220E-02    0.300E-02
RMM:   8    -0.372648606308E+03    0.11332E-05   -0.91378E-05  5067   0.161E-02
   9 F= -.37264861E+03 E0= -.37265275E+03  d E =-.208745E-03
       N       E                     dE             d eps       ncg     rms          rms(c)
DAV:   1    -0.372650353804E+03   -0.17464E-02   -0.73137E-02  7184   0.933E-01    0.352E-01
RMM:   2    -0.372649587587E+03    0.76622E-03   -0.10527E-02  7879   0.252E-01    0.141E-01
RMM:   3    -0.372649029321E+03    0.55827E-03   -0.21198E-03  8078   0.759E-02    0.941E-02
RMM:   4    -0.372648845275E+03    0.18405E-03   -0.67226E-04  7986   0.502E-02    0.512E-02
RMM:   5    -0.372648783562E+03    0.61713E-04   -0.19665E-04  7200   0.299E-02    0.344E-02
RMM:   6    -0.372648788408E+03   -0.48457E-05   -0.78193E-05  5802   0.159E-02
  10 F= -.37264879E+03 E0= -.37265292E+03  d E =-.390845E-03
       N       E                     dE             d eps       ncg     rms          rms(c)
DAV:   1    -0.372648967529E+03   -0.18397E-03   -0.10995E-01  5360   0.955E-01    0.871E-02
RMM:   2    -0.372649232455E+03   -0.26493E-03   -0.41335E-03  7194   0.192E-01    0.456E-02
RMM:   3    -0.372649209877E+03    0.22577E-04   -0.48926E-04  7686   0.554E-02    0.340E-02
RMM:   4    -0.372649194065E+03    0.15812E-04   -0.12509E-04  6929   0.191E-02    0.189E-02
RMM:   5    -0.372649195244E+03   -0.11789E-05   -0.48873E-05  4400   0.113E-02
  11 F= -.37264920E+03 E0= -.37265332E+03  d E =-.406836E-03
       N       E                     dE             d eps       ncg     rms          rms(c)
DAV:   1    -0.372648536402E+03    0.65766E-03   -0.47501E-01  5320   0.198E+00    0.182E-01
RMM:   2    -0.372649659502E+03   -0.11231E-02   -0.18039E-02  7398   0.401E-01    0.959E-02
RMM:   3    -0.372649594945E+03    0.64557E-04   -0.22621E-03  7840   0.112E-01    0.698E-02
RMM:   4    -0.372649530079E+03    0.64866E-04   -0.58448E-04  8476   0.396E-02    0.388E-02
RMM:   5    -0.372649532973E+03   -0.28945E-05   -0.24479E-04  7163   0.252E-02    0.244E-02
RMM:   6    -0.372649529592E+03    0.33813E-05   -0.88435E-05  5414   0.156E-02
  12 F= -.37264953E+03 E0= -.37265364E+03  d E =-.741184E-03
       N       E                     dE             d eps       ncg     rms          rms(c)
DAV:   1    -0.372649740207E+03   -0.20723E-03   -0.81045E-02  5360   0.832E-01    0.111E-01
RMM:   2    -0.372649785731E+03   -0.45524E-04   -0.35960E-03  7688   0.171E-01    0.552E-02
RMM:   3    -0.372649754338E+03    0.31393E-04   -0.46479E-04  7806   0.467E-02    0.374E-02
RMM:   4    -0.372649726910E+03    0.27428E-04   -0.15688E-04  7185   0.219E-02    0.186E-02
RMM:   5    -0.372649725362E+03    0.15479E-05   -0.58640E-05  4882   0.126E-02
  13 F= -.37264973E+03 E0= -.37265382E+03  d E =-.195770E-03
       N       E                     dE             d eps       ncg     rms          rms(c)
DAV:   1    -0.372649784784E+03   -0.57874E-04   -0.84149E-02  5360   0.848E-01    0.112E-01
RMM:   2    -0.372649843633E+03   -0.58849E-04   -0.37890E-03  7782   0.173E-01    0.563E-02
RMM:   3    -0.372649816252E+03    0.27381E-04   -0.53534E-04  7821   0.483E-02    0.373E-02
RMM:   4    -0.372649791708E+03    0.24544E-04   -0.18583E-04  7313   0.232E-02    0.183E-02
RMM:   5    -0.372649792287E+03   -0.57877E-06   -0.60933E-05  4496   0.131E-02
  14 F= -.37264979E+03 E0= -.37265389E+03  d E =-.262695E-03
       N       E                     dE             d eps       ncg     rms          rms(c)
DAV:   1    -0.372650344158E+03   -0.55245E-03   -0.68940E-02  5776   0.837E-01    0.230E-01
RMM:   2    -0.372650154586E+03    0.18957E-03   -0.53991E-03  7803   0.206E-01    0.868E-02
RMM:   3    -0.372649996164E+03    0.15842E-03   -0.99440E-04  7963   0.617E-02    0.672E-02
RMM:   4    -0.372649888036E+03    0.10813E-03   -0.31241E-04  8011   0.339E-02    0.352E-02
RMM:   5    -0.372649863684E+03    0.24352E-04   -0.10928E-04  7042   0.199E-02    0.253E-02
RMM:   6    -0.372649858919E+03    0.47646E-05   -0.41059E-05  4007   0.116E-02
  15 F= -.37264986E+03 E0= -.37265394E+03  d E =-.666323E-04
       N       E                     dE             d eps       ncg     rms          rms(c)
DAV:   1    -0.372649874002E+03   -0.10318E-04   -0.18528E-03  6272   0.136E-01    0.411E-02
RMM:   2    -0.372649865845E+03    0.81567E-05   -0.16800E-04  7465   0.335E-02    0.178E-02
RMM:   3    -0.372649859541E+03    0.63035E-05   -0.30705E-05  3683   0.112E-02
  16 F= -.37264986E+03 E0= -.37265395E+03  d E =-.672544E-04
       N       E                     dE             d eps       ncg     rms          rms(c)
DAV:   1    -0.372649884307E+03   -0.18462E-04   -0.32663E-03  5640   0.182E-01    0.515E-02
RMM:   2    -0.372649867086E+03    0.17221E-04   -0.28718E-04  7674   0.454E-02    0.207E-02
RMM:   3    -0.372649856377E+03    0.10710E-04   -0.46653E-05  5813   0.139E-02    0.156E-02
RMM:   4    -0.372649851814E+03    0.45624E-05   -0.95778E-06  2800   0.933E-03
  17 F= -.37264985E+03 E0= -.37265395E+03  d E =-.595274E-04
       N       E                     dE             d eps       ncg     rms          rms(c)
DAV:   1    -0.372649849036E+03    0.73410E-05   -0.23627E-02  5464   0.427E-01    0.245E-02
RMM:   2    -0.372649915853E+03   -0.66817E-04   -0.73403E-04  5933   0.805E-02    0.139E-02
RMM:   3    -0.372649910854E+03    0.49992E-05   -0.61576E-05  4727   0.255E-02
  18 F= -.37264991E+03 E0= -.37265397E+03  d E =-.590394E-04
