  32  32   0   0
  0.1685425E+02  0.8066328E-09  0.8184621E-09  0.8169392E-09  0.5000000E-15
  1.000000000000000E-004
  CAR 
 automatically generated by mexm         
     40.26919578    -19.98651233  301      9.82314240      1.00000000
    -19.987  0.0000E+00  0.0000E+00
    -19.786  0.0000E+00  0.0000E+00
    -19.585  0.0000E+00  0.0000E+00
    -19.384  0.0000E+00  0.0000E+00
    -19.183  0.0000E+00  0.0000E+00
    -18.982  0.0000E+00  0.0000E+00
    -18.781  0.0000E+00  0.0000E+00
    -18.581  0.0000E+00  0.0000E+00
    -18.380  0.0000E+00  0.0000E+00
    -18.179  0.0000E+00  0.0000E+00
    -17.978  0.0000E+00  0.0000E+00
    -17.777  0.0000E+00  0.0000E+00
    -17.576  0.0000E+00  0.0000E+00
    -17.375  0.0000E+00  0.0000E+00
    -17.175  0.0000E+00  0.0000E+00
    -16.974  0.0000E+00  0.0000E+00
    -16.773  0.0000E+00  0.0000E+00
    -16.572  0.0000E+00  0.0000E+00
    -16.371  0.0000E+00  0.0000E+00
    -16.170  0.0000E+00  0.0000E+00
    -15.969  0.0000E+00  0.0000E+00
    -15.769  0.0000E+00  0.0000E+00
    -15.568  0.0000E+00  0.0000E+00
    -15.367  0.0000E+00  0.0000E+00
    -15.166  0.0000E+00  0.0000E+00
    -14.965  0.0000E+00  0.0000E+00
    -14.764  0.0000E+00  0.0000E+00
    -14.563  0.0000E+00  0.0000E+00
    -14.363  0.0000E+00  0.0000E+00
    -14.162  0.0000E+00  0.0000E+00
    -13.961  0.0000E+00  0.0000E+00
    -13.760  0.0000E+00  0.0000E+00
    -13.559  0.0000E+00  0.0000E+00
    -13.358  0.0000E+00  0.0000E+00
    -13.158  0.0000E+00  0.0000E+00
    -12.957  0.0000E+00  0.0000E+00
    -12.756  0.0000E+00  0.0000E+00
    -12.555  0.0000E+00  0.0000E+00
    -12.354  0.0000E+00  0.0000E+00
    -12.153  0.0000E+00  0.0000E+00
    -11.952  0.0000E+00  0.0000E+00
    -11.752  0.2047E-16  0.4112E-17
    -11.551  0.4094E-16  0.1234E-16
    -11.350  0.2252E-15  0.5757E-16
    -11.149  0.1003E-14  0.2591E-15
    -10.948  0.2477E-14  0.7566E-15
    -10.747  0.8250E-14  0.2414E-14
    -10.546  0.2473E-13  0.7381E-14
    -10.346  0.7315E-13  0.2207E-13
    -10.145  0.2124E-12  0.6473E-13
     -9.944  0.6041E-12  0.1861E-12
     -9.743  0.1686E-11  0.5247E-12
     -9.542  0.4615E-11  0.1452E-11
     -9.341  0.1239E-10  0.3940E-11
     -9.140  0.3262E-10  0.1049E-10
     -8.940  0.8426E-10  0.2742E-10
     -8.739  0.2134E-09  0.7028E-10
     -8.538  0.5303E-09  0.1768E-09
     -8.337  0.1292E-08  0.4364E-09
     -8.136  0.3090E-08  0.1057E-08
     -7.935  0.7245E-08  0.2512E-08
     -7.735  0.1667E-07  0.5860E-08
     -7.534  0.3761E-07  0.1341E-07
     -7.333  0.8327E-07  0.3014E-07
     -7.132  0.1808E-06  0.6646E-07
     -6.931  0.3854E-06  0.1439E-06
     -6.730  0.8056E-06  0.3057E-06
     -6.529  0.1653E-05  0.6376E-06
     -6.329  0.3327E-05  0.1306E-05
     -6.128  0.6571E-05  0.2626E-05
     -5.927  0.1274E-04  0.5184E-05
     -5.726  0.2423E-04  0.1005E-04
     -5.525  0.4525E-04  0.1914E-04
     -5.324  0.8294E-04  0.3580E-04
     -5.123  0.1492E-03  0.6577E-04
     -4.923  0.2637E-03  0.1187E-03
     -4.722  0.4574E-03  0.2106E-03
     -4.521  0.7792E-03  0.3671E-03
     -4.320  0.1304E-02  0.6290E-03
     -4.119  0.2144E-02  0.1060E-02
     -3.918  0.3463E-02  0.1755E-02
     -3.717  0.5499E-02  0.2860E-02
     -3.517  0.8584E-02  0.4584E-02
     -3.316  0.1318E-01  0.7230E-02
     -3.115  0.1990E-01  0.1123E-01
     -2.914  0.2958E-01  0.1717E-01
     -2.713  0.4328E-01  0.2586E-01
     -2.512  0.6239E-01  0.3839E-01
     -2.312  0.8864E-01  0.5619E-01
     -2.111  0.1242E+00  0.8114E-01
     -1.910  0.1717E+00  0.1156E+00
     -1.709  0.2345E+00  0.1627E+00
     -1.508  0.3164E+00  0.2263E+00
     -1.307  0.4222E+00  0.3111E+00
     -1.106  0.5577E+00  0.4231E+00
     -0.906  0.7296E+00  0.5696E+00
     -0.705  0.9460E+00  0.7596E+00
     -0.504  0.1216E+01  0.1004E+01
     -0.303  0.1552E+01  0.1316E+01
     -0.102  0.1965E+01  0.1710E+01
      0.099  0.2471E+01  0.2207E+01
      0.300  0.3084E+01  0.2826E+01
      0.500  0.3821E+01  0.3594E+01
      0.701  0.4700E+01  0.4538E+01
      0.902  0.5737E+01  0.5690E+01
      1.103  0.6946E+01  0.7085E+01
      1.304  0.8339E+01  0.8760E+01
      1.505  0.9925E+01  0.1075E+02
      1.706  0.1171E+02  0.1310E+02
      1.906  0.1368E+02  0.1585E+02
      2.107  0.1583E+02  0.1903E+02
      2.308  0.1815E+02  0.2268E+02
      2.509  0.2060E+02  0.2681E+02
      2.710  0.2316E+02  0.3147E+02
      2.911  0.2580E+02  0.3665E+02
      3.112  0.2847E+02  0.4236E+02
      3.312  0.3113E+02  0.4862E+02
      3.513  0.3375E+02  0.5540E+02
      3.714  0.3629E+02  0.6269E+02
      3.915  0.3871E+02  0.7046E+02
      4.116  0.4099E+02  0.7869E+02
      4.317  0.4309E+02  0.8735E+02
      4.517  0.4500E+02  0.9639E+02
      4.718  0.4671E+02  0.1058E+03
      4.919  0.4819E+02  0.1154E+03
      5.120  0.4945E+02  0.1254E+03
      5.321  0.5048E+02  0.1355E+03
      5.522  0.5128E+02  0.1458E+03
      5.723  0.5184E+02  0.1562E+03
      5.923  0.5219E+02  0.1667E+03
      6.124  0.5231E+02  0.1772E+03
      6.325  0.5222E+02  0.1877E+03
      6.526  0.5194E+02  0.1981E+03
      6.727  0.5145E+02  0.2085E+03
      6.928  0.5078E+02  0.2187E+03
      7.129  0.4993E+02  0.2287E+03
      7.329  0.4890E+02  0.2385E+03
      7.530  0.4770E+02  0.2481E+03
      7.731  0.4632E+02  0.2574E+03
      7.932  0.4477E+02  0.2664E+03
      8.133  0.4306E+02  0.2751E+03
      8.334  0.4120E+02  0.2833E+03
      8.535  0.3919E+02  0.2912E+03
      8.735  0.3706E+02  0.2986E+03
      8.936  0.3483E+02  0.3056E+03
      9.137  0.3253E+02  0.3122E+03
      9.338  0.3021E+02  0.3182E+03
      9.539  0.2790E+02  0.3238E+03
      9.740  0.2563E+02  0.3290E+03
      9.940  0.2345E+02  0.3337E+03
     10.141  0.2139E+02  0.3380E+03
     10.342  0.1948E+02  0.3419E+03
     10.543  0.1774E+02  0.3455E+03
     10.744  0.1618E+02  0.3487E+03
     10.945  0.1482E+02  0.3517E+03
     11.146  0.1365E+02  0.3544E+03
     11.346  0.1266E+02  0.3570E+03
     11.547  0.1184E+02  0.3594E+03
     11.748  0.1119E+02  0.3616E+03
     11.949  0.1067E+02  0.3638E+03
     12.150  0.1028E+02  0.3658E+03
     12.351  0.9989E+01  0.3678E+03
     12.552  0.9793E+01  0.3698E+03
     12.752  0.9673E+01  0.3717E+03
     12.953  0.9613E+01  0.3737E+03
     13.154  0.9602E+01  0.3756E+03
     13.355  0.9628E+01  0.3775E+03
     13.556  0.9680E+01  0.3795E+03
     13.757  0.9749E+01  0.3814E+03
     13.958  0.9826E+01  0.3834E+03
     14.158  0.9904E+01  0.3854E+03
     14.359  0.9979E+01  0.3874E+03
     14.560  0.1005E+02  0.3894E+03
     14.761  0.1010E+02  0.3914E+03
     14.962  0.1015E+02  0.3935E+03
     15.163  0.1019E+02  0.3955E+03
     15.364  0.1022E+02  0.3976E+03
     15.564  0.1025E+02  0.3996E+03
     15.765  0.1027E+02  0.4017E+03
     15.966  0.1029E+02  0.4038E+03
     16.167  0.1031E+02  0.4058E+03
     16.368  0.1033E+02  0.4079E+03
     16.569  0.1035E+02  0.4100E+03
     16.769  0.1037E+02  0.4121E+03
     16.970  0.1038E+02  0.4142E+03
     17.171  0.1037E+02  0.4162E+03
     17.372  0.1034E+02  0.4183E+03
     17.573  0.1028E+02  0.4204E+03
     17.774  0.1019E+02  0.4224E+03
     17.975  0.1005E+02  0.4244E+03
     18.175  0.9871E+01  0.4264E+03
     18.376  0.9637E+01  0.4284E+03
     18.577  0.9349E+01  0.4302E+03
     18.778  0.9007E+01  0.4321E+03
     18.979  0.8611E+01  0.4338E+03
     19.180  0.8165E+01  0.4354E+03
     19.381  0.7675E+01  0.4370E+03
     19.581  0.7147E+01  0.4384E+03
     19.782  0.6592E+01  0.4397E+03
     19.983  0.6017E+01  0.4409E+03
     20.184  0.5435E+01  0.4420E+03
     20.385  0.4854E+01  0.4430E+03
     20.586  0.4285E+01  0.4439E+03
     20.787  0.3738E+01  0.4446E+03
     20.987  0.3220E+01  0.4453E+03
     21.188  0.2738E+01  0.4458E+03
     21.389  0.2298E+01  0.4463E+03
     21.590  0.1901E+01  0.4467E+03
     21.791  0.1551E+01  0.4470E+03
     21.992  0.1248E+01  0.4472E+03
     22.192  0.9882E+00  0.4474E+03
     22.393  0.7708E+00  0.4476E+03
     22.594  0.5917E+00  0.4477E+03
     22.795  0.4470E+00  0.4478E+03
     22.996  0.3322E+00  0.4478E+03
     23.197  0.2427E+00  0.4479E+03
     23.398  0.1743E+00  0.4479E+03
     23.598  0.1230E+00  0.4479E+03
     23.799  0.8531E-01  0.4480E+03
     24.000  0.5811E-01  0.4480E+03
     24.201  0.3887E-01  0.4480E+03
     24.402  0.2553E-01  0.4480E+03
     24.603  0.1646E-01  0.4480E+03
     24.804  0.1041E-01  0.4480E+03
     25.004  0.6467E-02  0.4480E+03
     25.205  0.3940E-02  0.4480E+03
     25.406  0.2356E-02  0.4480E+03
     25.607  0.1381E-02  0.4480E+03
     25.808  0.7946E-03  0.4480E+03
     26.009  0.4483E-03  0.4480E+03
     26.210  0.2481E-03  0.4480E+03
     26.410  0.1346E-03  0.4480E+03
     26.611  0.7163E-04  0.4480E+03
     26.812  0.3738E-04  0.4480E+03
     27.013  0.1912E-04  0.4480E+03
     27.214  0.9593E-05  0.4480E+03
     27.415  0.4718E-05  0.4480E+03
     27.615  0.2275E-05  0.4480E+03
     27.816  0.1075E-05  0.4480E+03
     28.017  0.4984E-06  0.4480E+03
     28.218  0.2264E-06  0.4480E+03
     28.419  0.1008E-06  0.4480E+03
     28.620  0.4403E-07  0.4480E+03
     28.821  0.1884E-07  0.4480E+03
     29.021  0.7905E-08  0.4480E+03
     29.222  0.3251E-08  0.4480E+03
     29.423  0.1310E-08  0.4480E+03
     29.624  0.5178E-09  0.4480E+03
     29.825  0.2005E-09  0.4480E+03
     30.026  0.7614E-10  0.4480E+03
     30.227  0.2833E-10  0.4480E+03
     30.427  0.1034E-10  0.4480E+03
     30.628  0.3694E-11  0.4480E+03
     30.829  0.1294E-11  0.4480E+03
     31.030  0.4443E-12  0.4480E+03
     31.231  0.1492E-12  0.4480E+03
     31.432  0.4995E-13  0.4480E+03
     31.633  0.1548E-13  0.4480E+03
     31.833  0.5732E-14  0.4480E+03
     32.034  0.1720E-14  0.4480E+03
     32.235  0.0000E+00  0.4480E+03
     32.436  0.0000E+00  0.4480E+03
     32.637  0.0000E+00  0.4480E+03
     32.838  0.0000E+00  0.4480E+03
     33.039  0.0000E+00  0.4480E+03
     33.239  0.0000E+00  0.4480E+03
     33.440  0.0000E+00  0.4480E+03
     33.641  0.0000E+00  0.4480E+03
     33.842  0.0000E+00  0.4480E+03
     34.043  0.0000E+00  0.4480E+03
     34.244  0.0000E+00  0.4480E+03
     34.444  0.0000E+00  0.4480E+03
     34.645  0.0000E+00  0.4480E+03
     34.846  0.0000E+00  0.4480E+03
     35.047  0.0000E+00  0.4480E+03
     35.248  0.0000E+00  0.4480E+03
     35.449  0.0000E+00  0.4480E+03
     35.650  0.0000E+00  0.4480E+03
     35.850  0.0000E+00  0.4480E+03
     36.051  0.0000E+00  0.4480E+03
     36.252  0.0000E+00  0.4480E+03
     36.453  0.0000E+00  0.4480E+03
     36.654  0.0000E+00  0.4480E+03
     36.855  0.0000E+00  0.4480E+03
     37.056  0.0000E+00  0.4480E+03
     37.256  0.0000E+00  0.4480E+03
     37.457  0.0000E+00  0.4480E+03
     37.658  0.0000E+00  0.4480E+03
     37.859  0.0000E+00  0.4480E+03
     38.060  0.0000E+00  0.4480E+03
     38.261  0.0000E+00  0.4480E+03
     38.462  0.0000E+00  0.4480E+03
     38.662  0.0000E+00  0.4480E+03
     38.863  0.0000E+00  0.4480E+03
     39.064  0.0000E+00  0.4480E+03
     39.265  0.0000E+00  0.4480E+03
     39.466  0.0000E+00  0.4480E+03
     39.667  0.0000E+00  0.4480E+03
     39.867  0.0000E+00  0.4480E+03
     40.068  0.0000E+00  0.4480E+03
     40.269  0.0000E+00  0.4480E+03
