  32  32   0   0
  0.1685425E+02  0.8066328E-09  0.8184621E-09  0.8169392E-09  0.1500000E-15
  1.000000000000000E-004
  CAR 
 automatically generated by mexm         
     18.84521713     -1.23775761  301      9.76264933      1.00000000
     -1.238  0.0000E+00  0.0000E+00
     -1.171  0.0000E+00  0.0000E+00
     -1.104  0.0000E+00  0.0000E+00
     -1.037  0.0000E+00  0.0000E+00
     -0.970 -0.4208E-31 -0.2817E-32
     -0.903 -0.4981E-28 -0.3337E-29
     -0.836 -0.3948E-25 -0.2646E-26
     -0.769 -0.2093E-22 -0.1403E-23
     -0.702 -0.7414E-20 -0.4977E-21
     -0.635 -0.1754E-17 -0.1179E-18
     -0.568 -0.2680E-15 -0.1806E-16
     -0.501 -0.2803E-13 -0.1895E-14
     -0.434 -0.1947E-11 -0.1322E-12
     -0.367 -0.8945E-10 -0.6120E-11
     -0.301 -0.2707E-08 -0.1873E-09
     -0.234 -0.5354E-07 -0.3772E-08
     -0.167 -0.6836E-06 -0.4953E-07
     -0.100 -0.5502E-05 -0.4178E-06
     -0.033 -0.2654E-04 -0.2194E-05
      0.034 -0.6582E-04 -0.6600E-05
      0.101 -0.1680E-04 -0.7725E-05
      0.168  0.3621E-03  0.1651E-04
      0.235  0.1010E-02  0.8410E-04
      0.302  0.1211E-02  0.1652E-03
      0.369  0.5387E-03  0.2012E-03
      0.436  0.7155E-04  0.2060E-03
      0.503  0.1812E-02  0.3273E-03
      0.570  0.5723E-02  0.7104E-03
      0.637  0.7773E-02  0.1231E-02
      0.704  0.5069E-02  0.1570E-02
      0.771  0.1778E-02  0.1689E-02
      0.837  0.4480E-02  0.1989E-02
      0.904  0.1225E-01  0.2809E-02
      0.971  0.1562E-01  0.3855E-02
      1.038  0.1011E-01  0.4532E-02
      1.105  0.4066E-02  0.4804E-02
      1.172  0.5315E-02  0.5160E-02
      1.239  0.9626E-02  0.5804E-02
      1.306  0.8907E-02  0.6401E-02
      1.373  0.3797E-02  0.6655E-02
      1.440  0.1181E-02  0.6734E-02
      1.507  0.3616E-02  0.6976E-02
      1.574  0.6532E-02  0.7413E-02
      1.641  0.5388E-02  0.7774E-02
      1.708  0.4931E-02  0.8104E-02
      1.775  0.1388E-01  0.9033E-02
      1.842  0.2714E-01  0.1085E-01
      1.909  0.3031E-01  0.1288E-01
      1.976  0.2646E-01  0.1465E-01
      2.042  0.2843E-01  0.1655E-01
      2.109  0.2967E-01  0.1854E-01
      2.176  0.1925E-01  0.1983E-01
      2.243  0.5360E-02  0.2019E-01
      2.310 -0.1409E-02  0.2009E-01
      2.377 -0.2780E-02  0.1991E-01
      2.444 -0.2664E-02  0.1973E-01
      2.511  0.2989E-02  0.1993E-01
      2.578  0.2068E-01  0.2131E-01
      2.645  0.4235E-01  0.2415E-01
      2.712  0.4840E-01  0.2739E-01
      2.779  0.3614E-01  0.2981E-01
      2.846  0.2053E-01  0.3118E-01
      2.913  0.1278E-01  0.3204E-01
      2.980  0.2112E-01  0.3345E-01
      3.047  0.4984E-01  0.3679E-01
      3.114  0.8553E-01  0.4251E-01
      3.180  0.1012E+00  0.4929E-01
      3.247  0.8617E-01  0.5505E-01
      3.314  0.6528E-01  0.5942E-01
      3.381  0.6722E-01  0.6392E-01
      3.448  0.8980E-01  0.6994E-01
      3.515  0.1168E+00  0.7775E-01
      3.582  0.1415E+00  0.8722E-01
      3.649  0.1634E+00  0.9816E-01
      3.716  0.1741E+00  0.1098E+00
      3.783  0.1614E+00  0.1206E+00
      3.850  0.1355E+00  0.1297E+00
      3.917  0.1241E+00  0.1380E+00
      3.984  0.1364E+00  0.1471E+00
      4.051  0.1618E+00  0.1580E+00
      4.118  0.1882E+00  0.1706E+00
      4.185  0.2033E+00  0.1842E+00
      4.252  0.1969E+00  0.1974E+00
      4.319  0.1710E+00  0.2088E+00
      4.385  0.1369E+00  0.2180E+00
      4.452  0.1140E+00  0.2256E+00
      4.519  0.1220E+00  0.2338E+00
      4.586  0.1524E+00  0.2440E+00
      4.653  0.1720E+00  0.2555E+00
      4.720  0.1666E+00  0.2666E+00
      4.787  0.1471E+00  0.2765E+00
      4.854  0.1246E+00  0.2848E+00
      4.921  0.1094E+00  0.2922E+00
      4.988  0.1104E+00  0.2995E+00
      5.055  0.1258E+00  0.3080E+00
      5.122  0.1484E+00  0.3179E+00
      5.189  0.1716E+00  0.3294E+00
      5.256  0.1851E+00  0.3418E+00
      5.323  0.1824E+00  0.3540E+00
      5.390  0.1716E+00  0.3655E+00
      5.457  0.1660E+00  0.3766E+00
      5.524  0.1703E+00  0.3880E+00
      5.590  0.1795E+00  0.4000E+00
      5.657  0.1878E+00  0.4126E+00
      5.724  0.1931E+00  0.4255E+00
      5.791  0.1946E+00  0.4385E+00
      5.858  0.1920E+00  0.4514E+00
      5.925  0.1888E+00  0.4640E+00
      5.992  0.1884E+00  0.4766E+00
      6.059  0.1902E+00  0.4894E+00
      6.126  0.1921E+00  0.5022E+00
      6.193  0.1949E+00  0.5153E+00
      6.260  0.1999E+00  0.5287E+00
      6.327  0.2077E+00  0.5426E+00
      6.394  0.2147E+00  0.5569E+00
      6.461  0.2158E+00  0.5714E+00
      6.528  0.2132E+00  0.5857E+00
      6.595  0.2159E+00  0.6001E+00
      6.662  0.2241E+00  0.6151E+00
      6.728  0.2258E+00  0.6302E+00
      6.795  0.2134E+00  0.6445E+00
      6.862  0.1939E+00  0.6575E+00
      6.929  0.1768E+00  0.6693E+00
      6.996  0.1650E+00  0.6804E+00
      7.063  0.1555E+00  0.6908E+00
      7.130  0.1460E+00  0.7006E+00
      7.197  0.1411E+00  0.7100E+00
      7.264  0.1460E+00  0.7198E+00
      7.331  0.1515E+00  0.7299E+00
      7.398  0.1475E+00  0.7398E+00
      7.465  0.1395E+00  0.7491E+00
      7.532  0.1365E+00  0.7583E+00
      7.599  0.1396E+00  0.7676E+00
      7.666  0.1465E+00  0.7774E+00
      7.733  0.1528E+00  0.7877E+00
      7.800  0.1572E+00  0.7982E+00
      7.867  0.1647E+00  0.8092E+00
      7.933  0.1763E+00  0.8210E+00
      8.000  0.1817E+00  0.8332E+00
      8.067  0.1723E+00  0.8447E+00
      8.134  0.1517E+00  0.8549E+00
      8.201  0.1319E+00  0.8637E+00
      8.268  0.1238E+00  0.8720E+00
      8.335  0.1305E+00  0.8807E+00
      8.402  0.1462E+00  0.8905E+00
      8.469  0.1602E+00  0.9012E+00
      8.536  0.1622E+00  0.9121E+00
      8.603  0.1529E+00  0.9223E+00
      8.670  0.1446E+00  0.9320E+00
      8.737  0.1437E+00  0.9416E+00
      8.804  0.1435E+00  0.9512E+00
      8.871  0.1397E+00  0.9606E+00
      8.938  0.1388E+00  0.9699E+00
      9.005  0.1434E+00  0.9795E+00
      9.072  0.1483E+00  0.9894E+00
      9.138  0.1529E+00  0.9996E+00
      9.205  0.1587E+00  0.1010E+01
      9.272  0.1619E+00  0.1021E+01
      9.339  0.1618E+00  0.1032E+01
      9.406  0.1641E+00  0.1043E+01
      9.473  0.1701E+00  0.1054E+01
      9.540  0.1757E+00  0.1066E+01
      9.607  0.1779E+00  0.1078E+01
      9.674  0.1748E+00  0.1090E+01
      9.741  0.1591E+00  0.1100E+01
      9.808  0.1273E+00  0.1109E+01
      9.875  0.9865E-01  0.1115E+01
      9.942  0.9572E-01  0.1122E+01
     10.009  0.1086E+00  0.1129E+01
     10.076  0.1090E+00  0.1136E+01
     10.143  0.8978E-01  0.1142E+01
     10.210  0.6396E-01  0.1147E+01
     10.276  0.3888E-01  0.1149E+01
     10.343  0.1613E-01  0.1150E+01
     10.410  0.2431E-02  0.1151E+01
     10.477  0.3046E-02  0.1151E+01
     10.544  0.1334E-01  0.1152E+01
     10.611  0.2216E-01  0.1153E+01
     10.678  0.2199E-01  0.1155E+01
     10.745  0.1488E-01  0.1156E+01
     10.812  0.7324E-02  0.1156E+01
     10.879  0.4986E-02  0.1156E+01
     10.946  0.1106E-01  0.1157E+01
     11.013  0.2302E-01  0.1159E+01
     11.080  0.3426E-01  0.1161E+01
     11.147  0.4236E-01  0.1164E+01
     11.214  0.5006E-01  0.1167E+01
     11.281  0.5804E-01  0.1171E+01
     11.348  0.6210E-01  0.1175E+01
     11.415  0.5838E-01  0.1179E+01
     11.481  0.5029E-01  0.1182E+01
     11.548  0.4222E-01  0.1185E+01
     11.615  0.3267E-01  0.1188E+01
     11.682  0.2476E-01  0.1189E+01
     11.749  0.2576E-01  0.1191E+01
     11.816  0.3039E-01  0.1193E+01
     11.883  0.2575E-01  0.1195E+01
     11.950  0.1184E-01  0.1195E+01
     12.017  0.4057E-03  0.1195E+01
     12.084  0.8561E-03  0.1196E+01
     12.151  0.1544E-01  0.1197E+01
     12.218  0.3655E-01  0.1199E+01
     12.285  0.5067E-01  0.1202E+01
     12.352  0.5345E-01  0.1206E+01
     12.419  0.5187E-01  0.1209E+01
     12.486  0.5377E-01  0.1213E+01
     12.553  0.6026E-01  0.1217E+01
     12.619  0.6064E-01  0.1221E+01
     12.686  0.4397E-01  0.1224E+01
     12.753  0.1828E-01  0.1225E+01
     12.820  0.9387E-03  0.1225E+01
     12.887 -0.2641E-02  0.1225E+01
     12.954  0.3445E-02  0.1225E+01
     13.021  0.1499E-01  0.1226E+01
     13.088  0.2658E-01  0.1228E+01
     13.155  0.3204E-01  0.1230E+01
     13.222  0.2871E-01  0.1232E+01
     13.289  0.1846E-01  0.1234E+01
     13.356  0.6710E-02  0.1234E+01
     13.423  0.5279E-03  0.1234E+01
     13.490  0.5396E-02  0.1234E+01
     13.557  0.2284E-01  0.1236E+01
     13.624  0.4605E-01  0.1239E+01
     13.691  0.5922E-01  0.1243E+01
     13.758  0.5141E-01  0.1246E+01
     13.824  0.3028E-01  0.1248E+01
     13.891  0.1465E-01  0.1249E+01
     13.958  0.1572E-01  0.1250E+01
     14.025  0.2873E-01  0.1252E+01
     14.092  0.3946E-01  0.1255E+01
     14.159  0.3820E-01  0.1258E+01
     14.226  0.3025E-01  0.1260E+01
     14.293  0.2777E-01  0.1261E+01
     14.360  0.3272E-01  0.1264E+01
     14.427  0.3679E-01  0.1266E+01
     14.494  0.3436E-01  0.1268E+01
     14.561  0.2924E-01  0.1270E+01
     14.628  0.2897E-01  0.1272E+01
     14.695  0.3377E-01  0.1275E+01
     14.762  0.3662E-01  0.1277E+01
     14.829  0.3323E-01  0.1279E+01
     14.896  0.2482E-01  0.1281E+01
     14.963  0.1467E-01  0.1282E+01
     15.029  0.8942E-02  0.1282E+01
     15.096  0.1536E-01  0.1283E+01
     15.163  0.3501E-01  0.1286E+01
     15.230  0.5846E-01  0.1290E+01
     15.297  0.7228E-01  0.1295E+01
     15.364  0.7253E-01  0.1299E+01
     15.431  0.6512E-01  0.1304E+01
     15.498  0.5009E-01  0.1307E+01
     15.565  0.2669E-01  0.1309E+01
     15.632  0.5865E-02  0.1309E+01
     15.699 -0.3105E-02  0.1309E+01
     15.766 -0.1448E-02  0.1309E+01
     15.833  0.1024E-01  0.1310E+01
     15.900  0.3484E-01  0.1312E+01
     15.967  0.6361E-01  0.1316E+01
     16.034  0.7286E-01  0.1321E+01
     16.101  0.5352E-01  0.1325E+01
     16.167  0.2714E-01  0.1327E+01
     16.234  0.1436E-01  0.1328E+01
     16.301  0.1151E-01  0.1328E+01
     16.368  0.8607E-02  0.1329E+01
     16.435  0.4839E-02  0.1329E+01
     16.502  0.2163E-02  0.1329E+01
     16.569  0.4849E-03  0.1329E+01
     16.636 -0.4764E-03  0.1329E+01
     16.703 -0.4891E-03  0.1329E+01
     16.770  0.1327E-02  0.1329E+01
     16.837  0.5457E-02  0.1330E+01
     16.904  0.9623E-02  0.1330E+01
     16.971  0.1059E-01  0.1331E+01
     17.038  0.8465E-02  0.1332E+01
     17.105  0.5552E-02  0.1332E+01
     17.172  0.3361E-02  0.1332E+01
     17.239  0.3098E-02  0.1333E+01
     17.306  0.4483E-02  0.1333E+01
     17.372  0.4787E-02  0.1333E+01
     17.439  0.2829E-02  0.1333E+01
     17.506  0.6466E-03  0.1333E+01
     17.573 -0.2075E-03  0.1333E+01
     17.640 -0.1931E-03  0.1333E+01
     17.707 -0.6228E-04  0.1333E+01
     17.774 -0.1130E-04  0.1333E+01
     17.841 -0.1270E-05  0.1333E+01
     17.908 -0.9182E-07  0.1333E+01
     17.975 -0.4343E-08  0.1333E+01
     18.042 -0.1357E-09  0.1333E+01
     18.109 -0.2814E-11  0.1333E+01
     18.176 -0.3887E-13  0.1333E+01
     18.243 -0.3579E-15  0.1333E+01
     18.310 -0.2457E-17  0.1333E+01
     18.377  0.0000E+00  0.1333E+01
     18.444  0.0000E+00  0.1333E+01
     18.511  0.0000E+00  0.1333E+01
     18.577  0.0000E+00  0.1333E+01
     18.644  0.0000E+00  0.1333E+01
     18.711  0.0000E+00  0.1333E+01
     18.778  0.0000E+00  0.1333E+01
     18.845  0.0000E+00  0.1333E+01
