   32   32  300    1
  0.1685425E+02  0.8066328E-09  0.8184621E-09  0.8169392E-09  0.1500000E-15
  1.000000000000000E-004
  CAR 
 automatically generated by mexm         
    331     14    200
 
  0.0000000E+00  0.0000000E+00  0.0000000E+00  0.3703704E-01
    1        0.262242   1.000000
    2        2.757983   1.000000
    3        2.787974   1.000000
    4        2.821935   1.000000
    5        2.828038   1.000000
    6        2.847981   1.000000
    7        2.858909   1.000000
    8        2.969485   1.000000
    9        2.986915   1.000000
   10        2.998406   1.000000
   11        3.003234   1.000000
   12        3.215101   1.000000
   13        3.242841   1.000000
   14        3.294281   1.000000
   15        3.616692   1.000000
   16        3.624773   1.000000
   17        3.665262   1.000000
   18        4.148989   1.000000
   19        4.175715   1.000000
   20        4.179199   1.000000
   21        4.203301   1.000000
   22        4.236598   1.000000
   23        4.242500   1.000000
   24        4.272573   1.000000
   25        4.281951   1.000000
   26        4.303249   1.000000
   27        4.315074   1.000000
   28        4.343204   1.000000
   29        4.349086   1.000000
   30        4.398602   1.000000
   31        4.404919   1.000000
   32        4.430937   1.000000
   33        4.449820   1.000000
   34        4.510583   1.000000
   35        4.553882   1.000000
   36        4.587995   1.000000
   37        4.648058   1.000000
   38        4.689808   1.000000
   39        4.781071   1.000000
   40        4.810470   1.000000
   41        4.866070   1.000000
   42        4.938439   1.000000
   43        4.981492   1.000000
   44        5.014076   1.000000
   45        5.041788   1.000000
   46        5.084754   1.000000
   47        5.201298   1.000000
   48        5.230353   1.000000
   49        5.262104   1.000000
   50        5.291737   1.000000
   51        5.311671   1.000000
   52        5.334742   1.000000
   53        5.357016   1.000000
   54        5.373173   1.000000
   55        5.381064   1.000000
   56        5.387259   1.000000
   57        5.404956   1.000000
   58        5.443107   1.000000
   59        5.467021   1.000000
   60        5.476398   1.000000
   61        5.491630   1.000000
   62        5.545076   1.000000
   63        5.574508   1.000000
   64        5.579194   1.000000
   65        5.605030   1.000000
   66        5.614481   1.000000
   67        5.643836   1.000000
   68        5.659612   1.000000
   69        5.686602   1.000000
   70        5.692340   1.000000
   71        5.703621   1.000000
   72        5.737424   1.000000
   73        5.750619   1.000000
   74        5.777764   1.000000
   75        5.834786   1.000000
   76        5.842954   1.000000
   77        5.900870   1.000000
   78        5.933451   1.000000
   79        6.001110   1.000000
   80        6.032308   1.000000
   81        6.063961   1.000000
   82        6.082487   1.000000
   83        6.128637   1.000000
   84        6.170915   1.000000
   85        6.237339   1.000000
   86        6.256611   1.000000
   87        6.303129   1.000000
   88        6.346704   1.000000
   89        6.403009   1.000000
   90        6.524648   1.000000
   91        6.687374   1.000000
   92        6.800591   1.000000
   93        6.828385   1.000000
   94        6.848405   1.000000
   95        6.903963   1.000000
   96        6.951410   1.000000
   97        6.999533   1.000000
   98        7.022282   1.000000
   99        7.042290   1.000000
  100        7.087897   1.000000
  101        7.115277   1.000000
  102        7.141942   1.000000
  103        7.168732   1.000000
  104        7.228666   1.000000
  105        7.253227   1.000000
  106        7.260682   1.000000
  107        7.281076   1.000000
  108        7.323090   1.000000
  109        7.353921   1.000000
  110        7.402575   1.000000
  111        7.420716   1.000000
  112        7.432740   1.000000
  113        7.450507   1.000000
  114        7.476350   1.000000
  115        7.481930   1.000000
  116        7.590183   1.000000
  117        7.605643   1.000000
  118        7.667315   1.000000
  119        7.680452   1.000000
  120        7.711816   1.000000
  121        7.738662   1.000000
  122        7.794209   1.000000
  123        7.819905   1.000000
  124        7.834284   1.000000
  125        7.873048   1.000000
  126        7.895420   1.000000
  127        7.928906   1.000000
  128        8.004204   1.000000
  129        8.010838   1.000000
  130        8.038389   1.000000
  131        8.087161   1.000000
  132        8.139281   1.000000
  133        8.145709   1.000000
  134        8.178014   1.000000
  135        8.229397   1.000000
  136        8.251683   1.000000
  137        8.275121   1.000000
  138        8.328124   1.000000
  139        8.495173   1.000000
  140        8.638257   1.000000
  141        8.718052   1.000000
  142        8.799758   1.000000
  143        8.821374   1.000000
  144        8.831659   1.000000
  145        9.177894   1.000000
  146        9.214415   1.000002
  147        9.257357   1.000010
  148        9.286795   1.000034
  149        9.329270   1.000171
  150        9.370494   1.000684
  151        9.428244   1.003558
  152        9.439487   1.004704
  153        9.455610   1.006850
  154        9.490157   1.013801
  155        9.501041   1.016671
  156        9.506820   1.018307
  157        9.538399   1.027874
  158        9.582914   1.035346
  159        9.657655   0.959862
  160        9.675501   0.911302
  161        9.728073   0.689444
  162        9.765863   0.481873
  163        9.801832   0.287079
  164        9.851714   0.082804
  165        9.870354   0.033990
  166        9.920384  -0.029684
  167        9.969078  -0.032606
  168        9.988115  -0.027513
  169       10.030971  -0.014865
  170       10.091459  -0.004095
  171       10.180843  -0.000291
  172       10.972105  -0.000000
  173       11.032016  -0.000000
  174       11.053910  -0.000000
  175       11.068202  -0.000000
  176       11.087815  -0.000000
  177       11.123911  -0.000000
  178       11.143579  -0.000000
  179       11.146103  -0.000000
  180       11.195181  -0.000000
  181       11.226816  -0.000000
  182       11.262848  -0.000000
  183       11.337946  -0.000000
  184       11.520290  -0.000000
  185       11.559397  -0.000000
  186       11.633605  -0.000000
  187       14.513814   0.000000
  188       14.572461   0.000000
  189       14.634024   0.000000
  190       14.652037   0.000000
  191       15.813134   0.000000
  192       15.876384   0.000000
  193       16.014100   0.000000
  194       16.020801   0.000000
  195       16.201398   0.000000
  196       16.278980   0.000000
  197       17.282234   0.000000
  198       17.304933   0.000000
  199       17.327784   0.000000
  200       17.345217   0.000000
 
  0.3333333E+00  0.2619350E-19 -0.4235165E-21  0.7407407E-01
    1        0.602804   1.000000
    2        1.561449   1.000000
    3        3.001284   1.000000
    4        3.050464   1.000000
    5        3.071517   1.000000
    6        3.083410   1.000000
    7        3.164699   1.000000
    8        3.182053   1.000000
    9        3.193743   1.000000
   10        3.199290   1.000000
   11        3.336946   1.000000
   12        3.452470   1.000000
   13        3.470826   1.000000
   14        3.503684   1.000000
   15        3.623320   1.000000
   16        3.638182   1.000000
   17        3.660797   1.000000
   18        3.680124   1.000000
   19        3.707306   1.000000
   20        3.730832   1.000000
   21        3.740347   1.000000
   22        3.772739   1.000000
   23        3.825254   1.000000
   24        3.853100   1.000000
   25        3.881763   1.000000
   26        4.031741   1.000000
   27        4.074523   1.000000
   28        4.161397   1.000000
   29        4.382712   1.000000
   30        4.400937   1.000000
   31        4.493375   1.000000
   32        4.506687   1.000000
   33        4.541410   1.000000
   34        4.567266   1.000000
   35        4.588474   1.000000
   36        4.630476   1.000000
   37        4.664801   1.000000
   38        4.712698   1.000000
   39        4.807132   1.000000
   40        4.847876   1.000000
   41        4.869914   1.000000
   42        4.894083   1.000000
   43        4.945853   1.000000
   44        4.979738   1.000000
   45        4.987997   1.000000
   46        5.006629   1.000000
   47        5.077943   1.000000
   48        5.094066   1.000000
   49        5.143906   1.000000
   50        5.170785   1.000000
   51        5.184540   1.000000
   52        5.214731   1.000000
   53        5.241093   1.000000
   54        5.258283   1.000000
   55        5.289254   1.000000
   56        5.316508   1.000000
   57        5.342573   1.000000
   58        5.385836   1.000000
   59        5.452162   1.000000
   60        5.478368   1.000000
   61        5.542852   1.000000
   62        5.573334   1.000000
   63        5.620817   1.000000
   64        5.673379   1.000000
   65        5.709437   1.000000
   66        5.752325   1.000000
   67        5.762854   1.000000
   68        5.809725   1.000000
   69        5.825317   1.000000
   70        5.847304   1.000000
   71        5.865545   1.000000
   72        5.918467   1.000000
   73        5.948819   1.000000
   74        5.985153   1.000000
   75        6.004139   1.000000
   76        6.042101   1.000000
   77        6.081920   1.000000
   78        6.120547   1.000000
   79        6.163089   1.000000
   80        6.182078   1.000000
   81        6.208076   1.000000
   82        6.254376   1.000000
   83        6.275318   1.000000
   84        6.323208   1.000000
   85        6.348618   1.000000
   86        6.398622   1.000000
   87        6.425819   1.000000
   88        6.450939   1.000000
   89        6.488445   1.000000
   90        6.535517   1.000000
   91        6.566930   1.000000
   92        6.635207   1.000000
   93        6.694308   1.000000
   94        6.755762   1.000000
   95        6.788719   1.000000
   96        6.872336   1.000000
   97        6.921989   1.000000
   98        6.957463   1.000000
   99        7.003231   1.000000
  100        7.027602   1.000000
  101        7.102865   1.000000
  102        7.150441   1.000000
  103        7.197353   1.000000
  104        7.263032   1.000000
  105        7.304245   1.000000
  106        7.324159   1.000000
  107        7.398893   1.000000
  108        7.445244   1.000000
  109        7.449881   1.000000
  110        7.532394   1.000000
  111        7.575940   1.000000
  112        7.584779   1.000000
  113        7.639162   1.000000
  114        7.664086   1.000000
  115        7.684772   1.000000
  116        7.723636   1.000000
  117        7.762460   1.000000
  118        7.773878   1.000000
  119        7.798020   1.000000
  120        7.825564   1.000000
  121        7.857768   1.000000
  122        7.886622   1.000000
  123        7.905027   1.000000
  124        7.933030   1.000000
  125        7.959289   1.000000
  126        7.976265   1.000000
  127        8.007099   1.000000
  128        8.027349   1.000000
  129        8.081818   1.000000
  130        8.110545   1.000000
  131        8.197303   1.000000
  132        8.285447   1.000000
  133        8.322552   1.000000
  134        8.337894   1.000000
  135        8.383921   1.000000
  136        8.401651   1.000000
  137        8.431453   1.000000
  138        8.486012   1.000000
  139        8.537343   1.000000
  140        8.594898   1.000000
  141        8.645305   1.000000
  142        8.694689   1.000000
  143        8.700687   1.000000
  144        8.757525   1.000000
  145        8.797659   1.000000
  146        8.900103   1.000000
  147        8.944318   1.000000
  148        8.969469   1.000000
  149        9.012445   1.000000
  150        9.056500   1.000000
  151        9.092040   1.000000
  152        9.148181   1.000000
  153        9.203661   1.000001
  154        9.237761   1.000004
  155        9.286128   1.000034
  156        9.327565   1.000161
  157        9.423551   1.003153
  158        9.470713   1.009474
  159        9.499030   1.016119
  160        9.540207   1.028405
  161        9.564385   1.034191
  162        9.635425   1.001363
  163        9.663946   0.944355
  164        9.695133   0.841479
  165        9.717042   0.744596
  166        9.916088  -0.027345
  167        9.941413  -0.035282
  168        9.981184  -0.029524
  169       10.051196  -0.010151
  170       10.082845  -0.005052
  171       10.096923  -0.003570
  172       10.167906  -0.000449
  173       10.545262  -0.000000
  174       10.590147  -0.000000
  175       10.620944  -0.000000
  176       10.720881  -0.000000
  177       11.023130  -0.000000
  178       11.067469  -0.000000
  179       11.074517  -0.000000
  180       11.146747  -0.000000
  181       12.295589  -0.000000
  182       12.374977  -0.000000
  183       12.431481  -0.000000
  184       12.489059  -0.000000
  185       13.014732  -0.000000
  186       13.110840  -0.000000
  187       14.134871   0.000000
  188       14.288672   0.000000
  189       14.319721   0.000000
  190       14.403266   0.000000
  191       15.189399   0.000000
  192       15.287037   0.000000
  193       15.346636   0.000000
  194       15.408453   0.000000
  195       15.471892   0.000000
  196       15.510419   0.000000
  197       16.237033   0.000000
  198       16.319975   0.000000
  199       16.906407   0.000000
  200       17.026640   0.000000
 
 -0.3300451E-20  0.3333333E+00 -0.1084202E-18  0.7407407E-01
    1        0.606154   1.000000
    2        1.574170   1.000000
    3        2.999927   1.000000
    4        3.032989   1.000000
    5        3.056587   1.000000
    6        3.085681   1.000000
    7        3.160400   1.000000
    8        3.175955   1.000000
    9        3.192161   1.000000
   10        3.201690   1.000000
   11        3.350609   1.000000
   12        3.441227   1.000000
   13        3.471004   1.000000
   14        3.532888   1.000000
   15        3.638442   1.000000
   16        3.653172   1.000000
   17        3.670095   1.000000
   18        3.683402   1.000000
   19        3.693738   1.000000
   20        3.723839   1.000000
   21        3.748952   1.000000
   22        3.771814   1.000000
   23        3.834129   1.000000
   24        3.854173   1.000000
   25        3.889066   1.000000
   26        4.040704   1.000000
   27        4.085807   1.000000
   28        4.177015   1.000000
   29        4.337309   1.000000
   30        4.381118   1.000000
   31        4.465201   1.000000
   32        4.479214   1.000000
   33        4.519427   1.000000
   34        4.565768   1.000000
   35        4.608133   1.000000
   36        4.648562   1.000000
   37        4.675385   1.000000
   38        4.687469   1.000000
   39        4.731938   1.000000
   40        4.755695   1.000000
   41        4.891717   1.000000
   42        4.931287   1.000000
   43        4.949488   1.000000
   44        4.985501   1.000000
   45        5.026197   1.000000
   46        5.039314   1.000000
   47        5.078176   1.000000
   48        5.103615   1.000000
   49        5.159170   1.000000
   50        5.183355   1.000000
   51        5.228184   1.000000
   52        5.247857   1.000000
   53        5.274810   1.000000
   54        5.287712   1.000000
   55        5.312407   1.000000
   56        5.346377   1.000000
   57        5.359679   1.000000
   58        5.412010   1.000000
   59        5.436450   1.000000
   60        5.496015   1.000000
   61        5.547341   1.000000
   62        5.592518   1.000000
   63        5.630794   1.000000
   64        5.653702   1.000000
   65        5.683906   1.000000
   66        5.709645   1.000000
   67        5.725136   1.000000
   68        5.759600   1.000000
   69        5.785893   1.000000
   70        5.805615   1.000000
   71        5.826478   1.000000
   72        5.911478   1.000000
   73        5.941751   1.000000
   74        5.959122   1.000000
   75        6.000613   1.000000
   76        6.018847   1.000000
   77        6.048201   1.000000
   78        6.100265   1.000000
   79        6.128992   1.000000
   80        6.157776   1.000000
   81        6.180978   1.000000
   82        6.249083   1.000000
   83        6.268576   1.000000
   84        6.315856   1.000000
   85        6.356020   1.000000
   86        6.377155   1.000000
   87        6.406878   1.000000
   88        6.445970   1.000000
   89        6.523924   1.000000
   90        6.568067   1.000000
   91        6.605900   1.000000
   92        6.660467   1.000000
   93        6.709023   1.000000
   94        6.764752   1.000000
   95        6.796305   1.000000
   96        6.884538   1.000000
   97        6.918120   1.000000
   98        6.932805   1.000000
   99        6.984241   1.000000
  100        7.002866   1.000000
  101        7.044340   1.000000
  102        7.102823   1.000000
  103        7.230743   1.000000
  104        7.285285   1.000000
  105        7.302511   1.000000
  106        7.394588   1.000000
  107        7.408695   1.000000
  108        7.458241   1.000000
  109        7.485958   1.000000
  110        7.499781   1.000000
  111        7.568617   1.000000
  112        7.613713   1.000000
  113        7.634023   1.000000
  114        7.679206   1.000000
  115        7.691538   1.000000
  116        7.736155   1.000000
  117        7.759442   1.000000
  118        7.793839   1.000000
  119        7.812323   1.000000
  120        7.846610   1.000000
  121        7.888191   1.000000
  122        7.907702   1.000000
  123        7.933617   1.000000
  124        7.963373   1.000000
  125        7.987204   1.000000
  126        8.017401   1.000000
  127        8.042969   1.000000
  128        8.075667   1.000000
  129        8.096764   1.000000
  130        8.128585   1.000000
  131        8.157746   1.000000
  132        8.223817   1.000000
  133        8.285240   1.000000
  134        8.333954   1.000000
  135        8.391993   1.000000
  136        8.428842   1.000000
  137        8.440962   1.000000
  138        8.491068   1.000000
  139        8.521872   1.000000
  140        8.554233   1.000000
  141        8.638795   1.000000
  142        8.668025   1.000000
  143        8.740377   1.000000
  144        8.749161   1.000000
  145        8.795973   1.000000
  146        8.889958   1.000000
  147        8.932559   1.000000
  148        8.998532   1.000000
  149        9.008444   1.000000
  150        9.046763   1.000000
  151        9.102413   1.000000
  152        9.159944   1.000000
  153        9.221335   1.000002
  154        9.243430   1.000006
  155        9.305502   1.000071
  156        9.356770   1.000440
  157        9.418041   1.002728
  158        9.451877   1.006296
  159        9.469134   1.009170
  160        9.542231   1.028990
  161        9.585591   1.035136
  162        9.624207   1.015173
  163        9.664524   0.942844
  164        9.683742   0.884069
  165        9.728464   0.687424
  166        9.775432   0.428170
  167        9.939374  -0.035102
  168        9.990362  -0.026838
  169       10.064166  -0.007737
  170       10.093293  -0.003912
  171       10.130825  -0.001416
  172       10.190813  -0.000206
  173       10.566379  -0.000000
  174       10.590416  -0.000000
  175       10.610508  -0.000000
  176       10.711442  -0.000000
  177       10.965082  -0.000000
  178       11.016413  -0.000000
  179       11.033610  -0.000000
  180       11.118764  -0.000000
  181       12.331487  -0.000000
  182       12.389669  -0.000000
  183       12.441838  -0.000000
  184       12.527899  -0.000000
  185       13.032672  -0.000000
  186       13.069812  -0.000000
  187       14.190455   0.000000
  188       14.288675   0.000000
  189       14.412379   0.000000
  190       14.482747   0.000000
  191       15.208223   0.000000
  192       15.261809   0.000000
  193       15.362591   0.000000
  194       15.431063   0.000000
  195       15.480877   0.000000
  196       15.510239   0.000000
  197       16.236371   0.000000
  198       16.252397   0.000000
  199       16.843360   0.000000
  200       16.946304   0.000000
 
  0.3333333E+00  0.3333333E+00 -0.3252607E-18  0.7407407E-01
    1        0.927956   1.000000
    2        1.840506   1.000000
    3        1.868910   1.000000
    4        2.612032   1.000000
    5        3.093717   1.000000
    6        3.106194   1.000000
    7        3.153760   1.000000
    8        3.215033   1.000000
    9        3.347866   1.000000
   10        3.380804   1.000000
   11        3.423447   1.000000
   12        3.471950   1.000000
   13        3.495505   1.000000
   14        3.527889   1.000000
   15        3.564743   1.000000
   16        3.602742   1.000000
   17        3.632224   1.000000
   18        3.721723   1.000000
   19        3.762598   1.000000
   20        3.934780   1.000000
   21        3.955776   1.000000
   22        3.993246   1.000000
   23        4.038270   1.000000
   24        4.080964   1.000000
   25        4.121968   1.000000
   26        4.142860   1.000000
   27        4.170240   1.000000
   28        4.186979   1.000000
   29        4.217838   1.000000
   30        4.256539   1.000000
   31        4.293323   1.000000
   32        4.303951   1.000000
   33        4.349156   1.000000
   34        4.374300   1.000000
   35        4.393494   1.000000
   36        4.482935   1.000000
   37        4.518099   1.000000
   38        4.564609   1.000000
   39        4.585437   1.000000
   40        4.607683   1.000000
   41        4.694138   1.000000
   42        4.720739   1.000000
   43        4.801344   1.000000
   44        4.879589   1.000000
   45        4.913814   1.000000
   46        4.997025   1.000000
   47        5.011749   1.000000
   48        5.075680   1.000000
   49        5.158690   1.000000
   50        5.213554   1.000000
   51        5.232148   1.000000
   52        5.257637   1.000000
   53        5.324328   1.000000
   54        5.403163   1.000000
   55        5.446623   1.000000
   56        5.473577   1.000000
   57        5.495079   1.000000
   58        5.532605   1.000000
   59        5.568413   1.000000
   60        5.595710   1.000000
   61        5.635636   1.000000
   62        5.662322   1.000000
   63        5.704572   1.000000
   64        5.725674   1.000000
   65        5.775755   1.000000
   66        5.795176   1.000000
   67        5.835830   1.000000
   68        5.868759   1.000000
   69        5.888371   1.000000
   70        5.932158   1.000000
   71        5.979615   1.000000
   72        6.002484   1.000000
   73        6.017509   1.000000
   74        6.060944   1.000000
   75        6.106202   1.000000
   76        6.116689   1.000000
   77        6.170788   1.000000
   78        6.188937   1.000000
   79        6.219065   1.000000
   80        6.265145   1.000000
   81        6.303292   1.000000
   82        6.364552   1.000000
   83        6.371768   1.000000
   84        6.413518   1.000000
   85        6.436400   1.000000
   86        6.481899   1.000000
   87        6.515244   1.000000
   88        6.538364   1.000000
   89        6.561526   1.000000
   90        6.612071   1.000000
   91        6.627383   1.000000
   92        6.660817   1.000000
   93        6.683690   1.000000
   94        6.710177   1.000000
   95        6.750038   1.000000
   96        6.763302   1.000000
   97        6.819577   1.000000
   98        6.845987   1.000000
   99        6.862200   1.000000
  100        6.894070   1.000000
  101        6.931451   1.000000
  102        6.981896   1.000000
  103        6.999347   1.000000
  104        7.033148   1.000000
  105        7.055506   1.000000
  106        7.103274   1.000000
  107        7.121358   1.000000
  108        7.147473   1.000000
  109        7.238118   1.000000
  110        7.289099   1.000000
  111        7.301470   1.000000
  112        7.354576   1.000000
  113        7.403115   1.000000
  114        7.444781   1.000000
  115        7.513951   1.000000
  116        7.602201   1.000000
  117        7.664410   1.000000
  118        7.746952   1.000000
  119        7.799979   1.000000
  120        7.865176   1.000000
  121        7.953158   1.000000
  122        7.988544   1.000000
  123        8.015303   1.000000
  124        8.045777   1.000000
  125        8.063806   1.000000
  126        8.104148   1.000000
  127        8.156470   1.000000
  128        8.243683   1.000000
  129        8.278397   1.000000
  130        8.327096   1.000000
  131        8.376090   1.000000
  132        8.427577   1.000000
  133        8.463208   1.000000
  134        8.505815   1.000000
  135        8.530725   1.000000
  136        8.554021   1.000000
  137        8.572113   1.000000
  138        8.580881   1.000000
  139        8.627895   1.000000
  140        8.655855   1.000000
  141        8.709647   1.000000
  142        8.765970   1.000000
  143        8.782599   1.000000
  144        8.831756   1.000000
  145        8.841725   1.000000
  146        8.914725   1.000000
  147        8.946126   1.000000
  148        9.003199   1.000000
  149        9.036713   1.000000
  150        9.082271   1.000000
  151        9.128239   1.000000
  152        9.158336   1.000000
  153        9.192630   1.000001
  154        9.247745   1.000007
  155        9.276963   1.000023
  156        9.322146   1.000132
  157        9.361165   1.000508
  158        9.394755   1.001427
  159        9.436607   1.004385
  160        9.458913   1.007370
  161        9.488392   1.013364
  162        9.523408   1.023300
  163        9.565961   1.034435
  164        9.624474   1.014894
  165        9.676301   0.908792
  166        9.691999   0.853756
  167        9.753725   0.550252
  168        9.797940   0.306877
  169        9.915249  -0.026834
  170        9.959683  -0.034384
  171        9.972033  -0.031921
  172       10.010968  -0.020526
  173       10.046622  -0.011117
  174       10.072886  -0.006373
  175       11.168648  -0.000000
  176       11.367073  -0.000000
  177       11.521660  -0.000000
  178       11.712852  -0.000000
  179       12.197571  -0.000000
  180       12.221375  -0.000000
  181       12.512139  -0.000000
  182       12.565285  -0.000000
  183       12.605035  -0.000000
  184       12.632875  -0.000000
  185       13.100754  -0.000000
  186       13.244029  -0.000000
  187       13.612886  -0.000000
  188       14.020687   0.000000
  189       14.366146   0.000000
  190       14.474067   0.000000
  191       14.639398   0.000000
  192       14.783661   0.000000
  193       15.151138   0.000000
  194       15.235196   0.000000
  195       15.259104   0.000000
  196       15.304543   0.000000
  197       15.889071   0.000000
  198       15.932255   0.000000
  199       15.969196   0.000000
  200       16.033822   0.000000
 
 -0.3333333E+00  0.3333333E+00 -0.1084202E-18  0.7407407E-01
    1        0.933779   1.000000
    2        1.825688   1.000000
    3        1.862693   1.000000
    4        2.636259   1.000000
    5        3.099933   1.000000
    6        3.132418   1.000000
    7        3.160120   1.000000
    8        3.218129   1.000000
    9        3.346290   1.000000
   10        3.353428   1.000000
   11        3.417502   1.000000
   12        3.461517   1.000000
   13        3.502922   1.000000
   14        3.544979   1.000000
   15        3.555855   1.000000
   16        3.613794   1.000000
   17        3.640933   1.000000
   18        3.723915   1.000000
   19        3.749471   1.000000
   20        3.921720   1.000000
   21        3.951243   1.000000
   22        3.986538   1.000000
   23        4.035472   1.000000
   24        4.042806   1.000000
   25        4.072263   1.000000
   26        4.114557   1.000000
   27        4.165783   1.000000
   28        4.178293   1.000000
   29        4.211815   1.000000
   30        4.238203   1.000000
   31        4.284205   1.000000
   32        4.351383   1.000000
   33        4.380149   1.000000
   34        4.391080   1.000000
   35        4.413863   1.000000
   36        4.494162   1.000000
   37        4.545038   1.000000
   38        4.586042   1.000000
   39        4.616081   1.000000
   40        4.689447   1.000000
   41        4.715486   1.000000
   42        4.750412   1.000000
   43        4.790479   1.000000
   44        4.805702   1.000000
   45        4.860678   1.000000
   46        4.900008   1.000000
   47        5.020088   1.000000
   48        5.105361   1.000000
   49        5.114354   1.000000
   50        5.170122   1.000000
   51        5.192533   1.000000
   52        5.264519   1.000000
   53        5.321104   1.000000
   54        5.392643   1.000000
   55        5.429705   1.000000
   56        5.482591   1.000000
   57        5.524449   1.000000
   58        5.555955   1.000000
   59        5.575462   1.000000
   60        5.610154   1.000000
   61        5.667845   1.000000
   62        5.703874   1.000000
   63        5.735117   1.000000
   64        5.754789   1.000000
   65        5.775168   1.000000
   66        5.811605   1.000000
   67        5.821385   1.000000
   68        5.863613   1.000000
   69        5.905919   1.000000
   70        5.959451   1.000000
   71        5.976885   1.000000
   72        5.991182   1.000000
   73        6.024566   1.000000
   74        6.064786   1.000000
   75        6.108682   1.000000
   76        6.120597   1.000000
   77        6.172089   1.000000
   78        6.201978   1.000000
   79        6.225339   1.000000
   80        6.255758   1.000000
   81        6.306743   1.000000
   82        6.342460   1.000000
   83        6.374478   1.000000
   84        6.384771   1.000000
   85        6.407630   1.000000
   86        6.449874   1.000000
   87        6.480427   1.000000
   88        6.525516   1.000000
   89        6.579414   1.000000
   90        6.603629   1.000000
   91        6.625668   1.000000
   92        6.659606   1.000000
   93        6.671322   1.000000