 vasp.5.4.1 05Feb16 (build Jan 29 2020 16:04:39) complex                        
  
 executed on           IFC91_ompi date 2020.03.01  05:45:10
 running on  160 total cores
 distrk:  each k-point on   20 cores,    8 groups
 distr:  one band on NCORES_PER_BAND=   5 cores,    4 groups


--------------------------------------------------------------------------------------------------------


 INCAR:
 POTCAR:    PAW_PBE Pt 04Feb2005                  
 POTCAR:    PAW_PBE Au 04Oct2007                  

 ----------------------------------------------------------------------------- 
|                                                                             |
|           W    W    AA    RRRRR   N    N  II  N    N   GGGG   !!!           |
|           W    W   A  A   R    R  NN   N  II  NN   N  G    G  !!!           |
|           W    W  A    A  R    R  N N  N  II  N N  N  G       !!!           |
|           W WW W  AAAAAA  RRRRR   N  N N  II  N  N N  G  GGG   !            |
|           WW  WW  A    A  R   R   N   NN  II  N   NN  G    G                |
|           W    W  A    A  R    R  N    N  II  N    N   GGGG   !!!           |
|                                                                             |
|      For optimal performance we recommend to set                            |
|        NCORE= 4 - approx SQRT( number of cores)                             |
|      NCORE specifies how many cores store one orbital (NPAR=cpu/NCORE).     |
|      This setting can  greatly improve the performance of VASP for DFT.     |
|      The default, NPAR=number of cores might be grossly inefficient         |
|      on modern multi-core architectures or massively parallel machines.     |
|      Do your own testing !!!!                                               |
|      Unfortunately you need to use the default for GW and RPA calculations. |
|      (for HF NCORE is supported but not extensively tested yet)             |
|                                                                             |
 ----------------------------------------------------------------------------- 


 ----------------------------------------------------------------------------- 
|                                                                             |
|           W    W    AA    RRRRR   N    N  II  N    N   GGGG   !!!           |
|           W    W   A  A   R    R  NN   N  II  NN   N  G    G  !!!           |
|           W    W  A    A  R    R  N N  N  II  N N  N  G       !!!           |
|           W WW W  AAAAAA  RRRRR   N  N N  II  N  N N  G  GGG   !            |
|           WW  WW  A    A  R   R   N   NN  II  N   NN  G    G                |
|           W    W  A    A  R    R  N    N  II  N    N   GGGG   !!!           |
|                                                                             |
|      You have enabled k-point parallelism (KPAR>1).                         |
|      This developmental code was originally  written by Paul Kent at ORNL,  |
|      and carefully double checked in Vienna.                                |
|      GW as well as linear response parallelism added by Martijn Marsman     |
|      and Georg Kresse.                                                      |
|      Carefully verify results versus KPAR=1.                                |
|      Report problems to Paul Kent and Vienna.                               |
|                                                                             |
 ----------------------------------------------------------------------------- 

 POTCAR:    PAW_PBE Pt 04Feb2005                  
   VRHFIN =Pt: s1d9                                                             
   LEXCH  = PE                                                                  
   EATOM  =   729.1176 eV,   53.5886 Ry                                         
                                                                                
   TITEL  = PAW_PBE Pt 04Feb2005                                                
   LULTRA =        F    use ultrasoft PP ?                                      
   IUNSCR =        1    unscreen: 0-lin 1-nonlin 2-no                           
   RPACOR =    2.330    partial core radius                                     
   POMASS =  195.080; ZVAL   =   10.000    mass and valenz                      
   RCORE  =    2.600    outmost cutoff radius                                   
   RWIGS  =    2.750; RWIGS  =    1.455    wigner-seitz radius (au A)           
   ENMAX  =  230.283; ENMIN  =  172.712 eV                                      
   ICORE  =        3    local potential                                         
   LCOR   =        T    correct aug charges                                     
   LPAW   =        T    paw PP                                                  
   EAUG   =  358.966                                                            
   DEXC   =    0.000                                                            
   RMAX   =    2.658    core radius for proj-oper                               
   RAUG   =    1.300    factor for augmentation sphere                          
   RDEP   =    2.761    radius for radial grids                                 
   RDEPT  =    2.203    core radius for aug-charge                              
                                                                                
   Atomic configuration                                                         
   16 entries                                                                   
     n  l   j            E        occ.                                          
     1  0  0.50    -78401.1885   2.0000                                         
     2  0  0.50    -13770.7750   2.0000                                         
     2  1  1.50    -11931.0468   6.0000                                         
     3  0  0.50     -3234.7234   2.0000                                         
     3  1  1.50     -2699.2216   6.0000                                         
     3  2  2.50     -2119.5714  10.0000                                         
     4  0  0.50      -695.1528   2.0000                                         
     4  1  1.50      -519.6034   6.0000                                         
     4  2  2.50      -306.6786  10.0000                                         
     4  3  3.50       -70.1041  14.0000                                         
     5  0  0.50      -101.7747   2.0000                                         
     5  1  1.50       -55.9873   6.0000                                         
     5  2  2.50        -6.1423   9.0000                                         
     6  0  0.50        -5.6573   1.0000                                         
     6  1  1.50        -6.8029   0.0000                                         
     5  3  2.50        -1.3606   0.0000                                         
   Description                                                                  
     l       E           TYP  RCUT    TYP  RCUT                                 
     2     -6.1423404     23  2.500                                             
     2     -7.5029230     23  2.500                                             
     0     -5.6573207     23  2.500                                             
     0      0.7416693     23  2.500                                             
     1     -2.7211652     23  2.600                                             
     1     20.4087390     23  2.600                                             
     3     -1.3605826     23  2.500                                             
  local pseudopotential read in
  partial core-charges read in
  partial kinetic energy density read in
  atomic valenz-charges read in
  non local Contribution for L=           2  read in
    real space projection operators read in
  non local Contribution for L=           2  read in
    real space projection operators read in
  non local Contribution for L=           0  read in
    real space projection operators read in
  non local Contribution for L=           0  read in
    real space projection operators read in
  non local Contribution for L=           1  read in
    real space projection operators read in
  non local Contribution for L=           1  read in
    real space projection operators read in
    PAW grid and wavefunctions read in
 
   number of l-projection  operators is LMAX  =           6
   number of lm-projection operators is LMMAX =          18
 
 POTCAR:    PAW_PBE Au 04Oct2007                  
   VRHFIN =Au: s1d10                                                            
   LEXCH  = PE                                                                  
   EATOM  =   926.0867 eV,   68.0654 Ry                                         
                                                                                
   TITEL  = PAW_PBE Au 04Oct2007                                                
   LULTRA =        F    use ultrasoft PP ?                                      
   IUNSCR =        1    unscreen: 0-lin 1-nonlin 2-no                           
   RPACOR =    2.330    partial core radius                                     
   POMASS =  196.966; ZVAL   =   11.000    mass and valenz                      
   RCORE  =    2.500    outmost cutoff radius                                   
   RWIGS  =    2.840; RWIGS  =    1.503    wigner-seitz radius (au A)           
   ENMAX  =  229.943; ENMIN  =  172.457 eV                                      
   ICORE  =        3    local potential                                         
   LCOR   =        T    correct aug charges                                     
   LPAW   =        T    paw PP                                                  
   EAUG   =  356.670                                                            
   DEXC   =    0.000                                                            
   RMAX   =    2.562    core radius for proj-oper                               
   RAUG   =    1.300    factor for augmentation sphere                          
   RDEP   =    2.598    radius for radial grids                                 
   RDEPT  =    2.193    core radius for aug-charge                              
                                                                                
   Atomic configuration                                                         
   16 entries                                                                   
     n  l   j            E        occ.                                          
     1  0  0.50    -80748.5001   2.0000                                         
     2  0  0.50    -14244.7466   2.0000                                         
     2  1  1.50    -12310.9591   6.0000                                         
     3  0  0.50     -3362.1768   2.0000                                         
     3  1  1.50     -2801.5463   6.0000                                         
     3  2  2.50     -2203.8206  10.0000                                         
     4  0  0.50      -729.8168   2.0000                                         
     4  1  1.50      -546.0527   6.0000                                         
     4  2  2.50      -325.7302  10.0000                                         
     4  3  3.50       -81.1472  14.0000                                         
     5  0  0.50      -108.3201   2.0000                                         
     5  1  1.50       -59.7479   6.0000                                         
     5  2  2.50        -6.8783  10.0000                                         
     6  0  0.50        -5.7602   1.0000                                         
     6  1  1.50        -6.8029   0.0000                                         
     5  3  2.50        -1.3606   0.0000                                         
   Description                                                                  
     l       E           TYP  RCUT    TYP  RCUT                                 
     2     -6.8782861     23  2.500                                             
     2     -8.2388687     23  2.500                                             
     0     -5.7601759     23  2.500                                             
     0     -0.8493231     23  2.500                                             
     1     -2.7211652     23  2.500                                             
     1     27.2116520     23  2.500                                             
     3     -1.3605826     23  2.500                                             
  local pseudopotential read in
  partial core-charges read in
  partial kinetic energy density read in
  atomic valenz-charges read in
  non local Contribution for L=           2  read in
    real space projection operators read in
  non local Contribution for L=           2  read in
    real space projection operators read in
  non local Contribution for L=           0  read in
    real space projection operators read in
  non local Contribution for L=           0  read in
    real space projection operators read in
  non local Contribution for L=           1  read in
    real space projection operators read in
  non local Contribution for L=           1  read in
    real space projection operators read in
    PAW grid and wavefunctions read in
 
   number of l-projection  operators is LMAX  =           6
   number of lm-projection operators is LMMAX =          18
 
 Optimization of the real space projectors (new method)

 maximal supplied QI-value         = 14.36
 optimisation between [QCUT,QGAM] = [  8.76, 17.67] = [ 21.49, 87.39] Ry 
 Optimized for a Real-space Cutoff    1.74 Angstroem

   l    n(q)    QCUT    max X(q) W(low)/X(q) W(high)/X(q)  e(spline) 
   2      8     8.761    66.195    0.23E-03    0.27E-03    0.23E-06
   2      8     8.761    64.643    0.23E-03    0.28E-03    0.23E-06
   0      9     8.761    95.520    0.88E-04    0.75E-04    0.11E-06
   0      9     8.761    63.403    0.85E-04    0.73E-04    0.10E-06
   1      9     8.761    19.961    0.51E-04    0.44E-04    0.11E-06
   1      9     8.761    13.289    0.41E-04    0.39E-04    0.91E-07
 Optimization of the real space projectors (new method)

 maximal supplied QI-value         = 15.12
 optimisation between [QCUT,QGAM] = [  8.77, 17.69] = [ 21.53, 87.61] Ry 
 Optimized for a Real-space Cutoff    1.59 Angstroem

   l    n(q)    QCUT    max X(q) W(low)/X(q) W(high)/X(q)  e(spline) 
   2      7     8.768    60.898    0.15E-03    0.45E-03    0.12E-06
   2      7     8.768    58.894    0.16E-03    0.46E-03    0.13E-06
   0      8     8.768   109.617    0.91E-04    0.16E-03    0.56E-07
   0      8     8.768    75.026    0.88E-04    0.16E-03    0.54E-07
   1      8     8.768    16.344    0.19E-03    0.33E-04    0.82E-07
   1      8     8.768    10.160    0.16E-03    0.16E-04    0.64E-07
  PAW_PBE Pt 04Feb2005                  :
 energy of atom  1       EATOM= -729.1176
 kinetic energy error for atom=    0.0416 (will be added to EATOM!!)
  PAW_PBE Au 04Oct2007                  :
 energy of atom  2       EATOM= -926.0867
 kinetic energy error for atom=    0.0454 (will be added to EATOM!!)
 
 
 POSCAR: AuPt                                    
  positions in direct lattice
  No initial velocities read in
 exchange correlation table for  LEXCH =        8
   RHO(1)=    0.500       N(1)  =     2000
   RHO(2)=  100.500       N(2)  =     4000
 


--------------------------------------------------------------------------------------------------------


 ion  position               nearest neighbor table
   1  0.998  0.749  0.749-  26 2.86  32 2.87   2 2.88  21 2.89  30 2.89  17 2.90  11 2.91  25 2.91
                             7 2.91  27 2.91  22 2.92  31 2.93
   2  0.000  0.499  0.499-   6 2.84  10 2.84  26 2.87   9 2.87  19 2.87   5 2.87  22 2.88  21 2.88
                             1 2.88   8 2.89  23 2.91  30 2.93
   3  0.248  0.254  0.002-   9 2.80  31 2.82   5 2.84  23 2.84  15 2.85  29 2.85  12 2.85  11 2.86
                            21 2.87  13 2.88  27 2.91  16 2.93
   4  0.497  0.744  0.249-  22 2.82   5 2.83  17 2.84  15 2.85  24 2.87   8 2.87  32 2.88  26 2.89
                            16 2.89  13 2.93  14 2.93  20 2.94
   5  0.249  0.500  0.247-   9 2.81  19 2.82   4 2.83   3 2.84  31 2.84  22 2.86  17 2.86  15 2.86
                            29 2.86   2 2.87  24 2.89   6 2.91
   6  0.246  0.251  0.499-   9 2.84   2 2.84  25 2.85  27 2.87  29 2.88  21 2.88  24 2.88  16 2.88
                            14 2.88  23 2.89   5 2.91  12 2.93
   7  0.749  0.008  0.752-  28 2.84  12 2.84  23 2.85  13 2.87  11 2.87  10 2.88  14 2.89  25 2.90
                            18 2.91   1 2.91  32 2.94  26 2.96
   8  0.753  0.500  0.243-  31 2.79  15 2.83  28 2.83  19 2.85  32 2.85   9 2.86   4 2.87   2 2.89
                            29 2.90  26 2.90  24 2.92  10 2.93
   9  0.006  0.254  0.246-   3 2.80   5 2.81  31 2.81   6 2.84  16 2.86   8 2.86   2 2.87  28 2.87
                            11 2.87  20 2.92  10 2.92  25 2.93
  10  0.752  0.253  0.501-   2 2.84  24 2.86  25 2.87   7 2.88  30 2.88  23 2.88  14 2.90  29 2.91
                            12 2.91  20 2.91   9 2.92   8 2.93
  11  0.001  0.002  0.001-  20 2.85  16 2.85   3 2.86   7 2.87   9 2.87  28 2.87  23 2.88  27 2.88
                            17 2.89  32 2.90   1 2.91  19 2.93
  12  0.500  0.253  0.756-  30 2.82  15 2.82  21 2.84  28 2.84   7 2.84   3 2.85  27 2.87  13 2.88
                            10 2.91  24 2.91   6 2.93  14 2.94
  13  0.499  0.002  0.001-  29 2.86   7 2.87  12 2.88  20 2.88   3 2.88  16 2.88  27 2.88  17 2.89
                            32 2.90  28 2.90  18 2.92   4 2.93
  14  0.498  0.001  0.500-  27 2.85  16 2.86  22 2.87   6 2.88   7 2.89  20 2.90  26 2.90  10 2.90
                            29 2.90  18 2.91   4 2.93  12 2.94
  15  0.502  0.496  0.002-  12 2.82  30 2.82   8 2.83  28 2.84  29 2.85   3 2.85   4 2.85   5 2.86
                            32 2.88  17 2.89  21 2.89  18 2.93
  16  0.247  0.998  0.252-  22 2.83  25 2.83  11 2.85  19 2.86   9 2.86  14 2.86   6 2.88  13 2.88
                            29 2.89   4 2.89  17 2.90   3 2.93
  17  0.250  0.747  0.001-   4 2.84  19 2.84   5 2.86  21 2.88  15 2.89  18 2.89  31 2.89  13 2.89
                            11 2.89   1 2.90  16 2.90  27 2.95
  18  0.502  0.749  0.749-  26 2.86  32 2.87  21 2.89  24 2.89  17 2.89  30 2.89  14 2.91   7 2.91
                            27 2.91  13 2.92  22 2.92  15 2.93
  19  0.003  0.745  0.249-  22 2.81   5 2.82  17 2.84   8 2.85  16 2.86  31 2.86   2 2.87  32 2.88
                            26 2.89  20 2.91  25 2.92  11 2.93
  20  0.752  1.000  0.249-  11 2.85  25 2.86  13 2.88  32 2.88  14 2.90  19 2.91  26 2.91  29 2.91
                            10 2.91  28 2.92   9 2.92   4 2.94
  21  0.250  0.498  0.750-  12 2.84  23 2.85   3 2.87  24 2.88   6 2.88   2 2.88  17 2.88  15 2.89
                            18 2.89   1 2.89  31 2.89  22 2.95
  22  0.250  0.750  0.492-  19 2.81   4 2.82  16 2.83   5 2.86  14 2.87   2 2.88  24 2.88  25 2.88
                            18 2.92   1 2.92  27 2.94  21 2.95
  23  1.000  0.253  0.755-  28 2.82  30 2.82  31 2.82   3 2.84  21 2.85   7 2.85  27 2.87  11 2.88
                            10 2.88   6 2.89   2 2.91  25 2.93
  24  0.500  0.498  0.499-  10 2.86  29 2.87  26 2.87   4 2.87  21 2.88   6 2.88  22 2.88   5 2.89
                            18 2.89  12 2.91   8 2.92  30 2.93
  25  0.000  0.001  0.499-  16 2.83   6 2.85  27 2.86  20 2.86  10 2.87  22 2.88   7 2.90  26 2.90
                             1 2.91  19 2.92  23 2.93   9 2.93
  26  0.750  0.748  0.499-  18 2.86   1 2.86   2 2.87  24 2.87   4 2.89  19 2.89  14 2.90  25 2.90
                             8 2.90  20 2.91   7 2.96  30 2.98
  27  0.250  0.004  0.748-  14 2.85  25 2.86  12 2.87  23 2.87   6 2.87  11 2.88  13 2.88   3 2.91
                            18 2.91   1 2.91  22 2.94  17 2.95
  28  0.753  0.253  0.999-  30 2.79  31 2.81  23 2.82   8 2.83  15 2.84   7 2.84  12 2.84   9 2.87
                            11 2.87  29 2.90  13 2.90  20 2.92
  29  0.498  0.251  0.249-  15 2.85   3 2.85   5 2.86  13 2.86  24 2.87   6 2.88  16 2.89   8 2.90
                            28 2.90  14 2.90  10 2.91  20 2.91
  30  0.749  0.494  0.759-  28 2.79  12 2.82  23 2.82  15 2.82  31 2.83  32 2.87  10 2.88  18 2.89
                             1 2.89  24 2.93   2 2.93  26 2.98
  31  0.999  0.496  0.002-   8 2.79  28 2.81   9 2.81   3 2.82  23 2.82  30 2.83   5 2.84  19 2.86
                            32 2.89  21 2.89  17 2.89   1 2.93
  32  0.750  0.749  0.001-   8 2.85   1 2.87  18 2.87  30 2.87   4 2.88  20 2.88  19 2.88  15 2.88
                            31 2.89  13 2.90  11 2.90   7 2.94
 
  LATTYP: Found a triclinic cell.
 ALAT       =     8.1846205273
 B/A-ratio  =     0.9981394190
 C/A-ratio  =     0.9855469938
 COS(alpha) =     0.0000210300
 COS(beta)  =     0.0003877296
 COS(gamma) =     0.0046789651
  
  Lattice vectors:
  
 A1 = (  -0.0015660000,  -8.1845980000,   0.0191390000)
 A2 = (  -0.0000850000,  -0.0191210000,   8.1693700000)
 A3 = (  -8.0663280000,  -0.0015840000,   0.0000820000)


Analysis of symmetry for initial positions (statically):
=====================================================================
 Subroutine PRICEL returns:
 Original cell was already a primitive cell.
 

 Routine SETGRP: Setting up the symmetry group for a 
 triclinic supercell.


 Subroutine GETGRP returns: Found  1 space group operations
 (whereof  1 operations were pure point group operations)
 out of a pool of  2 trial point group operations.


The static configuration has the point symmetry C_1 .


Analysis of symmetry for dynamics (positions and initial velocities):
=====================================================================
 Subroutine PRICEL returns:
 Original cell was already a primitive cell.
 

 Routine SETGRP: Setting up the symmetry group for a 
 triclinic supercell.


 Subroutine GETGRP returns: Found  1 space group operations
 (whereof  1 operations were pure point group operations)
 out of a pool of  2 trial point group operations.


The dynamic configuration has the point symmetry C_1 .


 Subroutine INISYM returns: Found  1 space group operations
 (whereof  1 operations are pure point group operations),
 and found     1 'primitive' translations

 
 
 KPOINTS: k-points                                

Automatic generation of k-mesh.
Space group operators:
 irot       det(A)        alpha          n_x          n_y          n_z        tau_x        tau_y        tau_z
    1     1.000000     0.000001     1.000000     0.000000     0.000000     0.000000     0.000000     0.000000
 
 Subroutine IBZKPT returns following result:
 ===========================================
 
 Found     14 irreducible k-points:
 
 Following reciprocal coordinates:
            Coordinates               Weight
  0.000000  0.000000  0.000000      1.000000
  0.333333  0.000000 -0.000000      2.000000
 -0.000000  0.333333 -0.000000      2.000000
  0.333333  0.333333 -0.000000      2.000000
 -0.333333  0.333333 -0.000000      2.000000
  0.000000  0.000000  0.333333      2.000000
  0.333333 -0.000000  0.333333      2.000000
 -0.333333  0.000000  0.333333      2.000000
 -0.000000  0.333333  0.333333      2.000000
  0.333333  0.333333  0.333333      2.000000
 -0.333333  0.333333  0.333333      2.000000
  0.000000 -0.333333  0.333333      2.000000
  0.333333 -0.333333  0.333333      2.000000
 -0.333333 -0.333333  0.333333      2.000000
 
 Following cartesian coordinates:
            Coordinates               Weight
  0.000000  0.000000  0.000000      1.000000
  0.041324 -0.000008  0.000000      2.000000
 -0.000008  0.040727  0.000095      2.000000
  0.041316  0.040719  0.000096      2.000000
 -0.041332  0.040735  0.000095      2.000000
  0.000000  0.000095  0.040803      2.000000
  0.041324  0.000088  0.040803      2.000000
 -0.041324  0.000103  0.040803      2.000000
 -0.000008  0.040823  0.040898      2.000000
  0.041316  0.040815  0.040899      2.000000
 -0.041332  0.040830  0.040898      2.000000
  0.000008 -0.040632  0.040708      2.000000
  0.041332 -0.040640  0.040708      2.000000
 -0.041316 -0.040624  0.040707      2.000000
 


--------------------------------------------------------------------------------------------------------




 Dimension of arrays:
   k-points           NKPTS =     14   k-points in BZ     NKDIM =     14   number of bands    NBANDS=    200
   number of dos      NEDOS =    301   number of ions     NIONS =     32
   non local maximal  LDIM  =      6   non local SUM 2l+1 LMDIM =     18
   total plane-waves  NPLWV = 110592
   max r-space proj   IRMAX =   4589   max aug-charges    IRDMAX=  12738
   dimension x,y,z NGX =    48 NGY =   48 NGZ =   48
   dimension x,y,z NGXF=    96 NGYF=   96 NGZF=   96
   support grid    NGXF=    96 NGYF=   96 NGZF=   96
   ions per type =              21  11
 NGX,Y,Z   is equivalent  to a cutoff of   9.89,  9.75,  9.77 a.u.
 NGXF,Y,Z  is equivalent  to a cutoff of  19.79, 19.50, 19.54 a.u.


 I would recommend the setting:
   dimension x,y,z NGX =    46 NGY =   46 NGZ =   46
 SYSTEM =  automatically generated by mexm         
 POSCAR =  AuPt                                    

 Startparameter for this run:
   NWRITE =      2    write-flag & timer
   PREC   = accura    normal or accurate (medium, high low for compatibility)
   ISTART =      0    job   : 0-new  1-cont  2-samecut
   ICHARG =      2    charge: 1-file 2-atom 10-const
   ISPIN  =      1    spin polarized calculation?
   LNONCOLLINEAR =      F non collinear calculations
   LSORBIT =      F    spin-orbit coupling
   INIWAV =      1    electr: 0-lowe 1-rand  2-diag
   LASPH  =      F    aspherical Exc in radial PAW
   METAGGA=      F    non-selfconsistent MetaGGA calc.

 Electronic Relaxation 1
   ENCUT  =  300.0 eV  22.05 Ry    4.70 a.u.  11.39 11.56 11.54*2*pi/ulx,y,z
   ENINI  =  300.0     initial cutoff
   ENAUG  =  359.0 eV  augmentation charge cutoff
   NELM   =     70;   NELMIN=  2; NELMDL= -5     # of ELM steps 
   EDIFF  = 0.1E-04   stopping-criterion for ELM
   LREAL  =      T    real-space projection
   NLSPLINE    = F    spline interpolate recip. space projectors
   LCOMPAT=      F    compatible to vasp.4.4
   GGA_COMPAT  = T    GGA compatible to vasp.4.4-vasp.4.6
   LMAXPAW     = -100 max onsite density
   LMAXMIX     =    2 max onsite mixed and CHGCAR
   VOSKOWN=      0    Vosko Wilk Nusair interpolation
   ROPT   =   -0.00025  -0.00025
 Ionic relaxation
   EDIFFG = -.1E-01   stopping-criterion for IOM
   NSW    =    300    number of steps for IOM
   NBLOCK =      1;   KBLOCK =    300    inner block; outer block 
   IBRION =      2    ionic relax: 0-MD 1-quasi-New 2-CG
   NFREE  =      1    steps in history (QN), initial steepest desc. (CG)
   ISIF   =      3    stress and relaxation
   IWAVPR =     11    prediction:  0-non 1-charg 2-wave 3-comb
   ISYM   =      1    0-nonsym 1-usesym 2-fastsym
   LCORR  =      T    Harris-Foulkes like correction to forces

   POTIM  = 0.1500    time-step for ionic-motion
   TEIN   =    0.0    initial temperature
   TEBEG  =    0.0;   TEEND  =   0.0 temperature during run
   SMASS  =  -3.00    Nose mass-parameter (am)
   estimated Nose-frequenzy (Omega)   =  0.10E-29 period in steps =****** mass=  -0.149E-26a.u.
   SCALEE = 1.0000    scale energy and forces
   NPACO  =    256;   APACO  = 16.0  distance and # of slots for P.C.
   PSTRESS=    0.0 pullay stress

  Mass of Ions in am
   POMASS = 195.08196.97
  Ionic Valenz
   ZVAL   =  10.00 11.00
  Atomic Wigner-Seitz radii
   RWIGS  =  -1.00 -1.00
  virtual crystal weights 
   VCA    =   1.00  1.00
   NELECT =     331.0000    total number of electrons
   NUPDOWN=      -1.0000    fix difference up-down

 DOS related values:
   EMIN   =  10.00;   EMAX   =-10.00  energy-range for DOS
   EFERMI =   0.00
   ISMEAR =     1;   SIGMA  =   0.15  broadening in eV -4-tet -1-fermi 0-gaus

 Electronic relaxation 2 (details)
   IALGO  =     68    algorithm
   LDIAG  =      T    sub-space diagonalisation (order eigenvalues)
   LSUBROT=      F    optimize rotation matrix (better conditioning)
   TURBO    =      0    0=normal 1=particle mesh
   IRESTART =      0    0=no restart 2=restart with 2 vectors
   NREBOOT  =      0    no. of reboots
   NMIN     =      0    reboot dimension
   EREF     =   0.00    reference energy to select bands
   IMIX   =      4    mixing-type and parameters
     AMIX     =   0.40;   BMIX     =  1.00
     AMIX_MAG =   1.60;   BMIX_MAG =  1.00
     AMIN     =   0.10
     WC   =   100.;   INIMIX=   1;  MIXPRE=   1;  MAXMIX= -45

 Intra band minimization:
   WEIMIN = 0.0010     energy-eigenvalue tresh-hold
   EBREAK =  0.13E-07  absolut break condition
   DEPER  =   0.30     relativ break condition  

   TIME   =   0.40     timestep for ELM

  volume/ion in A,a.u.               =      16.85       113.74
  Fermi-wavevector in a.u.,A,eV,Ry     =   1.391226  2.629036 26.334210  1.935510
  Thomas-Fermi vector in A             =   2.515085
 
 Write flags
   LWAVE  =      F    write WAVECAR
   LCHARG =      F    write CHGCAR
   LVTOT  =      F    write LOCPOT, total local potential
   LVHAR  =      F    write LOCPOT, Hartree potential only
   LELF   =      F    write electronic localiz. function (ELF)
   LORBIT =      0    0 simple, 1 ext, 2 COOP (PROOUT)


 Dipole corrections
   LMONO  =      F    monopole corrections only (constant potential shift)
   LDIPOL =      F    correct potential (dipole corrections)
   IDIPOL =      0    1-x, 2-y, 3-z, 4-all directions 
   EPSILON=  1.0000000 bulk dielectric constant

 Exchange correlation treatment:
   GGA     =    --    GGA type
   LEXCH   =     8    internal setting for exchange type
   VOSKOWN=      0    Vosko Wilk Nusair interpolation
   LHFCALC =     F    Hartree Fock is set to
   LHFONE  =     F    Hartree Fock one center treatment
   AEXX    =    0.0000 exact exchange contribution

 Linear response parameters
   LEPSILON=     F    determine dielectric tensor
   LRPA    =     F    only Hartree local field effects (RPA)
   LNABLA  =     F    use nabla operator in PAW spheres
   LVEL    =     F    velocity operator in full k-point grid
   LINTERFAST=   F  fast interpolation
   KINTER  =     0    interpolate to denser k-point grid
   CSHIFT  =0.1000    complex shift for real part using Kramers Kronig
   OMEGAMAX=  -1.0    maximum frequency
   DEG_THRESHOLD= 0.2000000E-02 threshold for treating states as degnerate
   RTIME   =    0.100 relaxation time in fs

 Orbital magnetization related:
   ORBITALMAG=     F  switch on orbital magnetization
   LCHIMAG   =     F  perturbation theory with respect to B field
   DQ        =  0.001000  dq finite difference perturbation B field



--------------------------------------------------------------------------------------------------------


 conjugate gradient relaxation of ions
 charge density and potential will be updated during run
 non-spin polarized calculation
 RMM-DIIS sequential band-by-band and
  variant of blocked Davidson during initial phase
 perform sub-space diagonalisation
    before iterative eigenvector-optimisation
 modified Broyden-mixing scheme, WC =      100.0
 initial mixing is a Kerker type mixing with AMIX =  0.4000 and BMIX =      1.0000
 Hartree-type preconditioning will be used
 using additional bands           34
 real space projection scheme for non local part
 use partial core corrections
 calculate Harris-corrections to forces 
   (improved forces if not selfconsistent)
 use gradient corrections 
 use of overlap-Matrix (Vanderbilt PP)
 Methfessel and Paxton  Order N= 1 SIGMA  =   0.15


--------------------------------------------------------------------------------------------------------


  energy-cutoff  :      300.00
  volume of cell :      539.34
      direct lattice vectors                 reciprocal lattice vectors
     8.066328000  0.001584000 -0.000082000     0.123972152 -0.000023717  0.000001234
     0.001566000  8.184598000 -0.019139000    -0.000023990  0.122181384  0.000285974
    -0.000085000 -0.019121000  8.169370000     0.000001188  0.000286243  0.122409130

  length of vectors
     8.066328156  8.184620527  8.169392377     0.123972154  0.122181721  0.122409465


 
 k-points in units of 2pi/SCALE and weight: k-points                                
   0.00000000  0.00000000  0.00000000       0.037
   0.04132405 -0.00000791  0.00000041       0.074
  -0.00000800  0.04072713  0.00009532       0.074
   0.04131605  0.04071922  0.00009574       0.074
  -0.04133205  0.04073503  0.00009491       0.074
   0.00000040  0.00009541  0.04080304       0.074
   0.04132445  0.00008751  0.04080345       0.074
  -0.04132365  0.00010332  0.04080263       0.074
  -0.00000760  0.04082254  0.04089837       0.074
   0.04131645  0.04081464  0.04089878       0.074
  -0.04133165  0.04083045  0.04089796       0.074
   0.00000839 -0.04063171  0.04070772       0.074
   0.04133244 -0.04063962  0.04070813       0.074
  -0.04131566 -0.04062381  0.04070731       0.074
 
 k-points in reciprocal lattice and weights: k-points                                
   0.00000000  0.00000000  0.00000000       0.037
   0.33333333  0.00000000 -0.00000000       0.074
  -0.00000000  0.33333333 -0.00000000       0.074
   0.33333333  0.33333333 -0.00000000       0.074
  -0.33333333  0.33333333 -0.00000000       0.074
   0.00000000  0.00000000  0.33333333       0.074
   0.33333333 -0.00000000  0.33333333       0.074
  -0.33333333  0.00000000  0.33333333       0.074
  -0.00000000  0.33333333  0.33333333       0.074
   0.33333333  0.33333333  0.33333333       0.074
  -0.33333333  0.33333333  0.33333333       0.074
   0.00000000 -0.33333333  0.33333333       0.074
   0.33333333 -0.33333333  0.33333333       0.074
  -0.33333333 -0.33333333  0.33333333       0.074
 
 position of ions in fractional coordinates (direct lattice) 
   0.99761000  0.74877300  0.74931800
   0.00013600  0.49928400  0.49886200
   0.24813400  0.25350000  0.00154000
   0.49668900  0.74409800  0.24863800
   0.24881000  0.50012200  0.24699500
   0.24642600  0.25075800  0.49903600
   0.74932300  0.00752300  0.75242800
   0.75280700  0.50000500  0.24327000
   0.00567500  0.25428100  0.24623800
   0.75192400  0.25254200  0.50112200
   0.00132500  0.00195300  0.00071000
   0.49987100  0.25327700  0.75628600
   0.49856800  0.00233500  0.00149300
   0.49849400  0.00118400  0.49952000
   0.50169200  0.49594900  0.00208400
   0.24706900  0.99833200  0.25211400
   0.25028200  0.74723400  0.00116600
   0.50194800  0.74919900  0.74901900
   0.00332300  0.74487800  0.24879900
   0.75240800  0.99976700  0.24885700
   0.25022400  0.49823600  0.75046800
   0.25004100  0.74971600  0.49241400
   0.99963200  0.25317500  0.75523800
   0.49967900  0.49842100  0.49871500
   0.00047000  0.00131200  0.49928600
   0.74950900  0.74790000  0.49854900
   0.24991900  0.00357100  0.74774000
   0.75260100  0.25320500  0.99907400
   0.49756700  0.25131500  0.24889300
   0.74948500  0.49358400  0.75890000
   0.99866500  0.49553200  0.00244200
   0.74969200  0.74903800  0.00078600
 
 position of ions in cartesian coordinates  (Angst):
   8.04815836  6.11565850  6.10704342
   0.00183650  4.07690030  4.06583245
   2.00192708  2.07515919  0.00770875
   4.00760051  6.08617555  2.01693380
   2.00774527  4.08896884  2.00820131
   1.98810321  2.04320170  4.07199026
   6.04423292  0.04837248  6.14665730
   6.07315051  4.08888080  1.97773131
   0.04615369  2.07648844  2.00674218
   6.06561850  2.05856384  4.08895597
   0.01069088  0.01597304  0.00576277
   4.03245579  2.05930128  6.17349170
   4.02161655  0.01987222  0.01211130
   4.02097550  0.00092886  4.08070017
   4.04758871  4.05989803  0.00749186
   1.99448155  8.16651678  2.04048521
   2.02002677  6.11618405 -0.00479635
   4.04998679  6.11836573  6.10463327
   0.02794974  6.09177497  2.01827459
   6.07071420  8.17912441  2.01380867
   2.01910531  4.06390803  6.12129451
   2.01804492  6.12710469  4.00834284
   8.06369187  2.05927811  6.16489117
   4.03131285  4.07063108  4.06460711
   0.00375079  0.00119209  4.07882692
   6.04691427  6.11291531  4.05845573
   2.01587066  0.01532553  6.10847589
   6.07103812  2.05446996  8.15689736
   4.01391103  2.05294131  2.02844829
   6.04630029  4.02646288  6.19022673
   8.05633525  4.05726541  0.01038372
   6.04843450  6.13174740 -0.00797619
 


--------------------------------------------------------------------------------------------------------


 k-point  1 :   0.0000 0.0000 0.0000  plane waves:    6361
 k-point  2 :   0.3333 0.0000-0.0000  plane waves:    6377
 k-point  3 :  -0.0000 0.3333-0.0000  plane waves:    6383
 k-point  4 :   0.3333 0.3333-0.0000  plane waves:    6359
 k-point  5 :  -0.3333 0.3333-0.0000  plane waves:    6358
 k-point  6 :   0.0000 0.0000 0.3333  plane waves:    6375
 k-point  7 :   0.3333-0.0000 0.3333  plane waves:    6367
 k-point  8 :  -0.3333 0.0000 0.3333  plane waves:    6363
 k-point  9 :  -0.0000 0.3333 0.3333  plane waves:    6380
 k-point 10 :   0.3333 0.3333 0.3333  plane waves:    6365
 k-point 11 :  -0.3333 0.3333 0.3333  plane waves:    6366
 k-point 12 :   0.0000-0.3333 0.3333  plane waves:    6371
 k-point 13 :   0.3333-0.3333 0.3333  plane waves:    6351
 k-point 14 :  -0.3333-0.3333 0.3333  plane waves:    6350

 maximum and minimum number of plane-waves per node :      1315     1243

 maximum number of plane-waves:      6383
 maximum index in each direction: 
   IXMAX=   11   IYMAX=   11   IZMAX=   11
   IXMIN=  -11   IYMIN=  -11   IZMIN=  -11

 NGX is ok and might be reduce to  46
 NGY is ok and might be reduce to  46
 NGZ is ok and might be reduce to  46

 real space projection operators:
  total allocation   :      18237.80 KBytes
  max/ min on nodes  :       3796.17       3442.36


 parallel 3D FFT for wavefunctions:
    minimum data exchange during FFTs selected (reduces bandwidth)
 parallel 3D FFT for charge:
    minimum data exchange during FFTs selected (reduces bandwidth)


 total amount of memory used by VASP on root node    59235. kBytes
========================================================================

   base      :      30000. kBytes
   nonlr-proj:       7155. kBytes
   fftplans  :       2252. kBytes
   grid      :       3548. kBytes
   one-center:        108. kBytes
   wavefun   :      16172. kBytes
 
     INWAV:  cpu time    0.0000: real time    0.0000
 Broyden mixing: mesh for mixing (old mesh)
   NGX = 23   NGY = 23   NGZ = 23
  (NGX  = 96   NGY  = 96   NGZ  = 96)
  gives a total of  12167 points

 initial charge density was supplied:
 charge density of overlapping atoms calculated
 number of electron     331.0000000 magnetization 
 keeping initial charge density in first step


--------------------------------------------------------------------------------------------------------


 Maximum index for non-local projection operator         1008
 Maximum index for augmentation-charges          633 (set IRDMAX)


--------------------------------------------------------------------------------------------------------


 First call to EWALD:  gamma=   0.218
 Maximum number of real-space cells 3x 3x 3
 Maximum number of reciprocal cells 3x 3x 3

 FEWALD executed in parallel
    FEWALD:  cpu time    0.4762: real time    0.4775


----------------------------------------- Iteration    1(   1)  ---------------------------------------


    POTLOK:  cpu time    0.0207: real time    0.0207
    SETDIJ:  cpu time    0.0086: real time    0.0087
     EDDAV:  cpu time    0.8795: real time    0.9368
       DOS:  cpu time    0.0026: real time    0.0027
    --------------------------------------------
      LOOP:  cpu time    0.9150: real time    0.9736

 eigenvalue-minimisations  :  5616
 total energy-change (2. order) : 0.1550933E+04  (-0.1198917E+05)
 number of electron     331.0000000 magnetization 
 augmentation part      331.0000000 magnetization 

 Free energy of the ion-electron system (eV)
  ---------------------------------------------------
  alpha Z        PSCENC =      1939.97345127
  Ewald energy   TEWEN  =    -27769.58413244
  -Hartree energ DENC   =     -3119.62634555
  -exchange      EXHF   =         0.00000000
  -V(xc)+E(xc)   XCENC  =       243.42487860
  PAW double counting   =     24233.66678087   -23385.75767768
  entropy T*S    EENTRO =         0.00492675
  eigenvalues    EBANDS =      3911.78087698
  atomic energy  EATOM  =     25497.05024689
  Solvation  Ediel_sol  =         0.00000000
  ---------------------------------------------------
  free energy    TOTEN  =      1550.93300570 eV

  energy without entropy =     1550.92807895  energy(sigma->0) =     1550.93136345


--------------------------------------------------------------------------------------------------------




----------------------------------------- Iteration    1(   2)  ---------------------------------------


     EDDAV:  cpu time    0.8512: real time    0.9454
       DOS:  cpu time    0.0010: real time    0.0010
    --------------------------------------------
      LOOP:  cpu time    0.8526: real time    0.9610

 eigenvalue-minimisations  :  6088
 total energy-change (2. order) :-0.1649687E+04  (-0.1556855E+04)
 number of electron     331.0000000 magnetization 
 augmentation part      331.0000000 magnetization 

 Free energy of the ion-electron system (eV)
  ---------------------------------------------------
  alpha Z        PSCENC =      1939.97345127
  Ewald energy   TEWEN  =    -27769.58413244
  -Hartree energ DENC   =     -3119.62634555
  -exchange      EXHF   =         0.00000000
  -V(xc)+E(xc)   XCENC  =       243.42487860
  PAW double counting   =     24233.66678087   -23385.75767768
  entropy T*S    EENTRO =        -0.00026575
  eigenvalues    EBANDS =      2262.09934142
  atomic energy  EATOM  =     25497.05024689
  Solvation  Ediel_sol  =         0.00000000
  ---------------------------------------------------
  free energy    TOTEN  =       -98.75372236 eV

  energy without entropy =      -98.75345661  energy(sigma->0) =      -98.75363377


--------------------------------------------------------------------------------------------------------




----------------------------------------- Iteration    1(   3)  ---------------------------------------


     EDDAV:  cpu time    0.8515: real time    0.8660
       DOS:  cpu time    0.0013: real time    0.0013
    --------------------------------------------
      LOOP:  cpu time    0.8546: real time    0.8717

 eigenvalue-minimisations  :  6120
 total energy-change (2. order) :-0.7145582E+02  (-0.6629244E+02)
 number of electron     331.0000000 magnetization 
 augmentation part      331.0000000 magnetization 

 Free energy of the ion-electron system (eV)
  ---------------------------------------------------
  alpha Z        PSCENC =      1939.97345127
  Ewald energy   TEWEN  =    -27769.58413244
  -Hartree energ DENC   =     -3119.62634555
  -exchange      EXHF   =         0.00000000
  -V(xc)+E(xc)   XCENC  =       243.42487860
  PAW double counting   =     24233.66678087   -23385.75767768
  entropy T*S    EENTRO =         0.04209437
  eigenvalues    EBANDS =      2190.60115916
  atomic energy  EATOM  =     25497.05024689
  Solvation  Ediel_sol  =         0.00000000
  ---------------------------------------------------
  free energy    TOTEN  =      -170.20954449 eV

  energy without entropy =     -170.25163887  energy(sigma->0) =     -170.22357595


--------------------------------------------------------------------------------------------------------




----------------------------------------- Iteration    1(   4)  ---------------------------------------


     EDDAV:  cpu time    1.4209: real time    1.4379
       DOS:  cpu time    0.0013: real time    0.0013
    --------------------------------------------
      LOOP:  cpu time    1.4228: real time    1.4449

 eigenvalue-minimisations  :  6136
 total energy-change (2. order) :-0.1520798E+01  (-0.1506361E+01)
 number of electron     331.0000000 magnetization 
 augmentation part      331.0000000 magnetization 

 Free energy of the ion-electron system (eV)
  ---------------------------------------------------
  alpha Z        PSCENC =      1939.97345127
  Ewald energy   TEWEN  =    -27769.58413244
  -Hartree energ DENC   =     -3119.62634555
  -exchange      EXHF   =         0.00000000
  -V(xc)+E(xc)   XCENC  =       243.42487860
  PAW double counting   =     24233.66678087   -23385.75767768
  entropy T*S    EENTRO =         0.04273082
  eigenvalues    EBANDS =      2189.07972431
  atomic energy  EATOM  =     25497.05024689
  Solvation  Ediel_sol  =         0.00000000
  ---------------------------------------------------
  free energy    TOTEN  =      -171.73034290 eV

  energy without entropy =     -171.77307372  energy(sigma->0) =     -171.74458651


--------------------------------------------------------------------------------------------------------




----------------------------------------- Iteration    1(   5)  ---------------------------------------


     EDDAV:  cpu time    0.8663: real time    0.8851
       DOS:  cpu time    0.0023: real time    0.0024
    CHARGE:  cpu time    0.0279: real time    0.0281
    MIXING:  cpu time    0.0011: real time    0.0011
    --------------------------------------------
      LOOP:  cpu time    0.9115: real time    0.9333

 eigenvalue-minimisations  :  6168
 total energy-change (2. order) :-0.3655476E-01  (-0.3651738E-01)
 number of electron     331.0000161 magnetization 
 augmentation part      104.3037336 magnetization 

 Broyden mixing:
  rms(total) = 0.53177E+01    rms(broyden)= 0.53175E+01
  rms(prec ) = 0.57988E+01
  weight for this iteration     100.00

 Free energy of the ion-electron system (eV)
  ---------------------------------------------------
  alpha Z        PSCENC =      1939.97345127
  Ewald energy   TEWEN  =    -27769.58413244
  -Hartree energ DENC   =     -3119.62634555
  -exchange      EXHF   =         0.00000000
  -V(xc)+E(xc)   XCENC  =       243.42487860
  PAW double counting   =     24233.66678087   -23385.75767768
  entropy T*S    EENTRO =         0.04269609
  eigenvalues    EBANDS =      2189.04320428
  atomic energy  EATOM  =     25497.05024689
  Solvation  Ediel_sol  =         0.00000000
  ---------------------------------------------------
  free energy    TOTEN  =      -171.76689766 eV

  energy without entropy =     -171.80959375  energy(sigma->0) =     -171.78112969


--------------------------------------------------------------------------------------------------------




----------------------------------------- Iteration    1(   6)  ---------------------------------------


    POTLOK:  cpu time    0.0195: real time    0.0195
    SETDIJ:  cpu time    0.0036: real time    0.0036
    EDDIAG:  cpu time    0.0914: real time    0.0916
  RMM-DIIS:  cpu time    0.4105: real time    0.4115
    ORTHCH:  cpu time    0.0129: real time    0.0129
       DOS:  cpu time    0.0010: real time    0.0010
    CHARGE:  cpu time    0.0297: real time    0.0298
    MIXING:  cpu time    0.0017: real time    0.0177
    --------------------------------------------
      LOOP:  cpu time    0.5708: real time    0.5914

 eigenvalue-minimisations  :  5600
 total energy-change (2. order) : 0.9588824E+01  (-0.2931010E+01)
 number of electron     331.0000165 magnetization 
 augmentation part      108.3826188 magnetization 

 Broyden mixing:
  rms(total) = 0.33941E+01    rms(broyden)= 0.33940E+01
  rms(prec ) = 0.35690E+01
  weight for this iteration     100.00

 eigenvalues of (default mixing * dielectric matrix)
  average eigenvalue GAMMA=   1.7294
  1.7294

 Free energy of the ion-electron system (eV)
  ---------------------------------------------------
  alpha Z        PSCENC =      1939.97345127
  Ewald energy   TEWEN  =    -27769.58413244
  -Hartree energ DENC   =     -2876.36999037
  -exchange      EXHF   =         0.00000000
  -V(xc)+E(xc)   XCENC  =       233.72773032
  PAW double counting   =     26317.30598136   -25510.70746074
  entropy T*S    EENTRO =        -0.00913370
  eigenvalues    EBANDS =      2006.43523406
  atomic energy  EATOM  =     25497.05024689
  Solvation  Ediel_sol  =         0.00000000
  ---------------------------------------------------
  free energy    TOTEN  =      -162.17807335 eV

  energy without entropy =     -162.16893965  energy(sigma->0) =     -162.17502878


--------------------------------------------------------------------------------------------------------




----------------------------------------- Iteration    1(   7)  ---------------------------------------


    POTLOK:  cpu time    0.0185: real time    0.0186
    SETDIJ:  cpu time    0.0196: real time    0.0196
    EDDIAG:  cpu time    0.0687: real time    0.0689
  RMM-DIIS:  cpu time    0.4774: real time    0.4788
    ORTHCH:  cpu time    0.0126: real time    0.0126
       DOS:  cpu time    0.0018: real time    0.0018
    CHARGE:  cpu time    0.0266: real time    0.0267
    MIXING:  cpu time    0.0010: real time    0.0010
    --------------------------------------------
      LOOP:  cpu time    0.6266: real time    0.6311

 eigenvalue-minimisations  :  5600
 total energy-change (2. order) :-0.3333830E+01  (-0.1462736E+01)
 number of electron     331.0000167 magnetization 
 augmentation part      109.9668373 magnetization 

 Broyden mixing:
  rms(total) = 0.23545E+01    rms(broyden)= 0.23543E+01
  rms(prec ) = 0.33893E+01
  weight for this iteration     100.00

 eigenvalues of (default mixing * dielectric matrix)
  average eigenvalue GAMMA=   1.3103
  2.1314  0.4892

 Free energy of the ion-electron system (eV)
  ---------------------------------------------------
  alpha Z        PSCENC =      1939.97345127
  Ewald energy   TEWEN  =    -27769.58413244
  -Hartree energ DENC   =     -2799.23127794
  -exchange      EXHF   =         0.00000000
  -V(xc)+E(xc)   XCENC  =       230.62518491
  PAW double counting   =     28188.96941693   -27408.20947422
  entropy T*S    EENTRO =         0.02734240
  eigenvalues    EBANDS =      1954.86733841
  atomic energy  EATOM  =     25497.05024689
  Solvation  Ediel_sol  =         0.00000000
  ---------------------------------------------------
  free energy    TOTEN  =      -165.51190379 eV

  energy without entropy =     -165.53924619  energy(sigma->0) =     -165.52101792


--------------------------------------------------------------------------------------------------------




----------------------------------------- Iteration    1(   8)  ---------------------------------------


    POTLOK:  cpu time    0.0184: real time    0.0184
    SETDIJ:  cpu time    0.0033: real time    0.0033
    EDDIAG:  cpu time    0.0689: real time    0.0690
  RMM-DIIS:  cpu time    0.4177: real time    0.4190
    ORTHCH:  cpu time    0.0125: real time    0.0125
       DOS:  cpu time    0.0066: real time    0.0066
    CHARGE:  cpu time    0.0445: real time    0.0446
    MIXING:  cpu time    0.0010: real time    0.0010
    --------------------------------------------
      LOOP:  cpu time    0.5734: real time    0.5781

 eigenvalue-minimisations  :  5600
 total energy-change (2. order) : 0.3437371E+01  (-0.6949377E+00)
 number of electron     331.0000167 magnetization 
 augmentation part      110.4846518 magnetization 

 Broyden mixing:
  rms(total) = 0.12543E+01    rms(broyden)= 0.12540E+01
  rms(prec ) = 0.18832E+01
  weight for this iteration     100.00

 eigenvalues of (default mixing * dielectric matrix)
  average eigenvalue GAMMA=   1.1522
  2.3333  0.7716  0.3515

 Free energy of the ion-electron system (eV)
  ---------------------------------------------------
  alpha Z        PSCENC =      1939.97345127
  Ewald energy   TEWEN  =    -27769.58413244
  -Hartree energ DENC   =     -2775.18227979
  -exchange      EXHF   =         0.00000000
  -V(xc)+E(xc)   XCENC  =       229.73745310
  PAW double counting   =     29025.48218298   -28254.04891235
  entropy T*S    EENTRO =         0.00240367
  eigenvalues    EBANDS =      1944.49505424
  atomic energy  EATOM  =     25497.05024689
  Solvation  Ediel_sol  =         0.00000000
  ---------------------------------------------------
  free energy    TOTEN  =      -162.07453242 eV

  energy without entropy =     -162.07693610  energy(sigma->0) =     -162.07533365


--------------------------------------------------------------------------------------------------------




----------------------------------------- Iteration    1(   9)  ---------------------------------------


    POTLOK:  cpu time    0.0183: real time    0.0198
    SETDIJ:  cpu time    0.0155: real time    0.0156
    EDDIAG:  cpu time    0.0800: real time    0.0826
  RMM-DIIS:  cpu time    0.4593: real time    0.4613
    ORTHCH:  cpu time    0.0126: real time    0.0127
       DOS:  cpu time    0.0030: real time    0.0031
    CHARGE:  cpu time    0.0436: real time    0.0440
    MIXING:  cpu time    0.0012: real time    0.0012
    --------------------------------------------
      LOOP:  cpu time    0.6342: real time    0.6441

 eigenvalue-minimisations  :  5600
 total energy-change (2. order) : 0.7033389E+00  (-0.2782856E+00)
 number of electron     331.0000167 magnetization 
 augmentation part      110.1615850 magnetization 

 Broyden mixing:
  rms(total) = 0.81177E+00    rms(broyden)= 0.81154E+00
  rms(prec ) = 0.12893E+01
  weight for this iteration     100.00

 eigenvalues of (default mixing * dielectric matrix)
  average eigenvalue GAMMA=   1.0474
  2.4234  1.0177  0.4341  0.3145

 Free energy of the ion-electron system (eV)
  ---------------------------------------------------
  alpha Z        PSCENC =      1939.97345127
  Ewald energy   TEWEN  =    -27769.58413244
  -Hartree energ DENC   =     -2776.34413726
  -exchange      EXHF   =         0.00000000
  -V(xc)+E(xc)   XCENC  =       229.72254318
  PAW double counting   =     29457.27504629   -28688.93558663
  entropy T*S    EENTRO =         0.00118343
  eigenvalues    EBANDS =      1949.47019176
  atomic energy  EATOM  =     25497.05024689
  Solvation  Ediel_sol  =         0.00000000
  ---------------------------------------------------
  free energy    TOTEN  =      -161.37119351 eV

  energy without entropy =     -161.37237694  energy(sigma->0) =     -161.37158798


--------------------------------------------------------------------------------------------------------




----------------------------------------- Iteration    1(  10)  ---------------------------------------


    POTLOK:  cpu time    0.0186: real time    0.0198
    SETDIJ:  cpu time    0.0034: real time    0.0035
    EDDIAG:  cpu time    0.0683: real time    0.0694
  RMM-DIIS:  cpu time    0.4087: real time    0.4098
    ORTHCH:  cpu time    0.0126: real time    0.0126
       DOS:  cpu time    0.0015: real time    0.0015
    CHARGE:  cpu time    0.0271: real time    0.0272
    MIXING:  cpu time    0.0011: real time    0.0011
    --------------------------------------------
      LOOP:  cpu time    0.5419: real time    0.5490

 eigenvalue-minimisations  :  5600
 total energy-change (2. order) : 0.3082880E+00  (-0.9867985E-01)
 number of electron     331.0000166 magnetization 
 augmentation part      109.9572255 magnetization 

 Broyden mixing:
  rms(total) = 0.48225E+00    rms(broyden)= 0.48211E+00
  rms(prec ) = 0.77886E+00
  weight for this iteration     100.00

 eigenvalues of (default mixing * dielectric matrix)
  average eigenvalue GAMMA=   0.9720
  2.4712  1.1991  0.4604  0.4604  0.2687

 Free energy of the ion-electron system (eV)
  ---------------------------------------------------
  alpha Z        PSCENC =      1939.97345127
  Ewald energy   TEWEN  =    -27769.58413244
  -Hartree energ DENC   =     -2782.28696611
  -exchange      EXHF   =         0.00000000
  -V(xc)+E(xc)   XCENC  =       229.94354635
  PAW double counting   =     29668.15105947   -28900.97297429
  entropy T*S    EENTRO =         0.01142656
  eigenvalues    EBANDS =      1956.65143683
  atomic energy  EATOM  =     25497.05024689
  Solvation  Ediel_sol  =         0.00000000
  ---------------------------------------------------
  free energy    TOTEN  =      -161.06290547 eV

  energy without entropy =     -161.07433203  energy(sigma->0) =     -161.06671432


--------------------------------------------------------------------------------------------------------




----------------------------------------- Iteration    1(  11)  ---------------------------------------


    POTLOK:  cpu time    0.0184: real time    0.0185
    SETDIJ:  cpu time    0.0033: real time    0.0033
    EDDIAG:  cpu time    0.0676: real time    0.0678
  RMM-DIIS:  cpu time    0.4084: real time    0.4097
    ORTHCH:  cpu time    0.0127: real time    0.0127
       DOS:  cpu time    0.0015: real time    0.0015
    CHARGE:  cpu time    0.0260: real time    0.0261
    MIXING:  cpu time    0.0011: real time    0.0011
    --------------------------------------------
      LOOP:  cpu time    0.5396: real time    0.5442

 eigenvalue-minimisations  :  5600
 total energy-change (2. order) : 0.1856509E+00  (-0.3125284E-01)
 number of electron     331.0000167 magnetization 
 augmentation part      109.9013185 magnetization 

 Broyden mixing:
  rms(total) = 0.23568E+00    rms(broyden)= 0.23558E+00
  rms(prec ) = 0.38464E+00
  weight for this iteration     100.00

 eigenvalues of (default mixing * dielectric matrix)
  average eigenvalue GAMMA=   0.9107
  2.4515  1.2395  0.6030  0.6030  0.2967  0.2706

 Free energy of the ion-electron system (eV)
  ---------------------------------------------------
  alpha Z        PSCENC =      1939.97345127
  Ewald energy   TEWEN  =    -27769.58413244
  -Hartree energ DENC   =     -2786.33246794
  -exchange      EXHF   =         0.00000000
  -V(xc)+E(xc)   XCENC  =       230.09028595
  PAW double counting   =     29746.78282596   -28980.02411097
  entropy T*S    EENTRO =         0.00707850
  eigenvalues    EBANDS =      1961.15956826
  atomic energy  EATOM  =     25497.05024689
  Solvation  Ediel_sol  =         0.00000000
  ---------------------------------------------------
  free energy    TOTEN  =      -160.87725452 eV

  energy without entropy =     -160.88433301  energy(sigma->0) =     -160.87961401


--------------------------------------------------------------------------------------------------------




----------------------------------------- Iteration    1(  12)  ---------------------------------------


    POTLOK:  cpu time    0.0184: real time    0.0185
    SETDIJ:  cpu time    0.0034: real time    0.0034
    EDDIAG:  cpu time    0.1078: real time    0.1081
  RMM-DIIS:  cpu time    0.4482: real time    0.4495
    ORTHCH:  cpu time    0.0125: real time    0.0125
       DOS:  cpu time    0.0020: real time    0.0020
    CHARGE:  cpu time    0.0264: real time    0.0264
    MIXING:  cpu time    0.0012: real time    0.0012
    --------------------------------------------
      LOOP:  cpu time    0.6203: real time    0.6252

 eigenvalue-minimisations  :  5600
 total energy-change (2. order) : 0.3153643E-01  (-0.5181590E-02)
 number of electron     331.0000167 magnetization 
 augmentation part      109.9125419 magnetization 

 Broyden mixing:
  rms(total) = 0.14510E+00    rms(broyden)= 0.14506E+00
  rms(prec ) = 0.22077E+00
  weight for this iteration     100.00

 eigenvalues of (default mixing * dielectric matrix)
  average eigenvalue GAMMA=   0.8781
  2.3969  1.2167  0.9232  0.7164  0.3410  0.2972  0.2553

 Free energy of the ion-electron system (eV)
  ---------------------------------------------------
  alpha Z        PSCENC =      1939.97345127
  Ewald energy   TEWEN  =    -27769.58413244
  -Hartree energ DENC   =     -2786.95570742
  -exchange      EXHF   =         0.00000000
  -V(xc)+E(xc)   XCENC  =       230.11380237
  PAW double counting   =     29744.85307189   -28978.02574853
  entropy T*S    EENTRO =         0.00580852
  eigenvalues    EBANDS =      1961.72348937
  atomic energy  EATOM  =     25497.05024689
  Solvation  Ediel_sol  =         0.00000000
  ---------------------------------------------------
  free energy    TOTEN  =      -160.84571808 eV

  energy without entropy =     -160.85152660  energy(sigma->0) =     -160.84765426


--------------------------------------------------------------------------------------------------------




----------------------------------------- Iteration    1(  13)  ---------------------------------------


    POTLOK:  cpu time    0.0184: real time    0.0185
    SETDIJ:  cpu time    0.0035: real time    0.0035
    EDDIAG:  cpu time    0.0885: real time    0.0887
  RMM-DIIS:  cpu time    0.3666: real time    0.5061
    ORTHCH:  cpu time    0.0130: real time    0.0146
       DOS:  cpu time    0.0010: real time    0.0010
    CHARGE:  cpu time    0.0244: real time    0.0293
    MIXING:  cpu time    0.0011: real time    0.0016
    --------------------------------------------
      LOOP:  cpu time    0.5170: real time    0.6670

 eigenvalue-minimisations  :  5600
 total energy-change (2. order) : 0.1192071E-01  (-0.1945876E-02)
 number of electron     331.0000167 magnetization 
 augmentation part      109.9213247 magnetization 

 Broyden mixing:
  rms(total) = 0.75831E-01    rms(broyden)= 0.75810E-01
  rms(prec ) = 0.10391E+00
  weight for this iteration     100.00

 eigenvalues of (default mixing * dielectric matrix)
  average eigenvalue GAMMA=   0.9026
  2.2180  1.7272  1.3291  0.6056  0.5073  0.3125  0.2820  0.2387

 Free energy of the ion-electron system (eV)
  ---------------------------------------------------
  alpha Z        PSCENC =      1939.97345127
  Ewald energy   TEWEN  =    -27769.58413244
  -Hartree energ DENC   =     -2787.03379316
  -exchange      EXHF   =         0.00000000
  -V(xc)+E(xc)   XCENC  =       230.11462462
  PAW double counting   =     29729.24825269   -28962.20886442
  entropy T*S    EENTRO =         0.00684961
  eigenvalues    EBANDS =      1961.59956756
  atomic energy  EATOM  =     25497.05024689
  Solvation  Ediel_sol  =         0.00000000
  ---------------------------------------------------
  free energy    TOTEN  =      -160.83379738 eV

  energy without entropy =     -160.84064699  energy(sigma->0) =     -160.83608058


--------------------------------------------------------------------------------------------------------




----------------------------------------- Iteration    1(  14)  ---------------------------------------


    POTLOK:  cpu time    0.0182: real time    0.0206
    SETDIJ:  cpu time    0.0032: real time    0.0042
    EDDIAG:  cpu time    0.0768: real time    0.0871
  RMM-DIIS:  cpu time    0.4099: real time    0.4111
    ORTHCH:  cpu time    0.0126: real time    0.0126
       DOS:  cpu time    0.0010: real time    0.0010
    CHARGE:  cpu time    0.0266: real time    0.0266
    MIXING:  cpu time    0.0012: real time    0.0012
    --------------------------------------------
      LOOP:  cpu time    0.5499: real time    0.5696

 eigenvalue-minimisations  :  5600
 total energy-change (2. order) : 0.7967990E-03  (-0.6844250E-03)
 number of electron     331.0000167 magnetization 
 augmentation part      109.9257937 magnetization 

 Broyden mixing:
  rms(total) = 0.42720E-01    rms(broyden)= 0.42706E-01
  rms(prec ) = 0.76111E-01
  weight for this iteration     100.00

 eigenvalues of (default mixing * dielectric matrix)
  average eigenvalue GAMMA=   0.9331
  2.3506  2.3506  1.2792  0.6308  0.6308  0.3219  0.3219  0.2636  0.2481

 Free energy of the ion-electron system (eV)
  ---------------------------------------------------
  alpha Z        PSCENC =      1939.97345127
  Ewald energy   TEWEN  =    -27769.58413244
  -Hartree energ DENC   =     -2787.07559964
  -exchange      EXHF   =         0.00000000
  -V(xc)+E(xc)   XCENC  =       230.11410322
  PAW double counting   =     29713.76166231   -28946.47047381
  entropy T*S    EENTRO =         0.00623044
  eigenvalues    EBANDS =      1961.39151119
  atomic energy  EATOM  =     25497.05024689
  Solvation  Ediel_sol  =         0.00000000
  ---------------------------------------------------
  free energy    TOTEN  =      -160.83300058 eV

  energy without entropy =     -160.83923102  energy(sigma->0) =     -160.83507739


--------------------------------------------------------------------------------------------------------




----------------------------------------- Iteration    1(  15)  ---------------------------------------


    POTLOK:  cpu time    0.0183: real time    0.0184
    SETDIJ:  cpu time    0.0033: real time    0.0034
    EDDIAG:  cpu time    0.0682: real time    0.0684
  RMM-DIIS:  cpu time    0.4505: real time    0.4654
    ORTHCH:  cpu time    0.0132: real time    0.0136
       DOS:  cpu time    0.0387: real time    0.0387
    CHARGE:  cpu time    0.0474: real time    0.0475
    MIXING:  cpu time    0.0012: real time    0.0012
    --------------------------------------------
      LOOP:  cpu time    0.6413: real time    0.6600

 eigenvalue-minimisations  :  5600
 total energy-change (2. order) : 0.1611497E-02  (-0.1161866E-03)
 number of electron     331.0000167 magnetization 
 augmentation part      109.9239148 magnetization 

 Broyden mixing:
  rms(total) = 0.22869E-01    rms(broyden)= 0.22862E-01
  rms(prec ) = 0.37935E-01
  weight for this iteration     100.00

 eigenvalues of (default mixing * dielectric matrix)
  average eigenvalue GAMMA=   0.9292
  2.5563  2.5563  1.2612  0.6796  0.6796  0.4270  0.3142  0.3142  0.2680  0.2357

 Free energy of the ion-electron system (eV)
  ---------------------------------------------------
  alpha Z        PSCENC =      1939.97345127
  Ewald energy   TEWEN  =    -27769.58413244
  -Hartree energ DENC   =     -2787.22734065
  -exchange      EXHF   =         0.00000000
  -V(xc)+E(xc)   XCENC  =       230.11893016
  PAW double counting   =     29711.15420400   -28943.74342169
  entropy T*S    EENTRO =         0.00642227
  eigenvalues    EBANDS =      1961.42025111
  atomic energy  EATOM  =     25497.05024689
  Solvation  Ediel_sol  =         0.00000000
  ---------------------------------------------------
  free energy    TOTEN  =      -160.83138908 eV

  energy without entropy =     -160.83781135  energy(sigma->0) =     -160.83352984


--------------------------------------------------------------------------------------------------------




----------------------------------------- Iteration    1(  16)  ---------------------------------------


    POTLOK:  cpu time    0.0185: real time    0.0185
    SETDIJ:  cpu time    0.0078: real time    0.0078
    EDDIAG:  cpu time    0.1775: real time    0.1780
  RMM-DIIS:  cpu time    0.4547: real time    0.4653
    ORTHCH:  cpu time    0.0126: real time    0.0127
       DOS:  cpu time    0.0031: real time    0.0031
    CHARGE:  cpu time    0.0275: real time    0.0276
    MIXING:  cpu time    0.0014: real time    0.0014
    --------------------------------------------
      LOOP:  cpu time    0.7037: real time    0.7180

 eigenvalue-minimisations  :  5600
 total energy-change (2. order) : 0.2764654E-03  (-0.8948442E-04)
 number of electron     331.0000167 magnetization 
 augmentation part      109.9208118 magnetization 

 Broyden mixing:
  rms(total) = 0.15636E-01    rms(broyden)= 0.15628E-01
  rms(prec ) = 0.25064E-01
  weight for this iteration     100.00

 eigenvalues of (default mixing * dielectric matrix)
  average eigenvalue GAMMA=   0.8941
  2.5448  2.5448  1.2559  0.7772  0.6504  0.6504  0.3345  0.3345  0.2738  0.2408
  0.2277

 Free energy of the ion-electron system (eV)
  ---------------------------------------------------
  alpha Z        PSCENC =      1939.97345127
  Ewald energy   TEWEN  =    -27769.58413244
  -Hartree energ DENC   =     -2787.35814071
  -exchange      EXHF   =         0.00000000
  -V(xc)+E(xc)   XCENC  =       230.12342430
  PAW double counting   =     29714.65863340   -28947.20354883
  entropy T*S    EENTRO =         0.00606819
  eigenvalues    EBANDS =      1961.50288530
  atomic energy  EATOM  =     25497.05024689
  Solvation  Ediel_sol  =         0.00000000
  ---------------------------------------------------
  free energy    TOTEN  =      -160.83111262 eV

  energy without entropy =     -160.83718081  energy(sigma->0) =     -160.83313535


--------------------------------------------------------------------------------------------------------




----------------------------------------- Iteration    1(  17)  ---------------------------------------


    POTLOK:  cpu time    0.0183: real time    0.0184
    SETDIJ:  cpu time    0.0363: real time    0.0366
    EDDIAG:  cpu time    0.0950: real time    0.1002
  RMM-DIIS:  cpu time    0.4205: real time    0.4219
    ORTHCH:  cpu time    0.0125: real time    0.0125
       DOS:  cpu time    0.0016: real time    0.0016
    CHARGE:  cpu time    0.0266: real time    0.0266
    MIXING:  cpu time    0.0014: real time    0.0017
    --------------------------------------------
      LOOP:  cpu time    0.6126: real time    0.6239

 eigenvalue-minimisations  :  5595
 total energy-change (2. order) : 0.1232175E-03  (-0.1508356E-04)
 number of electron     331.0000167 magnetization 
 augmentation part      109.9192151 magnetization 

 Broyden mixing:
  rms(total) = 0.68658E-02    rms(broyden)= 0.68629E-02
  rms(prec ) = 0.10120E-01
  weight for this iteration     100.00

 eigenvalues of (default mixing * dielectric matrix)
  average eigenvalue GAMMA=   0.8560
  2.4731  2.4731  1.2552  0.7896  0.7379  0.7379  0.4133  0.3262  0.3262  0.2686
  0.2452  0.2251

 Free energy of the ion-electron system (eV)
  ---------------------------------------------------
  alpha Z        PSCENC =      1939.97345127
  Ewald energy   TEWEN  =    -27769.58413244
  -Hartree energ DENC   =     -2787.35975645
  -exchange      EXHF   =         0.00000000
  -V(xc)+E(xc)   XCENC  =       230.12323448
  PAW double counting   =     29720.85326618   -28953.44754664
  entropy T*S    EENTRO =         0.00613627
  eigenvalues    EBANDS =      1961.55411105
  atomic energy  EATOM  =     25497.05024689
  Solvation  Ediel_sol  =         0.00000000
  ---------------------------------------------------
  free energy    TOTEN  =      -160.83098940 eV

  energy without entropy =     -160.83712566  energy(sigma->0) =     -160.83303482


--------------------------------------------------------------------------------------------------------




----------------------------------------- Iteration    1(  18)  ---------------------------------------


    POTLOK:  cpu time    0.0184: real time    0.0185
    SETDIJ:  cpu time    0.0033: real time    0.0033
    EDDIAG:  cpu time    0.0712: real time    0.0716
  RMM-DIIS:  cpu time    0.4109: real time    0.4123
    ORTHCH:  cpu time    0.0125: real time    0.0125
       DOS:  cpu time    0.0036: real time    0.0036
    CHARGE:  cpu time    0.0284: real time    0.0284
    MIXING:  cpu time    0.0015: real time    0.0015
    --------------------------------------------
      LOOP:  cpu time    0.5502: real time    0.5561

 eigenvalue-minimisations  :  4526
 total energy-change (2. order) : 0.3033280E-04  (-0.5059678E-05)
 number of electron     331.0000167 magnetization 
 augmentation part      109.9187773 magnetization 

 Broyden mixing:
  rms(total) = 0.28303E-02    rms(broyden)= 0.28290E-02
  rms(prec ) = 0.43922E-02
  weight for this iteration     100.00

 eigenvalues of (default mixing * dielectric matrix)
  average eigenvalue GAMMA=   0.8534
  2.4023  2.4023  1.3014  1.0262  1.0262  0.6135  0.6135  0.3392  0.3392  0.2950
  0.2718  0.2427  0.2212

 Free energy of the ion-electron system (eV)
  ---------------------------------------------------
  alpha Z        PSCENC =      1939.97345127
  Ewald energy   TEWEN  =    -27769.58413244
  -Hartree energ DENC   =     -2787.34414320
  -exchange      EXHF   =         0.00000000
  -V(xc)+E(xc)   XCENC  =       230.12264647
  PAW double counting   =     29723.85423592   -28956.47872689
  entropy T*S    EENTRO =         0.00624430
  eigenvalues    EBANDS =      1961.56921861
  atomic energy  EATOM  =     25497.05024689
  Solvation  Ediel_sol  =         0.00000000
  ---------------------------------------------------
  free energy    TOTEN  =      -160.83095907 eV

  energy without entropy =     -160.83720337  energy(sigma->0) =     -160.83304050


--------------------------------------------------------------------------------------------------------




----------------------------------------- Iteration    1(  19)  ---------------------------------------


    POTLOK:  cpu time    0.0184: real time    0.0184
    SETDIJ:  cpu time    0.0033: real time    0.0033
    EDDIAG:  cpu time    0.0732: real time    0.0734
  RMM-DIIS:  cpu time    0.2763: real time    0.2775
    ORTHCH:  cpu time    0.0125: real time    0.0125
       DOS:  cpu time    0.0024: real time    0.0024
    --------------------------------------------
      LOOP:  cpu time    0.3865: real time    0.3928

 eigenvalue-minimisations  :  3054
 total energy-change (2. order) : 0.7424678E-06  (-0.1288373E-05)
 number of electron     331.0000167 magnetization 
 augmentation part      109.9187773 magnetization 

 Free energy of the ion-electron system (eV)
  ---------------------------------------------------
  alpha Z        PSCENC =      1939.97345127
  Ewald energy   TEWEN  =    -27769.58413244
  -Hartree energ DENC   =     -2787.33177199
  -exchange      EXHF   =         0.00000000
  -V(xc)+E(xc)   XCENC  =       230.12218872
  PAW double counting   =     29725.02961966   -28957.66403163
  entropy T*S    EENTRO =         0.00625382
  eigenvalues    EBANDS =      1961.56721739
  atomic energy  EATOM  =     25497.05024689
  Solvation  Ediel_sol  =         0.00000000
  ---------------------------------------------------
  free energy    TOTEN  =      -160.83095832 eV

  energy without entropy =     -160.83721214  energy(sigma->0) =     -160.83304293


--------------------------------------------------------------------------------------------------------




 average (electrostatic) potential at core
  the test charge radii are     1.2059  1.2098
  (the norm of the test charge is              1.0000)
       1 -64.2008       2 -64.4497       3 -64.4569       4 -64.4408       5 -64.4087
       6 -64.3210       7 -64.3642       8 -64.3735       9 -64.5219      10 -64.2672
      11 -64.4677      12 -64.4527      13 -64.2610      14 -64.4325      15 -64.5257
      16 -64.4886      17 -64.4478      18 -64.1560      19 -64.3273      20 -64.2117
      21 -64.4052      22 -64.1520      23 -64.1054      24 -64.0191      25 -64.0303
      26 -64.1036      27 -64.0818      28 -64.1998      29 -64.1199      30 -64.0751
      31 -64.1195      32 -64.1492
 
 
 
 E-fermi :   9.1693     XC(G=0): -12.8071     alpha+bet :-14.5988


 k-point     1 :       0.0000    0.0000    0.0000
  band No.  band energies     occupation 
      1       0.0124      2.00000
      2       2.2658      2.00000
      3       2.4259      2.00000
      4       2.5066      2.00000
      5       2.5418      2.00000
      6       2.5692      2.00000
      7       2.6040      2.00000
      8       2.6771      2.00000
      9       2.6908      2.00000
     10       2.7147      2.00000
     11       2.7459      2.00000
     12       2.9161      2.00000
     13       2.9422      2.00000
     14       3.0075      2.00000
     15       3.2821      2.00000
     16       3.2850      2.00000
     17       3.3327      2.00000
     18       3.6819      2.00000
     19       3.7721      2.00000
     20       3.7988      2.00000
     21       3.8256      2.00000
     22       3.8557      2.00000
     23       3.8788      2.00000
     24       3.8953      2.00000
     25       3.9378      2.00000
     26       3.9576      2.00000
     27       3.9911      2.00000
     28       4.0071      2.00000
     29       4.0203      2.00000
     30       4.0503      2.00000
     31       4.0639      2.00000
     32       4.1271      2.00000
     33       4.1823      2.00000
     34       4.2025      2.00000
     35       4.2143      2.00000
     36       4.2581      2.00000
     37       4.2788      2.00000
     38       4.3110      2.00000
     39       4.4279      2.00000
     40       4.4473      2.00000
     41       4.5083      2.00000
     42       4.5308      2.00000
     43       4.5509      2.00000
     44       4.6343      2.00000
     45       4.6586      2.00000
     46       4.7275      2.00000
     47       4.8444      2.00000
     48       4.8600      2.00000
     49       4.8711      2.00000
     50       4.9211      2.00000
     51       4.9346      2.00000
     52       4.9740      2.00000
     53       4.9815      2.00000
     54       5.0008      2.00000
     55       5.0031      2.00000
     56       5.0280      2.00000
     57       5.0661      2.00000
     58       5.0842      2.00000
     59       5.0923      2.00000
     60       5.1222      2.00000
     61       5.1472      2.00000
     62       5.1567      2.00000
     63       5.1938      2.00000
     64       5.2063      2.00000
     65       5.2395      2.00000
     66       5.2481      2.00000
     67       5.2663      2.00000
     68       5.2910      2.00000
     69       5.3349      2.00000
     70       5.3573      2.00000
     71       5.3847      2.00000
     72       5.3913      2.00000
     73       5.4159      2.00000
     74       5.4296      2.00000
     75       5.4466      2.00000
     76       5.4708      2.00000
     77       5.5086      2.00000
     78       5.5618      2.00000
     79       5.6030      2.00000
     80       5.6273      2.00000
     81       5.6504      2.00000
     82       5.7120      2.00000
     83       5.7353      2.00000
     84       5.7494      2.00000
     85       5.8008      2.00000
     86       5.8191      2.00000
     87       5.8863      2.00000
     88       5.9422      2.00000
     89       5.9997      2.00000
     90       6.1112      2.00000
     91       6.2365      2.00000
     92       6.3395      2.00000
     93       6.3959      2.00000
     94       6.4462      2.00000
     95       6.4802      2.00000
     96       6.4844      2.00000
     97       6.5361      2.00000
     98       6.5636      2.00000
     99       6.5773      2.00000
    100       6.6169      2.00000
    101       6.6339      2.00000
    102       6.6735      2.00000
    103       6.7316      2.00000
    104       6.7709      2.00000
    105       6.8160      2.00000
    106       6.8483      2.00000
    107       6.8656      2.00000
    108       6.8747      2.00000
    109       6.9223      2.00000
    110       6.9689      2.00000
    111       6.9851      2.00000
    112       7.0177      2.00000
    113       7.0399      2.00000
    114       7.0714      2.00000
    115       7.0995      2.00000
    116       7.1547      2.00000
    117       7.1670      2.00000
    118       7.2165      2.00000
    119       7.2386      2.00000
    120       7.2506      2.00000
    121       7.3023      2.00000
    122       7.3197      2.00000
    123       7.3328      2.00000
    124       7.3590      2.00000
    125       7.4118      2.00000
    126       7.4311      2.00000
    127       7.4558      2.00000
    128       7.4890      2.00000
    129       7.5335      2.00000
    130       7.5594      2.00000
    131       7.6249      2.00000
    132       7.6538      2.00000
    133       7.6901      2.00000
    134       7.6961      2.00000
    135       7.7071      2.00000
    136       7.7251      2.00000
    137       7.8027      2.00000
    138       7.8085      2.00000
    139       7.9109      2.00000
    140       8.0828      2.00000
    141       8.1786      2.00000
    142       8.2355      2.00000
    143       8.3031      2.00000
    144       8.3407      2.00000
    145       8.5824      2.00000
    146       8.6395      2.00001
    147       8.6671      2.00002
[...]
     85       6.4689      2.00000
     86       6.4809      2.00000
     87       6.5145      2.00000
     88       6.5317      2.00000
     89       6.5498      2.00000
     90       6.5770      2.00000
     91       6.6032      2.00000
     92       6.6056      2.00000
     93       6.6329      2.00000
     94       6.6597      2.00000
     95       6.6717      2.00000
     96       6.6926      2.00000
     97       6.7082      2.00000
     98       6.7284      2.00000
     99       6.7592      2.00000
    100       6.7899      2.00000
    101       6.8233      2.00000
    102       6.8390      2.00000
    103       6.8890      2.00000
    104       6.9226      2.00000
    105       7.0197      2.00000
    106       7.0417      2.00000
    107       7.1011      2.00000
    108       7.1579      2.00000
    109       7.2239      2.00000
    110       7.3049      2.00000
    111       7.3158      2.00000
    112       7.3725      2.00000
    113       7.3991      2.00000
    114       7.4412      2.00000
    115       7.4690      2.00000
    116       7.5084      2.00000
    117       7.5347      2.00000
    118       7.5693      2.00000
    119       7.6226      2.00000
    120       7.6464      2.00000
    121       7.7251      2.00000
    122       7.7570      2.00000
    123       7.7676      2.00000
    124       7.8233      2.00000
    125       7.9221      2.00000
    126       7.9424      2.00000
    127       8.0077      2.00000
    128       8.0287      2.00000
    129       8.0766      2.00000
    130       8.0954      2.00000
    131       8.1555      2.00000
    132       8.1768      2.00000
    133       8.2580      2.00000
    134       8.3090      2.00000
    135       8.3749      2.00000
    136       8.4594      2.00000
    137       8.4961      2.00000
    138       8.5269      2.00000
    139       8.5503      2.00000
    140       8.6569      2.00000
    141       8.7378      2.00000
    142       8.8026      2.00000
    143       8.8604      2.00000
    144       8.8890      2.00000
    145       8.9725      2.00000
    146       9.0094      2.00000
    147       9.0910      2.00000
    148       9.1248      2.00000
    149       9.1390      2.00000
    150       9.2165      2.00000
    151       9.2424      2.00001
    152       9.2653      2.00003
    153       9.3183      2.00023
    154       9.3465      2.00062
    155       9.3882      2.00236
    156       9.4251      2.00657
    157       9.4447      2.01065
    158       9.4948      2.02997
    159       9.5070      2.03669
    160       9.5472      2.06073
    161       9.5668      2.06912
    162       9.6166      2.04438
    163       9.6483      1.95959
    164       9.6875      1.74116
    165       9.7523      1.11692
    166       9.8050      0.54271
    167       9.8304      0.31540
    168      10.0373     -0.02654
    169      10.1960     -0.00034
    170      10.2237     -0.00012
    171      10.2512     -0.00004
    172      11.2599     -0.00000
    173      11.3390     -0.00000
    174      11.3773     -0.00000
    175      11.3964     -0.00000
    176      11.4414     -0.00000
    177      11.5067     -0.00000
    178      11.7642     -0.00000
    179      11.7931     -0.00000
    180      11.8460     -0.00000
    181      12.2971     -0.00000
    182      12.3954     -0.00000
    183      12.4404     -0.00000
    184      13.5456     -0.00000
    185      13.6257     -0.00000
    186      13.6594     -0.00000
    187      13.7149     -0.00000
    188      13.7463     -0.00000
    189      13.7712     -0.00000
    190      13.9065      0.00000
    191      14.0006      0.00000
    192      14.1178      0.00000
    193      14.6882      0.00000
    194      14.7867      0.00000
    195      14.8862      0.00000
    196      15.3629      0.00000
    197      15.4412      0.00000
    198      15.4642      0.00000
    199      16.0244      0.00000
    200      16.0343      0.00000


--------------------------------------------------------------------------------------------------------


 soft charge-density along one line, spin component           1
         0         1         2         3         4         5         6         7         8         9
 total charge-density along one line
 
 pseudopotential strength for first ion, spin component:           1
 -2.803  -0.012  -0.024  -0.012   0.001  -3.011  -0.012  -0.024
 -0.012  -2.804  -0.013   0.013   0.019  -0.012  -3.012  -0.012
 -0.024  -0.013  -2.778  -0.009   0.005  -0.024  -0.012  -2.986
 -0.012   0.013  -0.009  -2.801  -0.016  -0.012   0.012  -0.009
  0.001   0.019   0.005  -0.016  -2.772   0.001   0.019   0.005
 -3.011  -0.012  -0.024  -0.012   0.001  -3.199  -0.012  -0.023
 -0.012  -3.012  -0.012   0.012   0.019  -0.012  -3.201  -0.012
 -0.024  -0.012  -2.986  -0.009   0.005  -0.023  -0.012  -3.176
 -0.012   0.012  -0.009  -3.009  -0.015  -0.012   0.012  -0.008
  0.001   0.019   0.005  -0.015  -2.980   0.001   0.018   0.005
 -0.009   0.009   0.001   0.008   0.001  -0.009   0.009   0.001
 -0.014   0.013   0.001   0.012   0.001  -0.013   0.013   0.001
 -0.001  -0.002  -0.000  -0.000  -0.000  -0.001  -0.001  -0.000
 -0.000   0.000  -0.002  -0.002  -0.000  -0.000   0.000  -0.002
  0.000  -0.000   0.001  -0.002  -0.002   0.000  -0.000   0.001
 -0.001  -0.002  -0.000  -0.000  -0.000  -0.001  -0.002  -0.000
 -0.000   0.000  -0.002  -0.003  -0.000  -0.000   0.000  -0.002
  0.000  -0.000   0.001  -0.003  -0.002   0.000  -0.000   0.001
 total augmentation occupancy for first ion, spin component:           1
  3.765  -0.031  -0.398   0.036   0.043  -2.531   0.014   0.260  -0.028  -0.025   0.081   0.002  -0.035   0.001   0.004   0.001
 -0.031   3.763  -0.227  -0.055   0.317   0.014  -2.536   0.148   0.045  -0.214  -0.067  -0.006  -0.030  -0.004   0.001   0.000
 -0.398  -0.227   3.972  -0.104   0.135   0.257   0.147  -2.305   0.059  -0.086  -0.019   0.014  -0.004  -0.016   0.012   0.000
  0.036  -0.055  -0.104   4.104  -0.197  -0.029   0.046   0.060  -2.771   0.116  -0.100   0.011  -0.001  -0.012  -0.021   0.000
  0.043   0.317   0.135  -0.197   4.108  -0.026  -0.212  -0.086   0.114  -2.386  -0.013   0.018  -0.006  -0.001  -0.002   0.000
 -2.531   0.014   0.257  -0.029  -0.026   2.995  -0.008  -0.169   0.017   0.014  -0.036  -0.025   0.034  -0.000  -0.004  -0.002
  0.014  -2.536   0.147   0.046  -0.212  -0.008   3.004  -0.096  -0.033   0.147   0.023   0.028   0.030   0.004  -0.000  -0.002
  0.260   0.148  -2.305   0.060  -0.086  -0.169  -0.096   2.454  -0.030   0.051   0.013  -0.010   0.005   0.019  -0.010  -0.000
 -0.028   0.045   0.059  -2.771   0.114   0.017  -0.033  -0.030   3.163  -0.060   0.061   0.007   0.001   0.020   0.029  -0.000
 -0.025  -0.214  -0.086   0.116  -2.386   0.014   0.147   0.051  -0.060   2.496   0.008  -0.012   0.004   0.003   0.006  -0.000
  0.081  -0.067  -0.019  -0.100  -0.013  -0.036   0.023   0.013   0.061   0.008   2.429  -0.580  -0.001   0.019   0.015   0.000
  0.002  -0.006   0.014   0.011   0.018  -0.025   0.028  -0.010   0.007  -0.012  -0.580   0.155   0.000  -0.002  -0.001  -0.000
 -0.035  -0.030  -0.004  -0.001  -0.006   0.034   0.030   0.005   0.001   0.004  -0.001   0.000   0.243   0.006  -0.007  -0.014
  0.001  -0.004  -0.016  -0.012  -0.001  -0.000   0.004   0.019   0.020   0.003   0.019  -0.002   0.006   0.242   0.006   0.000
  0.004   0.001   0.012  -0.021  -0.002  -0.004  -0.000  -0.010   0.029   0.006   0.015  -0.001  -0.007   0.006   0.241   0.000
  0.001   0.000   0.000   0.000   0.000  -0.002  -0.002  -0.000  -0.000  -0.000   0.000  -0.000  -0.014   0.000   0.000   0.001
  0.000   0.000  -0.002  -0.002  -0.001  -0.000  -0.000  -0.001  -0.001   0.000  -0.002   0.000   0.000  -0.014  -0.000  -0.000
 -0.000  -0.000  -0.000  -0.002  -0.002   0.000   0.000   0.001  -0.001   0.000  -0.001   0.000   0.000  -0.000  -0.014   0.000


------------------------ aborting loop because EDIFF is reached ----------------------------------------


    CHARGE:  cpu time    0.0444: real time    0.0446
    FORLOC:  cpu time    0.0062: real time    0.0062
    FORNL :  cpu time    0.2265: real time    0.2280
    STRESS:  cpu time    0.6547: real time    0.6613
    FORCOR:  cpu time    0.0248: real time    0.0249
    FORHAR:  cpu time    0.0099: real time    0.0101
    MIXING:  cpu time    0.0009: real time    0.0009
    OFIELD:  cpu time    0.0000: real time    0.0000

  FORCE on cell =-STRESS in cart. coord.  units (eV):
  Direction    XX          YY          ZZ          XY          YZ          ZX
  --------------------------------------------------------------------------------------
  Alpha Z  2007.37099  2007.37099  2007.37099
  Ewald   -9371.52871 -9365.71825 -9376.23135   -20.31783    18.00369    28.83313
  Hartree   883.23627   883.99369   882.08158    -8.15616     9.16517    11.22629
  E(xc)   -1480.10583 -1480.03633 -1480.19129    -0.11901     0.09174     0.15247
  Local    1272.45323  1268.70965  1275.55724    25.03101   -25.14053   -35.31797
  n-local    82.43417    82.61366    81.93414    -1.83955     1.83116     1.46582
  augment  1853.37298  1852.36231  1854.57456     1.82772    -1.36648    -2.11038
  Kinetic  4752.81922  4750.80432  4754.97957     3.56006    -2.57230    -4.23230
  Fock        0.00000     0.00000     0.00000     0.00000     0.00000     0.00000
  -------------------------------------------------------------------------------------
  Total       0.05232     0.10003     0.07545    -0.01376     0.01245     0.01705
  in kB       0.16083     0.30749     0.23193    -0.04230     0.03828     0.05241
  external pressure =        0.23 kB  Pullay stress =        0.00 kB


 VOLUME and BASIS-vectors are now :
 -----------------------------------------------------------------------------
  energy-cutoff  :      300.00
  volume of cell :      521.23
      direct lattice vectors                 reciprocal lattice vectors
     8.054612439  0.011089084 -0.016223811     0.124153222 -0.000176532  0.000254500
     0.011414473  8.016389781 -0.007843753    -0.000171501  0.124744794  0.000118889
    -0.016558669 -0.007716292  8.072482667     0.000249352  0.000120855  0.123878254

  length of vectors
     8.054636412  8.016401745  8.072503338     0.124153608  0.124744968  0.123878564


 FORCES acting on ions
    electron-ion (+dipol)            ewald-force                    non-local-force                 convergence-correction
 -----------------------------------------------------------------------------------------------
   -.116E-01 -.177E+01 0.356E+01   0.285E+00 0.178E+01 -.327E+01   -.279E+00 -.146E-01 -.314E+00   0.738E-02 0.690E-02 0.244E-01
   -.146E+01 -.366E+01 -.330E+01   0.169E+01 0.336E+01 0.283E+01   -.239E+00 0.292E+00 0.449E+00   0.541E-02 0.967E-02 0.270E-01
   0.341E+00 0.248E+01 -.275E+01   -.983E-01 -.245E+01 0.294E+01   -.263E+00 -.238E-01 -.165E+00   0.198E-01 -.505E-02 -.253E-01
   -.294E+00 -.123E+00 -.688E+01   0.147E+00 0.331E+00 0.635E+01   0.153E+00 -.204E+00 0.556E+00   -.330E-02 -.358E-02 -.312E-01
   -.432E+01 0.107E+01 -.390E+00   0.397E+01 -.987E+00 0.330E+00   0.315E+00 -.103E+00 0.836E-01   0.291E-01 0.129E-01 -.241E-01
   -.202E+01 0.439E+01 0.100E+01   0.197E+01 -.406E+01 -.133E+01   0.407E-01 -.329E+00 0.302E+00   0.119E-01 0.330E-02 0.237E-01
   -.329E+01 0.674E+00 -.294E+01   0.276E+01 -.666E+00 0.282E+01   0.528E+00 -.506E-02 0.844E-01   -.413E-02 -.650E-02 0.333E-01
   0.831E+01 -.109E+01 0.561E+01   -.781E+01 0.105E+01 -.519E+01   -.467E+00 0.318E-01 -.403E+00   -.275E-01 0.134E-01 -.198E-01
   -.674E+00 0.414E+01 0.405E+01   0.813E+00 -.406E+01 -.369E+01   -.142E+00 -.746E-01 -.335E+00   0.303E-02 -.669E-02 -.243E-01
   0.170E+01 0.207E+01 0.204E+01   -.170E+01 -.223E+01 -.226E+01   0.159E-01 0.151E+00 0.201E+00   -.114E-01 0.335E-02 0.204E-01
   0.157E+01 -.445E+01 0.283E+01   -.137E+01 0.416E+01 -.233E+01   -.207E+00 0.295E+00 -.469E+00   0.394E-02 -.854E-02 -.270E-01
   0.354E+00 -.576E+00 -.109E+01   -.545E+00 0.327E+00 0.991E+00   0.197E+00 0.244E+00 0.587E-01   -.645E-02 0.696E-02 0.322E-01
   -.318E+00 -.240E+01 -.207E+01   0.195E+00 0.217E+01 0.208E+01   0.130E+00 0.233E+00 0.429E-02   -.487E-02 -.106E-01 -.985E-02
   0.693E+01 0.468E+01 0.622E+01   -.657E+01 -.431E+01 -.610E+01   -.356E+00 -.356E+00 -.137E+00   -.305E-02 -.119E-01 0.992E-02
   -.860E+01 0.299E+01 -.567E+01   0.775E+01 -.274E+01 0.556E+01   0.853E+00 -.261E+00 0.127E+00   -.601E-02 0.103E-01 -.148E-01
   -.418E+01 -.640E-02 -.738E+01   0.406E+01 0.997E-01 0.692E+01   0.105E+00 -.763E-01 0.494E+00   0.183E-01 -.134E-01 -.356E-01
   0.132E-02 -.314E+01 -.905E+00   0.151E+00 0.301E+01 0.113E+01   -.175E+00 0.124E+00 -.208E+00   0.214E-01 0.608E-02 -.170E-01
   -.275E+00 -.135E+01 0.356E+01   0.574E-01 0.152E+01 -.307E+01   0.223E+00 -.166E+00 -.518E+00   -.705E-02 -.643E-02 0.303E-01
   -.146E+01 -.118E+01 -.307E+01   0.160E+01 0.118E+01 0.285E+01   -.141E+00 -.141E-01 0.243E+00   0.399E-02 0.763E-02 -.240E-01
   0.312E+01 -.263E+01 0.329E+00   -.299E+01 0.245E+01 -.305E+00   -.117E+00 0.194E+00 0.695E-02   -.183E-01 -.136E-01 -.328E-01
   0.781E+00 0.846E-02 0.400E+01   -.586E+00 -.449E-01 -.385E+01   -.213E+00 0.301E-01 -.173E+00   0.161E-01 0.606E-02 0.233E-01
   -.291E+01 -.139E+01 0.475E+01   0.292E+01 0.122E+01 -.490E+01   -.208E-01 0.175E+00 0.131E+00   0.158E-01 -.313E-02 0.178E-01
   -.394E+01 0.286E+01 0.156E+01   0.398E+01 -.288E+01 -.172E+01   -.539E-01 0.179E-01 0.126E+00   0.758E-02 -.784E-02 0.276E-01
   0.451E+01 0.163E+01 0.393E+01   -.461E+01 -.169E+01 -.388E+01   0.114E+00 0.461E-01 -.664E-01   -.480E-02 0.127E-01 0.148E-01
   -.531E+00 -.152E+01 0.656E+01   0.266E+00 0.164E+01 -.685E+01   0.256E+00 -.109E+00 0.268E+00   0.394E-02 -.111E-01 0.285E-01
   0.235E+01 -.415E+01 0.449E+01   -.230E+01 0.428E+01 -.456E+01   -.301E-01 -.120E+00 0.612E-01   -.154E-01 -.302E-02 0.145E-01
   -.523E+01 0.141E+00 -.316E+01   0.549E+01 -.743E-01 0.338E+01   -.268E+00 -.612E-01 -.244E+00   0.436E-02 -.746E-02 0.379E-01
   0.389E+01 0.539E+01 -.518E+01   -.407E+01 -.568E+01 0.533E+01   0.199E+00 0.299E+00 -.129E+00   -.224E-01 -.679E-02 -.233E-01
   0.366E+01 0.257E+01 0.385E-01   -.365E+01 -.271E+01 -.390E-01   -.489E-02 0.137E+00 0.354E-01   -.303E-02 0.385E-02 -.364E-01
   0.490E+01 -.404E+00 0.130E+01   -.499E+01 0.350E+00 -.157E+01   0.112E+00 0.497E-01 0.246E+00   -.183E-01 0.660E-02 0.237E-01
   -.729E+01 -.573E+00 -.699E+01   0.773E+01 0.683E+00 0.723E+01   -.446E+00 -.119E+00 -.208E+00   0.789E-02 0.872E-02 -.289E-01
   0.441E+01 -.470E+01 -.404E+01   -.455E+01 0.497E+01 0.418E+01   0.169E+00 -.285E+00 -.119E+00   -.243E-01 0.784E-02 -.143E-01
 -----------------------------------------------------------------------------------------------
   0.158E-01 0.614E-03 0.129E-01   0.400E-13 -.131E-12 0.320E-13   -.106E-01 -.209E-02 -.103E-01   -.512E-03 0.660E-03 0.910E-03
 
 
 POSITION                                       TOTAL-FORCE (eV/Angst)
 -----------------------------------------------------------------------------------
      0.01797      6.00471      6.07248         0.001377      0.001659      0.000916
      0.02505      3.98938      4.00911         0.003796     -0.000027      0.002560
      2.02923      2.00462      0.00771        -0.000527      0.000329     -0.001846
      4.02242      6.02920      1.96195         0.002001     -0.000055     -0.001653
      1.99621      4.01540      1.99969        -0.002662     -0.001877     -0.000468
      2.01884      2.01865      4.00369         0.001101     -0.001135     -0.001177
      5.98989      0.00048      6.04864        -0.000503     -0.003146      0.003337
      6.07670      4.01913      2.03223         0.002529      0.000851      0.005084
      0.01055      1.99750      2.03942        -0.000811      0.000587      0.001762
      6.03969      1.99586      4.00972         0.000944      0.000794      0.001106
      0.00767     -0.01641      0.03764        -0.003178      0.001175     -0.000210
      3.99887      1.98957      6.03904        -0.000116      0.001513     -0.003513
      4.01444     -0.00419     -0.00239         0.001755     -0.000513      0.001614
      4.04594      0.02532      4.02386         0.002041      0.001017     -0.004249
      3.96828      4.02806     -0.01807        -0.002590     -0.000929     -0.002078
      2.01210      0.01002      1.97680        -0.001058      0.003601     -0.004557
      2.02291      6.01427      0.00477        -0.001314     -0.001190     -0.000472
      3.99467      6.02995      6.07444        -0.002023      0.000114      0.001665
      0.01830      6.01245      1.99838        -0.001254     -0.000189     -0.000721
      6.05280      8.00352      1.99311         0.000348      0.000292     -0.001920
      2.01935      3.99745      6.05622        -0.002391     -0.000270     -0.002233
      2.02512      6.01696      4.01404         0.000131      0.002280      0.000105
     -0.00895      1.98919      6.04795         0.001460     -0.003541     -0.000519
      4.02026      4.02040      4.02022         0.000885     -0.002956     -0.000413
     -0.01289     -0.00703      4.03007        -0.004373      0.000334      0.001552
      6.04328      6.02141      4.02538         0.002310     -0.000040      0.001985
      2.00609      0.00857      6.05825        -0.000411     -0.001555      0.004744
      6.02986      2.00487     -0.00430        -0.004356      0.001870      0.000993
      4.03609      2.01470      2.00246         0.003969      0.002607     -0.001537
      6.02163      4.00547      6.02674        -0.000602      0.002494     -0.006475
      0.01877      3.99853      0.00090         0.004049      0.000025      0.002255
      6.04387      6.01555     -0.01701        -0.000529     -0.004121      0.004363
 -----------------------------------------------------------------------------------
    total drift:                                0.004666     -0.000813      0.003494


--------------------------------------------------------------------------------------------------------



  FREE ENERGIE OF THE ION-ELECTRON SYSTEM (eV)
  ---------------------------------------------------
  free  energy   TOTEN  =      -161.65104547 eV

  energy  without entropy=     -161.65207848  energy(sigma->0) =     -161.65138980
 
 d Force = 0.8367246E-04[ 0.375E-04, 0.130E-03]  d Energy = 0.1220158E-03-0.383E-04
 d Force = 0.8027742E-02[ 0.574E-02, 0.103E-01]  d Ewald  = 0.3114973E+00-0.303E+00


--------------------------------------------------------------------------------------------------------


    POTLOK:  cpu time    0.0232: real time    0.0233


--------------------------------------------------------------------------------------------------------




--------------------------------------------------------------------------------------------------------


  
 reached required accuracy - stopping structural energy minimisation
     LOOP+:  cpu time    3.7493: real time    3.8490
    4ORBIT:  cpu time    0.0000: real time    0.0000

 total amount of memory used by VASP on root node    59235. kBytes
========================================================================

   base      :      30000. kBytes
   nonlr-proj:       7155. kBytes
   fftplans  :       2252. kBytes
   grid      :       3548. kBytes
   one-center:        108. kBytes
   wavefun   :      16172. kBytes
 
  
  
 General timing and accounting informations for this job:
 ========================================================
  
                  Total CPU time used (sec):      148.933
                            User time (sec):      148.014
                          System time (sec):        0.918
                         Elapsed time (sec):      154.539
  
                   Maximum memory used (kb):      261344.
                   Average memory used (kb):           0.
  
                          Minor page faults:       131921
                          Major page faults:           22
                 Voluntary context switches:        12922
