automatically generated by mexm         
           1
     7.995611    0.003720   -0.003558
     0.003744    8.102905   -0.018979
    -0.003611   -0.018951    8.092006
   Pt   Au
  21  11
Direct configuration=     1
   0.99761000  0.74877300  0.74931800
   0.00013600  0.49928400  0.49886200
   0.24813400  0.25350000  0.00154000
   0.49668900  0.74409800  0.24863800
   0.24881000  0.50012200  0.24699500
   0.24642600  0.25075800  0.49903600
   0.74932300  0.00752300  0.75242800
   0.75280700  0.50000500  0.24327000
   0.00567500  0.25428100  0.24623800
   0.75192400  0.25254200  0.50112200
   0.00132500  0.00195300  0.00071000
   0.49987100  0.25327700  0.75628600
   0.49856800  0.00233500  0.00149300
   0.49849400  0.00118400  0.49952000
   0.50169200  0.49594900  0.00208400
   0.24706900  0.99833200  0.25211400
   0.25028200  0.74723400  0.00116600
   0.50194800  0.74919900  0.74901900
   0.00332300  0.74487800  0.24879900
   0.75240800  0.99976700  0.24885700
   0.25022400  0.49823600  0.75046800
   0.25004100  0.74971600  0.49241400
   0.99963200  0.25317500  0.75523800
   0.49967900  0.49842100  0.49871500
   0.00047000  0.00131200  0.49928600
   0.74950900  0.74790000  0.49854900
   0.24991900  0.00357100  0.74774000
   0.75260100  0.25320500  0.99907400
   0.49756700  0.25131500  0.24889300
   0.74948500  0.49358400  0.75890000
   0.99866500  0.49553200  0.00244200
   0.74969200  0.74903800  0.00078600
automatically generated by mexm         
           1
     7.967704    0.004563   -0.004930
     0.004603    8.070667   -0.018916
    -0.005003   -0.018883    8.061475
   Pt   Au
  21  11
Direct configuration=     2
   0.99814351  0.74887734  0.74963940
   0.00019040  0.49899643  0.49859050
   0.24881740  0.25295981  0.00155374
   0.49698491  0.74484160  0.24783371
   0.24870362  0.50010185  0.24703992
   0.24678850  0.25114487  0.49891908
   0.74867875  0.00679137  0.75207844
   0.75282274  0.50000452  0.24463401
   0.00532553  0.25369649  0.24727051
   0.75177601  0.25212652  0.50062577
   0.00155947  0.00121755  0.00125337
   0.49925458  0.25258896  0.75562604
   0.49835202  0.00175737  0.00149627
   0.49929420  0.00161691  0.49957257
   0.50030298  0.49681376  0.00191513
   0.24732703  0.99853867  0.25102954
   0.25054774  0.74748221  0.00087578
   0.50141237  0.74963970  0.74957520
   0.00302092  0.74541409  0.24848546
   0.75224939  0.99970688  0.24895514
   0.25053529  0.49868508  0.75062409
   0.25003153  0.74943064  0.49344271
   0.00012994  0.25275814  0.75422877
   0.49973019  0.49825304  0.49899802
  -0.00016302  0.00137758  0.49916048
   0.74953541  0.74819367  0.49862134
   0.25028645  0.00312487  0.74828084
   0.75203407  0.25184200  0.00003413
   0.49783182  0.25079161  0.24923758
   0.74930698  0.49463370  0.75745525
   0.99963576  0.49672283  0.00219322
   0.74955150  0.74986896  0.00075399
automatically generated by mexm         
           1
     7.976649    0.006436   -0.008138
     0.006516    8.067937   -0.017636
    -0.008257   -0.017593    8.063356
   Pt   Au
  21  11
Direct configuration=     3
   0.99835596  0.74891888  0.74976754
   0.00021204  0.49888180  0.49848234
   0.24908954  0.25274441  0.00155933
   0.49710249  0.74513798  0.24751333
   0.24866128  0.50009383  0.24705780
   0.24693276  0.25129904  0.49887257
   0.74842228  0.00649980  0.75193907
   0.75282925  0.50000433  0.24517744
   0.00518665  0.25346353  0.24768181
   0.75171705  0.25196092  0.50042804
   0.00165299  0.00092437  0.00146989
   0.49900912  0.25231476  0.75536301
   0.49826610  0.00152714  0.00149753
   0.49961274  0.00178939  0.49959365
   0.49974985  0.49715861  0.00184762
   0.24742955  0.99862102  0.25059752
   0.25065346  0.74758112  0.00076020
   0.50119917  0.74981542  0.74979670
   0.00290055  0.74562781  0.24836049
   0.75218627  0.99968293  0.24899421
   0.25065921  0.49886406  0.75068633
   0.25002797  0.74931690  0.49385255
   0.00032805  0.25259192  0.75382678
   0.49975064  0.49818608  0.49911078
  -0.00041508  0.00140379  0.49911037
   0.74954590  0.74831072  0.49865017
   0.25043289  0.00294699  0.74849638
   0.75180868  0.25129875  0.00041655
   0.49793737  0.25058295  0.24937491
   0.74923574  0.49505214  0.75687962
   0.00002206  0.49719741  0.00209427
   0.74949547  0.75020020  0.00074121
automatically generated by mexm         
           1
     8.000281    0.011387   -0.016612
     0.011571    8.060727   -0.014254
    -0.016856   -0.014186    8.068322
   Pt   Au
  21  11
Direct configuration=     4
   0.99897067  0.74909992  0.75011167
   0.00026772  0.49861815  0.49821186
   0.24980224  0.25206400  0.00155278
   0.49748173  0.74610491  0.24674597
   0.24861460  0.50006117  0.24724360
   0.24743196  0.25166997  0.49876569
   0.74775776  0.00556721  0.75150794
   0.75281694  0.49997188  0.24670969
   0.00466273  0.25276653  0.24882368
   0.75150406  0.25148151  0.49987874
   0.00190243  0.00009889  0.00200546
   0.49840608  0.25154347  0.75451393
   0.49804202  0.00083563  0.00150005
   0.50049820  0.00223256  0.49963409
   0.49832667  0.49812748  0.00158115
   0.24776664  0.99882188  0.24944583
   0.25092725  0.74795621  0.00037714
   0.50058496  0.75032292  0.75039277
   0.00249918  0.74637251  0.24809367
   0.75196335  0.99957035  0.24916407
   0.25099077  0.49939075  0.75081707
   0.25004882  0.74908347  0.49507603
   0.00077062  0.25210084  0.75278729
   0.49982565  0.49810130  0.49942544
  -0.00102955  0.00137164  0.49902298
   0.74955548  0.74868371  0.49879166
   0.25075644  0.00235381  0.74904976
   0.75122397  0.24999094  0.00134824
   0.49831874  0.25003303  0.24977488
   0.74905611  0.49618105  0.75532439
   0.00087980  0.49839921  0.00168216
   0.74937396  0.75102211  0.00064032
automatically generated by mexm         
           1
     8.002104    0.011769   -0.017265
     0.011961    8.060170   -0.013993
    -0.017520   -0.013923    8.068706
   Pt   Au
  21  11
Direct configuration=     5
   0.00059311  0.74957787  0.75102117
   0.00041454  0.49792146  0.49749763
   0.25168344  0.25026537  0.00153651
   0.49848107  0.74866039  0.24471917
   0.24849162  0.49997480  0.24773433
   0.24874899  0.25265000  0.49848378
   0.74600426  0.00310317  0.75036889
   0.75278613  0.49988549  0.25075680
   0.00328180  0.25092435  0.25183943
   0.75094171  0.25021490  0.49842785
   0.00256179 -0.00208305  0.00342066
   0.49681426  0.24950586  0.75227097
   0.49745115 -0.00099174  0.00150675
   0.50283463  0.00340321  0.49974162
   0.49457007  0.50068896  0.00087543
   0.24865485  0.99935299  0.24640416
   0.25164912  0.74894748 -0.00063449
   0.49896442  0.75166426  0.75196632
   0.00143925  0.74834096  0.24738819
   0.75137532  0.99927288  0.24961251
   0.25186555  0.50078242  0.75116251
   0.25010529  0.74846604  0.49830770
   0.00193773  0.25080317  0.75004237
   0.50002399  0.49787706  0.50025663
  -0.00265118  0.00128708  0.49879154
   0.74958069  0.74966938  0.49916525
   0.25161124  0.00078572  0.75051197
   0.74968278  0.24653463  0.00380905
   0.49932592  0.24857928  0.25083194
   0.74857968  0.49916528  0.75121591
   0.00314209  0.50157498  0.00059404
   0.74905266  0.75319436  0.00037339
automatically generated by mexm         
           1
     8.015664    0.011620   -0.016575
     0.011831    8.061869   -0.012443
    -0.016840   -0.012362    8.075771
   Pt   Au
  21  11
Direct configuration=     6
   0.00071796  0.74961467  0.75109141
   0.00042581  0.49786768  0.49744260
   0.25182823  0.25012640  0.00153546
   0.49855765  0.74885774  0.24456290
   0.24848220  0.49996812  0.24777216
   0.24885023  0.25272563  0.49846212
   0.74586941  0.00291302  0.75028101
   0.75278410  0.49987869  0.25106884
   0.00317592  0.25078206  0.25207190
   0.75089840  0.25011717  0.49831598
   0.00261273 -0.00225161  0.00352989
   0.49669173  0.24934866  0.75209797
   0.49740579 -0.00113282  0.00150728
   0.50301430  0.00349349  0.49975007
   0.49428092  0.50088696  0.00082064
   0.24872290  0.99939405  0.24616970
   0.25170451  0.74902403 -0.00071246
   0.49883983  0.75176786  0.75208747
   0.00135756  0.74849304  0.24733365
   0.75133014  0.99924992  0.24964705
   0.25193280  0.50088983  0.75118917
   0.25010993  0.74841825  0.49855690
   0.00202734  0.25070300  0.74983087
   0.50003932  0.49785970  0.50032074
  -0.00277593  0.00128063  0.49877357
   0.74958261  0.74974548  0.49919402
   0.25167719  0.00066455  0.75062483
   0.74956461  0.24626773  0.00399877
   0.49940355  0.24846694  0.25091357
   0.74854255  0.49939587  0.75089900
   0.00331587  0.50182014  0.00051022
   0.74902782  0.75336212  0.00035271
automatically generated by mexm         
           1
     8.025840    0.011509   -0.016056
     0.011734    8.063144   -0.011279
    -0.016329   -0.011191    8.081075
   Pt   Au
  21  11
Direct configuration=     7
   0.00092304  0.74989480  0.75118834
   0.00070420  0.49793282  0.49719518
   0.25179169  0.25001123  0.00158755
   0.49850140  0.74934753  0.24471432
   0.24843208  0.50007465  0.24806834
   0.24920016  0.25260956  0.49829259
   0.74571091  0.00257920  0.75021264
   0.75290216  0.49990839  0.25126975
   0.00305686  0.25069401  0.25215499
   0.75078636  0.24993634  0.49842202
   0.00264756 -0.00231042  0.00359018
   0.49684904  0.24916179  0.75183929
   0.49743336 -0.00128450  0.00144491
   0.50304722  0.00338218  0.49973281
   0.49415590  0.50096132  0.00059730
   0.24888523  0.99930562  0.24614458
   0.25167286  0.74927523 -0.00048958
   0.49866439  0.75196043  0.75227928
   0.00143010  0.74889372  0.24756079
   0.75117255  0.99886501  0.24980989
   0.25203655  0.50077585  0.75120701
   0.25023811  0.74871817  0.49850922
   0.00170993  0.25053602  0.75000185
   0.49990946  0.49828514  0.50024199
  -0.00239857  0.00091927  0.49882397
   0.74950943  0.74995375  0.49927632
   0.25145323  0.00056911  0.75046078
   0.74958893  0.24671214  0.00354466
   0.49944675  0.24859520  0.25085174
   0.74854542  0.49930721  0.75089650
   0.00291468  0.50140996  0.00037489
   0.74907703  0.75301827  0.00019590
automatically generated by mexm         
           1
     8.028384    0.011329   -0.015460
     0.011572    8.053781   -0.010005
    -0.015743   -0.009907    8.077107
   Pt   Au
  21  11
Direct configuration=     8
   0.00107668  0.75010499  0.75126097
   0.00091280  0.49798174  0.49700962
   0.25176431  0.24992481  0.00162662
   0.49845926  0.74971502  0.24482780
   0.24839450  0.50015454  0.24829042
   0.24946235  0.25252250  0.49816545
   0.74559215  0.00232872  0.75016143
   0.75299060  0.49993064  0.25142040
   0.00296764  0.25062792  0.25221732
   0.75070241  0.24980063  0.49850157
   0.00267366 -0.00235456  0.00363539
   0.49696693  0.24902161  0.75164534
   0.49745401 -0.00139831  0.00139817
   0.50307188  0.00329866  0.49971989
   0.49406224  0.50101714  0.00042983
   0.24900686  0.99923927  0.24612574
   0.25164913  0.74946370 -0.00032248
   0.49853293  0.75210490  0.75242309
   0.00148444  0.74919434  0.24773106
   0.75105446  0.99857617  0.24993207
   0.25211429  0.50069033  0.75122039
   0.25033415  0.74894323  0.49847341
   0.00147210  0.25041068  0.75013010
   0.49981218  0.49860438  0.50018289
  -0.00211584  0.00064812  0.49886179
   0.74945459  0.75011002  0.49933801
   0.25128543  0.00049751  0.75033780
   0.74960718  0.24704568  0.00320407
   0.49947912  0.24869145  0.25080536
   0.74854757  0.49924069  0.75089463
   0.00261409  0.50110219  0.00027349
   0.74911391  0.75276028  0.00007836
automatically generated by mexm         
           1
     8.032118    0.011064   -0.014584
     0.011334    8.040036   -0.008135
    -0.014883   -0.008022    8.071281
   Pt   Au
  21  11
Direct configuration=     9
   0.00127066  0.75031385  0.75137763
   0.00118921  0.49803233  0.49680213
   0.25173556  0.24983670  0.00167709
   0.49841648  0.75014976  0.24494135
   0.24831230  0.50027813  0.24850331
   0.24976406  0.25240943  0.49801409
   0.74544795  0.00201548  0.75011736
   0.75310799  0.49997749  0.25162637
   0.00284538  0.25051528  0.25230193
   0.75062298  0.24962370  0.49859185
   0.00265811 -0.00238812  0.00373349
   0.49710035  0.24882993  0.75139666
   0.49751460 -0.00149086  0.00133100
   0.50308910  0.00320931  0.49971487
   0.49389043  0.50109721  0.00024644
   0.24916009  0.99921244  0.24609210
   0.25157825  0.74962151 -0.00007404
   0.49835266  0.75226272  0.75261807
   0.00155020  0.74952034  0.24789112
   0.75092032  0.99826132  0.25002806
   0.25218235  0.50055717  0.75125716
   0.25047428  0.74920368  0.49842125
   0.00120485  0.25022952  0.75023365
   0.49971743  0.49902984  0.50010886
  -0.00176801  0.00036576  0.49890926
   0.74941016  0.75024173  0.49945313
   0.25109497  0.00048288  0.75019917
   0.74958409  0.24742224  0.00281091
   0.49956147  0.24884032  0.25069271
   0.74853393  0.49918392  0.75081676
   0.00230358  0.50075060  0.00019946
   0.74917222  0.75240338 -0.00003319
automatically generated by mexm         
           1
     8.033653    0.010956   -0.014224
     0.011236    8.034387   -0.007366
    -0.014530   -0.007248    8.068887
   Pt   Au
  21  11
Direct configuration=    10
   0.00155535  0.75062083  0.75154893
   0.00159493  0.49810674  0.49649730
   0.25169335  0.24970717  0.00175124
   0.49835370  0.75078875  0.24510805
   0.24819162  0.50045975  0.24881601
   0.25020690  0.25224328  0.49779174
   0.74523630  0.00155507  0.75005271
   0.75328026  0.50004631  0.25192889
   0.00266592  0.25034968  0.25242625
   0.75050639  0.24936360  0.49872451
   0.00263528 -0.00243748  0.00387760
   0.49729619  0.24854824  0.75103141
   0.49760353 -0.00162689  0.00123236
   0.50311437  0.00307798  0.49970751
   0.49363829  0.50121494 -0.00002293
   0.24938499  0.99917303  0.24604268
   0.25147420  0.74985341  0.00029086
   0.49808807  0.75249465  0.75290447
   0.00164670  0.74999947  0.24812614
   0.75072344  0.99779851  0.25016913
   0.25228225  0.50036144  0.75131120
   0.25067996  0.74958653  0.49834456
   0.00081259  0.24996321  0.75038582
   0.49957838  0.49965524  0.50000002
  -0.00125750 -0.00004927  0.49897901
   0.74934494  0.75043531  0.49962220
   0.25081544  0.00046141  0.74999556
   0.74955026  0.24797584  0.00223332
   0.49968235  0.24905916  0.25052721
   0.74851392  0.49910049  0.75070239
   0.00184783  0.50023382  0.00009084
   0.74925781  0.75187880 -0.00019697
automatically generated by mexm         
           1
     8.039358    0.010739   -0.014119
     0.011033    8.030581   -0.006867
    -0.014433   -0.006742    8.069699
   Pt   Au
  21  11
Direct configuration=    11
   0.00167229  0.75074719  0.75161933
   0.00176159  0.49813741  0.49637191
   0.25167601  0.24965384  0.00178175
   0.49832791  0.75105178  0.24517654
   0.24814204  0.50053448  0.24894460
   0.25038881  0.25217491  0.49770030
   0.74514935  0.00136555  0.75002618
   0.75335101  0.50007461  0.25205328
   0.00259220  0.25028149  0.25247740
   0.75045849  0.24925651  0.49877909
   0.00262590 -0.00245782  0.00393687
   0.49737665  0.24843232  0.75088121
   0.49764006 -0.00168288  0.00119180
   0.50312475  0.00302391  0.49970450
   0.49353473  0.50126343 -0.00013372
   0.24947737  0.99915681  0.24602234
   0.25143144  0.74994884  0.00044091
   0.49797937  0.75259009  0.75302224
   0.00168634  0.75019669  0.24822275
   0.75064255  0.99760798  0.25022720
   0.25232327  0.50028086  0.75133343
   0.25076446  0.74974414  0.49831297
   0.00065145  0.24985356  0.75044845
   0.49952128  0.49991270  0.49995521
  -0.00104781 -0.00022012  0.49900771
   0.74931814  0.75051498  0.49969171
   0.25070062  0.00045258  0.74991184
   0.74953640  0.24820379  0.00199573
   0.49973201  0.24914927  0.25045911
   0.74850571  0.49906616  0.75065537
   0.00166062  0.50002108  0.00004624
   0.74929296  0.75166287 -0.00026428
automatically generated by mexm         
           1
     8.056473    0.010088   -0.013802
     0.010424    8.019164   -0.005370
    -0.014143   -0.005225    8.072137
   Pt   Au
  21  11
Direct configuration=    12
   0.00180622  0.75071816  0.75175975
   0.00197534  0.49815684  0.49636517
   0.25167006  0.24962714  0.00179733
   0.49837264  0.75126242  0.24517748
   0.24803360  0.50064679  0.24892696
   0.25054444  0.25210728  0.49762121
   0.74510412  0.00112324  0.75005512
   0.75341084  0.50015195  0.25226302
   0.00244393  0.25008941  0.25256056
   0.75046401  0.24912483  0.49879249
   0.00246637 -0.00241542  0.00407949
   0.49741302  0.24827858  0.75067151
   0.49777218 -0.00160782  0.00111337
   0.50310705  0.00300286  0.49971344
   0.49329625  0.50134949 -0.00019021
   0.24960362  0.99933433  0.24596643
   0.25126201  0.74987580  0.00065858
   0.49780272  0.75262322  0.75318488
   0.00168155  0.75028735  0.24820142
   0.75059302  0.99754985  0.25013503
   0.25226899  0.50013223  0.75137676
   0.25089709  0.74986040  0.49835289
   0.00055373  0.24965871  0.75032909
   0.49954676  0.50023890  0.49990783
  -0.00087928 -0.00024343  0.49904852
   0.74937597  0.75044324  0.49989869
   0.25062510  0.00061183  0.74990097
   0.74936510  0.24829485  0.00187896
   0.49993531  0.24934039  0.25025202
   0.74847913  0.49915134  0.75032955
   0.00164060  0.49989149  0.00011384
   0.74936653  0.75133274 -0.00024216
automatically generated by mexm         
           1
     8.059841    0.009960   -0.013739
     0.010304    8.016918   -0.005076
    -0.014086   -0.004927    8.072616
   Pt   Au
  21  11
Direct configuration=    13
   0.00220772  0.75063101  0.75218096
   0.00261611  0.49821517  0.49634495
   0.25165223  0.24954701  0.00184406
   0.49850675  0.75189466  0.24518026
   0.24770852  0.50098389  0.24887402
   0.25101099  0.25190435  0.49738396
   0.74496848  0.00039597  0.75014197
   0.75359021  0.50038406  0.25289216
   0.00199943  0.24951285  0.25281005
   0.75048053  0.24872958  0.49883272
   0.00198813 -0.00228822  0.00450733
   0.49752203  0.24781721  0.75004251
   0.49816823 -0.00138252  0.00087809
   0.50305401  0.00293965  0.49974025
   0.49258133  0.50160778 -0.00035970
   0.24998211  0.99986717  0.24579869
   0.25075405  0.74965654  0.00131156
   0.49727313  0.75272262  0.75367273
   0.00166722  0.75055948  0.24813743
   0.75044453  0.99737539  0.24985854
   0.25210623  0.49968613  0.75150676
   0.25129470  0.75020933  0.49847262
   0.00026076  0.24907390  0.74997110
   0.49962317  0.50121798  0.49976564
  -0.00037406 -0.00031340  0.49917094
   0.74954929  0.75022785  0.50051956
   0.25039869  0.00108981  0.74986832
   0.74885157  0.24856817  0.00152868
   0.50054481  0.24991410  0.24963075
   0.74839947  0.49940705  0.74935219
   0.00158059  0.49950254  0.00031665
   0.74958706  0.75034187 -0.00017575
automatically generated by mexm         
           1
     8.059473    0.010055   -0.014544
     0.010406    8.010030   -0.005501
    -0.014896   -0.005353    8.069276
   Pt   Au
  21  11
Direct configuration=    14
   0.00228655  0.75061383  0.75226382
   0.00274193  0.49822668  0.49634096
   0.25164872  0.24953122  0.00185326
   0.49853309  0.75201925  0.24518078
   0.24764469  0.50105032  0.24886360
   0.25110260  0.25186437  0.49733729
   0.74494183  0.00025265  0.75015909
   0.75362543  0.50042978  0.25301592
   0.00191213  0.24939921  0.25285915
   0.75048376  0.24865170  0.49884064
   0.00189422 -0.00226317  0.00459149
   0.49754344  0.24772632  0.74991879
   0.49824601 -0.00133811  0.00083179
   0.50304360  0.00292719  0.49974553
   0.49244096  0.50165868 -0.00039304
   0.25005644  0.99997218  0.24576566
   0.25065430  0.74961329  0.00144002
   0.49716913  0.75274218  0.75376870
   0.00166441  0.75061311  0.24812484
   0.75041537  0.99734102  0.24980416
   0.25207426  0.49959821  0.75153235
   0.25137278  0.75027809  0.49849616
   0.00020323  0.24895867  0.74990070
   0.49963819  0.50141093  0.49973763
  -0.00027485 -0.00032718  0.49919502
   0.74958332  0.75018539  0.50064170
   0.25035424  0.00118400  0.74986189
   0.74875073  0.24862204  0.00145976
   0.50066450  0.25002718  0.24950851
   0.74838384  0.49945748  0.74915991
   0.00156880  0.49942588  0.00035656
   0.74963035  0.75014661 -0.00016265
automatically generated by mexm         
           1
     8.059331    0.010091   -0.014856
     0.010446    8.007354   -0.005667
    -0.015211   -0.005518    8.067979
   Pt   Au
  21  11
Direct configuration=    15
   0.00243461  0.75038601  0.75245955
   0.00299284  0.49818542  0.49650867
   0.25161309  0.24956191  0.00183310
   0.49868061  0.75206033  0.24501587
   0.24756724  0.50100387  0.24879526
   0.25125028  0.25202373  0.49714171
   0.74501723  0.00003482  0.75027897
   0.75372966  0.50048086  0.25324606
   0.00174145  0.24926285  0.25291384
   0.75049553  0.24855684  0.49871943
   0.00164669 -0.00216041  0.00470137
   0.49756422  0.24778181  0.74971638
   0.49831815 -0.00128758  0.00071609
   0.50310812  0.00296025  0.49967462
   0.49220921  0.50175145 -0.00044701
   0.25019397  0.00036156  0.24562420
   0.25047806  0.74960125  0.00154103
   0.49689231  0.75268778  0.75405379
   0.00158731  0.75054369  0.24813006
   0.75046144  0.99741171  0.24968919
   0.25191598  0.49938666  0.75151190
   0.25141168  0.75029106  0.49856957
   0.00014838  0.24890038  0.74972379
   0.49958417  0.50141576  0.49965521
  -0.00041192 -0.00031710  0.49915655
   0.74986272  0.75022559  0.50080164
   0.25042307  0.00132838  0.75021455
   0.74855258  0.24867700  0.00142525
   0.50090326  0.25033834  0.24939790
   0.74838946  0.49946547  0.74882337
   0.00165852  0.49925176  0.00046938
   0.74957809  0.74982759 -0.00006129
automatically generated by mexm         
           1
     8.062620    0.010308   -0.015706
     0.010664    8.007805   -0.006346
    -0.016063   -0.006200    8.070328
   Pt   Au
  21  11
Direct configuration=    16
   0.00249213  0.75029744  0.75253561
   0.00309030  0.49816939  0.49657384
   0.25159924  0.24957384  0.00182527
   0.49873791  0.75207629  0.24495180
   0.24753715  0.50098581  0.24876871
   0.25130763  0.25208568  0.49706572
   0.74504652 -0.00004985  0.75032555
   0.75377016  0.50050072  0.25333550
   0.00167516  0.24920985  0.25293508
   0.75050009  0.24851996  0.49867233
   0.00155055 -0.00212046  0.00474406
   0.49757228  0.24780337  0.74963773
   0.49834616 -0.00126793  0.00067113
   0.50313318  0.00297309  0.49964706
   0.49211919  0.50178751 -0.00046799
   0.25024738  0.00051292  0.24556924
   0.25040961  0.74959657  0.00158028
   0.49678479  0.75266664  0.75416456
   0.00155736  0.75051670  0.24813209
   0.75047932  0.99743918  0.24964452
   0.25185450  0.49930442  0.75150394
   0.25142679  0.75029611  0.49859810
   0.00012707  0.24887772  0.74965505
   0.49956319  0.50141764  0.49962317
  -0.00046516 -0.00031319  0.49914159
   0.74997125  0.75024121  0.50086380
   0.25044982  0.00138452  0.75035159
   0.74847562  0.24869836  0.00141183
   0.50099600  0.25045930  0.24935494
   0.74839162  0.49946857  0.74869260
   0.00169338  0.49918407  0.00051322
   0.74955779  0.74970357 -0.00002192
automatically generated by mexm         
           1
     8.064602    0.010438   -0.016218
     0.010795    8.008077   -0.006755
    -0.016576   -0.006611    8.071742
   Pt   Au
  21  11
Direct configuration=    17
   0.00261812  0.75006195  0.75271800
   0.00330151  0.49811982  0.49677460
   0.25155865  0.24962433  0.00179202
   0.49887438  0.75204095  0.24480198
   0.24750109  0.50089506  0.24871602
   0.25140800  0.25224528  0.49687140
   0.74515777 -0.00021104  0.75047139
   0.75388885  0.50052833  0.25352333
   0.00153394  0.24915603  0.25295445
   0.75050531  0.24846412  0.49854143
   0.00131403 -0.00202920  0.00478831
   0.49760444  0.24794781  0.74948329
   0.49838915 -0.00123144  0.00058761
   0.50320726  0.00299082  0.49955290
   0.49197060  0.50184116 -0.00053458
   0.25035920  0.00087454  0.24545627
   0.25025213  0.74964519  0.00163638
   0.49654598  0.75256484  0.75439065
   0.00150184  0.75041273  0.24817060
   0.75053089  0.99752520  0.24954851
   0.25169681  0.49911170  0.75144851
   0.25142268  0.75033258  0.49864694
   0.00008224  0.24887879  0.74951229
   0.49949696  0.50133377  0.49954875
  -0.00062347 -0.00032736  0.49910982
   0.75023452  0.75033553  0.50095457
   0.25051970  0.00147302  0.75072382
   0.74832934  0.24878166  0.00136947
   0.50118321  0.25073563  0.24930336
   0.74840814  0.49942313  0.74847428
   0.00174802  0.49899556  0.00059590
   0.74947672  0.74945850  0.00006773
automatically generated by mexm         
           1
     8.064408    0.010426   -0.016168
     0.010782    8.008050   -0.006715
    -0.016526   -0.006571    8.071604
   Pt   Au
  21  11
Direct configuration=    18
   0.00269399  0.74992012  0.75282782
   0.00342870  0.49808996  0.49689550
   0.25153420  0.24965473  0.00177201
   0.49895654  0.75201965  0.24471178
   0.24747938  0.50084040  0.24868429
   0.25146841  0.25234139  0.49675441
   0.74522477 -0.00030811  0.75055920
   0.75396032  0.50054496  0.25363645
   0.00144891  0.24912362  0.25296611
   0.75050844  0.24843047  0.49846260
   0.00117163 -0.00197423  0.00481494
   0.49762379  0.24803479  0.74939030
   0.49841503 -0.00120946  0.00053732
   0.50325186  0.00300149  0.49949621
   0.49188113  0.50187347 -0.00057468
   0.25042651  0.00109233  0.24538827
   0.25015732  0.74967448  0.00167015
   0.49640221  0.75250354  0.75452677
   0.00146841  0.75035011  0.24819378
   0.75056193  0.99757701  0.24949070
   0.25160186  0.49899563  0.75141511
   0.25142021  0.75035455  0.49867635
   0.00005524  0.24887943  0.74942633
   0.49945708  0.50128326  0.49950393
  -0.00071879 -0.00033589  0.49909068
   0.75039303  0.75039233  0.50100925
   0.25056181  0.00152634  0.75094798
   0.74824127  0.24883184  0.00134395
   0.50129592  0.25090207  0.24927233
   0.74841808  0.49939576  0.74834282
   0.00178093  0.49888203  0.00064569
   0.74942791  0.74931090  0.00012170
automatically generated by mexm         
           1
     8.063514    0.010367   -0.015937
     0.010723    8.007928   -0.006530
    -0.016295   -0.006385    8.070966
   Pt   Au
  21  11
Direct configuration=    19
   0.00268658  0.74993398  0.75281710
   0.00341627  0.49809288  0.49688369
   0.25153659  0.24965176  0.00177396
   0.49894851  0.75202173  0.24472059
   0.24748150  0.50084574  0.24868739
   0.25146251  0.25233201  0.49676583
   0.74521822 -0.00029863  0.75055062
   0.75395334  0.50054334  0.25362540
   0.00145722  0.24912678  0.25296497
   0.75050813  0.24843376  0.49847030
   0.00118553 -0.00197960  0.00481234
   0.49762190  0.24802630  0.74939938
   0.49841250 -0.00121161  0.00054223
   0.50324750  0.00300045  0.49950175
   0.49188987  0.50187031 -0.00057077
   0.25041993  0.00107106  0.24539491
   0.25016658  0.74967162  0.00166685
   0.49641625  0.75250953  0.75451347
   0.00147168  0.75035623  0.24819152
   0.75055890  0.99757195  0.24949634
   0.25161113  0.49900697  0.75141837
   0.25142045  0.75035241  0.49867347
   0.00005787  0.24887937  0.74943472
   0.49946097  0.50128819  0.49950831
  -0.00070948 -0.00033506  0.49909255
   0.75037755  0.75038678  0.50100390
   0.25055769  0.00152113  0.75092608
   0.74824987  0.24882694  0.00134644
   0.50128491  0.25088581  0.24927536
   0.74841711  0.49939843  0.74835566
   0.00177772  0.49889312  0.00064082
   0.74943267  0.74932531  0.00011643
automatically generated by mexm         
           1
     8.064208    0.010413   -0.016116
     0.010769    8.008023   -0.006674
    -0.016474   -0.006529    8.071461
   Pt   Au
  21  11
Direct configuration=    20
   0.00265235  0.74999796  0.75276756
   0.00335890  0.49810635  0.49682915
   0.25154762  0.24963804  0.00178299
   0.49891146  0.75203134  0.24476128
   0.24749129  0.50087040  0.24870170
   0.25143526  0.25228865  0.49681860
   0.74518800 -0.00025483  0.75051101
   0.75392110  0.50053583  0.25357437
   0.00149557  0.24914140  0.25295972
   0.75050672  0.24844894  0.49850586
   0.00124977 -0.00200440  0.00480033
   0.49761317  0.24798706  0.74944133
   0.49840083 -0.00122152  0.00056492
   0.50322739  0.00299564  0.49952732
   0.49193023  0.50185573 -0.00055267
   0.25038957  0.00097280  0.24542558
   0.25020934  0.74965840  0.00165162
   0.49648110  0.75253718  0.75445208
   0.00148675  0.75038448  0.24818106
   0.75054490  0.99754858  0.24952242
   0.25165396  0.49905934  0.75143344
   0.25142157  0.75034249  0.49866021
   0.00007006  0.24887908  0.74947350
   0.49947896  0.50131098  0.49952853
  -0.00066648 -0.00033121  0.49910118
   0.75030605  0.75036116  0.50097923
   0.25053870  0.00149707  0.75082497
   0.74828960  0.24880430  0.00135795
   0.50123408  0.25081073  0.24928935
   0.74841263  0.49941079  0.74841496
   0.00176287  0.49894434  0.00061837
   0.74945469  0.74939190  0.00009209
automatically generated by mexm         
           1
     8.063576    0.010559   -0.016198
     0.010911    8.009685   -0.006903
    -0.016553   -0.006762    8.072177
   Pt   Au
  21  11
Direct configuration=    21
   0.00267891  0.74994832  0.75280599
   0.00340342  0.49809590  0.49687147
   0.25153906  0.24964869  0.00177598
   0.49894021  0.75202389  0.24472970
   0.24748369  0.50085127  0.24869059
   0.25145641  0.25232229  0.49677766
   0.74521145 -0.00028881  0.75054175
   0.75394611  0.50054166  0.25361396
   0.00146581  0.24913006  0.25296380
   0.75050782  0.24843716  0.49847827
   0.00119993 -0.00198516  0.00480965
   0.49761994  0.24801750  0.74940878
   0.49840989 -0.00121383  0.00054732
   0.50324300  0.00299937  0.49950748
   0.49189891  0.50186704 -0.00056671
   0.25041313  0.00104903  0.24540178
   0.25017616  0.74966866  0.00166344
   0.49643078  0.75251573  0.75449972
   0.00147505  0.75036256  0.24818918
   0.75055576  0.99756671  0.24950218
   0.25162073  0.49901871  0.75142175
   0.25142070  0.75035018  0.49867050
   0.00006060  0.24887931  0.74944341
   0.49946500  0.50129330  0.49951284
  -0.00069984 -0.00033420  0.49909448
   0.75036153  0.75038104  0.50099837
   0.25055343  0.00151574  0.75090342
   0.74825877  0.24882186  0.00134902
   0.50127352  0.25086898  0.24927849
   0.74841610  0.49940120  0.74836895