automatically generated by mexm         
           1
     8.066328    0.001584   -0.000082
     0.001566    8.184598   -0.019139
    -0.000085   -0.019121    8.169370
   Au   Pt
  11  21
Direct configuration=     1
   0.25004100  0.74971600  0.49241400
   0.99963200  0.25317500  0.75523800
   0.49967900  0.49842100  0.49871500
   0.00047000  0.00131200  0.49928600
   0.74950900  0.74790000  0.49854900
   0.24991900  0.00357100  0.74774000
   0.75260100  0.25320500  0.99907400
   0.49756700  0.25131500  0.24889300
   0.74948500  0.49358400  0.75890000
   0.99866500  0.49553200  0.00244200
   0.74969200  0.74903800  0.00078600
   0.99761000  0.74877300  0.74931800
   0.00013600  0.49928400  0.49886200
   0.24813400  0.25350000  0.00154000
   0.49668900  0.74409800  0.24863800
   0.24881000  0.50012200  0.24699500
   0.24642600  0.25075800  0.49903600
   0.74932300  0.00752300  0.75242800
   0.75280700  0.50000500  0.24327000
   0.00567500  0.25428100  0.24623800
   0.75192400  0.25254200  0.50112200
   0.00132500  0.00195300  0.00071000
   0.49987100  0.25327700  0.75628600
   0.49856800  0.00233500  0.00149300
   0.49849400  0.00118400  0.49952000
   0.50169200  0.49594900  0.00208400
   0.24706900  0.99833200  0.25211400
   0.25028200  0.74723400  0.00116600
   0.50194800  0.74919900  0.74901900
   0.00332300  0.74487800  0.24879900
   0.75240800  0.99976700  0.24885700
   0.25022400  0.49823600  0.75046800
