<?xml version="1.0" encoding="ISO-8859-1"?>
<modeling>
 <generator>
  <i name="program" type="string">vasp </i>
  <i name="version" type="string">5.4.1  </i>
  <i name="subversion" type="string">05Feb16 (build Jan 29 2020 16:04:39) complex                          parallel </i>
  <i name="platform" type="string">IFC91_ompi </i>
  <i name="date" type="string">2020 06 15 </i>
  <i name="time" type="string">05:57:28 </i>
 </generator>
 <incar>
  <i type="string" name="SYSTEM"> automatically generated by mexm</i>
  <i type="int" name="ISTART">     0</i>
  <i type="string" name="PREC">accurate               ! avoid wrap aro</i>
  <i type="string" name="ALGO"> Fast                   ! blocked Davids</i>
  <i type="int" name="ISPIN">     1</i>
  <i type="int" name="ICHARG">     2</i>
  <i type="int" name="NELM">    70</i>
  <i type="int" name="IBRION">     2</i>
  <i name="EDIFF">      0.00001000</i>
  <i name="EDIFFG">     -0.01000000</i>
  <i type="int" name="NSW">   300</i>
  <i type="int" name="ISIF">     3</i>
  <i type="int" name="ISYM">     1</i>
  <i name="ENCUT">    300.00000000</i>
  <i name="POTIM">      0.15000000</i>
  <i type="string" name="LREAL"> Auto                  ! unpublished met</i>
  <i type="int" name="ISMEAR">     1</i>
  <i name="SIGMA">      0.15000000</i>
  <i type="logical" name="LWAVE"> F  </i>
  <i type="logical" name="LCHARG"> F  </i>
  <i type="logical" name="LVTOT"> F  </i>
  <v type="int" name="KPOINT_BSE">    -1     0     0     0</v>
  <i type="int" name="NELM">    70</i>
 </incar>
 <kpoints>
  <generation param="Gamma">
   <v type="int" name="divisions">       3        3        3 </v>
   <v name="usershift">      0.00000000       0.00000000       0.00000000 </v>
   <v name="genvec1">      0.33333333      -0.00000000       0.00000000 </v>
   <v name="genvec2">      0.00000000       0.33333333       0.00000000 </v>
   <v name="genvec3">      0.00000000      -0.00000000       0.33333333 </v>
   <v name="shift">      0.00000000       0.00000000       0.00000000 </v>
  </generation>
  <varray name="kpointlist" >
   <v>       0.00000000       0.00000000       0.00000000 </v>
   <v>       0.33333333       0.00000000      -0.00000000 </v>
   <v>      -0.00000000       0.33333333       0.00000000 </v>
   <v>       0.33333333       0.33333333       0.00000000 </v>
   <v>      -0.33333333       0.33333333      -0.00000000 </v>
   <v>       0.00000000       0.00000000       0.33333333 </v>
   <v>       0.33333333       0.00000000       0.33333333 </v>
   <v>      -0.33333333      -0.00000000       0.33333333 </v>
   <v>      -0.00000000       0.33333333       0.33333333 </v>
   <v>       0.33333333       0.33333333       0.33333333 </v>
   <v>      -0.33333333       0.33333333       0.33333333 </v>
   <v>       0.00000000      -0.33333333       0.33333333 </v>
   <v>       0.33333333      -0.33333333       0.33333333 </v>
   <v>      -0.33333333      -0.33333333       0.33333333 </v>
  </varray>
  <varray name="weights" >
   <v>       0.03703704 </v>
   <v>       0.07407407 </v>
   <v>       0.07407407 </v>
   <v>       0.07407407 </v>
   <v>       0.07407407 </v>
   <v>       0.07407407 </v>
   <v>       0.07407407 </v>
   <v>       0.07407407 </v>
   <v>       0.07407407 </v>
   <v>       0.07407407 </v>
   <v>       0.07407407 </v>
   <v>       0.07407407 </v>
   <v>       0.07407407 </v>
   <v>       0.07407407 </v>
  </varray>
 </kpoints>
 <parameters>
  <separator name="general" >
   <i type="string" name="SYSTEM">automatically generated by mexm</i>
   <i type="logical" name="LCOMPAT"> F  </i>
  </separator>
  <separator name="electronic" >
   <i type="string" name="PREC">accura</i>
   <i name="ENMAX">    300.00000000</i>
   <i name="ENAUG">    461.25700000</i>
   <i name="EDIFF">      0.00001000</i>
   <i type="int" name="IALGO">    68</i>
   <i type="int" name="IWAVPR">    11</i>
   <i type="int" name="NBANDS">   168</i>
   <i name="NELECT">    276.00000000</i>
   <i type="int" name="TURBO">     0</i>
   <i type="int" name="IRESTART">     0</i>
   <i type="int" name="NREBOOT">     0</i>
   <i type="int" name="NMIN">     0</i>
   <i name="EREF">      0.00000000</i>
   <separator name="electronic smearing" >
    <i type="int" name="ISMEAR">     1</i>
    <i name="SIGMA">      0.15000000</i>
    <i name="KSPACING">      0.50000000</i>
    <i type="logical" name="KGAMMA"> T  </i>
   </separator>
   <separator name="electronic projectors" >
    <i type="logical" name="LREAL"> T  </i>
    <v name="ROPT">     -0.00025000     -0.00025000     -0.00025000     -0.00025000</v>
    <i type="int" name="LMAXPAW">  -100</i>
    <i type="int" name="LMAXMIX">     2</i>
    <i type="logical" name="NLSPLINE"> F  </i>
   </separator>
   <separator name="electronic startup" >
    <i type="int" name="ISTART">     0</i>
    <i type="int" name="ICHARG">     2</i>
    <i type="int" name="INIWAV">     1</i>
   </separator>
   <separator name="electronic spin" >
    <i type="int" name="ISPIN">     1</i>
    <i type="logical" name="LNONCOLLINEAR"> F  </i>
    <v name="MAGMOM">      1.00000000      1.00000000      1.00000000      1.00000000      1.00000000      1.00000000      1.00000000      1.00000000      1.00000000      1.00000000      1.00000000      1.00000000      1.00000000      1.00000000      1.00000000      1.00000000      1.00000000      1.00000000      1.00000000      1.00000000
      1.00000000      1.00000000      1.00000000      1.00000000      1.00000000      1.00000000      1.00000000      1.00000000      1.00000000      1.00000000      1.00000000      1.00000000      1.00000000      1.00000000      1.00000000      1.00000000</v>
    <i name="NUPDOWN">     -1.00000000</i>
    <i type="logical" name="LSORBIT"> F  </i>
    <v name="SAXIS">      0.00000000      0.00000000      1.00000000</v>
    <i type="logical" name="LSPIRAL"> F  </i>
    <v name="QSPIRAL">      0.00000000      0.00000000      0.00000000</v>
    <i type="logical" name="LZEROZ"> F  </i>
   </separator>
   <separator name="electronic exchange-correlation" >
    <i type="logical" name="LASPH"> F  </i>
    <i type="logical" name="LMETAGGA"> F  </i>
   </separator>
   <separator name="electronic convergence" >
    <i type="int" name="NELM">    70</i>
    <i type="int" name="NELMDL">    -5</i>
    <i type="int" name="NELMIN">     2</i>
    <i name="ENINI">    300.00000000</i>
    <separator name="electronic convergence detail" >
     <i type="logical" name="LDIAG"> T  </i>
     <i type="logical" name="LSUBROT"> F  </i>
     <i name="WEIMIN">      0.00100000</i>
     <i name="EBREAK">      0.00000001</i>
     <i name="DEPER">      0.30000000</i>
     <i type="int" name="NRMM">     4</i>
     <i name="TIME">      0.40000000</i>
    </separator>
   </separator>
   <separator name="electronic mixer" >
    <i name="AMIX">      0.40000000</i>
    <i name="BMIX">      1.00000000</i>
    <i name="AMIN">      0.10000000</i>
    <i name="AMIX_MAG">      1.60000000</i>
    <i name="BMIX_MAG">      1.00000000</i>
    <separator name="electronic mixer details" >
     <i type="int" name="IMIX">     4</i>
     <i type="logical" name="MIXFIRST"> F  </i>
     <i type="int" name="MAXMIX">   -45</i>
     <i name="WC">    100.00000000</i>
     <i type="int" name="INIMIX">     1</i>
     <i type="int" name="MIXPRE">     1</i>
     <i type="int" name="MREMOVE">     5</i>
    </separator>
   </separator>
   <separator name="electronic dipolcorrection" >
    <i type="logical" name="LDIPOL"> F  </i>
    <i type="logical" name="LMONO"> F  </i>
    <i type="int" name="IDIPOL">     0</i>
    <i name="EPSILON">      1.00000000</i>
    <v name="DIPOL">   -100.00000000   -100.00000000   -100.00000000</v>
    <i name="EFIELD">      0.00000000</i>
   </separator>
  </separator>
  <separator name="grids" >
   <i type="int" name="NGX">    40</i>
   <i type="int" name="NGY">    60</i>
   <i type="int" name="NGZ">    60</i>
   <i type="int" name="NGXF">    80</i>
   <i type="int" name="NGYF">   120</i>
   <i type="int" name="NGZF">   120</i>
   <i type="logical" name="ADDGRID"> F  </i>
  </separator>
  <separator name="ionic" >
   <i type="int" name="NSW">   300</i>
   <i type="int" name="IBRION">     2</i>
   <i type="int" name="ISIF">     3</i>
   <i name="PSTRESS">      0.00000000</i>
   <i name="EDIFFG">     -0.01000000</i>
   <i type="int" name="NFREE">     1</i>
   <i name="POTIM">      0.15000000</i>
   <i name="SMASS">     -3.00000000</i>
   <i name="SCALEE">      1.00000000</i>
  </separator>
  <separator name="ionic md" >
   <i name="TEBEG">      0.00010000</i>
   <i name="TEEND">      0.00010000</i>
   <i type="int" name="NBLOCK">     1</i>
   <i type="int" name="KBLOCK">   300</i>
   <i type="int" name="NPACO">   256</i>
   <i name="APACO">     16.00000000</i>
  </separator>
  <separator name="symmetry" >
   <i type="int" name="ISYM">     1</i>
   <i name="SYMPREC">      0.00001000</i>
  </separator>
  <separator name="dos" >
   <i type="logical" name="LORBIT"> F  </i>
   <v name="RWIGS">     -1.00000000     -1.00000000     -1.00000000     -1.00000000</v>
   <i type="int" name="NEDOS">   301</i>
   <i name="EMIN">     10.00000000</i>
   <i name="EMAX">    -10.00000000</i>
   <i name="EFERMI">      0.00000000</i>
  </separator>
  <separator name="writing" >
   <i type="int" name="NWRITE">     2</i>
   <i type="logical" name="LWAVE"> F  </i>
   <i type="logical" name="LCHARG"> F  </i>
   <i type="logical" name="LPARD"> F  </i>
   <i type="logical" name="LVTOT"> F  </i>
   <i type="logical" name="LVHAR"> F  </i>
   <i type="logical" name="LELF"> F  </i>
   <i type="logical" name="LOPTICS"> F  </i>
   <v name="STM">      0.00000000      0.00000000      0.00000000      0.00000000      0.00000000      0.00000000      0.00000000</v>
  </separator>
  <separator name="performance" >
   <i type="int" name="NPAR">     4</i>
   <i type="int" name="NSIM">     4</i>
   <i type="int" name="NBLK">    -1</i>
   <i type="logical" name="LPLANE"> T  </i>
   <i type="logical" name="LSCALAPACK"> T  </i>
   <i type="logical" name="LSCAAWARE"> F  </i>
   <i type="logical" name="LSCALU"> F  </i>
   <i type="logical" name="LASYNC"> F  </i>
   <i type="logical" name="LORBITALREAL"> F  </i>
  </separator>
  <separator name="miscellaneous" >
   <i type="int" name="IDIOT">     3</i>
   <i type="logical" name="LMUSIC"> F  </i>
   <v name="POMASS">     92.91000000     91.22400000    180.94800000    178.49000000</v>
   <v name="DARWINR">      0.00000000      0.00000000      0.00000000      0.00000000</v>
   <v name="DARWINV">      1.00000000      1.00000000      1.00000000      1.00000000</v>
   <i type="logical" name="LCORR"> T  </i>
  </separator>
  <i type="logical" name="GGA_COMPAT"> T  </i>
  <i type="logical" name="LBERRY"> F  </i>
  <i type="int" name="ICORELEVEL">     0</i>
  <i type="logical" name="LDAU"> F  </i>
  <i type="int" name="I_CONSTRAINED_M">     0</i>
  <separator name="electronic exchange-correlation" >
   <i type="string" name="GGA">--</i>
   <i type="int" name="VOSKOWN">     0</i>
   <i type="logical" name="LHFCALC"> F  </i>
   <i type="string" name="PRECFOCK"></i>
   <i type="logical" name="LSYMGRAD"> F  </i>
   <i type="logical" name="LHFONE"> F  </i>
   <i type="logical" name="LRHFCALC"> F  </i>
   <i type="logical" name="LTHOMAS"> F  </i>
   <i type="logical" name="LMODELHF"> F  </i>
   <i name="ENCUT4O">     -1.00000000</i>
   <i type="int" name="EXXOEP">     0</i>
   <i type="int" name="FOURORBIT">     0</i>
   <i name="AEXX">      0.00000000</i>
   <i name="HFALPHA">      0.00000000</i>
   <i name="MCALPHA">      0.00000000</i>
   <i name="ALDAX">      1.00000000</i>
   <i name="AGGAX">      1.00000000</i>
   <i name="ALDAC">      1.00000000</i>
   <i name="AGGAC">      1.00000000</i>
   <i type="int" name="NKREDX">     1</i>
   <i type="int" name="NKREDY">     1</i>
   <i type="int" name="NKREDZ">     1</i>
   <i type="logical" name="SHIFTRED"> F  </i>
   <i type="logical" name="ODDONLY"> F  </i>
   <i type="logical" name="EVENONLY"> F  </i>
   <i type="int" name="LMAXFOCK">     0</i>
   <i type="int" name="NMAXFOCKAE">     0</i>
   <i type="logical" name="LFOCKAEDFT"> F  </i>
   <i name="HFSCREEN">      0.00000000</i>
   <i name="HFSCREENC">      0.00000000</i>
   <i type="int" name="NBANDSGWLOW">     0</i>
  </separator>
  <separator name="vdW DFT" >
   <i type="logical" name="LUSE_VDW"> F  </i>
   <i name="Zab_VDW">     -0.84910000</i>
   <i name="PARAM1">      0.12340000</i>
   <i name="PARAM2">      1.00000000</i>
   <i name="PARAM3">      0.00000000</i>
  </separator>
  <separator name="model GW" >
   <i type="int" name="MODEL_GW">     0</i>
   <i name="MODEL_EPS0">     11.96286447</i>
   <i name="MODEL_ALPHA">      1.00000000</i>
  </separator>
  <separator name="linear response parameters" >
   <i type="logical" name="LEPSILON"> F  </i>
   <i type="logical" name="LRPA"> F  </i>
   <i type="logical" name="LNABLA"> F  </i>
   <i type="logical" name="LVEL"> F  </i>
   <i type="int" name="KINTER">     0</i>
   <i name="CSHIFT">      0.10000000</i>
   <i name="OMEGAMAX">     -1.00000000</i>
   <i name="DEG_THRESHOLD">      0.00200000</i>
  </separator>
  <separator name="orbital magnetization" >
   <i type="logical" name="NUCIND"> F  </i>
   <v name="MAGPOS">      0.00000000      0.00000000      0.00000000</v>
   <i type="logical" name="LNICSALL"> T  </i>
   <i type="logical" name="ORBITALMAG"> F  </i>
   <i type="logical" name="LMAGBLOCH"> F  </i>
   <i type="logical" name="LCHIMAG"> F  </i>
   <i type="logical" name="LGAUGE"> T  </i>
   <i type="int" name="MAGATOM">     0</i>
   <v name="MAGDIPOL">      0.00000000      0.00000000      0.00000000</v>
   <v name="AVECCONST">      0.00000000      0.00000000      0.00000000</v>
  </separator>
  <separator name="response functions" >
   <i type="logical" name="LADDER"> F  </i>
   <i type="logical" name="LFXC"> F  </i>
   <i type="logical" name="LHARTREE"> T  </i>
   <i type="int" name="IBSE">     0</i>
   <v type="int" name="KPOINT">    -1     0     0     0</v>
   <i type="logical" name="LTCTE"> F  </i>
   <i type="logical" name="LTETE"> F  </i>
   <i type="logical" name="LTRIPLET"> F  </i>
   <i type="logical" name="LFXCEPS"> F  </i>
   <i type="logical" name="LFXHEG"> F  </i>
   <i type="int" name="NATURALO">     0</i>
   <i type="logical" name="L2ORDER"> F  </i>
   <i type="logical" name="LUSEW"> F  </i>
   <i name="ENCUTGW">     -2.00000000</i>
   <i name="ENCUTGWSOFT">     -2.00000000</i>
   <i name="ENCUTLF">     -1.00000000</i>
   <i type="int" name="LMAXMP2">    -1</i>
   <i name="SCISSOR">      0.00000000</i>
   <i type="int" name="NOMEGA">     0</i>
   <i type="int" name="NOMEGAR">     0</i>
   <i type="int" name="NBANDSGW">    -1</i>
   <i type="int" name="NBANDSO">    -1</i>
   <i type="int" name="NBANDSV">    -1</i>
   <i type="int" name="NELM">    70</i>
   <i type="int" name="NELMHF">     1</i>
   <i type="int" name="DIM">     3</i>
   <i type="int" name="ANTIRES">     0</i>
   <i name="OMEGAMAX">    -30.00000000</i>
   <i name="OMEGAMIN">    -30.00000000</i>
   <i name="OMEGATL">   -200.00000000</i>
   <i type="int" name="OMEGAGRID">     0</i>
   <i name="CSHIFT">     -0.10000000</i>
   <i type="logical" name="SELFENERGY"> F  </i>
   <i type="logical" name="LSPECTRAL"> F  </i>
   <i type="logical" name="LSPECTRALGW"> F  </i>
   <i type="logical" name="LSINGLES"> F  </i>
   <i type="logical" name="LFERMIGW"> F  </i>
   <i type="logical" name="ODDONLYGW"> F  </i>
   <i type="logical" name="EVENONLYGW"> F  </i>
   <i type="int" name="NKREDLFX">     1</i>
   <i type="int" name="NKREDLFY">     1</i>
   <i type="int" name="NKREDLFZ">     1</i>
   <i type="int" name="MAXMEM">  1800</i>
   <i type="int" name="TELESCOPE">     0</i>
   <i type="int" name="TAUPAR">     1</i>
   <i type="int" name="OMEGAPAR">    -1</i>
   <i name="LAMBDA">      1.00000000</i>
  </separator>
  <separator name="External order field" >
   <i name="OFIELD_KAPPA">      0.00000000</i>
   <v name="OFIELD_K">      0.00000000      0.00000000      0.00000000</v>
   <i name="OFIELD_Q6_NEAR">      0.00000000</i>
   <i name="OFIELD_Q6_FAR">      0.00000000</i>
   <i name="OFIELD_A">      0.00000000</i>
  </separator>
 </parameters>
 <atominfo>
  <atoms>      36 </atoms>
  <types>       4 </types>
  <array name="atoms" >
   <dimension dim="1">ion</dimension>
   <field type="string">element</field>
   <field type="int">atomtype</field>
   <set>
    <rc><c>Nb</c><c>   1</c></rc>
    <rc><c>Nb</c><c>   1</c></rc>
    <rc><c>Nb</c><c>   1</c></rc>
    <rc><c>Nb</c><c>   1</c></rc>
    <rc><c>Nb</c><c>   1</c></rc>
    <rc><c>Nb</c><c>   1</c></rc>
    <rc><c>Nb</c><c>   1</c></rc>
    <rc><c>Zr</c><c>   2</c></rc>
    <rc><c>Zr</c><c>   2</c></rc>
    <rc><c>Zr</c><c>   2</c></rc>
    <rc><c>Zr</c><c>   2</c></rc>
    <rc><c>Zr</c><c>   2</c></rc>
    <rc><c>Zr</c><c>   2</c></rc>
    <rc><c>Zr</c><c>   2</c></rc>
    <rc><c>Ta</c><c>   3</c></rc>
    <rc><c>Ta</c><c>   3</c></rc>
    <rc><c>Ta</c><c>   3</c></rc>
    <rc><c>Ta</c><c>   3</c></rc>
    <rc><c>Ta</c><c>   3</c></rc>
    <rc><c>Ta</c><c>   3</c></rc>
    <rc><c>Ta</c><c>   3</c></rc>
    <rc><c>Ta</c><c>   3</c></rc>
    <rc><c>Ta</c><c>   3</c></rc>
    <rc><c>Ta</c><c>   3</c></rc>
    <rc><c>Ta</c><c>   3</c></rc>
    <rc><c>Ta</c><c>   3</c></rc>
    <rc><c>Ta</c><c>   3</c></rc>
    <rc><c>Hf</c><c>   4</c></rc>
    <rc><c>Hf</c><c>   4</c></rc>
    <rc><c>Hf</c><c>   4</c></rc>
    <rc><c>Hf</c><c>   4</c></rc>
    <rc><c>Hf</c><c>   4</c></rc>
    <rc><c>Hf</c><c>   4</c></rc>
    <rc><c>Hf</c><c>   4</c></rc>
    <rc><c>Hf</c><c>   4</c></rc>
    <rc><c>Hf</c><c>   4</c></rc>
   </set>
  </array>
  <array name="atomtypes" >
   <dimension dim="1">type</dimension>
   <field type="int">atomspertype</field>
   <field type="string">element</field>
   <field>mass</field>
   <field>valence</field>
   <field type="string">pseudopotential</field>
   <set>
    <rc><c>   7</c><c>Nb</c><c>     92.91000000</c><c>     13.00000000</c><c>  PAW_PBE Nb_sv 25May2007               </c></rc>
    <rc><c>   7</c><c>Zr</c><c>     91.22400000</c><c>     12.00000000</c><c>  PAW_PBE Zr_sv 04Jan2005               </c></rc>
    <rc><c>  13</c><c>Ta</c><c>    180.94800000</c><c>      5.00000000</c><c>  PAW_PBE Ta 17Jan2003                  </c></rc>
    <rc><c>   9</c><c>Hf</c><c>    178.49000000</c><c>      4.00000000</c><c>  PAW_PBE Hf 20Jan2003                  </c></rc>
   </set>
  </array>
 </atominfo>
 <structure name="initialpos" >
  <crystal>
   <varray name="basis" >
    <v>       6.89281683      -0.00216493       0.00064349 </v>
    <v>      -0.00276352      10.17465092      -0.00765207 </v>
    <v>       0.00098270      -0.00784661      10.23459045 </v>
   </varray>
   <i name="volume">    717.77186797 </i>
   <varray name="rec_basis" >
    <v>       0.14507858       0.00003939      -0.00001390 </v>
    <v>       0.00003086       0.09828354       0.00007535 </v>
    <v>      -0.00000910       0.00007348       0.09770792 </v>
   </varray>
  </crystal>
  <varray name="positions" >
   <v>       0.23896400       0.50364100       0.49464600 </v>
   <v>       0.50417200       0.98516000       0.32571800 </v>
   <v>       0.99583700       0.99339000       0.33159200 </v>
   <v>       0.00709100       0.01923100       0.66207300 </v>
   <v>       0.98563800       0.65849800       0.65757800 </v>
   <v>       0.01449200       0.34235200       0.34800900 </v>
   <v>       0.48362700       0.34568100       0.34838400 </v>
   <v>       0.75376100       0.16658500       0.17075200 </v>
   <v>       0.23955200       0.83251000       0.82437900 </v>
   <v>       0.75359900       0.48852900       0.17145500 </v>
   <v>       0.50022600       0.66897500       0.33522400 </v>
   <v>       0.02113000       0.33375800       0.98431600 </v>
   <v>       0.49440800       0.34054500       0.67178400 </v>
   <v>       0.49769900       0.66562900       0.00224800 </v>
   <v>       0.76300700       0.84237700       0.50109200 </v>
   <v>       0.23892700       0.49434200       0.17341600 </v>
   <v>       0.22391000       0.52612900       0.82931500 </v>
   <v>       0.99759100       0.66556800       0.00852600 </v>
   <v>       0.22296000       0.83469900       0.17690500 </v>
   <v>       0.75864400       0.49356100       0.49186000 </v>
   <v>       0.77554400       0.83367000       0.16978800 </v>
   <v>       0.01701600       0.99609400       0.00791100 </v>
   <v>       0.76986800       0.51414500       0.83507100 </v>
   <v>       0.99492500       0.66551900       0.33307900 </v>
   <v>       0.25873400       0.15940900       0.49375700 </v>
   <v>       0.26016800       0.14499300       0.82585100 </v>
   <v>       0.49904200       0.99908400       0.65999000 </v>
   <v>       0.48850600       0.98743000       0.01619800 </v>
   <v>       0.74194100       0.16458000       0.49174300 </v>
   <v>       0.76352700       0.83644100       0.82885500 </v>
   <v>       0.48085900       0.34249900       0.98236400 </v>
   <v>       0.25051300       0.17157500       0.18198500 </v>
   <v>       0.00832100       0.33000000       0.66606100 </v>
   <v>       0.23646200       0.84139900       0.50079500 </v>
   <v>       0.74815500       0.15009000       0.83691800 </v>
   <v>       0.51118000       0.66191400       0.66035900 </v>
  </varray>
 </structure>
 <calculation>
  <scstep>
   <time name="dav">    1.04    1.05</time>
   <time name="total">    1.11    1.49</time>
   <energy>
    <i name="alphaZ">   1446.70533040 </i>
    <i name="ewald"> -17476.80631442 </i>
    <i name="hartreedc">  -5864.16089424 </i>
    <i name="XCdc">   -597.19189694 </i>
    <i name="pawpsdc">  19237.57048494 </i>
    <i name="pawaedc"> -17479.79446061 </i>
    <i name="eentropy">     -0.00920132 </i>
    <i name="bandstr">     52.42776722 </i>
    <i name="atom">  22256.44259433 </i>
    <i name="e_fr_energy">   1575.18340935 </i>
    <i name="e_wo_entrp">   1575.19261067 </i>
    <i name="e_0_energy">   1575.18647646 </i>
   </energy>
  </scstep>
  <scstep>
   <time name="dav">    0.96    1.10</time>
   <time name="total">    0.96    1.29</time>
   <energy>
    <i name="e_fr_energy">   -128.90307788 </i>
    <i name="e_wo_entrp">   -128.89248607 </i>
    <i name="e_0_energy">   -128.89954728 </i>
   </energy>
  </scstep>
  <scstep>
   <time name="dav">    1.54    1.55</time>
   <time name="total">    1.55    1.59</time>
   <energy>
    <i name="e_fr_energy">   -357.83522814 </i>
    <i name="e_wo_entrp">   -357.83171933 </i>
    <i name="e_0_energy">   -357.83405854 </i>
   </energy>
  </scstep>
  <scstep>
   <time name="dav">    1.47    1.48</time>
   <time name="total">    1.47    1.52</time>
   <energy>
    <i name="e_fr_energy">   -384.11786144 </i>
    <i name="e_wo_entrp">   -384.12973107 </i>
    <i name="e_0_energy">   -384.12181799 </i>
   </energy>
  </scstep>
  <scstep>
   <time name="dav">    1.44    1.45</time>
   <time name="total">    1.47    1.51</time>
   <energy>
    <i name="e_fr_energy">   -386.76779894 </i>
    <i name="e_wo_entrp">   -386.78090073 </i>
    <i name="e_0_energy">   -386.77216620 </i>
   </energy>
  </scstep>
  <scstep>
   <time name="diag">    0.07    0.07</time>
   <time name="diis">    0.69    0.69</time>
   <time name="orth">    0.01    0.01</time>
   <time name="total">    0.84    0.88</time>
   <energy>
    <i name="e_fr_energy">   -376.15449418 </i>
    <i name="e_wo_entrp">   -376.16935891 </i>
    <i name="e_0_energy">   -376.15944909 </i>
   </energy>
  </scstep>
  <scstep>
   <time name="diag">    0.07    0.07</time>
   <time name="diis">    0.81    0.81</time>
   <time name="orth">    0.01    0.01</time>
   <time name="total">    0.96    1.01</time>
   <energy>
    <i name="e_fr_energy">   -376.55879348 </i>
    <i name="e_wo_entrp">   -376.56421590 </i>
    <i name="e_0_energy">   -376.56060095 </i>
   </energy>
  </scstep>
  <scstep>
   <time name="diag">    0.09    0.09</time>
   <time name="diis">    0.76    0.76</time>
   <time name="orth">    0.01    0.01</time>
   <time name="total">    0.92    0.97</time>
   <energy>
    <i name="e_fr_energy">   -371.76011381 </i>
    <i name="e_wo_entrp">   -371.77485901 </i>
    <i name="e_0_energy">   -371.76502888 </i>
   </energy>
  </scstep>
  <scstep>
   <time name="diag">    0.07    0.07</time>
   <time name="diis">    0.82    0.83</time>
   <time name="orth">    0.03    0.03</time>
   <time name="total">    1.03    1.08</time>
   <energy>
    <i name="e_fr_energy">   -371.62688187 </i>
    <i name="e_wo_entrp">   -371.64036828 </i>
    <i name="e_0_energy">   -371.63137734 </i>
   </energy>
  </scstep>
  <scstep>
   <time name="diag">    0.08    0.08</time>
   <time name="diis">    0.74    0.84</time>
   <time name="orth">    0.01    0.01</time>
   <time name="total">    0.91    1.07</time>
   <energy>
    <i name="e_fr_energy">   -371.57279649 </i>
    <i name="e_wo_entrp">   -371.58778610 </i>
    <i name="e_0_energy">   -371.57779303 </i>
   </energy>
  </scstep>
  <scstep>
   <time name="diag">    0.07    0.08</time>
   <time name="diis">    0.76    0.76</time>
   <time name="orth">    0.01    0.01</time>
   <time name="total">    0.91    0.96</time>
   <energy>
    <i name="e_fr_energy">   -371.55703354 </i>
    <i name="e_wo_entrp">   -371.57059520 </i>
    <i name="e_0_energy">   -371.56155409 </i>
   </energy>
  </scstep>
  <scstep>
   <time name="diag">    0.07    0.07</time>
   <time name="diis">    0.85    0.85</time>
   <time name="orth">    0.01    0.01</time>
   <time name="total">    0.99    1.04</time>
   <energy>
    <i name="e_fr_energy">   -371.55525500 </i>
    <i name="e_wo_entrp">   -371.56928738 </i>
    <i name="e_0_energy">   -371.55993246 </i>
   </energy>
  </scstep>
  <scstep>
   <time name="diag">    0.08    0.08</time>
   <time name="diis">    0.76    0.76</time>
   <time name="orth">    0.01    0.01</time>
   <time name="total">    0.91    0.96</time>
   <energy>
    <i name="e_fr_energy">   -371.55437422 </i>
    <i name="e_wo_entrp">   -371.56829649 </i>
    <i name="e_0_energy">   -371.55901497 </i>
   </energy>
  </scstep>
  <scstep>
   <time name="diag">    0.08    0.08</time>
   <time name="diis">    0.79    0.79</time>
   <time name="orth">    0.04    0.04</time>
   <time name="total">    0.98    1.06</time>
   <energy>
    <i name="e_fr_energy">   -371.55449976 </i>
    <i name="e_wo_entrp">   -371.56847729 </i>
    <i name="e_0_energy">   -371.55915893 </i>
   </energy>
  </scstep>
  <scstep>
   <time name="diag">    0.07    0.08</time>
   <time name="diis">    0.74    0.82</time>
   <time name="orth">    0.01    0.01</time>
   <time name="total">    0.91    1.04</time>
   <energy>
    <i name="e_fr_energy">   -371.55458294 </i>
    <i name="e_wo_entrp">   -371.56847159 </i>
    <i name="e_0_energy">   -371.55921249 </i>
   </energy>
  </scstep>
  <scstep>
   <time name="diag">    0.08    0.08</time>
   <time name="diis">    0.68    0.68</time>
   <time name="orth">    0.01    0.01</time>
   <time name="total">    0.84    0.90</time>
   <energy>
    <i name="e_fr_energy">   -371.55460217 </i>
    <i name="e_wo_entrp">   -371.56855806 </i>
    <i name="e_0_energy">   -371.55925413 </i>
   </energy>
  </scstep>
  <scstep>
   <time name="diag">    0.07    0.08</time>
   <time name="diis">    0.70    0.70</time>
   <time name="orth">    0.01    0.01</time>
   <time name="total">    0.85    0.89</time>
   <energy>
    <i name="e_fr_energy">   -371.55461988 </i>
    <i name="e_wo_entrp">   -371.56859659 </i>
    <i name="e_0_energy">   -371.55927878 </i>
   </energy>
  </scstep>
  <scstep>
   <time name="diag">    0.07    0.07</time>
   <time name="diis">    0.56    0.56</time>
   <time name="orth">    0.01    0.01</time>
   <time name="total">    0.71    0.75</time>
   <energy>
    <i name="e_fr_energy">   -371.55462576 </i>
    <i name="e_wo_entrp">   -371.56857353 </i>
    <i name="e_0_energy">   -371.55927502 </i>
   </energy>
  </scstep>
  <scstep>
   <time name="diag">    0.07    0.07</time>
   <time name="diis">    0.45    0.45</time>
   <time name="orth">    0.01    0.01</time>
   <time name="total">    0.57    0.61</time>
   <energy>
    <i name="alphaZ">   1446.70533040 </i>
    <i name="ewald"> -17476.80631442 </i>
    <i name="hartreedc">  -5656.33681719 </i>
    <i name="XCdc">   -593.48710171 </i>
    <i name="pawpsdc">  31689.78355614 </i>
    <i name="pawaedc"> -29920.59464540 </i>
    <i name="eentropy">      0.01396187 </i>
    <i name="bandstr">  -2117.27519153 </i>
    <i name="atom">  22256.44259433 </i>
    <i name="e_fr_energy">   -371.55462752 </i>
    <i name="e_wo_entrp">   -371.56858939 </i>
    <i name="e_0_energy">   -371.55928148 </i>
   </energy>
  </scstep>
  <structure>
   <crystal>
    <varray name="basis" >
     <v>       6.89281683      -0.00216493       0.00064349 </v>
     <v>      -0.00276352      10.17465092      -0.00765207 </v>
     <v>       0.00098270      -0.00784661      10.23459045 </v>
    </varray>
    <i name="volume">    717.77186797 </i>
    <varray name="rec_basis" >
     <v>       0.14507858       0.00003939      -0.00001390 </v>
     <v>       0.00003086       0.09828354       0.00007535 </v>
     <v>      -0.00000910       0.00007348       0.09770792 </v>
    </varray>
   </crystal>
   <varray name="positions" >
    <v>       0.23896400       0.50364100       0.49464600 </v>
    <v>       0.50417200       0.98516000       0.32571800 </v>
    <v>       0.99583700       0.99339000       0.33159200 </v>
    <v>       0.00709100       0.01923100       0.66207300 </v>
    <v>       0.98563800       0.65849800       0.65757800 </v>
    <v>       0.01449200       0.34235200       0.34800900 </v>
    <v>       0.48362700       0.34568100       0.34838400 </v>
    <v>       0.75376100       0.16658500       0.17075200 </v>
    <v>       0.23955200       0.83251000       0.82437900 </v>
    <v>       0.75359900       0.48852900       0.17145500 </v>
    <v>       0.50022600       0.66897500       0.33522400 </v>
    <v>       0.02113000       0.33375800       0.98431600 </v>
    <v>       0.49440800       0.34054500       0.67178400 </v>
    <v>       0.49769900       0.66562900       0.00224800 </v>
    <v>       0.76300700       0.84237700       0.50109200 </v>
    <v>       0.23892700       0.49434200       0.17341600 </v>
    <v>       0.22391000       0.52612900       0.82931500 </v>
    <v>       0.99759100       0.66556800       0.00852600 </v>
    <v>       0.22296000       0.83469900       0.17690500 </v>
    <v>       0.75864400       0.49356100       0.49186000 </v>
    <v>       0.77554400       0.83367000       0.16978800 </v>
    <v>       0.01701600       0.99609400       0.00791100 </v>
    <v>       0.76986800       0.51414500       0.83507100 </v>
    <v>       0.99492500       0.66551900       0.33307900 </v>
    <v>       0.25873400       0.15940900       0.49375700 </v>
    <v>       0.26016800       0.14499300       0.82585100 </v>
    <v>       0.49904200       0.99908400       0.65999000 </v>
    <v>       0.48850600       0.98743000       0.01619800 </v>
    <v>       0.74194100       0.16458000       0.49174300 </v>
    <v>       0.76352700       0.83644100       0.82885500 </v>
    <v>       0.48085900       0.34249900       0.98236400 </v>
    <v>       0.25051300       0.17157500       0.18198500 </v>
    <v>       0.00832100       0.33000000       0.66606100 </v>
    <v>       0.23646200       0.84139900       0.50079500 </v>
    <v>       0.74815500       0.15009000       0.83691800 </v>
    <v>       0.51118000       0.66191400       0.66035900 </v>
   </varray>
  </structure>
  <varray name="forces" >
   <v>      -0.00494543      -0.00349688       0.00350793 </v>
   <v>      -0.00142344       0.00691776       0.10144299 </v>
   <v>       0.00713608      -0.00484684      -0.00484841 </v>
   <v>       0.03461363      -0.00726320      -0.01056108 </v>
   <v>       0.01263419      -0.01430873      -0.00324617 </v>
   <v>      -0.00624812       0.01501035      -0.00316460 </v>
   <v>       0.00386022       0.00863089      -0.01802553 </v>
   <v>      -0.00608259      -0.01297791       0.00077735 </v>
   <v>      -0.01064380      -0.02505536       0.01446433 </v>
   <v>      -0.00694741       0.00712400       0.00376778 </v>
   <v>       0.00224772      -0.00808676      -0.02385283 </v>
   <v>      -0.00004722       0.00196910       0.00091081 </v>
   <v>       0.00450369      -0.10675323       0.00472246 </v>
   <v>       0.00354523      -0.01289091       0.00821773 </v>
   <v>       0.00201519       0.00509949       0.01047470 </v>
   <v>       0.00926849       0.00122741       0.00363293 </v>
   <v>       0.00046216      -0.00264231      -0.00611444 </v>
   <v>       0.00111768      -0.00451632       0.02210402 </v>
   <v>       0.00497179       0.00628119       0.00019962 </v>
   <v>       0.00709619      -0.00902356       0.01089829 </v>
   <v>      -0.00462354       0.00944732      -0.00747144 </v>
   <v>      -0.01235500      -0.00827525       0.02162944 </v>
   <v>      -0.00216163      -0.00803331      -0.01155779 </v>
   <v>      -0.00580429      -0.00264046      -0.01434198 </v>
   <v>       0.00691764      -0.02527174      -0.00549349 </v>
   <v>      -0.03202556       0.01763223       0.03074895 </v>
   <v>      -0.01386572       0.00418458      -0.05582307 </v>
   <v>       0.00500556      -0.00724625      -0.06269039 </v>
   <v>       0.00619739       0.02303968      -0.02741805 </v>
   <v>      -0.00349357       0.00797893      -0.00027945 </v>
   <v>       0.00471142       0.02229761       0.01718680 </v>
   <v>       0.01192785      -0.01155578      -0.00317923 </v>
   <v>      -0.00499120       0.02832783      -0.00187657 </v>
   <v>      -0.03377803      -0.01552777      -0.02311683 </v>
   <v>       0.03065017       0.00838382       0.02665843 </v>
   <v>      -0.00944573       0.11686037       0.00171676 </v>
  </varray>
  <varray name="stress" >
   <v>       0.17939286       0.50195006       0.01369296 </v>
   <v>       0.50195004      -0.26356912       0.13169094 </v>
   <v>       0.01369298       0.13169096       0.22701003 </v>
  </varray>
  <energy>
   <i name="e_fr_energy">   -371.55462752 </i>
   <i name="e_wo_entrp">   -371.55928148 </i>
   <i name="e_0_energy">      0.01396187 </i>
  </energy>
  <time name="totalsc">   20.40   22.28</time>
 </calculation>
 <calculation>
  <scstep>
   <time name="dav">    0.95    0.95</time>
   <time name="total">    1.03    1.32</time>
   <energy>
    <i name="alphaZ">   1446.66813052 </i>
    <i name="ewald"> -17476.56352346 </i>
    <i name="hartreedc">  -5656.38959830 </i>
    <i name="XCdc">   -593.49407502 </i>
    <i name="pawpsdc">  31689.81878522 </i>
    <i name="pawaedc"> -29920.62419580 </i>
    <i name="eentropy">      0.01391394 </i>
    <i name="bandstr">  -2117.42744144 </i>
    <i name="atom">  22256.44259433 </i>
    <i name="e_fr_energy">   -371.55541001 </i>
    <i name="e_wo_entrp">   -371.56932396 </i>
    <i name="e_0_energy">   -371.56004799 </i>
   </energy>
  </scstep>
  <scstep>
   <time name="diag">    0.08    0.08</time>
   <time name="diis">    0.79    0.79</time>
   <time name="orth">    0.01    0.01</time>
   <time name="total">    1.10    1.14</time>
   <energy>
    <i name="e_fr_energy">   -371.55552782 </i>
    <i name="e_wo_entrp">   -371.56945659 </i>
    <i name="e_0_energy">   -371.56017075 </i>
   </energy>
  </scstep>
  <scstep>
   <time name="diag">    0.09    0.09</time>
   <time name="diis">    0.58    0.58</time>
   <time name="orth">    0.01    0.01</time>
   <time name="total">    0.75    0.80</time>
   <energy>
    <i name="e_fr_energy">   -371.55551733 </i>
    <i name="e_wo_entrp">   -371.56941627 </i>
    <i name="e_0_energy">   -371.56015031 </i>
   </energy>
  </scstep>
  <scstep>
   <time name="diag">    0.08    0.08</time>
   <time name="diis">    0.50    0.50</time>
   <time name="orth">    0.01    0.01</time>
   <time name="total">    0.62    0.68</time>
   <energy>
    <i name="alphaZ">   1446.66813052 </i>
    <i name="ewald"> -17476.56352346 </i>
    <i name="hartreedc">  -5656.47083910 </i>
    <i name="XCdc">   -593.49120223 </i>
    <i name="pawpsdc">  31688.74748916 </i>
    <i name="pawaedc"> -29919.54877816 </i>
    <i name="eentropy">      0.01392428 </i>
    <i name="bandstr">  -2117.35330889 </i>
    <i name="atom">  22256.44259433 </i>
    <i name="e_fr_energy">   -371.55551356 </i>
    <i name="e_wo_entrp">   -371.56943785 </i>
    <i name="e_0_energy">   -371.56015499 </i>
   </energy>
  </scstep>
  <structure>
   <crystal>
    <varray name="basis" >
     <v>       6.89303934      -0.00154167       0.00066047 </v>
     <v>      -0.00184381      10.17416750      -0.00741106 </v>
     <v>       0.00100726      -0.00760340      10.23500872 </v>
    </varray>
    <i name="volume">    717.79032489 </i>
    <varray name="rec_basis" >
     <v>       0.14507389       0.00002628      -0.00001426 </v>
     <v>       0.00002198       0.09828820       0.00007301 </v>
     <v>      -0.00000935       0.00007117       0.09770393 </v>
    </varray>
   </crystal>
   <varray name="positions" >
    <v>       0.23895361       0.50363603       0.49465096 </v>
    <v>       0.50416899       0.98516995       0.32586146 </v>
    <v>       0.99585198       0.99338310       0.33158514 </v>
    <v>       0.00716368       0.01922067       0.66205805 </v>
    <v>       0.98566452       0.65847765       0.65757339 </v>
    <v>       0.01447889       0.34237335       0.34800454 </v>
    <v>       0.48363511       0.34569326       0.34835852 </v>
    <v>       0.75374822       0.16656654       0.17075309 </v>
    <v>       0.23952963       0.83247437       0.82439943 </v>
    <v>       0.75358442       0.48853913       0.17146034 </v>
    <v>       0.50023072       0.66896347       0.33519026 </v>
    <v>       0.02112990       0.33376080       0.98431729 </v>
    <v>       0.49441739       0.34039316       0.67179056 </v>
    <v>       0.49770643       0.66561067       0.00225961 </v>
    <v>       0.76301123       0.84238427       0.50110682 </v>
    <v>       0.23894646       0.49434375       0.17342114 </v>
    <v>       0.22391097       0.52612524       0.82930635 </v>
    <v>       0.99759334       0.66556160       0.00855725 </v>
    <v>       0.22297044       0.83470794       0.17690529 </v>
    <v>       0.75865889       0.49354818       0.49187540 </v>
    <v>       0.77553430       0.83368343       0.16977745 </v>
    <v>       0.01699005       0.99608225       0.00794158 </v>
    <v>       0.76986346       0.51413356       0.83505465 </v>
    <v>       0.99491281       0.66551523       0.33305872 </v>
    <v>       0.25874851       0.15937305       0.49374920 </v>
    <v>       0.26010076       0.14501810       0.82589451 </v>
    <v>       0.49901290       0.99908989       0.65991107 </v>
    <v>       0.48851652       0.98741963       0.01610934 </v>
    <v>       0.74195403       0.16461275       0.49170425 </v>
    <v>       0.76351967       0.83645235       0.82885461 </v>
    <v>       0.48086890       0.34253074       0.98238833 </v>
    <v>       0.25053804       0.17155856       0.18198049 </v>
    <v>       0.00831054       0.33004029       0.66605838 </v>
    <v>       0.23639107       0.84137687       0.50076230 </v>
    <v>       0.74821936       0.15010197       0.83695570 </v>
    <v>       0.51116023       0.66208022       0.66036155 </v>
   </varray>
  </structure>
  <varray name="forces" >
   <v>      -0.00321021      -0.00237272       0.00280796 </v>
   <v>      -0.00134793       0.00582746       0.09142137 </v>
   <v>       0.00596780      -0.00322711      -0.00626413 </v>
   <v>       0.03016173      -0.00711318      -0.00770696 </v>
   <v>       0.01073328      -0.01456895      -0.00156398 </v>
   <v>      -0.00461977       0.01305182      -0.00364944 </v>
   <v>       0.00285689       0.00816932      -0.01626350 </v>
   <v>      -0.00661896      -0.01165380       0.00162799 </v>
   <v>      -0.01132719      -0.02291688       0.01300847 </v>
   <v>      -0.00576284       0.00631756       0.00401072 </v>
   <v>       0.00256387      -0.00667300      -0.02156650 </v>
   <v>      -0.00043276       0.00181212       0.00137666 </v>
   <v>       0.00360074      -0.09453763       0.00579518 </v>
   <v>       0.00378070      -0.01016750       0.00569924 </v>
   <v>       0.00474443       0.00550149       0.00994485 </v>
   <v>       0.00859859       0.00079923       0.00411730 </v>
   <v>       0.00210418      -0.00257112      -0.00641183 </v>
   <v>       0.00030358      -0.00463644       0.02004895 </v>
   <v>       0.00609844       0.00575911       0.00069618 </v>
   <v>       0.00432197      -0.00676057       0.01071327 </v>
   <v>      -0.00575126       0.00876545      -0.00601764 </v>
   <v>      -0.01050191      -0.00737920       0.01954969 </v>
   <v>      -0.00308526      -0.00651676      -0.01224993 </v>
   <v>      -0.00628086      -0.00358547      -0.01371311 </v>
   <v>       0.00557824      -0.02235710      -0.00597503 </v>
   <v>      -0.03163479       0.01520752       0.02745977 </v>
   <v>      -0.01370900       0.00385402      -0.04820919 </v>
   <v>       0.00451726      -0.00782084      -0.05708951 </v>
   <v>       0.00830724       0.02145223      -0.02545527 </v>
   <v>      -0.00104652       0.00807566      -0.00143120 </v>
   <v>       0.00486275       0.01957744       0.01506827 </v>
   <v>       0.01167072      -0.01127727      -0.00291545 </v>
   <v>      -0.00455367       0.02457334      -0.00095421 </v>
   <v>      -0.03384006      -0.01482650      -0.02103666 </v>
   <v>       0.03164615       0.00639041       0.02332622 </v>
   <v>      -0.00869554       0.10582787       0.00180147 </v>
  </varray>
  <varray name="stress" >
   <v>       0.17507009       0.51721667       0.02949103 </v>
   <v>       0.51721663      -0.31078209       0.12195635 </v>
   <v>       0.02949106       0.12195636       0.17599441 </v>
  </varray>
  <energy>
   <i name="e_fr_energy">   -371.55551356 </i>
   <i name="e_wo_entrp">   -371.56015499 </i>
   <i name="e_0_energy">      0.01392428 </i>
  </energy>
  <time name="totalsc">    5.10    5.68</time>
 </calculation>
 <calculation>
  <scstep>
   <time name="dav">    0.94    1.00</time>
   <time name="total">    1.01    1.30</time>
   <energy>
    <i name="alphaZ">   1446.55673146 </i>
    <i name="ewald"> -17475.82548498 </i>
    <i name="hartreedc">  -5656.63347730 </i>
    <i name="XCdc">   -593.50990229 </i>
    <i name="pawpsdc">  31688.53561123 </i>
    <i name="pawaedc"> -29919.33413196 </i>
    <i name="eentropy">      0.01376014 </i>
    <i name="bandstr">  -2117.80258679 </i>
    <i name="atom">  22256.44259433 </i>
    <i name="e_fr_energy">   -371.55688616 </i>
    <i name="e_wo_entrp">   -371.57064630 </i>
    <i name="e_0_energy">   -371.56147287 </i>
   </energy>
  </scstep>
  <scstep>
   <time name="diag">    0.08    0.08</time>
   <time name="diis">    0.62    0.83</time>
   <time name="orth">    0.01    0.01</time>
   <time name="total">    0.78    1.03</time>
   <energy>
    <i name="e_fr_energy">   -371.55781549 </i>
    <i name="e_wo_entrp">   -371.57163741 </i>
    <i name="e_0_energy">   -371.56242280 </i>
   </energy>
  </scstep>
  <scstep>
   <time name="diag">    0.08    0.08</time>
   <time name="diis">    0.74    0.74</time>
   <time name="orth">    0.01    0.01</time>
   <time name="total">    0.89    0.94</time>
   <energy>
    <i name="e_fr_energy">   -371.55774744 </i>
    <i name="e_wo_entrp">   -371.57147089 </i>
    <i name="e_0_energy">   -371.56232193 </i>
   </energy>
  </scstep>
  <scstep>
   <time name="diag">    0.07    0.07</time>
   <time name="diis">    0.72    0.73</time>
   <time name="orth">    0.01    0.01</time>
   <time name="total">    0.87    0.93</time>
   <energy>
    <i name="e_fr_energy">   -371.55769626 </i>
    <i name="e_wo_entrp">   -371.57150318 </i>
    <i name="e_0_energy">   -371.56229856 </i>
   </energy>
  </scstep>
  <scstep>
   <time name="diag">    0.07    0.07</time>
   <time name="diis">    0.67    0.67</time>
   <time name="orth">    0.01    0.01</time>
   <time name="total">    0.82    0.87</time>
   <energy>
    <i name="e_fr_energy">   -371.55769184 </i>
    <i name="e_wo_entrp">   -371.57147488 </i>
    <i name="e_0_energy">   -371.56228618 </i>
   </energy>
  </scstep>
  <scstep>
   <time name="diag">    0.07    0.07</time>
   <time name="diis">    0.47    0.47</time>
   <time name="orth">    0.01    0.01</time>
   <time name="total">    0.59    0.64</time>
   <energy>
    <i name="alphaZ">   1446.55673146 </i>
    <i name="ewald"> -17475.82548498 </i>
    <i name="hartreedc">  -5656.91329400 </i>
    <i name="XCdc">   -593.49774219 </i>
    <i name="pawpsdc">  31684.75300520 </i>
    <i name="pawaedc"> -29915.55018119 </i>
    <i name="eentropy">      0.01379104 </i>
    <i name="bandstr">  -2117.53711015 </i>
    <i name="atom">  22256.44259433 </i>
    <i name="e_fr_energy">   -371.55769047 </i>
    <i name="e_wo_entrp">   -371.57148151 </i>
    <i name="e_0_energy">   -371.56228748 </i>
   </energy>
  </scstep>
  <structure>
   <crystal>
    <varray name="basis" >
     <v>       6.89370687       0.00032809       0.00071139 </v>
     <v>       0.00091535      10.17271723      -0.00668805 </v>
     <v>       0.00108095      -0.00687378      10.23626351 </v>
    </varray>
    <i name="volume">    717.84560178 </i>
    <varray name="rec_basis" >
     <v>       0.14505984      -0.00001306      -0.00001533 </v>
     <v>      -0.00000469       0.09830220       0.00006601 </v>
     <v>      -0.00001008       0.00006423       0.09769194 </v>
    </varray>
   </crystal>
   <varray name="positions" >
    <v>       0.23892246       0.50362111       0.49466583 </v>
    <v>       0.50415997       0.98519979       0.32629182 </v>
    <v>       0.99589693       0.99336241       0.33156455 </v>
    <v>       0.00738170       0.01918968       0.66201322 </v>
    <v>       0.98574409       0.65841659       0.65755957 </v>
    <v>       0.01443955       0.34243739       0.34799117 </v>
    <v>       0.48365945       0.34573004       0.34828208 </v>
    <v>       0.75370989       0.16651115       0.17075635 </v>
    <v>       0.23946255       0.83236748       0.82446072 </v>
    <v>       0.75354066       0.48856954       0.17147634 </v>
    <v>       0.50024488       0.66892889       0.33508905 </v>
    <v>       0.02112961       0.33376921       0.98432116 </v>
    <v>       0.49444564       0.33993761       0.67181027 </v>
    <v>       0.49772875       0.66555569       0.00229443 </v>
    <v>       0.76302392       0.84240606       0.50115127 </v>
    <v>       0.23900484       0.49434901       0.17343655 </v>
    <v>       0.22391388       0.52611394       0.82928040 </v>
    <v>       0.99760036       0.66554240       0.00865101 </v>
    <v>       0.22300177       0.83473475       0.17690615 </v>
    <v>       0.75870357       0.49350971       0.49192160 </v>
    <v>       0.77550519       0.83372372       0.16974578 </v>
    <v>       0.01691220       0.99604699       0.00803331 </v>
    <v>       0.76984984       0.51409924       0.83500559 </v>
    <v>       0.99487626       0.66550391       0.33299787 </v>
    <v>       0.25879206       0.15926519       0.49372582 </v>
    <v>       0.25989904       0.14509341       0.82602501 </v>
    <v>       0.49892560       0.99910755       0.65967428 </v>
    <v>       0.48854808       0.98738851       0.01584337 </v>
    <v>       0.74199311       0.16471099       0.49158801 </v>
    <v>       0.76349767       0.83648639       0.82885345 </v>
    <v>       0.48089859       0.34262595       0.98246130 </v>
    <v>       0.25061316       0.17150925       0.18196696 </v>
    <v>       0.00827913       0.33016117       0.66605051 </v>
    <v>       0.23617831       0.84131050       0.50066420 </v>
    <v>       0.74841241       0.15013786       0.83706881 </v>
    <v>       0.51110087       0.66257892       0.66036920 </v>
   </varray>
  </structure>
  <varray name="forces" >
   <v>       0.00243720      -0.00073120       0.00280717 </v>
   <v>      -0.00177730       0.00311941       0.07153226 </v>
   <v>       0.00438439      -0.00134789      -0.00909381 </v>
   <v>       0.02164553      -0.00436133      -0.00386089 </v>
   <v>       0.00521530      -0.01750848      -0.00048832 </v>
   <v>      -0.00125341       0.01142398      -0.00362892 </v>
   <v>       0.00067755       0.01085113      -0.01319435 </v>
   <v>      -0.00967787      -0.01039353       0.00309158 </v>
   <v>      -0.01326745      -0.01581971       0.00993829 </v>
   <v>      -0.00117930       0.00517871       0.00368511 </v>
   <v>       0.00258735      -0.00360718      -0.01435846 </v>
   <v>      -0.00117161       0.00219909       0.00380277 </v>
   <v>       0.00265697      -0.06821051       0.00732843 </v>
   <v>       0.00452166      -0.00193335      -0.00066569 </v>
   <v>       0.01081372       0.00754204       0.00862656 </v>
   <v>       0.00568915       0.00028092       0.00433775 </v>
   <v>       0.00661393      -0.00234848      -0.00513904 </v>
   <v>      -0.00211479      -0.00463641       0.01509800 </v>
   <v>       0.01052079       0.00586290       0.00025121 </v>
   <v>      -0.00459142      -0.00093579       0.01042901 </v>
   <v>      -0.01105695       0.00713465      -0.00380751 </v>
   <v>      -0.00506262      -0.00572062       0.01620711 </v>
   <v>      -0.00649458      -0.00234898      -0.01433738 </v>
   <v>      -0.00836908      -0.00597854      -0.01324026 </v>
   <v>       0.00307470      -0.01504478      -0.00711052 </v>
   <v>      -0.02910849       0.00694112       0.01889187 </v>
   <v>      -0.01277370       0.00277738      -0.02752333 </v>
   <v>       0.00328995      -0.00888557      -0.04033772 </v>
   <v>       0.01360228       0.01729091      -0.02121054 </v>
   <v>       0.00362287       0.00876777      -0.00388121 </v>
   <v>       0.00485968       0.01197178       0.00947466 </v>
   <v>       0.01200585      -0.01158890      -0.00332920 </v>
   <v>      -0.00491372       0.01548291       0.00047441 </v>
   <v>      -0.03327248      -0.01163634      -0.01595653 </v>
   <v>       0.03281520       0.00047931       0.01500933 </v>
   <v>      -0.00494931       0.07573358       0.00017811 </v>
  </varray>
  <varray name="stress" >
   <v>      -0.04873367       0.11807865       0.04385715 </v>
   <v>       0.11807862      -0.31753981      -0.01040483 </v>
   <v>       0.04385714      -0.01040479      -0.12923215 </v>
  </varray>
  <energy>
   <i name="e_fr_energy">   -371.55769047 </i>
   <i name="e_wo_entrp">   -371.56228748 </i>
   <i name="e_0_energy">      0.01379104 </i>
  </energy>
  <time name="totalsc">    6.67    7.59</time>
 </calculation>
 <calculation>
  <scstep>
   <time name="dav">    0.98    0.99</time>
   <time name="total">    1.08    1.28</time>
   <energy>
    <i name="alphaZ">   1446.33483601 </i>
    <i name="ewald"> -17474.30610244 </i>
    <i name="hartreedc">  -5657.21687403 </i>
    <i name="XCdc">   -593.53679630 </i>
    <i name="pawpsdc">  31684.72697119 </i>
    <i name="pawaedc"> -29915.52588830 </i>
    <i name="eentropy">      0.01346972 </i>
    <i name="bandstr">  -2118.48894702 </i>
    <i name="atom">  22256.44259433 </i>
    <i name="e_fr_energy">   -371.55673685 </i>
    <i name="e_wo_entrp">   -371.57020657 </i>
    <i name="e_0_energy">   -371.56122676 </i>
   </energy>
  </scstep>
  <scstep>
   <time name="diag">    0.07    0.07</time>
   <time name="diis">    0.73    0.73</time>
   <time name="orth">    0.01    0.01</time>
   <time name="total">    0.87    0.91</time>
   <energy>
    <i name="e_fr_energy">   -371.56042209 </i>
    <i name="e_wo_entrp">   -371.57401692 </i>
    <i name="e_0_energy">   -371.56495370 </i>
   </energy>
  </scstep>
  <scstep>
   <time name="diag">    0.07    0.07</time>
   <time name="diis">    0.74    0.75</time>
   <time name="orth">    0.04    0.04</time>
   <time name="total">    0.94    1.00</time>
   <energy>
    <i name="e_fr_energy">   -371.56013813 </i>
    <i name="e_wo_entrp">   -371.57353948 </i>
    <i name="e_0_energy">   -371.56460525 </i>
   </energy>
  </scstep>
  <scstep>
   <time name="diag">    0.13    0.13</time>
   <time name="diis">    0.79    0.80</time>
   <time name="orth">    0.01    0.01</time>
   <time name="total">    0.99    1.04</time>
   <energy>
    <i name="e_fr_energy">   -371.55994161 </i>
    <i name="e_wo_entrp">   -371.57351604 </i>
    <i name="e_0_energy">   -371.56446642 </i>
   </energy>
  </scstep>
  <scstep>
   <time name="diag">    0.07    0.07</time>
   <time name="diis">    0.76    0.76</time>
   <time name="orth">    0.01    0.01</time>
   <time name="total">    0.90    0.95</time>
   <energy>
    <i name="e_fr_energy">   -371.55992239 </i>
    <i name="e_wo_entrp">   -371.57344162 </i>
    <i name="e_0_energy">   -371.56442880 </i>
   </energy>
  </scstep>
  <scstep>
   <time name="diag">    0.07    0.07</time>
   <time name="diis">    0.69    0.70</time>
   <time name="orth">    0.01    0.01</time>
   <time name="total">    0.84    0.88</time>
   <energy>
    <i name="e_fr_energy">   -371.55991592 </i>
    <i name="e_wo_entrp">   -371.57345558 </i>
    <i name="e_0_energy">   -371.56442914 </i>
   </energy>
  </scstep>
  <scstep>
   <time name="diag">    0.07    0.07</time>
   <time name="diis">    0.50    0.51</time>
   <time name="orth">    0.01    0.01</time>
   <time name="total">    0.62    0.67</time>
   <energy>
    <i name="alphaZ">   1446.33483601 </i>
    <i name="ewald"> -17474.30610244 </i>
    <i name="hartreedc">  -5657.75979566 </i>
    <i name="XCdc">   -593.51298308 </i>
    <i name="pawpsdc">  31677.91355014 </i>
    <i name="pawaedc"> -29908.72267566 </i>
    <i name="eentropy">      0.01354193 </i>
    <i name="bandstr">  -2117.96288176 </i>
    <i name="atom">  22256.44259433 </i>
    <i name="e_fr_energy">   -371.55991620 </i>
    <i name="e_wo_entrp">   -371.57345814 </i>
    <i name="e_0_energy">   -371.56443018 </i>
   </energy>
  </scstep>
  <structure>
   <crystal>
    <varray name="basis" >
     <v>       6.89504193       0.00406762       0.00081323 </v>
     <v>       0.00643366      10.16981669      -0.00524202 </v>
     <v>       0.00122832      -0.00541454      10.23877309 </v>
    </varray>
    <i name="volume">    717.95573304 </i>
    <varray name="rec_basis" >
     <v>       0.14503181      -0.00009176      -0.00001745 </v>
     <v>      -0.00005801       0.09833025       0.00005201 </v>
     <v>      -0.00001155       0.00005035       0.09766798 </v>
    </varray>
   </crystal>
   <varray name="positions" >
    <v>       0.23886016       0.50359128       0.49469557 </v>
    <v>       0.50414190       0.98525943       0.32715242 </v>
    <v>       0.99598683       0.99332101       0.33152339 </v>
    <v>       0.00781774       0.01912760       0.66192355 </v>
    <v>       0.98590325       0.65829442       0.65753194 </v>
    <v>       0.01436084       0.34256550       0.34796441 </v>
    <v>       0.48370809       0.34580361       0.34812921 </v>
    <v>       0.75363329       0.16640038       0.17076287 </v>
    <v>       0.23932849       0.83215369       0.82458329 </v>
    <v>       0.75345313       0.48863038       0.17150835 </v>
    <v>       0.50027324       0.66885972       0.33488665 </v>
    <v>       0.02112901       0.33378602       0.98432890 </v>
    <v>       0.49450248       0.33902636       0.67184973 </v>
    <v>       0.49777341       0.66544570       0.00236406 </v>
    <v>       0.76304929       0.84244965       0.50124015 </v>
    <v>       0.23912159       0.49435951       0.17346737 </v>
    <v>       0.22391971       0.52609135       0.82922852 </v>
    <v>       0.99761442       0.66550397       0.00883849 </v>
    <v>       0.22306439       0.83478836       0.17690788 </v>
    <v>       0.75879296       0.49343275       0.49201400 </v>
    <v>       0.77544695       0.83380432       0.16968246 </v>
    <v>       0.01675655       0.99597648       0.00821677 </v>
    <v>       0.76982264       0.51403060       0.83490750 </v>
    <v>       0.99480317       0.66548129       0.33287619 </v>
    <v>       0.25887923       0.15904943       0.49367907 </v>
    <v>       0.25949556       0.14524412       0.82628599 </v>
    <v>       0.49875101       0.99914296       0.65920075 </v>
    <v>       0.48861122       0.98732629       0.01531151 </v>
    <v>       0.74207119       0.16490750       0.49135554 </v>
    <v>       0.76345366       0.83655450       0.82885113 </v>
    <v>       0.48095789       0.34281639       0.98260722 </v>
    <v>       0.25076343       0.17141059       0.18193992 </v>
    <v>       0.00821623       0.33040297       0.66603475 </v>
    <v>       0.23575287       0.84117783       0.50046804 </v>
    <v>       0.74879845       0.15020957       0.83729498 </v>
    <v>       0.51098175       0.66357649       0.66038442 </v>
   </varray>
  </structure>
  <varray name="forces" >
   <v>       0.01458328       0.00432288       0.00289238 </v>
   <v>      -0.00308024      -0.00234391       0.02699193 </v>
   <v>       0.00127442       0.00322830      -0.01315518 </v>
   <v>       0.00088296       0.00075777       0.00532275 </v>
   <v>      -0.00683148      -0.01985272       0.00276352 </v>
   <v>       0.00594464       0.00523235      -0.00408215 </v>
   <v>      -0.00345843       0.01405794      -0.00643378 </v>
   <v>      -0.01427282      -0.00648168       0.00679527 </v>
   <v>      -0.01886992      -0.00136900       0.00172390 </v>
   <v>       0.00860534       0.00168210       0.00365505 </v>
   <v>       0.00236870       0.00189464       0.00038125 </v>
   <v>      -0.00214367       0.00339925       0.00911874 </v>
   <v>      -0.00083990      -0.01342686       0.01063928 </v>
   <v>       0.00587366       0.01357372      -0.01400076 </v>
   <v>       0.02445701       0.01001351       0.00616893 </v>
   <v>       0.00057882      -0.00198704       0.00692088 </v>
   <v>       0.01571012      -0.00307031      -0.00551698 </v>
   <v>      -0.00662137      -0.00541594       0.00630406 </v>
   <v>       0.01831691       0.00562189       0.00084590 </v>
   <v>      -0.02212969       0.01073835       0.01086405 </v>
   <v>      -0.02020815       0.00412119       0.00219868 </v>
   <v>       0.00702731      -0.00227670       0.00854741 </v>
   <v>      -0.01276007       0.00516239      -0.02023954 </v>
   <v>      -0.01208312      -0.01198467      -0.01094129 </v>
   <v>      -0.00301723       0.00178577      -0.00889403 </v>
   <v>      -0.02656545      -0.00765189       0.00165607 </v>
   <v>      -0.01191490       0.00069814       0.01253284 </v>
   <v>      -0.00026395      -0.01105944      -0.00789145 </v>
   <v>       0.02481035       0.00983638      -0.01145593 </v>
   <v>       0.01497596       0.00915220      -0.00966701 </v>
   <v>       0.00481548      -0.00293121      -0.00238801 </v>
   <v>       0.01241421      -0.01121387      -0.00305903 </v>
   <v>      -0.00427392      -0.00336534       0.00308661 </v>
   <v>      -0.03288427      -0.00676846      -0.00559893 </v>
   <v>       0.03731594      -0.01002996      -0.00268974 </v>
   <v>       0.00226350       0.01595021      -0.00339568 </v>
  </varray>
  <varray name="stress" >
   <v>      -0.33616805      -0.43908680       0.09135937 </v>
   <v>      -0.43908679      -0.32447462      -0.22263541 </v>
   <v>       0.09135934      -0.22263534      -0.55137871 </v>
  </varray>
  <energy>
   <i name="e_fr_energy">   -371.55991620 </i>
   <i name="e_wo_entrp">   -371.56443018 </i>
   <i name="e_0_energy">      0.01354193 </i>
  </energy>
  <time name="totalsc">    7.78    8.43</time>
 </calculation>
 <calculation>
  <scstep>
   <time name="dav">    0.88    0.89</time>
   <time name="total">    0.96    1.15</time>
   <energy>
    <i name="alphaZ">   1446.27879612 </i>
    <i name="ewald"> -17473.91209316 </i>
    <i name="hartreedc">  -5657.86277259 </i>
    <i name="XCdc">   -593.52246341 </i>
    <i name="pawpsdc">  31677.94739391 </i>
    <i name="pawaedc"> -29908.75926135 </i>
    <i name="eentropy">      0.01346089 </i>
    <i name="bandstr">  -2118.18547456 </i>
    <i name="atom">  22256.44259433 </i>
    <i name="e_fr_energy">   -371.55981981 </i>
    <i name="e_wo_entrp">   -371.57328070 </i>
    <i name="e_0_energy">   -371.56430678 </i>
   </energy>
  </scstep>
  <scstep>
   <time name="diag">    0.08    0.08</time>
   <time name="diis">    0.75    0.76</time>
   <time name="orth">    0.01    0.01</time>
   <time name="total">    0.91    0.95</time>
   <energy>
    <i name="e_fr_energy">   -371.56007121 </i>
    <i name="e_wo_entrp">   -371.57356320 </i>
    <i name="e_0_energy">   -371.56456854 </i>
   </energy>
  </scstep>
  <scstep>
   <time name="diag">    0.07    0.07</time>
   <time name="diis">    0.58    0.70</time>
   <time name="orth">    0.01    0.01</time>
   <time name="total">    0.74    0.96</time>
   <energy>
    <i name="e_fr_energy">   -371.56005385 </i>
    <i name="e_wo_entrp">   -371.57349669 </i>
    <i name="e_0_energy">   -371.56453480 </i>
   </energy>
  </scstep>
  <scstep>
   <time name="diag">    0.10    0.10</time>
   <time name="diis">    0.60    0.63</time>
   <time name="orth">    0.01    0.01</time>
   <time name="total">    0.81    0.90</time>
   <energy>
    <i name="e_fr_energy">   -371.56004669 </i>
    <i name="e_wo_entrp">   -371.57353075 </i>
    <i name="e_0_energy">   -371.56454138 </i>
   </energy>
  </scstep>
  <scstep>
   <time name="diag">    0.09    0.09</time>
   <time name="diis">    0.46    0.46</time>
   <time name="orth">    0.01    0.01</time>
   <time name="total">    0.60    0.65</time>
   <energy>
    <i name="alphaZ">   1446.27879612 </i>
    <i name="ewald"> -17473.91209316 </i>
    <i name="hartreedc">  -5658.00577065 </i>
    <i name="XCdc">   -593.51618692 </i>
    <i name="pawpsdc">  31676.28147376 </i>
    <i name="pawaedc"> -29907.10153989 </i>
    <i name="eentropy">      0.01347128 </i>
    <i name="bandstr">  -2118.04079076 </i>
    <i name="atom">  22256.44259433 </i>
    <i name="e_fr_energy">   -371.56004588 </i>
    <i name="e_wo_entrp">   -371.57351717 </i>
    <i name="e_0_energy">   -371.56453631 </i>
   </energy>
  </scstep>
  <structure>
   <crystal>
    <varray name="basis" >
     <v>       6.89538025       0.00501526       0.00083904 </v>
     <v>       0.00783206      10.16908165      -0.00487558 </v>
     <v>       0.00126567      -0.00504475      10.23940905 </v>
    </varray>
    <i name="volume">    717.98355213 </i>
    <varray name="rec_basis" >
     <v>       0.14502472      -0.00011170      -0.00001798 </v>
     <v>      -0.00007153       0.09833738       0.00004846 </v>
     <v>      -0.00001192       0.00004683       0.09766191 </v>
    </varray>
   </crystal>
   <varray name="positions" >
    <v>       0.23884438       0.50358373       0.49470311 </v>
    <v>       0.50413730       0.98527451       0.32737046 </v>
    <v>       0.99600962       0.99331050       0.33151296 </v>
    <v>       0.00792822       0.01911183       0.66190084 </v>
    <v>       0.98594361       0.65826344       0.65752495 </v>
    <v>       0.01434087       0.34259799       0.34795763 </v>
    <v>       0.48372040       0.34582226       0.34809047 </v>
    <v>       0.75361390       0.16637230       0.17076453 </v>
    <v>       0.23929456       0.83209951       0.82461435 </v>
    <v>       0.75343095       0.48864581       0.17151646 </v>
    <v>       0.50028044       0.66884219       0.33483538 </v>
    <v>       0.02112885       0.33379028       0.98433086 </v>
    <v>       0.49451707       0.33879537       0.67185976 </v>
    <v>       0.49778474       0.66541781       0.00238171 </v>
    <v>       0.76305571       0.84246070       0.50126267 </v>
    <v>       0.23915116       0.49436216       0.17347517 </v>
    <v>       0.22392120       0.52608562       0.82921537 </v>
    <v>       0.99761798       0.66549422       0.00888600 </v>
    <v>       0.22308024       0.83480195       0.17690831 </v>
    <v>       0.75881562       0.49341322       0.49203741 </v>
    <v>       0.77543218       0.83382476       0.16966641 </v>
    <v>       0.01671713       0.99595861       0.00826325 </v>
    <v>       0.76981576       0.51401321       0.83488265 </v>
    <v>       0.99478465       0.66547556       0.33284537 </v>
    <v>       0.25890136       0.15899473       0.49366723 </v>
    <v>       0.25939331       0.14528234       0.82635211 </v>
    <v>       0.49870677       0.99915197       0.65908078 </v>
    <v>       0.48862724       0.98731053       0.01517677 </v>
    <v>       0.74209093       0.16495731       0.49129663 </v>
    <v>       0.76344249       0.83657177       0.82885054 </v>
    <v>       0.48097288       0.34286465       0.98264419 </v>
    <v>       0.25080152       0.17138556       0.18193307 </v>
    <v>       0.00820024       0.33046427       0.66603075 </v>
    <v>       0.23564511       0.84114425       0.50041834 </v>
    <v>       0.74889624       0.15022770       0.83735227 </v>
    <v>       0.51095137       0.66382936       0.66038825 </v>
   </varray>
  </structure>
  <varray name="forces" >
   <v>       0.01716378       0.00592534       0.00314170 </v>
   <v>      -0.00288439      -0.00333660       0.01875470 </v>
   <v>       0.00002427       0.00437159      -0.01453410 </v>
   <v>      -0.00342761       0.00358288       0.00786425 </v>
   <v>      -0.01061863      -0.02160352       0.00285607 </v>
   <v>       0.00784308       0.00386254      -0.00392131 </v>
   <v>      -0.00491382       0.01490265      -0.00423222 </v>
   <v>      -0.01510253      -0.00545514       0.00750888 </v>
   <v>      -0.01992828       0.00217006       0.00030405 </v>
   <v>       0.01079893       0.00088728       0.00381829 </v>
   <v>       0.00287165       0.00285244       0.00370612 </v>
   <v>      -0.00273279       0.00316335       0.00952857 </v>
   <v>      -0.00225732       0.00133905       0.01212366 </v>
   <v>       0.00652305       0.01794457      -0.01723116 </v>
   <v>       0.02686143       0.01077948       0.00516053 </v>
   <v>      -0.00060542      -0.00194228       0.00706312 </v>
   <v>       0.01804370      -0.00289311      -0.00485221 </v>
   <v>      -0.00790706      -0.00500791       0.00422247 </v>
   <v>       0.02146060       0.00521414      -0.00018982 </v>
   <v>      -0.02643166       0.01334544       0.01066004 </v>
   <v>      -0.02369625       0.00281736       0.00279452 </v>
   <v>       0.00974574      -0.00196295       0.00704120 </v>
   <v>      -0.01462804       0.00683618      -0.02110067 </v>
   <v>      -0.01319535      -0.01302737      -0.01093502 </v>
   <v>      -0.00362858       0.00541088      -0.00954592 </v>
   <v>      -0.02478696      -0.01164143      -0.00231352 </v>
   <v>      -0.01129255       0.00018427       0.02278192 </v>
   <v>      -0.00042387      -0.01196372      -0.00074954 </v>
   <v>       0.02680452       0.00776627      -0.00936303 </v>
   <v>       0.01661685       0.00921779      -0.01023696 </v>
   <v>       0.00519715      -0.00709030      -0.00545713 </v>
   <v>       0.01284923      -0.01162725      -0.00358561 </v>
   <v>      -0.00441710      -0.00837356       0.00362691 </v>
   <v>      -0.03193286      -0.00545465      -0.00353823 </v>
   <v>       0.03731595      -0.01275703      -0.00677010 </v>
   <v>       0.00469116       0.00156328      -0.00440046 </v>
  </varray>
  <varray name="stress" >
   <v>      -0.46792773      -0.51685691       0.10143770 </v>
   <v>      -0.51685690      -0.40943604      -0.26064723 </v>
   <v>       0.10143764      -0.26064727      -0.70556632 </v>
  </varray>
  <energy>
   <i name="e_fr_energy">   -371.56004588 </i>
   <i name="e_wo_entrp">   -371.56453631 </i>
   <i name="e_0_energy">      0.01347128 </i>
  </energy>
  <time name="totalsc">    5.63    6.38</time>
 </calculation>
 <calculation>
  <scstep>
   <time name="dav">    0.89    0.89</time>
   <time name="total">    0.96    1.19</time>
   <energy>
    <i name="alphaZ">   1447.51862349 </i>
    <i name="ewald"> -17478.90760472 </i>
    <i name="hartreedc">  -5659.59916324 </i>
    <i name="XCdc">   -593.30061790 </i>
    <i name="pawpsdc">  31676.23257239 </i>
    <i name="pawaedc"> -29907.05501151 </i>
    <i name="eentropy">      0.01360081 </i>
    <i name="bandstr">  -2112.90660678 </i>
    <i name="atom">  22256.44259433 </i>
    <i name="e_fr_energy">   -371.56161313 </i>
    <i name="e_wo_entrp">   -371.57521394 </i>
    <i name="e_0_energy">   -371.56614673 </i>
   </energy>
  </scstep>
  <scstep>
   <time name="diag">    0.07    0.07</time>
   <time name="diis">    0.76    0.76</time>
   <time name="orth">    0.01    0.01</time>
   <time name="total">    0.90    0.94</time>
   <energy>
    <i name="e_fr_energy">   -371.56141212 </i>
    <i name="e_wo_entrp">   -371.57470922 </i>
    <i name="e_0_energy">   -371.56584448 </i>
   </energy>
  </scstep>
  <scstep>
   <time name="diag">    0.11    0.11</time>
   <time name="diis">    0.80    0.83</time>
   <time name="orth">    0.01    0.01</time>
   <time name="total">    0.99    1.06</time>
   <energy>
    <i name="e_fr_energy">   -371.56104489 </i>
    <i name="e_wo_entrp">   -371.57457165 </i>
    <i name="e_0_energy">   -371.56555381 </i>
   </energy>
  </scstep>
  <scstep>
   <time name="diag">    0.07    0.07</time>
   <time name="diis">    0.82    0.83</time>
   <time name="orth">    0.01    0.01</time>
   <time name="total">    0.97    1.01</time>
   <energy>
    <i name="e_fr_energy">   -371.56078336 </i>
    <i name="e_wo_entrp">   -371.57421089 </i>
    <i name="e_0_energy">   -371.56525921 </i>
   </energy>
  </scstep>
  <scstep>
   <time name="diag">    0.07    0.07</time>
   <time name="diis">    0.76    0.76</time>
   <time name="orth">    0.01    0.01</time>
   <time name="total">    0.90    0.95</time>
   <energy>
    <i name="e_fr_energy">   -371.56075431 </i>
    <i name="e_wo_entrp">   -371.57418694 </i>
    <i name="e_0_energy">   -371.56523186 </i>
   </energy>
  </scstep>
  <scstep>
   <time name="diag">    0.07    0.07</time>
   <time name="diis">    0.63    0.64</time>
   <time name="orth">    0.01    0.01</time>
   <time name="total">    0.74    0.80</time>
   <energy>
    <i name="alphaZ">   1447.51862349 </i>
    <i name="ewald"> -17478.90760472 </i>
    <i name="hartreedc">  -5656.51998539 </i>
    <i name="XCdc">   -593.42594267 </i>
    <i name="pawpsdc">  31715.87584575 </i>
    <i name="pawaedc"> -29946.79144651 </i>
    <i name="eentropy">      0.01343626 </i>
    <i name="bandstr">  -2115.76628028 </i>
    <i name="atom">  22256.44259433 </i>
    <i name="e_fr_energy">   -371.56075976 </i>
    <i name="e_wo_entrp">   -371.57419601 </i>
    <i name="e_0_energy">   -371.56523851 </i>
   </energy>
  </scstep>
  <structure>
   <crystal>
    <varray name="basis" >
     <v>       6.89382190       0.00371160       0.00124815 </v>
     <v>       0.00590965      10.16621734      -0.00608835 </v>
     <v>       0.00187517      -0.00626690      10.23583354 </v>
    </varray>
    <i name="volume">    717.36858550 </i>
    <varray name="rec_basis" >
     <v>       0.14505747      -0.00008434      -0.00002663 </v>
     <v>      -0.00005297       0.09836507       0.00006023 </v>
     <v>      -0.00001772       0.00005852       0.09769604 </v>
    </varray>
   </crystal>
   <varray name="positions" >
    <v>       0.23894468       0.50360435       0.49472239 </v>
    <v>       0.50411516       0.98527081       0.32761166 </v>
    <v>       0.99602638       0.99332213       0.33144160 </v>
    <v>       0.00798641       0.01911618       0.66191879 </v>
    <v>       0.98590395       0.65814545       0.65753234 </v>
    <v>       0.01437739       0.34263870       0.34793548 </v>
    <v>       0.48369728       0.34590170       0.34804371 </v>
    <v>       0.75350140       0.16632780       0.17079868 </v>
    <v>       0.23913999       0.83206966       0.82463834 </v>
    <v>       0.75348512       0.48866095       0.17153912 </v>
    <v>       0.50030438       0.66884201       0.33481427 </v>
    <v>       0.02111091       0.33380740       0.98437410 </v>
    <v>       0.49451301       0.33863292       0.67192027 </v>
    <v>       0.49783544       0.66547669       0.00231901 </v>
    <v>       0.76323533       0.84251629       0.50130173 </v>
    <v>       0.23916878       0.49435552       0.17351185 </v>
    <v>       0.22403986       0.52606860       0.82918449 </v>
    <v>       0.99756909       0.66546503       0.00893914 </v>
    <v>       0.22323159       0.83483482       0.17690779 </v>
    <v>       0.75865986       0.49345806       0.49210129 </v>
    <v>       0.77526700       0.83385219       0.16966699 </v>
    <v>       0.01675190       0.99593690       0.00832801 </v>
    <v>       0.76971543       0.51403073       0.83477199 </v>
    <v>       0.99468526       0.66541386       0.33277490 </v>
    <v>       0.25889384       0.15897875       0.49361674 </v>
    <v>       0.25915733       0.14525886       0.82639013 </v>
    <v>       0.49860093       0.99915944       0.65909330 </v>
    <v>       0.48863621       0.98724620       0.01507524 </v>
    <v>       0.74227992       0.16502783       0.49121262 </v>
    <v>       0.76354257       0.83662501       0.82880521 </v>
    <v>       0.48101769       0.34286848       0.98264716 </v>
    <v>       0.25091307       0.17131590       0.18191231 </v>
    <v>       0.00815984       0.33047199       0.66604373 </v>
    <v>       0.23535854       0.84109578       0.50036661 </v>
    <v>       0.74921071       0.15018442       0.83736428 </v>
    <v>       0.51095974       0.66402059       0.66037172 </v>
   </varray>
  </structure>
  <varray name="forces" >
   <v>       0.01713573       0.00456550       0.00616172 </v>
   <v>      -0.00245530      -0.00239571       0.01038110 </v>
   <v>       0.00194207       0.00634892      -0.01270045 </v>
   <v>      -0.00714511       0.00028058       0.00243987 </v>
   <v>      -0.00857247      -0.01418789       0.00163054 </v>
   <v>       0.00632490       0.00109069      -0.00408950 </v>
   <v>      -0.00229444       0.00974556      -0.00372114 </v>
   <v>      -0.01410649      -0.00199109       0.00428541 </v>
   <v>      -0.01391437      -0.00048484       0.00071326 </v>
   <v>       0.00659109      -0.00148214      -0.00091843 </v>
   <v>       0.00169628       0.00540658       0.00666059 </v>
   <v>      -0.00430453       0.00168114       0.00910297 </v>
   <v>      -0.00033510       0.00375565       0.01191692 </v>
   <v>       0.00534011       0.01717678      -0.01498411 </v>
   <v>       0.02144367       0.00595597       0.00405263 </v>
   <v>      -0.00167249       0.00069873       0.00164923 </v>
   <v>       0.01708563      -0.00565586      -0.00333809 </v>
   <v>      -0.00671708      -0.00367909       0.00067314 </v>
   <v>       0.02113243       0.00285408      -0.00002926 </v>
   <v>      -0.02255081       0.00899513       0.01268855 </v>
   <v>      -0.02352031       0.00109532       0.00265021 </v>
   <v>       0.00671624      -0.00083130       0.00549478 </v>
   <v>      -0.01564572       0.00043596      -0.01929755 </v>
   <v>      -0.01002263      -0.00672881      -0.00760902 </v>
   <v>      -0.00435940       0.00791842      -0.00391909 </v>
   <v>      -0.02485064      -0.00508118       0.00327149 </v>
   <v>      -0.00412520      -0.00029217       0.02185367 </v>
   <v>       0.00258015      -0.00846023      -0.00522070 </v>
   <v>       0.01837442       0.00643772      -0.00388893 </v>
   <v>       0.01370804       0.00820798      -0.00758484 </v>
   <v>       0.00712399      -0.01101457      -0.00541940 </v>
   <v>       0.01446865      -0.00989231      -0.00708246 </v>
   <v>      -0.00085882      -0.00442449       0.00245036 </v>
   <v>      -0.02595182      -0.00721126       0.00077817 </v>
   <v>       0.03155080      -0.00801624      -0.00314374 </v>
   <v>       0.00018853      -0.00082154      -0.00590789 </v>
  </varray>
  <varray name="stress" >
   <v>       0.63943839      -0.29444300       0.08700900 </v>
   <v>      -0.29444297       0.72214121      -0.18022650 </v>
   <v>       0.08700898      -0.18022652       0.44350693 </v>
  </varray>
  <energy>
   <i name="e_fr_energy">   -371.56075976 </i>
   <i name="e_wo_entrp">   -371.56523851 </i>
   <i name="e_0_energy">      0.01343626 </i>
  </energy>
  <time name="totalsc">    7.05    7.70</time>
 </calculation>
 <calculation>
  <scstep>
   <time name="dav">    0.98    1.00</time>
   <time name="total">    1.06    1.27</time>
   <energy>
    <i name="alphaZ">   1448.37316023 </i>
    <i name="ewald"> -17482.34774519 </i>
    <i name="hartreedc">  -5657.68604548 </i>
    <i name="XCdc">   -593.27446159 </i>
    <i name="pawpsdc">  31714.11721636 </i>
    <i name="pawaedc"> -29945.00885833 </i>
    <i name="eentropy">      0.01352453 </i>
    <i name="bandstr">  -2112.19062440 </i>
    <i name="atom">  22256.44259433 </i>
    <i name="e_fr_energy">   -371.56123956 </i>
    <i name="e_wo_entrp">   -371.57476408 </i>
    <i name="e_0_energy">   -371.56574773 </i>
   </energy>
  </scstep>
  <scstep>
   <time name="diag">    0.07    0.07</time>
   <time name="diis">    0.73    0.73</time>
   <time name="orth">    0.01    0.01</time>
   <time name="total">    0.88    0.92</time>
   <energy>
    <i name="e_fr_energy">   -371.56114062 </i>
    <i name="e_wo_entrp">   -371.57446087 </i>
    <i name="e_0_energy">   -371.56558070 </i>
   </energy>
  </scstep>
  <scstep>
   <time name="diag">    0.07    0.07</time>
   <time name="diis">    0.75    0.76</time>
   <time name="orth">    0.01    0.01</time>
   <time name="total">    0.90    0.94</time>
   <energy>
    <i name="e_fr_energy">   -371.56097743 </i>
    <i name="e_wo_entrp">   -371.57445311 </i>
    <i name="e_0_energy">   -371.56546933 </i>
   </energy>
  </scstep>
  <scstep>
   <time name="diag">    0.07    0.07</time>
   <time name="diis">    0.73    0.74</time>
   <time name="orth">    0.01    0.01</time>
   <time name="total">    0.88    0.93</time>
   <energy>
    <i name="e_fr_energy">   -371.56086922 </i>
    <i name="e_wo_entrp">   -371.57427691 </i>
    <i name="e_0_energy">   -371.56533845 </i>
   </energy>
  </scstep>
  <scstep>
   <time name="diag">    0.07    0.07</time>
   <time name="diis">    0.69    0.69</time>
   <time name="orth">    0.01    0.01</time>
   <time name="total">    0.83    0.88</time>
   <energy>
    <i name="e_fr_energy">   -371.56086069 </i>
    <i name="e_wo_entrp">   -371.57427258 </i>
    <i name="e_0_energy">   -371.56533132 </i>
   </energy>
  </scstep>
  <scstep>
   <time name="diag">    0.07    0.07</time>
   <time name="diis">    0.42    0.42</time>
   <time name="orth">    0.01    0.01</time>
   <time name="total">    0.54    0.58</time>
   <energy>
    <i name="alphaZ">   1448.37316023 </i>
    <i name="ewald"> -17482.34774519 </i>
    <i name="hartreedc">  -5655.65506588 </i>
    <i name="XCdc">   -593.35709000 </i>
    <i name="pawpsdc">  31741.29115720 </i>
    <i name="pawaedc"> -29972.15299880 </i>
    <i name="eentropy">      0.01341456 </i>
    <i name="bandstr">  -2114.16829341 </i>
    <i name="atom">  22256.44259433 </i>
    <i name="e_fr_energy">   -371.56086697 </i>
    <i name="e_wo_entrp">   -371.57428154 </i>
    <i name="e_0_energy">   -371.56533849 </i>
   </energy>
  </scstep>
  <structure>
   <crystal>
    <varray name="basis" >
     <v>       6.89274899       0.00281404       0.00152982 </v>
     <v>       0.00458607      10.16424527      -0.00692333 </v>
     <v>       0.00229481      -0.00710835      10.23337182 </v>
    </varray>
    <i name="volume">    716.94533973 </i>
[...]
       <r>    6.5316    1.0000 </r>
       <r>    6.5548    1.0000 </r>
       <r>    6.5801    1.0000 </r>
       <r>    6.6550    1.0000 </r>
       <r>    6.6742    1.0000 </r>
       <r>    6.7207    1.0000 </r>
       <r>    6.7779    1.0000 </r>
       <r>    6.8205    1.0001 </r>
       <r>    6.8572    1.0004 </r>
       <r>    6.8848    1.0011 </r>
       <r>    6.9449    1.0053 </r>
       <r>    6.9622    1.0079 </r>
       <r>    7.0088    1.0188 </r>
       <r>    7.0520    1.0316 </r>
       <r>    7.0704    1.0350 </r>
       <r>    7.1279    1.0113 </r>
       <r>    7.1399    0.9949 </r>
       <r>    7.1862    0.8760 </r>
       <r>    7.1921    0.8539 </r>
       <r>    7.2128    0.7655 </r>
       <r>    7.2598    0.5168 </r>
       <r>    7.3303    0.1587 </r>
       <r>    7.3632    0.0513 </r>
       <r>    7.3738    0.0270 </r>
       <r>    7.4167   -0.0276 </r>
       <r>    7.4538   -0.0351 </r>
       <r>    7.4829   -0.0291 </r>
       <r>    7.5024   -0.0232 </r>
       <r>    7.5557   -0.0093 </r>
       <r>    7.5674   -0.0072 </r>
       <r>    7.5759   -0.0060 </r>
       <r>    7.6270   -0.0016 </r>
       <r>    7.6748   -0.0004 </r>
       <r>    7.7078   -0.0001 </r>
       <r>    7.7853   -0.0000 </r>
       <r>    7.7995   -0.0000 </r>
       <r>    7.9403   -0.0000 </r>
       <r>    7.9631   -0.0000 </r>
       <r>    7.9990   -0.0000 </r>
       <r>    8.0584   -0.0000 </r>
       <r>    8.0943   -0.0000 </r>
       <r>    8.3942   -0.0000 </r>
       <r>    8.5113   -0.0000 </r>
       <r>    8.5491   -0.0000 </r>
       <r>    9.1998   -0.0000 </r>
       <r>    9.2229   -0.0000 </r>
       <r>    9.3055   -0.0000 </r>
       <r>    9.3384   -0.0000 </r>
       <r>    9.3810   -0.0000 </r>
      </set>
     </set>
    </set>
   </array>
  </eigenvalues>
  <separator name="orbital magnetization" >
   <v name="MAGDIPOLOUT">      0.00000000      0.00000000      0.00000000</v>
  </separator>
  <dos>
   <i name="efermi">      7.26280555 </i>
   <total>
    <array>
     <dimension dim="1">gridpoints</dimension>
     <dimension dim="2">spin</dimension>
     <field>energy</field>
     <field>total</field>
     <field>integrated</field>
     <set>
      <set comment="spin 1">
       <r>   -49.8262     0.0000     0.0000 </r>
       <r>   -49.6194     0.0000     0.0000 </r>
       <r>   -49.4126     0.0000     0.0000 </r>
       <r>   -49.2058     0.0000     0.0000 </r>
       <r>   -48.9990     0.0000     0.0000 </r>
       <r>   -48.7922     0.0000     0.0000 </r>
       <r>   -48.5854     0.0000     0.0000 </r>
       <r>   -48.3786    -0.0000    -0.0000 </r>
       <r>   -48.1718    -0.0000    -0.0000 </r>
       <r>   -47.9650    -0.0000    -0.0000 </r>
       <r>   -47.7581    -0.0000    -0.0000 </r>
       <r>   -47.5513    -0.0000    -0.0000 </r>
       <r>   -47.3445    -0.0346    -0.0072 </r>
       <r>   -47.1377    -0.6119    -0.1337 </r>
       <r>   -46.9309    15.2833     3.0269 </r>
       <r>   -46.7241    49.0055    13.1615 </r>
       <r>   -46.5173     4.5091    14.0940 </r>
       <r>   -46.3105    -0.4536    14.0002 </r>
       <r>   -46.1037    -0.0008    14.0000 </r>
       <r>   -45.8969    -0.0000    14.0000 </r>
       <r>   -45.6901    -0.0000    14.0000 </r>
       <r>   -45.4833     0.0000    14.0000 </r>
       <r>   -45.2765     0.0000    14.0000 </r>
       <r>   -45.0697     0.0000    14.0000 </r>
       <r>   -44.8629     0.0000    14.0000 </r>
       <r>   -44.6561     0.0000    14.0000 </r>
       <r>   -44.4493     0.0000    14.0000 </r>
       <r>   -44.2425     0.0000    14.0000 </r>
       <r>   -44.0357     0.0000    14.0000 </r>
       <r>   -43.8289     0.0000    14.0000 </r>
       <r>   -43.6221     0.0000    14.0000 </r>
       <r>   -43.4153     0.0000    14.0000 </r>
       <r>   -43.2085     0.0000    14.0000 </r>
       <r>   -43.0017     0.0000    14.0000 </r>
       <r>   -42.7949     0.0000    14.0000 </r>
       <r>   -42.5881     0.0000    14.0000 </r>
       <r>   -42.3813     0.0000    14.0000 </r>
       <r>   -42.1745    -0.0000    14.0000 </r>
       <r>   -41.9676    -0.0000    14.0000 </r>
       <r>   -41.7608    -0.0000    14.0000 </r>
       <r>   -41.5540    -0.0000    14.0000 </r>
       <r>   -41.3472    -0.0152    13.9969 </r>
       <r>   -41.1404    -1.3756    13.7124 </r>
       <r>   -40.9336    21.7701    18.2145 </r>
       <r>   -40.7268    46.8748    27.9084 </r>
       <r>   -40.5200     0.6683    28.0466 </r>
       <r>   -40.3132    -0.2250    28.0001 </r>
       <r>   -40.1064    -0.0003    28.0000 </r>
       <r>   -39.8996    -0.0000    28.0000 </r>
       <r>   -39.6928    -0.0000    28.0000 </r>
       <r>   -39.4860     0.0000    28.0000 </r>
       <r>   -39.2792     0.0000    28.0000 </r>
       <r>   -39.0724     0.0000    28.0000 </r>
       <r>   -38.8656     0.0000    28.0000 </r>
       <r>   -38.6588     0.0000    28.0000 </r>
       <r>   -38.4520     0.0000    28.0000 </r>
       <r>   -38.2452     0.0000    28.0000 </r>
       <r>   -38.0384     0.0000    28.0000 </r>
       <r>   -37.8316     0.0000    28.0000 </r>
       <r>   -37.6248     0.0000    28.0000 </r>
       <r>   -37.4180     0.0000    28.0000 </r>
       <r>   -37.2112     0.0000    28.0000 </r>
       <r>   -37.0044     0.0000    28.0000 </r>
       <r>   -36.7976     0.0000    28.0000 </r>
       <r>   -36.5908     0.0000    28.0000 </r>
       <r>   -36.3840     0.0000    28.0000 </r>
       <r>   -36.1771     0.0000    28.0000 </r>
       <r>   -35.9703     0.0000    28.0000 </r>
       <r>   -35.7635     0.0000    28.0000 </r>
       <r>   -35.5567     0.0000    28.0000 </r>
       <r>   -35.3499     0.0000    28.0000 </r>
       <r>   -35.1431     0.0000    28.0000 </r>
       <r>   -34.9363     0.0000    28.0000 </r>
       <r>   -34.7295     0.0000    28.0000 </r>
       <r>   -34.5227     0.0000    28.0000 </r>
       <r>   -34.3159     0.0000    28.0000 </r>
       <r>   -34.1091     0.0000    28.0000 </r>
       <r>   -33.9023     0.0000    28.0000 </r>
       <r>   -33.6955     0.0000    28.0000 </r>
       <r>   -33.4887     0.0000    28.0000 </r>
       <r>   -33.2819     0.0000    28.0000 </r>
       <r>   -33.0751     0.0000    28.0000 </r>
       <r>   -32.8683     0.0000    28.0000 </r>
       <r>   -32.6615     0.0000    28.0000 </r>
       <r>   -32.4547     0.0000    28.0000 </r>
       <r>   -32.2479     0.0000    28.0000 </r>
       <r>   -32.0411     0.0000    28.0000 </r>
       <r>   -31.8343     0.0000    28.0000 </r>
       <r>   -31.6275     0.0000    28.0000 </r>
       <r>   -31.4207     0.0000    28.0000 </r>
       <r>   -31.2139     0.0000    28.0000 </r>
       <r>   -31.0071     0.0000    28.0000 </r>
       <r>   -30.8003     0.0000    28.0000 </r>
       <r>   -30.5934     0.0000    28.0000 </r>
       <r>   -30.3866     0.0000    28.0000 </r>
       <r>   -30.1798     0.0000    28.0000 </r>
       <r>   -29.9730     0.0000    28.0000 </r>
       <r>   -29.7662     0.0000    28.0000 </r>
       <r>   -29.5594     0.0000    28.0000 </r>
       <r>   -29.3526     0.0000    28.0000 </r>
       <r>   -29.1458     0.0000    28.0000 </r>
       <r>   -28.9390     0.0000    28.0000 </r>
       <r>   -28.7322     0.0000    28.0000 </r>
       <r>   -28.5254     0.0000    28.0000 </r>
       <r>   -28.3186     0.0000    28.0000 </r>
       <r>   -28.1118     0.0000    28.0000 </r>
       <r>   -27.9050     0.0000    28.0000 </r>
       <r>   -27.6982     0.0000    28.0000 </r>
       <r>   -27.4914     0.0000    28.0000 </r>
       <r>   -27.2846     0.0000    28.0000 </r>
       <r>   -27.0778     0.0000    28.0000 </r>
       <r>   -26.8710     0.0000    28.0000 </r>
       <r>   -26.6642     0.0000    28.0000 </r>
       <r>   -26.4574     0.0000    28.0000 </r>
       <r>   -26.2506     0.0000    28.0000 </r>
       <r>   -26.0438     0.0000    28.0000 </r>
       <r>   -25.8370     0.0000    28.0000 </r>
       <r>   -25.6302     0.0000    28.0000 </r>
       <r>   -25.4234     0.0000    28.0000 </r>
       <r>   -25.2166     0.0000    28.0000 </r>
       <r>   -25.0098     0.0000    28.0000 </r>
       <r>   -24.8029    -0.0000    28.0000 </r>
       <r>   -24.5961    -0.0000    28.0000 </r>
       <r>   -24.3893    -0.0000    28.0000 </r>
       <r>   -24.1825    -0.0000    28.0000 </r>
       <r>   -23.9757    -0.0000    28.0000 </r>
       <r>   -23.7689    -0.0384    27.9921 </r>
       <r>   -23.5621    -0.1055    27.9702 </r>
       <r>   -23.3553    10.0344    30.0454 </r>
       <r>   -23.1485    19.7170    34.1229 </r>
       <r>   -22.9417   104.3541    55.7037 </r>
       <r>   -22.7349    54.7624    67.0288 </r>
       <r>   -22.5281    12.7813    69.6720 </r>
       <r>   -22.3213     1.7549    70.0349 </r>
       <r>   -22.1145    -0.1686    70.0001 </r>
       <r>   -21.9077    -0.0004    70.0000 </r>
       <r>   -21.7009    -0.0000    70.0000 </r>
       <r>   -21.4941    -0.0000    70.0000 </r>
       <r>   -21.2873     0.0000    70.0000 </r>
       <r>   -21.0805     0.0000    70.0000 </r>
       <r>   -20.8737     0.0000    70.0000 </r>
       <r>   -20.6669    -0.0000    70.0000 </r>
       <r>   -20.4601    -0.0000    70.0000 </r>
       <r>   -20.2533    -0.0000    70.0000 </r>
       <r>   -20.0465    -0.0000    70.0000 </r>
       <r>   -19.8397    -0.0003    69.9999 </r>
       <r>   -19.6329    -0.1333    69.9724 </r>
       <r>   -19.4261     1.1372    70.2076 </r>
       <r>   -19.2193    12.0873    72.7073 </r>
       <r>   -19.0124    76.6140    88.5513 </r>
       <r>   -18.8056    95.0991   108.2181 </r>
       <r>   -18.5988    18.5719   112.0589 </r>
       <r>   -18.3920    -0.2018   112.0172 </r>
       <r>   -18.1852    -0.0829   112.0000 </r>
       <r>   -17.9784    -0.0001   112.0000 </r>
       <r>   -17.7716    -0.0000   112.0000 </r>
       <r>   -17.5648     0.0000   112.0000 </r>
       <r>   -17.3580     0.0000   112.0000 </r>
       <r>   -17.1512     0.0000   112.0000 </r>
       <r>   -16.9444     0.0000   112.0000 </r>
       <r>   -16.7376     0.0000   112.0000 </r>
       <r>   -16.5308     0.0000   112.0000 </r>
       <r>   -16.3240     0.0000   112.0000 </r>
       <r>   -16.1172     0.0000   112.0000 </r>
       <r>   -15.9104     0.0000   112.0000 </r>
       <r>   -15.7036     0.0000   112.0000 </r>
       <r>   -15.4968     0.0000   112.0000 </r>
       <r>   -15.2900     0.0000   112.0000 </r>
       <r>   -15.0832     0.0000   112.0000 </r>
       <r>   -14.8764     0.0000   112.0000 </r>
       <r>   -14.6696     0.0000   112.0000 </r>
       <r>   -14.4628     0.0000   112.0000 </r>
       <r>   -14.2560     0.0000   112.0000 </r>
       <r>   -14.0492     0.0000   112.0000 </r>
       <r>   -13.8424     0.0000   112.0000 </r>
       <r>   -13.6356     0.0000   112.0000 </r>
       <r>   -13.4288     0.0000   112.0000 </r>
       <r>   -13.2219     0.0000   112.0000 </r>
       <r>   -13.0151     0.0000   112.0000 </r>
       <r>   -12.8083     0.0000   112.0000 </r>
       <r>   -12.6015     0.0000   112.0000 </r>
       <r>   -12.3947     0.0000   112.0000 </r>
       <r>   -12.1879     0.0000   112.0000 </r>
       <r>   -11.9811     0.0000   112.0000 </r>
       <r>   -11.7743     0.0000   112.0000 </r>
       <r>   -11.5675     0.0000   112.0000 </r>
       <r>   -11.3607     0.0000   112.0000 </r>
       <r>   -11.1539     0.0000   112.0000 </r>
       <r>   -10.9471     0.0000   112.0000 </r>
       <r>   -10.7403     0.0000   112.0000 </r>
       <r>   -10.5335     0.0000   112.0000 </r>
       <r>   -10.3267     0.0000   112.0000 </r>
       <r>   -10.1199     0.0000   112.0000 </r>
       <r>    -9.9131     0.0000   112.0000 </r>
       <r>    -9.7063     0.0000   112.0000 </r>
       <r>    -9.4995     0.0000   112.0000 </r>
       <r>    -9.2927     0.0000   112.0000 </r>
       <r>    -9.0859     0.0000   112.0000 </r>
       <r>    -8.8791     0.0000   112.0000 </r>
       <r>    -8.6723     0.0000   112.0000 </r>
       <r>    -8.4655     0.0000   112.0000 </r>
       <r>    -8.2587     0.0000   112.0000 </r>
       <r>    -8.0519     0.0000   112.0000 </r>
       <r>    -7.8451     0.0000   112.0000 </r>
       <r>    -7.6383     0.0000   112.0000 </r>
       <r>    -7.4314     0.0000   112.0000 </r>
       <r>    -7.2246     0.0000   112.0000 </r>
       <r>    -7.0178     0.0000   112.0000 </r>
       <r>    -6.8110     0.0000   112.0000 </r>
       <r>    -6.6042     0.0000   112.0000 </r>
       <r>    -6.3974     0.0000   112.0000 </r>
       <r>    -6.1906     0.0000   112.0000 </r>
       <r>    -5.9838     0.0000   112.0000 </r>
       <r>    -5.7770     0.0000   112.0000 </r>
       <r>    -5.5702     0.0000   112.0000 </r>
       <r>    -5.3634     0.0000   112.0000 </r>
       <r>    -5.1566     0.0000   112.0000 </r>
       <r>    -4.9498     0.0000   112.0000 </r>
       <r>    -4.7430     0.0000   112.0000 </r>
       <r>    -4.5362     0.0000   112.0000 </r>
       <r>    -4.3294     0.0000   112.0000 </r>
       <r>    -4.1226     0.0000   112.0000 </r>
       <r>    -3.9158     0.0000   112.0000 </r>
       <r>    -3.7090     0.0000   112.0000 </r>
       <r>    -3.5022     0.0000   112.0000 </r>
       <r>    -3.2954     0.0000   112.0000 </r>
       <r>    -3.0886     0.0000   112.0000 </r>
       <r>    -2.8818     0.0000   112.0000 </r>
       <r>    -2.6750     0.0000   112.0000 </r>
       <r>    -2.4682     0.0000   112.0000 </r>
       <r>    -2.2614     0.0000   112.0000 </r>
       <r>    -2.0546     0.0000   112.0000 </r>
       <r>    -1.8478     0.0000   112.0000 </r>
       <r>    -1.6409     0.0000   112.0000 </r>
       <r>    -1.4341     0.0000   112.0000 </r>
       <r>    -1.2273     0.0000   112.0000 </r>
       <r>    -1.0205    -0.0000   112.0000 </r>
       <r>    -0.8137    -0.0000   112.0000 </r>
       <r>    -0.6069    -0.0000   112.0000 </r>
       <r>    -0.4001    -0.0000   112.0000 </r>
       <r>    -0.1933    -0.0000   112.0000 </r>
       <r>     0.0135    -0.0016   111.9997 </r>
       <r>     0.2203     0.0037   112.0004 </r>
       <r>     0.4271     0.2917   112.0607 </r>
       <r>     0.6339     1.1575   112.3001 </r>
       <r>     0.8407     1.6158   112.6343 </r>
       <r>     1.0475     1.9345   113.0343 </r>
       <r>     1.2543     3.5019   113.7585 </r>
       <r>     1.4611     3.9171   114.5686 </r>
       <r>     1.6679     2.5950   115.1053 </r>
       <r>     1.8747     4.5214   116.0403 </r>
       <r>     2.0815     3.6944   116.8043 </r>
       <r>     2.2883     3.1434   117.4544 </r>
       <r>     2.4951     7.3771   118.9800 </r>
       <r>     2.7019     7.9697   120.6282 </r>
       <r>     2.9087     8.6284   122.4126 </r>
       <r>     3.1155     8.0086   124.0688 </r>
       <r>     3.3223     9.1292   125.9567 </r>
       <r>     3.5291    17.1085   129.4948 </r>
       <r>     3.7359    20.5362   133.7418 </r>
       <r>     3.9427    22.9260   138.4829 </r>
       <r>     4.1496    27.3612   144.1413 </r>
       <r>     4.3564    29.4380   150.2292 </r>
       <r>     4.5632    36.1469   157.7045 </r>
       <r>     4.7700    38.7751   165.7234 </r>
       <r>     4.9768    36.3867   173.2483 </r>
       <r>     5.1836    35.3469   180.5581 </r>
       <r>     5.3904    32.9837   187.3793 </r>
       <r>     5.5972    23.3628   192.2108 </r>
       <r>     5.8040    15.4207   195.3999 </r>
       <r>     6.0108    56.3605   207.0554 </r>
       <r>     6.2176    64.0682   220.3050 </r>
       <r>     6.4244    56.7133   232.0335 </r>
       <r>     6.6312    51.3904   242.6612 </r>
       <r>     6.8380    53.8275   253.7929 </r>
       <r>     7.0448    57.1978   265.6216 </r>
       <r>     7.2516    47.7167   275.4896 </r>
       <r>     7.4584    47.3792   285.2878 </r>
       <r>     7.6652    52.3751   296.1191 </r>
       <r>     7.8720    42.6162   304.9323 </r>
       <r>     8.0788    29.1345   310.9575 </r>
       <r>     8.2856    23.9266   315.9056 </r>
       <r>     8.4924    21.8130   320.4166 </r>
       <r>     8.6992    13.3709   323.1817 </r>
       <r>     8.9060    12.3827   325.7425 </r>
       <r>     9.1128    22.4134   330.3777 </r>
       <r>     9.3196    20.3632   334.5889 </r>
       <r>     9.5264     7.2007   336.0780 </r>
       <r>     9.7333    -0.3653   336.0025 </r>
       <r>     9.9401    -0.0119   336.0000 </r>
       <r>    10.1469    -0.0000   336.0000 </r>
       <r>    10.3537    -0.0000   336.0000 </r>
       <r>    10.5605     0.0000   336.0000 </r>
       <r>    10.7673     0.0000   336.0000 </r>
       <r>    10.9741     0.0000   336.0000 </r>
       <r>    11.1809     0.0000   336.0000 </r>
       <r>    11.3877     0.0000   336.0000 </r>
       <r>    11.5945     0.0000   336.0000 </r>
       <r>    11.8013     0.0000   336.0000 </r>
       <r>    12.0081     0.0000   336.0000 </r>
       <r>    12.2149     0.0000   336.0000 </r>
      </set>
     </set>
    </array>
   </total>
  </dos>
 </calculation>
 <structure name="finalpos" >
  <crystal>
   <varray name="basis" >
    <v>       6.89552519       0.00377033       0.00400158 </v>
    <v>       0.00599414      10.16641606      -0.00676065 </v>
    <v>       0.00596298      -0.00694782      10.23243328 </v>
   </varray>
   <i name="volume">    717.32120137 </i>
   <varray name="rec_basis" >
    <v>       0.14502168      -0.00008556      -0.00008457 </v>
    <v>      -0.00005382       0.09836316       0.00006682 </v>
    <v>      -0.00005675       0.00006502       0.09772854 </v>
   </varray>
  </crystal>
  <varray name="positions" >
   <v>       0.23943478       0.50370616       0.49486437 </v>
   <v>       0.50423647       0.98471590       0.32836121 </v>
   <v>       0.99628647       0.99347472       0.33078787 </v>
   <v>       0.00784804       0.01848359       0.66103443 </v>
   <v>       0.98603516       0.65745210       0.65736015 </v>
   <v>       0.01523647       0.34271591       0.34800739 </v>
   <v>       0.48320278       0.34641802       0.34804550 </v>
   <v>       0.75229100       0.16628265       0.17106430 </v>
   <v>       0.23853628       0.83179118       0.82471002 </v>
   <v>       0.75346478       0.48852990       0.17183053 </v>
   <v>       0.50056867       0.66924955       0.33502642 </v>
   <v>       0.02052828       0.33437054       0.98499581 </v>
   <v>       0.49441640       0.33792795       0.67280621 </v>
   <v>       0.49817238       0.66581907       0.00201046 </v>
   <v>       0.76403930       0.84269424       0.50143157 </v>
   <v>       0.23929528       0.49466270       0.17337056 </v>
   <v>       0.22465933       0.52586262       0.82940831 </v>
   <v>       0.99731138       0.66514497       0.00909270 </v>
   <v>       0.22472534       0.83516283       0.17676438 </v>
   <v>       0.75795611       0.49342807       0.49247906 </v>
   <v>       0.77409626       0.83409991       0.16979199 </v>
   <v>       0.01671729       0.99559923       0.00916554 </v>
   <v>       0.76892155       0.51423301       0.83384916 </v>
   <v>       0.99429673       0.66557858       0.33238861 </v>
   <v>       0.25927262       0.15906081       0.49401493 </v>
   <v>       0.25376517       0.14540741       0.82687801 </v>
   <v>       0.49801058       0.99954798       0.66093811 </v>
   <v>       0.48926110       0.98753435       0.01259999 </v>
   <v>       0.74192703       0.16534345       0.49133565 </v>
   <v>       0.76409971       0.83649014       0.82815743 </v>
   <v>       0.48173219       0.34223337       0.98249650 </v>
   <v>       0.25300138       0.17080970       0.18142623 </v>
   <v>       0.00797071       0.33091503       0.66596553 </v>
   <v>       0.23433132       0.84101517       0.50035436 </v>
   <v>       0.75384695       0.14979208       0.83725706 </v>
   <v>       0.51050073       0.66444910       0.65992664 </v>
  </varray>
 </structure>
</modeling>
