 vasp.5.4.1 05Feb16 (build Jan 29 2020 16:04:39) complex                        
  
 executed on           IFC91_ompi date 2020.06.15  12:52:27
 running on  160 total cores
 distrk:  each k-point on   20 cores,    8 groups
 distr:  one band on NCORES_PER_BAND=   5 cores,    4 groups


--------------------------------------------------------------------------------------------------------


 INCAR:
 POTCAR:    PAW_PBE Hf 20Jan2003                  
 POTCAR:    PAW_PBE Nb_sv 25May2007               
 POTCAR:    PAW_PBE Ta 17Jan2003                  
 POTCAR:    PAW_PBE Zr_sv 04Jan2005               

 ----------------------------------------------------------------------------- 
|                                                                             |
|           W    W    AA    RRRRR   N    N  II  N    N   GGGG   !!!           |
|           W    W   A  A   R    R  NN   N  II  NN   N  G    G  !!!           |
|           W    W  A    A  R    R  N N  N  II  N N  N  G       !!!           |
|           W WW W  AAAAAA  RRRRR   N  N N  II  N  N N  G  GGG   !            |
|           WW  WW  A    A  R   R   N   NN  II  N   NN  G    G                |
|           W    W  A    A  R    R  N    N  II  N    N   GGGG   !!!           |
|                                                                             |
|      For optimal performance we recommend to set                            |
|        NCORE= 4 - approx SQRT( number of cores)                             |
|      NCORE specifies how many cores store one orbital (NPAR=cpu/NCORE).     |
|      This setting can  greatly improve the performance of VASP for DFT.     |
|      The default, NPAR=number of cores might be grossly inefficient         |
|      on modern multi-core architectures or massively parallel machines.     |
|      Do your own testing !!!!                                               |
|      Unfortunately you need to use the default for GW and RPA calculations. |
|      (for HF NCORE is supported but not extensively tested yet)             |
|                                                                             |
 ----------------------------------------------------------------------------- 


 ----------------------------------------------------------------------------- 
|                                                                             |
|           W    W    AA    RRRRR   N    N  II  N    N   GGGG   !!!           |
|           W    W   A  A   R    R  NN   N  II  NN   N  G    G  !!!           |
|           W    W  A    A  R    R  N N  N  II  N N  N  G       !!!           |
|           W WW W  AAAAAA  RRRRR   N  N N  II  N  N N  G  GGG   !            |
|           WW  WW  A    A  R   R   N   NN  II  N   NN  G    G                |
|           W    W  A    A  R    R  N    N  II  N    N   GGGG   !!!           |
|                                                                             |
|      You have enabled k-point parallelism (KPAR>1).                         |
|      This developmental code was originally  written by Paul Kent at ORNL,  |
|      and carefully double checked in Vienna.                                |
|      GW as well as linear response parallelism added by Martijn Marsman     |
|      and Georg Kresse.                                                      |
|      Carefully verify results versus KPAR=1.                                |
|      Report problems to Paul Kent and Vienna.                               |
|                                                                             |
 ----------------------------------------------------------------------------- 

 POTCAR:    PAW_PBE Hf 20Jan2003                  
   VRHFIN =Hf: 6s5d                                                             
   LEXCH  = PE                                                                  
   EATOM  =    75.9011 eV,    5.5786 Ry                                         
                                                                                
   TITEL  = PAW_PBE Hf 20Jan2003                                                
   LULTRA =        F    use ultrasoft PP ?                                      
   IUNSCR =        1    unscreen: 0-lin 1-nonlin 2-no                           
   RPACOR =    2.500    partial core radius                                     
   POMASS =  178.490; ZVAL   =    4.000    mass and valenz                      
   RCORE  =    3.000    outmost cutoff radius                                   
   RWIGS  =    3.050; RWIGS  =    1.614    wigner-seitz radius (au A)           
   ENMAX  =  220.334; ENMIN  =  165.250 eV                                      
   RCLOC  =    2.212    cutoff for local pot                                    
   LCOR   =        T    correct aug charges                                     
   LPAW   =        T    paw PP                                                  
   EAUG   =  335.116                                                            
   DEXC   =    0.000                                                            
   RMAX   =    3.077    core radius for proj-oper                               
   RAUG   =    1.300    factor for augmentation sphere                          
   RDEP   =    3.047    radius for radial grids                                 
   RDEPT  =    2.344    core radius for aug-charge                              
                                                                                
   Atomic configuration                                                         
   16 entries                                                                   
     n  l   j            E        occ.                                          
     1  0  0.50    -65259.4397   2.0000                                         
     2  0  0.50    -11157.9882   2.0000                                         
     2  1  1.50     -9795.2113   6.0000                                         
     3  0  0.50     -2541.4058   2.0000                                         
     3  1  1.50     -2134.4770   6.0000                                         
     3  2  2.50     -1653.5418  10.0000                                         
     4  0  0.50      -510.9575   2.0000                                         
     4  1  1.50      -377.5023   6.0000                                         
     4  2  2.50      -205.2085  10.0000                                         
     4  3  3.50       -15.4905  14.0000                                         
     5  0  0.50       -65.6020   2.0000                                         
     5  1  1.50       -34.2798   6.0000                                         
     5  2  2.50        -1.9877   3.0000                                         
     6  0  0.50        -4.7357   1.0000                                         
     6  1  1.50        -1.3606   0.0000                                         
     5  3  2.50        -1.3606   0.0000                                         
   Description                                                                  
     l       E           TYP  RCUT    TYP  RCUT                                 
     2     -1.9876627     23  2.500                                             
     2      0.0744703     23  2.500                                             
     0     -4.7356889     23  2.600                                             
     0      3.2364747     23  2.600                                             
     1     -1.3605826     23  3.000                                             
     1     27.2116520     23  3.000                                             
  local pseudopotential read in
  partial core-charges read in
  partial kinetic energy density read in
  atomic valenz-charges read in
  non local Contribution for L=           2  read in
    real space projection operators read in
  non local Contribution for L=           2  read in
    real space projection operators read in
  non local Contribution for L=           0  read in
    real space projection operators read in
  non local Contribution for L=           0  read in
    real space projection operators read in
  non local Contribution for L=           1  read in
    real space projection operators read in
  non local Contribution for L=           1  read in
    real space projection operators read in
    PAW grid and wavefunctions read in
 
   number of l-projection  operators is LMAX  =           6
   number of lm-projection operators is LMMAX =          18
 
 POTCAR:    PAW_PBE Nb_sv 25May2007               
   VRHFIN =Nb: 4p5s4d                                                           
   LEXCH  = PE                                                                  
   EATOM  =  1555.1913 eV,  114.3033 Ry                                         
                                                                                
   TITEL  = PAW_PBE Nb_sv 25May2007                                             
   LULTRA =        F    use ultrasoft PP ?                                      
   IUNSCR =        1    unscreen: 0-lin 1-nonlin 2-no                           
   RPACOR =    1.800    partial core radius                                     
   POMASS =   92.910; ZVAL   =   13.000    mass and valenz                      
   RCORE  =    2.400    outmost cutoff radius                                   
   RWIGS  =    2.400; RWIGS  =    1.270    wigner-seitz radius (au A)           
   ENMAX  =  293.235; ENMIN  =  219.927 eV                                      
   ICORE  =        3    local potential                                         
   LCOR   =        T    correct aug charges                                     
   LPAW   =        T    paw PP                                                  
   EAUG   =  455.659                                                            
   DEXC   =    0.000                                                            
   RMAX   =    2.456    core radius for proj-oper                               
   RAUG   =    1.300    factor for augmentation sphere                          
   RDEP   =    2.451    radius for radial grids                                 
   RDEPT  =    1.956    core radius for aug-charge                              
                                                                                
   Atomic configuration                                                         
   11 entries                                                                   
     n  l   j            E        occ.                                          
     1  0  0.50    -18805.2457   2.0000                                         
     2  0  0.50     -2630.2869   2.0000                                         
     2  1  1.50     -2348.4046   6.0000                                         
     3  0  0.50      -438.8757   2.0000                                         
     3  1  1.50      -346.7588   6.0000                                         
     3  2  2.50      -196.2560  10.0000                                         
     4  0  0.50       -58.3859   2.0000                                         
     5  0  0.50        -3.9816   1.0000                                         
     4  1  1.50       -34.5141   6.0000                                         
     4  2  2.50        -3.0408   4.0000                                         
     4  3  2.50        -1.3606   0.0000                                         
   Description                                                                  
     l       E           TYP  RCUT    TYP  RCUT                                 
     0    -58.3859094     23  2.200                                             
     0     -3.9816262     23  2.200                                             
     1    -34.5140738     23  2.200                                             
     1     13.6058260     23  2.200                                             
     2     -3.0408010     23  2.200                                             
     2     -0.1283038     23  2.200                                             
     3     -1.3605826     23  2.400                                             
  local pseudopotential read in
  partial core-charges read in
  partial kinetic energy density read in
  atomic valenz-charges read in
  non local Contribution for L=           0  read in
    real space projection operators read in
  non local Contribution for L=           0  read in
    real space projection operators read in
  non local Contribution for L=           1  read in
    real space projection operators read in
  non local Contribution for L=           1  read in
    real space projection operators read in
  non local Contribution for L=           2  read in
    real space projection operators read in
  non local Contribution for L=           2  read in
    real space projection operators read in
    PAW grid and wavefunctions read in
 
   number of l-projection  operators is LMAX  =           6
   number of lm-projection operators is LMMAX =          18
 
 POTCAR:    PAW_PBE Ta 17Jan2003                  
   VRHFIN =Ta:  6s5d                                                            
   LEXCH  = PE                                                                  
   EATOM  =   130.6506 eV,    9.6025 Ry                                         
                                                                                
   TITEL  = PAW_PBE Ta 17Jan2003                                                
   LULTRA =        F    use ultrasoft PP ?                                      
   IUNSCR =        1    unscreen: 0-lin 1-nonlin 2-no                           
   RPACOR =    2.330    partial core radius                                     
   POMASS =  180.948; ZVAL   =    5.000    mass and valenz                      
   RCORE  =    2.900    outmost cutoff radius                                   
   RWIGS  =    2.840; RWIGS  =    1.503    wigner-seitz radius (au A)           
   ENMAX  =  223.667; ENMIN  =  167.750 eV                                      
   RCLOC  =    2.205    cutoff for local pot                                    
   LCOR   =        T    correct aug charges                                     
   LPAW   =        T    paw PP                                                  
   EAUG   =  332.075                                                            
   DEXC   =    0.000                                                            
   RMAX   =    2.970    core radius for proj-oper                               
   RAUG   =    1.300    factor for augmentation sphere                          
   RDEP   =    3.060    radius for radial grids                                 
   RDEPT  =    2.354    core radius for aug-charge                              
                                                                                
   Atomic configuration                                                         
   16 entries                                                                   
     n  l   j            E        occ.                                          
     1  0  0.50    -67341.2807   2.0000                                         
     2  0  0.50    -11566.9376   2.0000                                         
     2  1  1.50    -10134.1182   6.0000                                         
     3  0  0.50     -2648.5620   2.0000                                         
     3  1  1.50     -2222.6012   6.0000                                         
     3  2  2.50     -1726.3120  10.0000                                         
     4  0  0.50      -538.6961   2.0000                                         
     4  1  1.50      -399.0129   6.0000                                         
     4  2  2.50      -220.3959  10.0000                                         
     4  3  3.50       -23.0374  14.0000                                         
     5  0  0.50       -71.2901   2.0000                                         
     5  1  1.50       -37.8225   6.0000                                         
     5  2  2.50        -2.6455   4.0000                                         
     6  0  0.50        -4.9623   1.0000                                         
     6  1  1.50        -1.3606   0.0000                                         
     5  3  2.50        -1.3606   0.0000                                         
   Description                                                                  
     l       E           TYP  RCUT    TYP  RCUT                                 
     2     -2.6455043     23  2.500                                             
     2     -0.6258895     23  2.500                                             
     0     -4.9622780     23  2.500                                             
     0      4.7531321     23  2.500                                             
     1     -1.3605826     23  2.900                                             
     1     27.2116520     23  2.900                                             
  local pseudopotential read in
  partial core-charges read in
  partial kinetic energy density read in
  atomic valenz-charges read in
  non local Contribution for L=           2  read in
    real space projection operators read in
  non local Contribution for L=           2  read in
    real space projection operators read in
  non local Contribution for L=           0  read in
    real space projection operators read in
  non local Contribution for L=           0  read in
    real space projection operators read in
  non local Contribution for L=           1  read in
    real space projection operators read in
  non local Contribution for L=           1  read in
    real space projection operators read in
    PAW grid and wavefunctions read in
 
   number of l-projection  operators is LMAX  =           6
   number of lm-projection operators is LMMAX =          18
 
 POTCAR:    PAW_PBE Zr_sv 04Jan2005               
   VRHFIN =Zr: 4s4p5s4d                                                         
   LEXCH  = PE                                                                  
   EATOM  =  1284.2219 eV,   94.3876 Ry                                         
                                                                                
   TITEL  = PAW_PBE Zr_sv 04Jan2005                                             
   LULTRA =        F    use ultrasoft PP ?                                      
   IUNSCR =        1    unscreen: 0-lin 1-nonlin 2-no                           
   RPACOR =    2.200    partial core radius                                     
   POMASS =   91.224; ZVAL   =   12.000    mass and valenz                      
   RCORE  =    2.500    outmost cutoff radius                                   
   RWIGS  =    3.070; RWIGS  =    1.625    wigner-seitz radius (au A)           
   ENMAX  =  229.898; ENMIN  =  172.424 eV                                      
   ICORE  =        3    local potential                                         
   LCOR   =        T    correct aug charges                                     
   LPAW   =        T    paw PP                                                  
   EAUG   =  461.257                                                            
   DEXC   =    0.000                                                            
   RMAX   =    2.561    core radius for proj-oper                               
   RAUG   =    1.300    factor for augmentation sphere                          
   RDEP   =    2.597    radius for radial grids                                 
   RDEPT  =    2.007    core radius for aug-charge                              
                                                                                
   Atomic configuration                                                         
   11 entries                                                                   
     n  l   j            E        occ.                                          
     1  0  0.50    -17820.0161   2.0000                                         
     2  0  0.50     -2467.0882   2.0000                                         
     2  1  1.50     -2199.6095   6.0000                                         
     3  0  0.50      -402.4863   2.0000                                         
     3  1  1.50      -315.3675   6.0000                                         
     3  2  2.50      -172.4472  10.0000                                         
     4  0  0.50       -52.4146   2.0000                                         
     5  0  0.50        -3.8421   1.0000                                         
     4  1  1.50       -30.5054   6.0000                                         
     4  2  2.50        -2.3341   3.0000                                         
     4  3  2.50        -1.3606   0.0000                                         
   Description                                                                  
     l       E           TYP  RCUT    TYP  RCUT                                 
     0    -52.4145962     23  2.200                                             
     0     -3.8421270     23  2.500                                             
     1    -30.5053914     23  2.200                                             
     1     20.4087390     23  2.200                                             
     2     -2.3340816     23  2.500                                             
     2     -0.6120942     23  2.500                                             
     3     -4.0817478     23  2.500                                             
  local pseudopotential read in
  partial core-charges read in
  partial kinetic energy density read in
  atomic valenz-charges read in
  non local Contribution for L=           0  read in
    real space projection operators read in
  non local Contribution for L=           0  read in
    real space projection operators read in
  non local Contribution for L=           1  read in
    real space projection operators read in
  non local Contribution for L=           1  read in
    real space projection operators read in
  non local Contribution for L=           2  read in
    real space projection operators read in
  non local Contribution for L=           2  read in
    real space projection operators read in
    PAW grid and wavefunctions read in
 
   number of l-projection  operators is LMAX  =           6
   number of lm-projection operators is LMMAX =          18
 
 Optimization of the real space projectors (new method)

 maximal supplied QI-value         = 12.47
 optimisation between [QCUT,QGAM] = [  8.86, 17.71] = [ 21.96, 87.83] Ry 
 Optimized for a Real-space Cutoff    1.90 Angstroem

   l    n(q)    QCUT    max X(q) W(low)/X(q) W(high)/X(q)  e(spline) 
   2      9     8.855    48.111    0.22E-03    0.80E-04    0.10E-05
   2      9     8.855    40.545    0.21E-03    0.76E-04    0.95E-06
   0     10     8.855   121.658    0.27E-04    0.12E-04    0.11E-06
   0     10     8.855    71.177    0.22E-04    0.11E-04    0.99E-07
   1     10     8.855    14.183    0.65E-04    0.10E-03    0.98E-07
   1     10     8.855     8.257    0.43E-04    0.73E-04    0.72E-07
 Optimization of the real space projectors (new method)

 maximal supplied QI-value         = 15.68
 optimisation between [QCUT,QGAM] = [  8.78, 17.72] = [ 21.60, 87.97] Ry 
 Optimized for a Real-space Cutoff    1.96 Angstroem

   l    n(q)    QCUT    max X(q) W(low)/X(q) W(high)/X(q)  e(spline) 
   0     10     8.783    10.201    0.29E-04    0.25E-05    0.69E-07
   0     10     8.783     8.174    0.45E-04    0.57E-05    0.14E-06
   1     10     8.783     3.488    0.76E-05    0.24E-04    0.95E-07
   1     10     8.783     4.917    0.78E-04    0.14E-03    0.46E-06
   2      9     8.783   153.744    0.22E-03    0.34E-04    0.15E-05
   2      9     8.783   126.342    0.22E-03    0.35E-04    0.15E-05
 Optimization of the real space projectors (new method)

 maximal supplied QI-value         = 12.85
 optimisation between [QCUT,QGAM] = [  8.87, 17.73] = [ 22.01, 88.06] Ry 
 Optimized for a Real-space Cutoff    1.90 Angstroem

   l    n(q)    QCUT    max X(q) W(low)/X(q) W(high)/X(q)  e(spline) 
   2      9     8.867    62.315    0.23E-03    0.62E-04    0.11E-05
   2      9     8.867    52.185    0.23E-03    0.62E-04    0.11E-05
   0     10     8.867   103.837    0.15E-04    0.23E-04    0.98E-07
   0     10     8.867    59.728    0.12E-04    0.21E-04    0.89E-07
   1     10     8.867    13.958    0.50E-04    0.22E-04    0.14E-06
   1     10     8.867     8.441    0.36E-04    0.19E-04    0.98E-07
 Optimization of the real space projectors (new method)

 maximal supplied QI-value         = 15.12
 optimisation between [QCUT,QGAM] = [  8.77, 17.69] = [ 21.53, 87.61] Ry 
 Optimized for a Real-space Cutoff    1.74 Angstroem

   l    n(q)    QCUT    max X(q) W(low)/X(q) W(high)/X(q)  e(spline) 
   0      9     8.768    12.107    0.28E-04    0.53E-06    0.29E-07
   0      9     8.768     9.948    0.36E-04    0.50E-05    0.64E-07
   1      9     8.768     3.563    0.14E-04    0.16E-04    0.88E-07
   1      9     8.768     4.524    0.21E-03    0.33E-03    0.19E-06
   2      8     8.768    87.261    0.19E-03    0.25E-03    0.24E-06
   2      8     8.768    70.950    0.19E-03    0.24E-03    0.24E-06
  PAW_PBE Hf 20Jan2003                  :
 energy of atom  1       EATOM=  -75.9011
 kinetic energy error for atom=    0.0071 (will be added to EATOM!!)
  PAW_PBE Nb_sv 25May2007               :
 energy of atom  2       EATOM=-1555.1913
 kinetic energy error for atom=    0.0655 (will be added to EATOM!!)
  PAW_PBE Ta 17Jan2003                  :
 energy of atom  3       EATOM= -130.6506
 kinetic energy error for atom=    0.0121 (will be added to EATOM!!)
  PAW_PBE Zr_sv 04Jan2005               :
 energy of atom  4       EATOM=-1284.2219
 kinetic energy error for atom=    0.0483 (will be added to EATOM!!)
 
 
 POSCAR: generated by pypospack                  
  positions in direct lattice
  No initial velocities read in
 exchange correlation table for  LEXCH =        8
   RHO(1)=    0.500       N(1)  =     2000
   RHO(2)=  100.500       N(2)  =     4000
 


--------------------------------------------------------------------------------------------------------


 ion  position               nearest neighbor table
   1  0.476  0.329  0.998-  15 2.85  14 2.90  22 2.98  13 3.00   5 3.07   4 3.09  34 3.10  16 3.12
                             2 3.15  23 3.34  11 3.36  29 3.41   7 3.54
   2  0.768  0.494  0.164-   7 3.02   6 3.05  35 3.06  21 3.07  16 3.07  25 3.08  29 3.12   1 3.15
                             5 3.19  34 3.29   4 3.38  30 3.44  19 3.54   5 3.77
   3  0.270  0.822  0.814-  26 2.91  27 2.95  35 3.01   7 3.01  11 3.08   8 3.12   9 3.13  31 3.18
                            33 3.19  10 3.20  22 3.23  10 3.76
   4  0.753  0.499  0.835-  26 2.97  16 3.01  23 3.02  36 3.03  27 3.03   1 3.09  35 3.10   7 3.16
                            14 3.21  10 3.23   2 3.38  22 3.44  30 3.46  22 3.52
   5  0.226  0.501  0.174-  21 2.91  16 2.94   6 3.00  29 3.00  35 3.02   7 3.04  25 3.05   1 3.07
                             2 3.19  24 3.35  18 3.42  13 3.43  22 3.59   2 3.77
   6  0.990  0.678  0.341-  17 2.85  19 2.85  18 2.91  33 2.99   5 3.00  30 3.00   2 3.05  24 3.06
                            27 3.25  28 3.25  25 3.38  35 3.50  25 3.58  21 3.62
   7  0.497  0.675  0.018-  18 2.92  19 2.96   3 3.01   2 3.02   5 3.04  10 3.05  22 3.16   4 3.16
                            25 3.17  11 3.33  35 3.44  35 3.53   1 3.54
   8  0.520  0.029  0.669-  12 2.91  20 2.93  15 2.94  14 2.95  10 2.98  23 3.09  17 3.10   3 3.12
                            33 3.17   9 3.24  11 3.43  32 3.46   9 3.73
   9  0.985  0.009  0.667-  12 2.92  20 2.95  15 2.99  17 3.00  10 3.03  14 3.05  33 3.11   3 3.13
                             8 3.24  36 3.26  28 3.37  31 3.41  27 3.60   8 3.73
  10  0.729  0.814  0.807-  26 2.93  27 2.98   8 2.98  35 3.03   9 3.03   7 3.05  17 3.12   3 3.20
                            11 3.21   4 3.23  31 3.29   3 3.76
  11  0.495  0.000  0.001-  15 2.99  19 3.03  18 3.05  14 3.06  13 3.07   3 3.08  34 3.10  10 3.21
                             7 3.33   1 3.36  32 3.42  31 3.42   8 3.43  31 3.54
  12  0.762  0.176  0.490-  21 2.77   8 2.91  28 2.92   9 2.92  36 2.92  29 2.94  32 2.98  23 3.11
                            30 3.26  34 3.39
  13  0.226  0.165  0.171-  21 2.83  16 2.86  28 2.91  29 2.94  31 2.94   1 3.00  32 3.02  11 3.07
                            34 3.14   5 3.43
  14  0.758  0.185  0.848-  16 2.79   1 2.90  36 2.93   8 2.95  23 2.98  31 3.02   9 3.05  11 3.06
                             4 3.21  34 3.22
  15  0.245  0.170  0.833-  16 2.74   1 2.85  36 2.87  23 2.88   8 2.94  11 2.99   9 2.99  31 3.00

  16  0.028  0.330  0.988-  15 2.74  14 2.79  13 2.86  22 2.89   5 2.94  34 2.97   4 3.01   2 3.07
                             1 3.12  36 3.31  31 3.45
  17  0.745  0.828  0.504-   6 2.85  25 2.95  27 2.97  28 2.99   9 3.00  32 3.02  26 3.07   8 3.10
                            10 3.12  19 3.30  33 3.37  30 3.39
  18  0.253  0.835  0.185-  25 2.81  32 2.90  28 2.91   6 2.91   7 2.92  35 2.99  31 3.03  11 3.05
                            33 3.27   5 3.42
  19  0.747  0.839  0.183-  25 2.82  32 2.85   6 2.85  28 2.87   7 2.96  35 3.03  11 3.03  31 3.04
                            17 3.30  34 3.41   2 3.54
  20  0.243  0.164  0.499-  21 2.75  28 2.92  29 2.93  36 2.93   8 2.93   9 2.95  32 2.98  23 3.01
                            33 3.35  24 3.40
  21  0.017  0.324  0.345-  20 2.75  12 2.77  13 2.83  24 2.88   5 2.91  34 2.98  30 3.04   2 3.07
                            29 3.27  36 3.30  28 3.35   6 3.62  29 3.70
  22  0.247  0.505  0.825-  26 2.76  27 2.83  16 2.89  23 2.92  36 2.97   1 2.98  35 3.10   7 3.16
                             3 3.23  24 3.35   4 3.44   4 3.52   5 3.59
  23  0.489  0.331  0.672-  15 2.88  22 2.92  24 2.94  14 2.98  20 3.01   4 3.02  30 3.03   8 3.09
                            12 3.11  26 3.14   1 3.34  36 3.37  29 3.52  36 3.59
  24  0.253  0.496  0.500-  26 2.70  27 2.85  21 2.88  23 2.94  29 2.97  36 2.98   6 3.06  25 3.07
                            22 3.35   5 3.35  20 3.40  30 3.41  33 3.47  30 3.55
  25  0.504  0.672  0.327-  18 2.81  19 2.82  17 2.95  30 3.00  33 3.01   5 3.05  24 3.07   2 3.08
                             7 3.17   6 3.38  26 3.40  32 3.40  29 3.55   6 3.58
  26  0.485  0.638  0.655-  24 2.70  22 2.76  30 2.83   3 2.91  10 2.93   4 2.97  33 2.98  17 3.07
                            23 3.14  27 3.30  25 3.40
  27  0.012  0.657  0.656-  22 2.83  24 2.85   3 2.95  33 2.96  17 2.97  30 2.98  10 2.98   4 3.03
                             6 3.25  26 3.30  36 3.36  35 3.55   9 3.60
  28  0.998  0.996  0.340-  19 2.87  18 2.91  13 2.91  12 2.92  20 2.92  33 2.96  34 2.98  17 2.99
                             6 3.25  21 3.35   9 3.37  32 3.43  31 3.51  32 3.53
  29  0.487  0.324  0.330-  20 2.93  12 2.94  13 2.94  24 2.97   5 3.00  30 3.04  34 3.08   2 3.12
                            32 3.26  21 3.27   1 3.41  23 3.52  25 3.55  21 3.70
  30  0.743  0.495  0.498-  26 2.83  27 2.98  25 3.00   6 3.00  36 3.03  23 3.03  21 3.04  29 3.04
                            12 3.26  17 3.39  24 3.41   2 3.44   4 3.46  24 3.55
  31  0.004  0.992  0.998-  13 2.94  34 2.96  15 3.00  14 3.02  18 3.03  19 3.04  35 3.12   3 3.18
                            10 3.29   9 3.41  11 3.42  16 3.45  28 3.51  11 3.54
  32  0.504  0.005  0.333-  19 2.85  18 2.90  20 2.98  33 2.98  12 2.98  17 3.02  13 3.02  34 3.09
                            29 3.26  25 3.40  11 3.42  28 3.43   8 3.46  28 3.53
  33  0.260  0.836  0.503-  28 2.96  27 2.96  26 2.98  32 2.98   6 2.99  25 3.01   9 3.11   8 3.17
                             3 3.19  18 3.27  20 3.35  17 3.37  24 3.47
  34  0.775  0.172  0.161-  31 2.96  16 2.97  21 2.98  28 2.98  29 3.08  32 3.09  11 3.10   1 3.10
                            13 3.14  14 3.22   2 3.29  12 3.39  19 3.41
  35  0.002  0.687  0.001-  18 2.99   3 3.01   5 3.02  10 3.03  19 3.03   2 3.06   4 3.10  22 3.10
                            31 3.12   7 3.44   6 3.50   7 3.53  27 3.55
  36  0.005  0.328  0.666-  15 2.87  12 2.92  20 2.93  14 2.93  22 2.97  24 2.98  30 3.03   4 3.03
                             9 3.26  21 3.30  16 3.31  27 3.36  23 3.37  23 3.59
 
  LATTYP: Found a triclinic cell.
 ALAT       =    20.0884907177
 B/A-ratio  =     0.3462923561
 C/A-ratio  =     0.5081934326
 COS(alpha) =     0.0014720253
 COS(beta)  =     0.5055752067
 COS(gamma) =     0.6955396310
  
  Lattice vectors:
  
 A1 = ( -13.9428801524, -10.1822082083,  10.2696732359)
 A2 = (  -6.9564726521,  -0.0049234620,   0.0150996144)
 A3 = (  -0.0078815298, -10.2087709591,  -0.0364445929)


Analysis of symmetry for initial positions (statically):
=====================================================================
 Subroutine PRICEL returns:
 Original cell was already a primitive cell.
 

 Routine SETGRP: Setting up the symmetry group for a 
 triclinic supercell.


 Subroutine GETGRP returns: Found  1 space group operations
 (whereof  1 operations were pure point group operations)
 out of a pool of  2 trial point group operations.


The static configuration has the point symmetry C_1 .


Analysis of symmetry for dynamics (positions and initial velocities):
=====================================================================
 Subroutine PRICEL returns:
 Original cell was already a primitive cell.
 

 Routine SETGRP: Setting up the symmetry group for a 
 triclinic supercell.


 Subroutine GETGRP returns: Found  1 space group operations
 (whereof  1 operations were pure point group operations)
 out of a pool of  2 trial point group operations.


The dynamic configuration has the point symmetry C_1 .


 Subroutine INISYM returns: Found  1 space group operations
 (whereof  1 operations are pure point group operations),
 and found     1 'primitive' translations

 
 
 KPOINTS: k-points                                

Automatic generation of k-mesh.
Space group operators:
 irot       det(A)        alpha          n_x          n_y          n_z        tau_x        tau_y        tau_z
    1     1.000000     0.000000     1.000000     0.000000     0.000000     0.000000     0.000000     0.000000
 
 Subroutine IBZKPT returns following result:
 ===========================================
 
 Found     14 irreducible k-points:
 
 Following reciprocal coordinates:
            Coordinates               Weight
  0.000000  0.000000  0.000000      1.000000
  0.333333  0.000000  0.000000      2.000000
  0.000000  0.333333  0.000000      2.000000
  0.333333  0.333333  0.000000      2.000000
 -0.333333  0.333333  0.000000      2.000000
 -0.000000 -0.000000  0.333333      2.000000
  0.333333  0.000000  0.333333      2.000000
 -0.333333 -0.000000  0.333333      2.000000
  0.000000  0.333333  0.333333      2.000000
  0.333333  0.333333  0.333333      2.000000
 -0.333333  0.333333  0.333333      2.000000
  0.000000 -0.333333  0.333333      2.000000
  0.333333 -0.333333  0.333333      2.000000
 -0.333333 -0.333333  0.333333      2.000000
 
 Following cartesian coordinates:
            Coordinates               Weight
  0.000000  0.000000  0.000000      1.000000
  0.239026 -0.000186  0.000514      2.000000
 -0.000117  0.162879 -0.000577      2.000000
  0.238910  0.162692 -0.000064      2.000000
 -0.239143  0.163065 -0.001091      2.000000
  0.000352 -0.000578  0.161815      2.000000
  0.239378 -0.000764  0.162329      2.000000
 -0.238674 -0.000392  0.161301      2.000000
  0.000235  0.162301  0.161238      2.000000
  0.239261  0.162114  0.161751      2.000000
 -0.238791  0.162487  0.160724      2.000000
  0.000468 -0.163457  0.162392      2.000000
  0.239494 -0.163643  0.162906      2.000000
 -0.238558 -0.163270  0.161879      2.000000
 


--------------------------------------------------------------------------------------------------------




 Dimension of arrays:
   k-points           NKPTS =     14   k-points in BZ     NKDIM =     14   number of bands    NBANDS=    168
   number of dos      NEDOS =    301   number of ions     NIONS =     36
   non local maximal  LDIM  =      6   non local SUM 2l+1 LMDIM =     18
   total plane-waves  NPLWV = 144000
   max r-space proj   IRMAX =   6278   max aug-charges    IRDMAX=  13630
   dimension x,y,z NGX =    40 NGY =   60 NGZ =   60
   dimension x,y,z NGXF=    80 NGYF=  120 NGZF=  120
   support grid    NGXF=    80 NGYF=  120 NGZF=  120
   ions per type =              11   7  10   8
 NGX,Y,Z   is equivalent  to a cutoff of   9.56,  9.77,  9.71 a.u.
 NGXF,Y,Z  is equivalent  to a cutoff of  19.12, 19.54, 19.41 a.u.


 I would recommend the setting:
   dimension x,y,z NGX =    39 NGY =   58 NGZ =   58
 SYSTEM =  automatically generated by mexm         
 POSCAR =  generated by pypospack                  

 Startparameter for this run:
   NWRITE =      2    write-flag & timer
   PREC   = accura    normal or accurate (medium, high low for compatibility)
   ISTART =      0    job   : 0-new  1-cont  2-samecut
   ICHARG =      2    charge: 1-file 2-atom 10-const
   ISPIN  =      1    spin polarized calculation?
   LNONCOLLINEAR =      F non collinear calculations
   LSORBIT =      F    spin-orbit coupling
   INIWAV =      1    electr: 0-lowe 1-rand  2-diag
   LASPH  =      F    aspherical Exc in radial PAW
   METAGGA=      F    non-selfconsistent MetaGGA calc.

 Electronic Relaxation 1
   ENCUT  =  300.0 eV  22.05 Ry    4.70 a.u.   9.82 14.42 14.51*2*pi/ulx,y,z
   ENINI  =  300.0     initial cutoff
   ENAUG  =  461.3 eV  augmentation charge cutoff
   NELM   =     70;   NELMIN=  2; NELMDL= -5     # of ELM steps 
   EDIFF  = 0.1E-04   stopping-criterion for ELM
   LREAL  =      T    real-space projection
   NLSPLINE    = F    spline interpolate recip. space projectors
   LCOMPAT=      F    compatible to vasp.4.4
   GGA_COMPAT  = T    GGA compatible to vasp.4.4-vasp.4.6
   LMAXPAW     = -100 max onsite density
   LMAXMIX     =    2 max onsite mixed and CHGCAR
   VOSKOWN=      0    Vosko Wilk Nusair interpolation
   ROPT   =   -0.00025  -0.00025  -0.00025  -0.00025
 Ionic relaxation
   EDIFFG = -.1E-01   stopping-criterion for IOM
   NSW    =    300    number of steps for IOM
   NBLOCK =      1;   KBLOCK =    300    inner block; outer block 
   IBRION =      2    ionic relax: 0-MD 1-quasi-New 2-CG
   NFREE  =      1    steps in history (QN), initial steepest desc. (CG)
   ISIF   =      3    stress and relaxation
   IWAVPR =     11    prediction:  0-non 1-charg 2-wave 3-comb
   ISYM   =      1    0-nonsym 1-usesym 2-fastsym
   LCORR  =      T    Harris-Foulkes like correction to forces

   POTIM  = 0.1500    time-step for ionic-motion
   TEIN   =    0.0    initial temperature
   TEBEG  =    0.0;   TEEND  =   0.0 temperature during run
   SMASS  =  -3.00    Nose mass-parameter (am)
   estimated Nose-frequenzy (Omega)   =  0.10E-29 period in steps =****** mass=  -0.111E-26a.u.
   SCALEE = 1.0000    scale energy and forces
   NPACO  =    256;   APACO  = 16.0  distance and # of slots for P.C.
   PSTRESS=    0.0 pullay stress

  Mass of Ions in am
   POMASS = 178.49 92.91180.95 91.22
  Ionic Valenz
   ZVAL   =   4.00 13.00  5.00 12.00
  Atomic Wigner-Seitz radii
   RWIGS  =  -1.00 -1.00 -1.00 -1.00
  virtual crystal weights 
   VCA    =   1.00  1.00  1.00  1.00
   NELECT =     281.0000    total number of electrons
   NUPDOWN=      -1.0000    fix difference up-down

 DOS related values:
   EMIN   =  10.00;   EMAX   =-10.00  energy-range for DOS
   EFERMI =   0.00
   ISMEAR =     1;   SIGMA  =   0.15  broadening in eV -4-tet -1-fermi 0-gaus

 Electronic relaxation 2 (details)
   IALGO  =     68    algorithm
   LDIAG  =      T    sub-space diagonalisation (order eigenvalues)
   LSUBROT=      F    optimize rotation matrix (better conditioning)
   TURBO    =      0    0=normal 1=particle mesh
   IRESTART =      0    0=no restart 2=restart with 2 vectors
   NREBOOT  =      0    no. of reboots
   NMIN     =      0    reboot dimension
   EREF     =   0.00    reference energy to select bands
   IMIX   =      4    mixing-type and parameters
     AMIX     =   0.40;   BMIX     =  1.00
     AMIX_MAG =   1.60;   BMIX_MAG =  1.00
     AMIN     =   0.10
     WC   =   100.;   INIMIX=   1;  MIXPRE=   1;  MAXMIX= -45

 Intra band minimization:
   WEIMIN = 0.0010     energy-eigenvalue tresh-hold
   EBREAK =  0.15E-07  absolut break condition
   DEPER  =   0.30     relativ break condition  

   TIME   =   0.40     timestep for ELM

  volume/ion in A,a.u.               =      20.27       136.79
  Fermi-wavevector in a.u.,A,eV,Ry     =   1.191018  2.250698 19.300201  1.418525
  Thomas-Fermi vector in A             =   2.327090
 
 Write flags
   LWAVE  =      F    write WAVECAR
   LCHARG =      F    write CHGCAR
   LVTOT  =      F    write LOCPOT, total local potential
   LVHAR  =      F    write LOCPOT, Hartree potential only
   LELF   =      F    write electronic localiz. function (ELF)
   LORBIT =      0    0 simple, 1 ext, 2 COOP (PROOUT)


 Dipole corrections
   LMONO  =      F    monopole corrections only (constant potential shift)
   LDIPOL =      F    correct potential (dipole corrections)
   IDIPOL =      0    1-x, 2-y, 3-z, 4-all directions 
   EPSILON=  1.0000000 bulk dielectric constant

 Exchange correlation treatment:
   GGA     =    --    GGA type
   LEXCH   =     8    internal setting for exchange type
   VOSKOWN=      0    Vosko Wilk Nusair interpolation
   LHFCALC =     F    Hartree Fock is set to
   LHFONE  =     F    Hartree Fock one center treatment
   AEXX    =    0.0000 exact exchange contribution

 Linear response parameters
   LEPSILON=     F    determine dielectric tensor
   LRPA    =     F    only Hartree local field effects (RPA)
   LNABLA  =     F    use nabla operator in PAW spheres
   LVEL    =     F    velocity operator in full k-point grid
   LINTERFAST=   F  fast interpolation
   KINTER  =     0    interpolate to denser k-point grid
   CSHIFT  =0.1000    complex shift for real part using Kramers Kronig
   OMEGAMAX=  -1.0    maximum frequency
   DEG_THRESHOLD= 0.2000000E-02 threshold for treating states as degnerate
   RTIME   =    0.100 relaxation time in fs

 Orbital magnetization related:
   ORBITALMAG=     F  switch on orbital magnetization
   LCHIMAG   =     F  perturbation theory with respect to B field
   DQ        =  0.001000  dq finite difference perturbation B field



--------------------------------------------------------------------------------------------------------


 conjugate gradient relaxation of ions
 charge density and potential will be updated during run
 non-spin polarized calculation
 RMM-DIIS sequential band-by-band and
  variant of blocked Davidson during initial phase
 perform sub-space diagonalisation
    before iterative eigenvector-optimisation
 modified Broyden-mixing scheme, WC =      100.0
 initial mixing is a Kerker type mixing with AMIX =  0.4000 and BMIX =      1.0000
 Hartree-type preconditioning will be used
 using additional bands           27
 real space projection scheme for non local part
 use partial core corrections
 calculate Harris-corrections to forces 
   (improved forces if not selfconsistent)
 use gradient corrections 
 use of overlap-Matrix (Vanderbilt PP)
 Methfessel and Paxton  Order N= 1 SIGMA  =   0.15


--------------------------------------------------------------------------------------------------------


  energy-cutoff  :      300.00
  volume of cell :      729.75
      direct lattice vectors                 reciprocal lattice vectors
     6.956472652  0.004923462 -0.015099614     0.143751764 -0.000112084  0.000308905
     0.007881530 10.208770959  0.036444593    -0.000070083  0.097956278 -0.000347229
    -0.022053319  0.036409675 10.275918600     0.000211480 -0.000347577  0.097316586

  length of vectors
     6.956490782 10.208839054 10.276006768     0.143752140  0.097956919  0.097317437


 
 k-points in units of 2pi/SCALE and weight: k-points                                
   0.00000000  0.00000000  0.00000000       0.037
   0.23902612 -0.00018637  0.00051364       0.074
  -0.00011653  0.16287876 -0.00057736       0.074
   0.23890959  0.16269239 -0.00006372       0.074
  -0.23914265  0.16306513 -0.00109100       0.074
   0.00035164 -0.00057794  0.16181510       0.074
   0.23937776 -0.00076431  0.16232874       0.074
  -0.23867448 -0.00039157  0.16130146       0.074
   0.00023511  0.16230082  0.16123774       0.074
   0.23926123  0.16211445  0.16175138       0.074
  -0.23879101  0.16248719  0.16072410       0.074
   0.00046817 -0.16345670  0.16239246       0.074
   0.23949429 -0.16364307  0.16290610       0.074
  -0.23855795 -0.16327033  0.16187882       0.074
 
 k-points in reciprocal lattice and weights: k-points                                
   0.00000000  0.00000000  0.00000000       0.037
   0.33333333  0.00000000  0.00000000       0.074
   0.00000000  0.33333333  0.00000000       0.074
   0.33333333  0.33333333  0.00000000       0.074
  -0.33333333  0.33333333  0.00000000       0.074
  -0.00000000 -0.00000000  0.33333333       0.074
   0.33333333  0.00000000  0.33333333       0.074
  -0.33333333 -0.00000000  0.33333333       0.074
   0.00000000  0.33333333  0.33333333       0.074
   0.33333333  0.33333333  0.33333333       0.074
  -0.33333333  0.33333333  0.33333333       0.074
   0.00000000 -0.33333333  0.33333333       0.074
   0.33333333 -0.33333333  0.33333333       0.074
  -0.33333333 -0.33333333  0.33333333       0.074
 
 position of ions in fractional coordinates (direct lattice) 
   0.47609800  0.32901500  0.99769400
   0.76761800  0.49406700  0.16404700
   0.26986300  0.82170000  0.81402300
   0.75334200  0.49913700  0.83494700
   0.22593900  0.50078400  0.17376500
   0.99022600  0.67843200  0.34123100
   0.49659000  0.67462400  0.01828700
   0.51979200  0.02895900  0.66853400
   0.98468800  0.00863400  0.66680800
   0.72908800  0.81394700  0.80742600
   0.49489200  0.00027400  0.00064900
   0.76194200  0.17621500  0.49033600
   0.22617900  0.16464800  0.17067400
   0.75753500  0.18496700  0.84818200
   0.24461900  0.16996000  0.83322300
   0.02801600  0.32964100  0.98795000
   0.74497300  0.82779400  0.50437200
   0.25304800  0.83472500  0.18542800
   0.74667500  0.83944600  0.18304200
   0.24312900  0.16371200  0.49867100
   0.01743000  0.32393200  0.34543700
   0.24701700  0.50543200  0.82509000
   0.48921700  0.33054500  0.67245400
   0.25297100  0.49633700  0.49959700
   0.50444400  0.67178100  0.32678800
   0.48498200  0.63817200  0.65541900
   0.01195800  0.65715800  0.65623200
   0.99753900  0.99645000  0.33961900
   0.48654900  0.32435100  0.32959300
   0.74320500  0.49546900  0.49807800
   0.00379800  0.99218600  0.99841300
   0.50421400  0.00489900  0.33308600
   0.26001900  0.83621800  0.50339300
   0.77480800  0.17181300  0.16074400
   0.00244100  0.68669600  0.00055300
   0.00515800  0.32789600  0.66621400
 
 position of ions in cartesian coordinates  (Angst):
   3.29255339  3.39750854 10.25702425
   5.34018985  5.05356908  1.69214895
   1.86581892  8.41951407  8.39070578
   5.22612363  5.12968451  8.58666308
   1.57185332  5.11982829  1.80043427
   6.88630189  6.94325635  3.51623513
   3.45942853  6.89019267  0.20500380
   3.60140368  0.32253608  6.86300771
   6.83531786  0.11726886  6.83751098
   5.06048946  8.34238625  8.31569887
   3.44269051  0.00525742 -0.00079362
   5.29100399  1.82054294  5.03356988
   1.57094178  1.68818149  1.75641744
   5.25252411  1.92289746  8.71115175
   1.68464960  1.76662446  8.56463219
   0.17570304  3.40133834 10.16368438
   5.17778551  8.47279121  5.20180543
   1.76281110  8.52951358  1.93204332
   5.19680365  8.58005267  1.90024346
   1.68161319  1.69065180  5.12659787
   0.11618637  3.31961066  3.56122488
   1.70415461  5.19109696  8.49324808
   3.39100004  3.40135067  6.91474216
   1.75267997  5.08642641  5.14808714
   3.50723879  6.87244022  3.37491276
   3.36433963  6.54120316  6.75096717
   0.07389282  6.73272757  6.76715591
   6.93971660 10.18980658  3.51114996
   3.37995258  3.32562095  3.39134498
   5.16300604  5.07992354  5.12504404
   0.01222231 10.16537021 10.29571318
   3.50024386  0.06462280  3.41532973
   1.80430425  8.55636660  5.19937493
   5.38773987  1.76366694  1.64635461
   0.02238077  7.01035434  0.03067208
   0.02377358  3.37169719  6.85783299
 


--------------------------------------------------------------------------------------------------------


 k-point  1 :   0.0000 0.0000 0.0000  plane waves:    8645
 k-point  2 :   0.3333 0.0000 0.0000  plane waves:    8617
 k-point  3 :   0.0000 0.3333 0.0000  plane waves:    8623
 k-point  4 :   0.3333 0.3333 0.0000  plane waves:    8611
 k-point  5 :  -0.3333 0.3333 0.0000  plane waves:    8615
 k-point  6 :  -0.0000-0.0000 0.3333  plane waves:    8611
 k-point  7 :   0.3333 0.0000 0.3333  plane waves:    8605
 k-point  8 :  -0.3333-0.0000 0.3333  plane waves:    8611
 k-point  9 :   0.0000 0.3333 0.3333  plane waves:    8593
 k-point 10 :   0.3333 0.3333 0.3333  plane waves:    8620
 k-point 11 :  -0.3333 0.3333 0.3333  plane waves:    8613
 k-point 12 :   0.0000-0.3333 0.3333  plane waves:    8616
 k-point 13 :   0.3333-0.3333 0.3333  plane waves:    8614
 k-point 14 :  -0.3333-0.3333 0.3333  plane waves:    8606

 maximum and minimum number of plane-waves per node :      1739     1705

 maximum number of plane-waves:      8645
 maximum index in each direction: 
   IXMAX=   10   IYMAX=   14   IZMAX=   14
   IXMIN=  -10   IYMIN=  -14   IZMIN=  -14

 WARNING: aliasing errors must be expected set NGX to  42 to avoid them
 NGY is ok and might be reduce to  58
 NGZ is ok and might be reduce to  58
 aliasing errors are usually negligible using standard VASP settings
 and one can safely disregard these warnings

 real space projection operators:
  total allocation   :      27048.38 KBytes
  max/ min on nodes  :       5469.19       5335.17


 parallel 3D FFT for wavefunctions:
    minimum data exchange during FFTs selected (reduces bandwidth)
 parallel 3D FFT for charge:
    minimum data exchange during FFTs selected (reduces bandwidth)


 total amount of memory used by VASP on root node    66376. kBytes
========================================================================

   base      :      30000. kBytes
   nonlr-proj:      10391. kBytes
   fftplans  :       2814. kBytes
   grid      :       5360. kBytes
   one-center:        124. kBytes
   wavefun   :      17687. kBytes
 
     INWAV:  cpu time    0.0000: real time    0.0000
 Broyden mixing: mesh for mixing (old mesh)
   NGX = 19   NGY = 29   NGZ = 29
  (NGX  = 80   NGY  =120   NGZ  =120)
  gives a total of  15979 points

 initial charge density was supplied:
 charge density of overlapping atoms calculated
 number of electron     281.0000000 magnetization 
 keeping initial charge density in first step


--------------------------------------------------------------------------------------------------------


 Maximum index for non-local projection operator         1225
 Maximum index for augmentation-charges          682 (set IRDMAX)


--------------------------------------------------------------------------------------------------------


 First call to EWALD:  gamma=   0.197
 Maximum number of real-space cells 3x 2x 2
 Maximum number of reciprocal cells 2x 3x 3

 FEWALD executed in parallel
    FEWALD:  cpu time    0.0301: real time    0.0302


----------------------------------------- Iteration    1(   1)  ---------------------------------------


    POTLOK:  cpu time    0.0519: real time    0.0751
    SETDIJ:  cpu time    0.3153: real time    0.3166
     EDDAV:  cpu time    1.0011: real time    1.0281
       DOS:  cpu time    0.0024: real time    0.0024
    --------------------------------------------
      LOOP:  cpu time    1.3775: real time    1.5519

 eigenvalue-minimisations  :  5128
 total energy-change (2. order) : 0.1683551E+04  (-0.1038990E+05)
 number of electron     281.0000000 magnetization 
 augmentation part      281.0000000 magnetization 

 Free energy of the ion-electron system (eV)
  ---------------------------------------------------
  alpha Z        PSCENC =      1426.80618543
  Ewald energy   TEWEN  =    -17447.05660171
  -Hartree energ DENC   =     -6775.97389969
  -exchange      EXHF   =         0.00000000
  -V(xc)+E(xc)   XCENC  =      -453.49554333
  PAW double counting   =     19920.93496481   -18250.21268769
  entropy T*S    EENTRO =        -0.00036715
  eigenvalues    EBANDS =       -37.93999778
  atomic energy  EATOM  =     23300.48864773
  Solvation  Ediel_sol  =         0.00000000
  ---------------------------------------------------
  free energy    TOTEN  =      1683.55070062 eV

  energy without entropy =     1683.55106777  energy(sigma->0) =     1683.55082300


--------------------------------------------------------------------------------------------------------




----------------------------------------- Iteration    1(   2)  ---------------------------------------


     EDDAV:  cpu time    1.1553: real time    1.2030
       DOS:  cpu time    0.0015: real time    0.0015
    --------------------------------------------
      LOOP:  cpu time    1.1574: real time    1.2585

 eigenvalue-minimisations  :  5328
 total energy-change (2. order) :-0.1792715E+04  (-0.1734875E+04)
 number of electron     281.0000000 magnetization 
 augmentation part      281.0000000 magnetization 

 Free energy of the ion-electron system (eV)
  ---------------------------------------------------
  alpha Z        PSCENC =      1426.80618543
  Ewald energy   TEWEN  =    -17447.05660171
  -Hartree energ DENC   =     -6775.97389969
  -exchange      EXHF   =         0.00000000
  -V(xc)+E(xc)   XCENC  =      -453.49554333
  PAW double counting   =     19920.93496481   -18250.21268769
  entropy T*S    EENTRO =        -0.00200991
  eigenvalues    EBANDS =     -1830.65326875
  atomic energy  EATOM  =     23300.48864773
  Solvation  Ediel_sol  =         0.00000000
  ---------------------------------------------------
  free energy    TOTEN  =      -109.16421310 eV

  energy without entropy =     -109.16220320  energy(sigma->0) =     -109.16354313


--------------------------------------------------------------------------------------------------------




----------------------------------------- Iteration    1(   3)  ---------------------------------------


     EDDAV:  cpu time    1.3367: real time    1.4288
       DOS:  cpu time    0.0014: real time    0.0014
    --------------------------------------------
      LOOP:  cpu time    1.3392: real time    1.4491

 eigenvalue-minimisations  :  8000
 total energy-change (2. order) :-0.2375898E+03  (-0.2260215E+03)
 number of electron     281.0000000 magnetization 
 augmentation part      281.0000000 magnetization 

 Free energy of the ion-electron system (eV)
  ---------------------------------------------------
  alpha Z        PSCENC =      1426.80618543
  Ewald energy   TEWEN  =    -17447.05660171
  -Hartree energ DENC   =     -6775.97389969
  -exchange      EXHF   =         0.00000000
  -V(xc)+E(xc)   XCENC  =      -453.49554333
  PAW double counting   =     19920.93496481   -18250.21268769
  entropy T*S    EENTRO =        -0.00641962
  eigenvalues    EBANDS =     -2068.23862741
  atomic energy  EATOM  =     23300.48864773
  Solvation  Ediel_sol  =         0.00000000
  ---------------------------------------------------
  free energy    TOTEN  =      -346.75398148 eV

  energy without entropy =     -346.74756186  energy(sigma->0) =     -346.75184161


--------------------------------------------------------------------------------------------------------




----------------------------------------- Iteration    1(   4)  ---------------------------------------


     EDDAV:  cpu time    1.4479: real time    1.5165
       DOS:  cpu time    0.0012: real time    0.0013
    --------------------------------------------
      LOOP:  cpu time    1.4502: real time    1.5330

 eigenvalue-minimisations  :  7952
 total energy-change (2. order) :-0.2889042E+02  (-0.2725058E+02)
 number of electron     281.0000000 magnetization 
 augmentation part      281.0000000 magnetization 

 Free energy of the ion-electron system (eV)
  ---------------------------------------------------
  alpha Z        PSCENC =      1426.80618543
  Ewald energy   TEWEN  =    -17447.05660171
  -Hartree energ DENC   =     -6775.97389969
  -exchange      EXHF   =         0.00000000
  -V(xc)+E(xc)   XCENC  =      -453.49554333
  PAW double counting   =     19920.93496481   -18250.21268769
  entropy T*S    EENTRO =         0.01230534
  eigenvalues    EBANDS =     -2097.14777512
  atomic energy  EATOM  =     23300.48864773
  Solvation  Ediel_sol  =         0.00000000
  ---------------------------------------------------
  free energy    TOTEN  =      -375.64440423 eV

  energy without entropy =     -375.65670957  energy(sigma->0) =     -375.64850601


--------------------------------------------------------------------------------------------------------




----------------------------------------- Iteration    1(   5)  ---------------------------------------


     EDDAV:  cpu time    1.4527: real time    1.5365
       DOS:  cpu time    0.0012: real time    0.0048
    CHARGE:  cpu time    0.0292: real time    0.0369
    MIXING:  cpu time    0.0013: real time    0.0014
    --------------------------------------------
      LOOP:  cpu time    1.4851: real time    1.5944

 eigenvalue-minimisations  :  7688
 total energy-change (2. order) :-0.3109540E+01  (-0.3010390E+01)
 number of electron     281.0000000 magnetization 
 augmentation part       15.4466267 magnetization 

 Broyden mixing:
  rms(total) = 0.65411E+01    rms(broyden)= 0.65407E+01
  rms(prec ) = 0.67971E+01
  weight for this iteration     100.00

 Free energy of the ion-electron system (eV)
  ---------------------------------------------------
  alpha Z        PSCENC =      1426.80618543
  Ewald energy   TEWEN  =    -17447.05660171
  -Hartree energ DENC   =     -6775.97389969
  -exchange      EXHF   =         0.00000000
  -V(xc)+E(xc)   XCENC  =      -453.49554333
  PAW double counting   =     19920.93496481   -18250.21268769
  entropy T*S    EENTRO =         0.01502325
  eigenvalues    EBANDS =     -2100.26003313
  atomic energy  EATOM  =     23300.48864773
  Solvation  Ediel_sol  =         0.00000000
  ---------------------------------------------------
  free energy    TOTEN  =      -378.75394432 eV

  energy without entropy =     -378.76896758  energy(sigma->0) =     -378.75895208


--------------------------------------------------------------------------------------------------------




----------------------------------------- Iteration    1(   6)  ---------------------------------------


    POTLOK:  cpu time    0.0297: real time    0.0331
    SETDIJ:  cpu time    0.0070: real time    0.0076
    EDDIAG:  cpu time    0.1277: real time    0.1328
  RMM-DIIS:  cpu time    0.6598: real time    0.6841
    ORTHCH:  cpu time    0.0111: real time    0.0117
       DOS:  cpu time    0.0009: real time    0.0009
    CHARGE:  cpu time    0.0276: real time    0.0289
    MIXING:  cpu time    0.0017: real time    0.0035
    --------------------------------------------
      LOOP:  cpu time    0.8661: real time    0.9170

 eigenvalue-minimisations  :  6544
 total energy-change (2. order) : 0.1042329E+02  (-0.2293718E+01)
 number of electron     281.0000000 magnetization 
 augmentation part       16.0378887 magnetization 

 Broyden mixing:
  rms(total) = 0.31439E+01    rms(broyden)= 0.31439E+01
  rms(prec ) = 0.33245E+01
  weight for this iteration     100.00

 eigenvalues of (default mixing * dielectric matrix)
  average eigenvalue GAMMA=   1.8520
  1.8520

 Free energy of the ion-electron system (eV)
  ---------------------------------------------------
  alpha Z        PSCENC =      1426.80618543
  Ewald energy   TEWEN  =    -17447.05660171
  -Hartree energ DENC   =     -6625.24321372
  -exchange      EXHF   =         0.00000000
  -V(xc)+E(xc)   XCENC  =      -455.66737218
  PAW double counting   =     25274.04285743   -23611.22206364
  entropy T*S    EENTRO =         0.02275685
  eigenvalues    EBANDS =     -2230.50185393
  atomic energy  EATOM  =     23300.48864773
  Solvation  Ediel_sol  =         0.00000000
  ---------------------------------------------------
  free energy    TOTEN  =      -368.33065774 eV

  energy without entropy =     -368.35341460  energy(sigma->0) =     -368.33824336


--------------------------------------------------------------------------------------------------------




----------------------------------------- Iteration    1(   7)  ---------------------------------------


    POTLOK:  cpu time    0.0290: real time    0.0311
    SETDIJ:  cpu time    0.0036: real time    0.0038
    EDDIAG:  cpu time    0.0726: real time    0.0747
  RMM-DIIS:  cpu time    0.7052: real time    0.7103
    ORTHCH:  cpu time    0.0121: real time    0.0122
       DOS:  cpu time    0.0047: real time    0.0047
    CHARGE:  cpu time    0.0292: real time    0.0293
    MIXING:  cpu time    0.0014: real time    0.0014
    --------------------------------------------
      LOOP:  cpu time    0.8585: real time    0.8809

 eigenvalue-minimisations  :  6628
 total energy-change (2. order) : 0.1637727E+01  (-0.2284371E+01)
 number of electron     281.0000000 magnetization 
 augmentation part       16.6291902 magnetization 

 Broyden mixing:
  rms(total) = 0.74324E+00    rms(broyden)= 0.74299E+00
  rms(prec ) = 0.17079E+01
  weight for this iteration     100.00

 eigenvalues of (default mixing * dielectric matrix)
  average eigenvalue GAMMA=   1.2801
  0.6980  1.8621

 Free energy of the ion-electron system (eV)
  ---------------------------------------------------
  alpha Z        PSCENC =      1426.80618543
  Ewald energy   TEWEN  =    -17447.05660171
  -Hartree energ DENC   =     -6544.51198142
  -exchange      EXHF   =         0.00000000
  -V(xc)+E(xc)   XCENC  =      -453.57542554
  PAW double counting   =     31042.22005724   -29374.57315447
  entropy T*S    EENTRO =         0.00340328
  eigenvalues    EBANDS =     -2316.49406112
  atomic energy  EATOM  =     23300.48864773
  Solvation  Ediel_sol  =         0.00000000
  ---------------------------------------------------
  free energy    TOTEN  =      -366.69293058 eV

  energy without entropy =     -366.69633387  energy(sigma->0) =     -366.69406501


--------------------------------------------------------------------------------------------------------




----------------------------------------- Iteration    1(   8)  ---------------------------------------


    POTLOK:  cpu time    0.0290: real time    0.0313
    SETDIJ:  cpu time    0.0037: real time    0.0039
    EDDIAG:  cpu time    0.0724: real time    0.0751
  RMM-DIIS:  cpu time    0.7576: real time    0.7617
    ORTHCH:  cpu time    0.0118: real time    0.0118
       DOS:  cpu time    0.0008: real time    0.0008
    CHARGE:  cpu time    0.0289: real time    0.0290
    MIXING:  cpu time    0.0015: real time    0.0015
    --------------------------------------------
      LOOP:  cpu time    0.9062: real time    0.9281

 eigenvalue-minimisations  :  7377
 total energy-change (2. order) : 0.2599488E+01  (-0.4202247E+00)
 number of electron     281.0000000 magnetization 
 augmentation part       16.3790100 magnetization 

 Broyden mixing:
  rms(total) = 0.37270E+00    rms(broyden)= 0.37244E+00
  rms(prec ) = 0.58867E+00
  weight for this iteration     100.00

 eigenvalues of (default mixing * dielectric matrix)
  average eigenvalue GAMMA=   1.2652
  1.6472  1.6472  0.5013

 Free energy of the ion-electron system (eV)
  ---------------------------------------------------
  alpha Z        PSCENC =      1426.80618543
  Ewald energy   TEWEN  =    -17447.05660171
  -Hartree energ DENC   =     -6543.60211543
  -exchange      EXHF   =         0.00000000
  -V(xc)+E(xc)   XCENC  =      -453.06850786
  PAW double counting   =     31720.18626276   -30049.90241986
  entropy T*S    EENTRO =         0.02650345
  eigenvalues    EBANDS =     -2317.97139670
  atomic energy  EATOM  =     23300.48864773
  Solvation  Ediel_sol  =         0.00000000
  ---------------------------------------------------
  free energy    TOTEN  =      -364.09344218 eV

  energy without entropy =     -364.11994564  energy(sigma->0) =     -364.10227667


--------------------------------------------------------------------------------------------------------




----------------------------------------- Iteration    1(   9)  ---------------------------------------


    POTLOK:  cpu time    0.0299: real time    0.0305
    SETDIJ:  cpu time    0.0039: real time    0.0039
    EDDIAG:  cpu time    0.0741: real time    0.0760
  RMM-DIIS:  cpu time    0.7280: real time    0.7562
    ORTHCH:  cpu time    0.0111: real time    0.0120
       DOS:  cpu time    0.0020: real time    0.0020
    CHARGE:  cpu time    0.0276: real time    0.0296
    MIXING:  cpu time    0.0013: real time    0.0013
    --------------------------------------------
      LOOP:  cpu time    0.8785: real time    0.9256

 eigenvalue-minimisations  :  7280
 total energy-change (2. order) : 0.2820634E-01  (-0.1528384E+00)
 number of electron     281.0000000 magnetization 
 augmentation part       16.2673131 magnetization 

 Broyden mixing:
  rms(total) = 0.26506E+00    rms(broyden)= 0.26497E+00
  rms(prec ) = 0.40879E+00
  weight for this iteration     100.00

 eigenvalues of (default mixing * dielectric matrix)
  average eigenvalue GAMMA=   1.1777
  1.8991  1.8991  0.5178  0.3950

 Free energy of the ion-electron system (eV)
  ---------------------------------------------------
  alpha Z        PSCENC =      1426.80618543
  Ewald energy   TEWEN  =    -17447.05660171
  -Hartree energ DENC   =     -6544.68422755
  -exchange      EXHF   =         0.00000000
  -V(xc)+E(xc)   XCENC  =      -452.61607674
  PAW double counting   =     31821.96215685   -30148.32895483
  entropy T*S    EENTRO =         0.02620989
  eigenvalues    EBANDS =     -2320.66257490
  atomic energy  EATOM  =     23300.48864773
  Solvation  Ediel_sol  =         0.00000000
  ---------------------------------------------------
  free energy    TOTEN  =      -364.06523584 eV

  energy without entropy =     -364.09144573  energy(sigma->0) =     -364.07397247


--------------------------------------------------------------------------------------------------------




----------------------------------------- Iteration    1(  10)  ---------------------------------------


    POTLOK:  cpu time    0.0290: real time    0.0308
    SETDIJ:  cpu time    0.0037: real time    0.0040
    EDDIAG:  cpu time    0.0716: real time    0.0740
  RMM-DIIS:  cpu time    0.7681: real time    0.7928
    ORTHCH:  cpu time    0.0571: real time    0.0629
       DOS:  cpu time    0.0228: real time    0.0237
    CHARGE:  cpu time    0.0499: real time    0.0506
    MIXING:  cpu time    0.0014: real time    0.0014
    --------------------------------------------
      LOOP:  cpu time    1.0042: real time    1.0593

 eigenvalue-minimisations  :  7222
 total energy-change (2. order) : 0.6148589E-01  (-0.3786707E-01)
 number of electron     281.0000000 magnetization 
 augmentation part       16.1902123 magnetization 

 Broyden mixing:
  rms(total) = 0.12335E+00    rms(broyden)= 0.12328E+00
  rms(prec ) = 0.21757E+00
  weight for this iteration     100.00

 eigenvalues of (default mixing * dielectric matrix)
  average eigenvalue GAMMA=   1.1267
  1.9773  1.9773  0.7791  0.5018  0.3981

 Free energy of the ion-electron system (eV)
  ---------------------------------------------------
  alpha Z        PSCENC =      1426.80618543
  Ewald energy   TEWEN  =    -17447.05660171
  -Hartree energ DENC   =     -6558.08278517
  -exchange      EXHF   =         0.00000000
  -V(xc)+E(xc)   XCENC  =      -451.63748927
  PAW double counting   =     32019.18052642   -30339.24910373
  entropy T*S    EENTRO =         0.02594939
  eigenvalues    EBANDS =     -2314.47907903
  atomic energy  EATOM  =     23300.48864773
  Solvation  Ediel_sol  =         0.00000000
  ---------------------------------------------------
  free energy    TOTEN  =      -364.00374995 eV

  energy without entropy =     -364.02969933  energy(sigma->0) =     -364.01239974


--------------------------------------------------------------------------------------------------------




----------------------------------------- Iteration    1(  11)  ---------------------------------------


    POTLOK:  cpu time    0.0464: real time    0.0490
    SETDIJ:  cpu time    0.0054: real time    0.0057
    EDDIAG:  cpu time    0.0944: real time    0.0971
  RMM-DIIS:  cpu time    0.7743: real time    0.8048
    ORTHCH:  cpu time    0.0109: real time    0.0111
       DOS:  cpu time    0.0009: real time    0.0009
    CHARGE:  cpu time    0.0289: real time    0.0294
    MIXING:  cpu time    0.0015: real time    0.0015
    --------------------------------------------
      LOOP:  cpu time    0.9637: real time    1.0333

 eigenvalue-minimisations  :  7258
 total energy-change (2. order) : 0.2709322E-01  (-0.1267936E-01)
 number of electron     281.0000000 magnetization 
 augmentation part       16.1720666 magnetization 

 Broyden mixing:
  rms(total) = 0.59383E-01    rms(broyden)= 0.59348E-01
  rms(prec ) = 0.85342E-01
  weight for this iteration     100.00

 eigenvalues of (default mixing * dielectric matrix)
  average eigenvalue GAMMA=   1.1287
  2.2416  1.7653  1.3523  0.5289  0.5289  0.3552

 Free energy of the ion-electron system (eV)
  ---------------------------------------------------
  alpha Z        PSCENC =      1426.80618543
  Ewald energy   TEWEN  =    -17447.05660171
  -Hartree energ DENC   =     -6562.14316858
  -exchange      EXHF   =         0.00000000
  -V(xc)+E(xc)   XCENC  =      -451.27448855
  PAW double counting   =     32172.75982931   -30490.05785185
  entropy T*S    EENTRO =         0.02609106
  eigenvalues    EBANDS =     -2313.52529957
  atomic energy  EATOM  =     23300.48864773
  Solvation  Ediel_sol  =         0.00000000
  ---------------------------------------------------
  free energy    TOTEN  =      -363.97665673 eV

  energy without entropy =     -364.00274779  energy(sigma->0) =     -363.98535375


--------------------------------------------------------------------------------------------------------




----------------------------------------- Iteration    1(  12)  ---------------------------------------


    POTLOK:  cpu time    0.0294: real time    0.0310
    SETDIJ:  cpu time    0.0038: real time    0.0039
    EDDIAG:  cpu time    0.0725: real time    0.0741
  RMM-DIIS:  cpu time    0.7535: real time    0.7686
    ORTHCH:  cpu time    0.0113: real time    0.0114
       DOS:  cpu time    0.0008: real time    0.0008
    CHARGE:  cpu time    0.0286: real time    0.0292
    MIXING:  cpu time    0.0018: real time    0.0019
    --------------------------------------------
      LOOP:  cpu time    0.9023: real time    0.9358

 eigenvalue-minimisations  :  7362
 total energy-change (2. order) :-0.1545359E-02  (-0.5420695E-02)
 number of electron     281.0000000 magnetization 
 augmentation part       16.1778776 magnetization 

 Broyden mixing:
  rms(total) = 0.39999E-01    rms(broyden)= 0.39988E-01
  rms(prec ) = 0.72765E-01
  weight for this iteration     100.00

 eigenvalues of (default mixing * dielectric matrix)
  average eigenvalue GAMMA=   1.0786
  2.2799  1.7547  1.5467  0.5867  0.5867  0.4330  0.3621

 Free energy of the ion-electron system (eV)
  ---------------------------------------------------
  alpha Z        PSCENC =      1426.80618543
  Ewald energy   TEWEN  =    -17447.05660171
  -Hartree energ DENC   =     -6562.17476509
  -exchange      EXHF   =         0.00000000
  -V(xc)+E(xc)   XCENC  =      -451.18709163
  PAW double counting   =     32302.41005820   -30618.26313502
  entropy T*S    EENTRO =         0.02518962
  eigenvalues    EBANDS =     -2315.02668961
  atomic energy  EATOM  =     23300.48864773
  Solvation  Ediel_sol  =         0.00000000
  ---------------------------------------------------
  free energy    TOTEN  =      -363.97820209 eV

  energy without entropy =     -364.00339171  energy(sigma->0) =     -363.98659863


--------------------------------------------------------------------------------------------------------




----------------------------------------- Iteration    1(  13)  ---------------------------------------


    POTLOK:  cpu time    0.0291: real time    0.0303
    SETDIJ:  cpu time    0.0382: real time    0.0404
    EDDIAG:  cpu time    0.0750: real time    0.0784
  RMM-DIIS:  cpu time    0.7682: real time    0.7832
    ORTHCH:  cpu time    0.0136: real time    0.0139
       DOS:  cpu time    0.0009: real time    0.0011
    CHARGE:  cpu time    0.0953: real time    0.0964
    MIXING:  cpu time    0.0017: real time    0.0018
    --------------------------------------------
      LOOP:  cpu time    1.0228: real time    1.0640

 eigenvalue-minimisations  :  7398
 total energy-change (2. order) : 0.9973304E-03  (-0.1807848E-02)
 number of electron     281.0000000 magnetization 
 augmentation part       16.1780169 magnetization 

 Broyden mixing:
  rms(total) = 0.24049E-01    rms(broyden)= 0.24040E-01
  rms(prec ) = 0.35609E-01
  weight for this iteration     100.00

 eigenvalues of (default mixing * dielectric matrix)
  average eigenvalue GAMMA=   1.0984
  2.3011  2.0468  1.5450  1.0188  0.5973  0.4995  0.3559  0.4230

 Free energy of the ion-electron system (eV)
  ---------------------------------------------------
  alpha Z        PSCENC =      1426.80618543
  Ewald energy   TEWEN  =    -17447.05660171
  -Hartree energ DENC   =     -6562.63850502
  -exchange      EXHF   =         0.00000000
  -V(xc)+E(xc)   XCENC  =      -451.16702362
  PAW double counting   =     32355.02089916   -30670.25906108
  entropy T*S    EENTRO =         0.02569951
  eigenvalues    EBANDS =     -2315.19744516
  atomic energy  EATOM  =     23300.48864773
  Solvation  Ediel_sol  =         0.00000000
  ---------------------------------------------------
  free energy    TOTEN  =      -363.97720476 eV

  energy without entropy =     -364.00290427  energy(sigma->0) =     -363.98577126


--------------------------------------------------------------------------------------------------------




----------------------------------------- Iteration    1(  14)  ---------------------------------------


    POTLOK:  cpu time    0.0295: real time    0.0306
    SETDIJ:  cpu time    0.0579: real time    0.0581
    EDDIAG:  cpu time    0.1117: real time    0.1190
  RMM-DIIS:  cpu time    0.7814: real time    0.7880
    ORTHCH:  cpu time    0.0179: real time    0.0179
       DOS:  cpu time    0.0009: real time    0.0009
    CHARGE:  cpu time    0.0524: real time    0.0526
    MIXING:  cpu time    0.0031: real time    0.0031
    --------------------------------------------
      LOOP:  cpu time    1.0554: real time    1.0957

 eigenvalue-minimisations  :  7365
 total energy-change (2. order) :-0.1926331E-03  (-0.9214899E-03)
 number of electron     281.0000000 magnetization 
 augmentation part       16.1758418 magnetization 

 Broyden mixing:
  rms(total) = 0.13333E-01    rms(broyden)= 0.13327E-01
  rms(prec ) = 0.19971E-01
  weight for this iteration     100.00

 eigenvalues of (default mixing * dielectric matrix)
  average eigenvalue GAMMA=   1.0919
  2.4462  2.1994  1.6136  1.1913  0.5905  0.5905  0.4673  0.3812  0.3470

 Free energy of the ion-electron system (eV)
  ---------------------------------------------------
  alpha Z        PSCENC =      1426.80618543
  Ewald energy   TEWEN  =    -17447.05660171
  -Hartree energ DENC   =     -6562.85301698
  -exchange      EXHF   =         0.00000000
  -V(xc)+E(xc)   XCENC  =      -451.16285694
  PAW double counting   =     32377.49474345   -30692.34892055
  entropy T*S    EENTRO =         0.02538335
  eigenvalues    EBANDS =     -2315.37096117
  atomic energy  EATOM  =     23300.48864773
  Solvation  Ediel_sol  =         0.00000000
  ---------------------------------------------------
  free energy    TOTEN  =      -363.97739739 eV

  energy without entropy =     -364.00278074  energy(sigma->0) =     -363.98585851


--------------------------------------------------------------------------------------------------------




----------------------------------------- Iteration    1(  15)  ---------------------------------------


    POTLOK:  cpu time    0.0443: real time    0.0503
    SETDIJ:  cpu time    0.0058: real time    0.0060
    EDDIAG:  cpu time    0.0871: real time    0.0884
  RMM-DIIS:  cpu time    0.8654: real time    0.8696
    ORTHCH:  cpu time    0.0112: real time    0.0112
       DOS:  cpu time    0.0074: real time    0.0074
    CHARGE:  cpu time    0.0283: real time    0.0284
    MIXING:  cpu time    0.0016: real time    0.0016
    --------------------------------------------
      LOOP:  cpu time    1.0518: real time    1.0787

 eigenvalue-minimisations  :  7306
 total energy-change (2. order) :-0.2297335E-03  (-0.4717425E-03)
 number of electron     281.0000000 magnetization 
 augmentation part       16.1735696 magnetization 

 Broyden mixing:
  rms(total) = 0.52048E-02    rms(broyden)= 0.52011E-02
  rms(prec ) = 0.97474E-02
  weight for this iteration     100.00

 eigenvalues of (default mixing * dielectric matrix)
  average eigenvalue GAMMA=   1.0597
  2.5611  2.0932  1.6616  1.1719  0.7206  0.7206  0.4754  0.4754  0.3686  0.3489

 Free energy of the ion-electron system (eV)
  ---------------------------------------------------
  alpha Z        PSCENC =      1426.80618543
  Ewald energy   TEWEN  =    -17447.05660171
  -Hartree energ DENC   =     -6563.28337730
  -exchange      EXHF   =         0.00000000
  -V(xc)+E(xc)   XCENC  =      -451.15766946
  PAW double counting   =     32397.48888304   -30712.00027149
  entropy T*S    EENTRO =         0.02567873
  eigenvalues    EBANDS =     -2315.28910208
  atomic energy  EATOM  =     23300.48864773
  Solvation  Ediel_sol  =         0.00000000
  ---------------------------------------------------
  free energy    TOTEN  =      -363.97762713 eV

  energy without entropy =     -364.00330585  energy(sigma->0) =     -363.98618670


--------------------------------------------------------------------------------------------------------




----------------------------------------- Iteration    1(  16)  ---------------------------------------


    POTLOK:  cpu time    0.0292: real time    0.0304
    SETDIJ:  cpu time    0.0037: real time    0.0039
    EDDIAG:  cpu time    0.0711: real time    0.0737
  RMM-DIIS:  cpu time    0.6941: real time    0.7051
    ORTHCH:  cpu time    0.0117: real time    0.0117
       DOS:  cpu time    0.0018: real time    0.0018
    CHARGE:  cpu time    0.0293: real time    0.0293
    MIXING:  cpu time    0.0019: real time    0.0019
    --------------------------------------------
      LOOP:  cpu time    0.8434: real time    0.8735

 eigenvalue-minimisations  :  6466
 total energy-change (2. order) :-0.9468124E-04  (-0.1921703E-03)
 number of electron     281.0000000 magnetization 
 augmentation part       16.1740431 magnetization 

 Broyden mixing:
  rms(total) = 0.27836E-02    rms(broyden)= 0.27824E-02
  rms(prec ) = 0.51655E-02
  weight for this iteration     100.00

 eigenvalues of (default mixing * dielectric matrix)
  average eigenvalue GAMMA=   1.0371
  2.6233  2.0755  1.6660  1.2144  0.7974  0.7974  0.5402  0.5402  0.4377  0.3702
  0.3460

 Free energy of the ion-electron system (eV)
  ---------------------------------------------------
  alpha Z        PSCENC =      1426.80618543
  Ewald energy   TEWEN  =    -17447.05660171
  -Hartree energ DENC   =     -6563.36340074
[...]
     90       5.0475      2.00000
     91       5.0916      2.00000
     92       5.1300      2.00000
     93       5.1798      2.00000
     94       5.2398      2.00000
     95       5.2816      2.00000
     96       5.3845      2.00000
     97       5.4016      2.00000
     98       5.4825      2.00000
     99       5.5147      2.00000
    100       5.5947      2.00000
    101       5.6437      2.00000
    102       5.7625      2.00000
    103       5.8496      2.00000
    104       5.9337      2.00000
    105       5.9569      2.00000
    106       5.9776      2.00000
    107       6.0236      2.00000
    108       6.0429      2.00000
    109       6.0720      2.00000
    110       6.1010      2.00000
    111       6.1249      2.00000
    112       6.1456      2.00000
    113       6.1989      2.00000
    114       6.2333      2.00000
    115       6.2792      2.00000
    116       6.3179      2.00000
    117       6.3657      2.00000
    118       6.3919      2.00000
    119       6.4237      2.00000
    120       6.4718      2.00000
    121       6.5343      2.00000
    122       6.5575      2.00000
    123       6.5858      2.00000
    124       6.6499      2.00000
    125       6.6847      2.00000
    126       6.7223      2.00000
    127       6.7617      2.00001
    128       6.8156      2.00013
    129       6.8569      2.00056
    130       6.8816      2.00127
    131       6.9316      2.00548
    132       6.9618      2.01162
    133       6.9676      2.01326
    134       6.9856      2.01952
    135       7.0328      2.04413
    136       7.0561      2.05823
    137       7.0899      2.07083
    138       7.1257      2.05071
    139       7.1826      1.86008
    140       7.2003      1.74559
    141       7.2289      1.50439
    142       7.2501      1.28771
    143       7.3276      0.45488
    144       7.3539      0.23950
    145       7.3981      0.01314
    146       7.4237     -0.04682
    147       7.4763     -0.06770
    148       7.4878     -0.06267
    149       7.5184     -0.04467
    150       7.5770     -0.01567
    151       7.5869     -0.01256
    152       7.6241     -0.00497
    153       7.6360     -0.00358
    154       7.6868     -0.00075
    155       7.7458     -0.00009
    156       7.7903     -0.00001
    157       7.8464     -0.00000
    158       7.8791     -0.00000
    159       7.9318     -0.00000
    160       8.0281     -0.00000
    161       8.0487     -0.00000
    162       8.0992     -0.00000
    163       8.2216     -0.00000
    164       8.2587     -0.00000
    165       8.4046     -0.00000
    166       8.5302     -0.00000
    167       8.6582     -0.00000
    168       9.1149     -0.00000


--------------------------------------------------------------------------------------------------------


 soft charge-density along one line, spin component           1
         0         1         2         3         4         5         6         7         8         9
 total charge-density along one line
 
 pseudopotential strength for first ion, spin component:           1
 -5.072   0.001   0.001   0.002  -0.001  -6.327   0.001   0.001
  0.001  -5.076   0.000   0.001  -0.001   0.001  -6.331   0.000
  0.001   0.000  -5.072  -0.000  -0.001   0.001   0.000  -6.326
  0.002   0.001  -0.000  -5.070  -0.001   0.003   0.001  -0.000
 -0.001  -0.001  -0.001  -0.001  -5.072  -0.001  -0.001  -0.001
 -6.327   0.001   0.001   0.003  -0.001  -7.872   0.001   0.001
  0.001  -6.331   0.000   0.001  -0.001   0.001  -7.877   0.001
  0.001   0.000  -6.326  -0.000  -0.001   0.001   0.001  -7.870
  0.003   0.001  -0.000  -6.324  -0.001   0.004   0.001  -0.000
 -0.001  -0.001  -0.001  -0.001  -6.327  -0.001  -0.001  -0.001
 -0.000  -0.002  -0.000  -0.000  -0.001  -0.000  -0.002  -0.000
 -0.000  -0.003  -0.001  -0.000  -0.001  -0.000  -0.004  -0.001
  0.006   0.001  -0.002  -0.002  -0.003   0.008   0.002  -0.003
 -0.002   0.002   0.004   0.007  -0.001  -0.003   0.002   0.005
  0.003  -0.002  -0.006  -0.000   0.010   0.003  -0.003  -0.007
 -0.007   0.000   0.002   0.004   0.003  -0.009   0.000   0.003
  0.004  -0.001  -0.003  -0.008   0.001   0.005  -0.002  -0.004
 -0.002   0.004   0.007   0.002  -0.013  -0.003   0.005   0.009
 total augmentation occupancy for first ion, spin component:           1
  4.032   0.074   0.056   0.172  -0.038  -2.101  -0.034  -0.027  -0.078   0.012  -0.017   0.003  -0.031   0.033  -0.065  -0.003
  0.074   3.612  -0.000   0.040  -0.044  -0.034  -1.879  -0.001  -0.015   0.032   0.074  -0.020  -0.083  -0.008   0.035  -0.002
  0.056  -0.000   4.211  -0.038  -0.016  -0.027  -0.001  -2.257   0.023   0.019   0.001  -0.004   0.027  -0.063   0.032   0.001
  0.172   0.040  -0.038   4.175  -0.064  -0.078  -0.015   0.023  -2.179   0.031  -0.012   0.003   0.027  -0.062  -0.067   0.001
 -0.038  -0.044  -0.016  -0.064   4.176   0.012   0.032   0.019   0.030  -2.235   0.110  -0.026   0.013   0.015  -0.096   0.002
 -2.101  -0.034  -0.027  -0.078   0.012   1.107   0.017   0.013   0.037  -0.003   0.010  -0.002   0.019  -0.017   0.032   0.002
 -0.034  -1.879  -0.001  -0.015   0.032   0.017   0.989   0.002   0.005  -0.021  -0.037   0.011   0.042   0.004  -0.017   0.001
 -0.027  -0.001  -2.257   0.023   0.019   0.013   0.002   1.218  -0.013  -0.016  -0.001   0.002  -0.015   0.041  -0.017  -0.001
 -0.078  -0.015   0.023  -2.179   0.030   0.037   0.005  -0.013   1.151  -0.015   0.007  -0.002  -0.014   0.034   0.036  -0.001
  0.012   0.032   0.019   0.031  -2.235  -0.003  -0.021  -0.016  -0.015   1.205  -0.070   0.015  -0.011  -0.006   0.049  -0.001
 -0.017   0.074   0.001  -0.012   0.110   0.010  -0.037  -0.001   0.007  -0.070   2.398  -0.300  -0.024  -0.013  -0.034  -0.000
  0.003  -0.020  -0.004   0.003  -0.026  -0.002   0.011   0.002  -0.002   0.015  -0.300   0.040  -0.001   0.000  -0.002   0.000
 -0.031  -0.083   0.027   0.027   0.013   0.019   0.042  -0.015  -0.014  -0.011  -0.024  -0.001   0.285  -0.002  -0.002   0.005
  0.033  -0.008  -0.063  -0.062   0.015  -0.017   0.004   0.041   0.034  -0.006  -0.013   0.000  -0.002   0.296  -0.002  -0.000
 -0.065   0.035   0.032  -0.067  -0.096   0.032  -0.017  -0.017   0.036   0.049  -0.034  -0.002  -0.002  -0.002   0.299  -0.000
 -0.003  -0.002   0.001   0.001   0.002   0.002   0.001  -0.001  -0.001  -0.001  -0.000   0.000   0.005  -0.000  -0.000   0.000
  0.001  -0.001  -0.004  -0.004   0.000  -0.001   0.001   0.002   0.002  -0.000  -0.000   0.000  -0.000   0.005  -0.000  -0.000
 -0.002   0.001   0.003  -0.001  -0.006   0.001  -0.001  -0.002   0.001   0.003  -0.002   0.000   0.000  -0.000   0.005   0.000


------------------------ aborting loop because EDIFF is reached ----------------------------------------


    CHARGE:  cpu time    0.0276: real time    0.0285
    FORLOC:  cpu time    0.0134: real time    0.0138
    FORNL :  cpu time    0.2910: real time    0.2988
    STRESS:  cpu time    0.9463: real time    0.9714
    FORCOR:  cpu time    0.0422: real time    0.0440
    FORHAR:  cpu time    0.0192: real time    0.0196
    MIXING:  cpu time    0.0012: real time    0.0012
    OFIELD:  cpu time    0.0000: real time    0.0000

  FORCE on cell =-STRESS in cart. coord.  units (eV):
  Direction    XX          YY          ZZ          XY          YZ          ZX
  --------------------------------------------------------------------------------------
  Alpha Z  1427.65117  1427.65117  1427.65117
  Ewald   -5188.89778 -6866.94382 -5386.41642    73.94644  -342.36746   587.83609
  Hartree  2785.12918  1192.38836  2593.79570    63.51746  -309.96868   508.02878
  E(xc)   -1221.94182 -1222.31275 -1221.87318     0.03566     0.64365    -0.40216
  Local   -2345.98074   924.01376 -1961.03447  -136.29882   649.93207 -1095.11735
  n-local  -271.71378  -274.74692  -276.63683    -0.20883    -1.46357    -1.07123
  augment   191.47411   191.97064   192.36244    -0.10223     0.34782    -0.03428
  Kinetic  4624.39922  4628.10790  4632.23638    -0.97869     2.88492     0.72657
  Fock        0.00000     0.00000     0.00000     0.00000     0.00000     0.00000
  -------------------------------------------------------------------------------------
  Total       0.11956     0.12834     0.08480    -0.08901     0.00875    -0.03358
  in kB       0.26264     0.28194     0.18629    -0.19554     0.01922    -0.07377
  external pressure =        0.24 kB  Pullay stress =        0.00 kB


 VOLUME and BASIS-vectors are now :
 -----------------------------------------------------------------------------
  energy-cutoff  :      300.00
  volume of cell :      729.32
      direct lattice vectors                 reciprocal lattice vectors
     6.952312227  0.004505475 -0.016013481     0.143837862 -0.000103590  0.000328676
     0.007272473 10.222048321  0.039085140    -0.000064259  0.097829225 -0.000373409
    -0.023422412  0.039156633 10.262660087     0.000224684 -0.000372742  0.097442559

  length of vectors
     6.952332129 10.222125631 10.262761515     0.143838275  0.097829958  0.097443531


 FORCES acting on ions
    electron-ion (+dipol)            ewald-force                    non-local-force                 convergence-correction
 -----------------------------------------------------------------------------------------------
   -.306E+02 -.140E+03 0.855E+01   0.298E+02 0.140E+03 -.905E+01   0.795E+00 0.360E+00 0.495E+00   -.205E-03 0.364E-02 0.336E-02
   0.297E+02 -.822E+02 0.229E+02   -.294E+02 0.824E+02 -.226E+02   -.288E+00 -.197E+00 -.309E+00   0.119E-03 0.601E-02 0.344E-02
   -.398E+02 0.518E+02 0.116E+02   0.401E+02 -.525E+02 -.120E+02   -.273E+00 0.679E+00 0.446E+00   -.145E-03 -.398E-02 -.229E-02
   0.622E+02 -.107E+03 -.209E+02   -.622E+02 0.107E+03 0.205E+02   0.307E-01 -.982E-01 0.474E+00   0.847E-03 0.732E-02 -.112E-02
   -.260E+02 -.767E+02 0.318E+00   0.256E+02 0.766E+02 0.612E-01   0.384E+00 0.719E-01 -.383E+00   -.358E-03 0.580E-02 0.320E-02
   -.518E+00 0.688E+02 0.209E+02   0.384E+00 -.681E+02 -.209E+02   0.139E+00 -.681E+00 0.506E-01   0.462E-03 0.380E-02 0.142E-02
   -.306E+02 0.391E+02 0.546E+02   0.305E+02 -.388E+02 -.541E+02   0.118E+00 -.292E+00 -.550E+00   -.674E-03 0.288E-02 0.308E-02
   0.216E+02 0.801E+02 -.516E+02   -.214E+02 -.793E+02 0.515E+02   -.227E+00 -.829E+00 0.773E-01   0.410E-03 -.795E-02 -.437E-02
   -.171E+02 0.993E+02 -.239E+02   0.168E+02 -.984E+02 0.235E+02   0.290E+00 -.876E+00 0.432E+00   -.132E-03 -.816E-02 -.424E-02
   0.361E+02 0.497E+02 -.161E+02   -.364E+02 -.503E+02 0.155E+02   0.334E+00 0.622E+00 0.631E+00   0.311E-03 -.381E-02 -.236E-02
   -.298E+02 0.108E+03 0.724E+02   0.295E+02 -.108E+03 -.724E+02   0.251E+00 -.948E-01 -.169E-01   -.137E-03 -.645E-02 0.315E-02
   -.196E+02 0.424E+02 -.141E+03   0.204E+02 -.420E+02 0.140E+03   -.855E+00 -.367E+00 0.594E+00   -.878E-03 -.568E-02 -.128E-01
   -.102E+03 -.934E+02 -.355E+02   0.101E+03 0.939E+02 0.358E+02   0.114E+01 -.487E+00 -.375E+00   -.150E-03 -.122E-01 0.150E-01
   0.266E+03 0.769E+02 0.108E+03   -.266E+03 -.762E+02 -.107E+03   -.112E+00 -.711E+00 -.430E+00   0.308E-02 -.665E-02 -.165E-02
   -.254E+03 0.140E+03 0.174E+03   0.254E+03 -.140E+03 -.174E+03   0.848E-01 -.531E+00 0.574E-01   -.271E-02 -.150E-01 0.223E-02
   0.139E+02 -.513E+03 -.532E+02   -.129E+02 0.513E+03 0.523E+02   -.103E+01 0.736E+00 0.821E+00   0.132E-02 0.107E-01 0.906E-02
   -.518E+02 0.181E+03 -.195E+03   0.519E+02 -.182E+03 0.195E+03   -.677E-01 0.579E+00 0.742E-01   -.518E-03 -.109E-01 -.784E-02
   -.620E+02 0.340E+03 0.115E+03   0.622E+02 -.340E+03 -.114E+03   -.177E+00 0.424E+00 -.840E+00   0.329E-03 -.222E-01 0.166E-01
   0.208E+02 0.129E+03 0.652E+02   -.209E+02 -.129E+03 -.646E+02   0.159E+00 0.518E-01 -.643E+00   -.107E-04 -.460E-02 0.517E-02
   -.371E+00 0.503E+01 -.642E+02   -.148E+00 -.495E+01 0.639E+02   0.519E+00 -.845E-01 0.327E+00   -.390E-04 -.478E-02 -.410E-02
   -.308E+02 -.142E+03 0.130E+01   0.315E+02 0.141E+03 -.524E+00   -.663E+00 0.396E+00 -.773E+00   -.101E-02 0.325E-02 0.499E-03
   -.765E+02 -.127E+03 -.595E+01   0.764E+02 0.127E+03 0.548E+01   0.148E+00 -.236E+00 0.467E+00   -.116E-02 0.933E-02 -.181E-02
   0.224E+02 -.959E+02 -.240E+02   -.232E+02 0.958E+02 0.242E+02   0.715E+00 0.498E-01 -.257E+00   0.650E-03 0.566E-02 -.546E-02
   0.225E+01 -.735E+02 -.605E+00   -.223E+01 0.736E+02 0.775E+00   -.146E-01 -.195E+00 -.167E+00   -.132E-03 0.907E-02 -.302E-02
   -.497E+01 0.932E+02 0.518E+02   0.527E+01 -.927E+02 -.522E+02   -.303E+00 -.558E+00 0.460E+00   -.875E-03 0.508E-02 0.212E-02
   0.141E+02 -.127E+02 -.106E+03   -.148E+02 0.119E+02 0.106E+03   0.670E+00 0.779E+00 -.318E-01   0.457E-03 0.640E-02 -.564E-02
   -.149E+02 -.163E+02 -.723E+02   0.155E+02 0.157E+02 0.721E+02   -.570E+00 0.655E+00 0.222E+00   -.124E-03 0.538E-02 -.504E-02
   0.469E+01 0.651E+02 -.481E+02   -.469E+01 -.653E+02 0.482E+02   0.394E-02 0.254E+00 -.160E+00   -.549E-03 -.909E-02 0.159E-02
   0.722E+02 -.344E+03 0.316E+02   -.731E+02 0.344E+03 -.315E+02   0.915E+00 0.722E+00 -.759E-01   0.177E-02 0.858E-02 0.193E-02
   0.264E+01 -.219E+03 -.934E+01   -.290E+01 0.219E+03 0.953E+01   0.263E+00 -.649E-01 -.187E+00   0.227E-03 0.210E-01 -.642E-02
   0.761E+02 0.365E+03 0.195E+03   -.757E+02 -.364E+03 -.195E+03   -.387E+00 -.132E+00 0.425E-01   0.366E-03 -.209E-01 0.970E-02
   -.206E+02 0.135E+03 -.341E+02   0.206E+02 -.135E+03 0.342E+02   -.229E-01 -.827E-01 -.766E-01   0.800E-03 -.225E-01 0.411E-02
   0.531E+02 0.169E+03 -.233E+03   -.532E+02 -.170E+03 0.233E+03   0.665E-01 0.158E+00 0.135E+00   0.750E-03 -.126E-01 -.956E-02
   0.120E+03 -.687E+02 0.182E+02   -.119E+03 0.688E+02 -.181E+02   -.100E+01 -.798E-01 -.302E-01   0.677E-03 -.767E-02 0.135E-01
   0.781E+02 0.127E+03 0.126E+03   -.778E+02 -.127E+03 -.125E+03   -.261E+00 -.160E+00 -.605E+00   0.677E-03 0.664E-02 0.803E-02
   -.829E+02 -.254E+03 0.579E+02   0.836E+02 0.253E+03 -.579E+02   -.779E+00 0.327E+00 0.307E-01   -.124E-02 0.141E-01 -.121E-01
 -----------------------------------------------------------------------------------------------
   0.532E-02 -.669E-01 0.613E-01   0.284E-13 -.284E-13 0.284E-13   -.723E-02 0.109E+00 -.747E-01   0.220E-02 -.506E-01 0.172E-01
 
 
 POSITION                                       TOTAL-FORCE (eV/Angst)
 -----------------------------------------------------------------------------------
      3.29486      3.40835     10.23604         0.001163      0.000724     -0.002137
      5.32942      5.07469      1.69574        -0.003210      0.005757      0.003330
      1.86258      8.43306      8.37514         0.004444     -0.000988     -0.001275
      5.22069      5.14429      8.57838        -0.002364      0.004895      0.002284
      1.57208      5.09107      1.80210        -0.000037     -0.006865     -0.000599
      6.90671      6.95744      3.49937         0.005694      0.000871     -0.004541
      3.44342      6.89883      0.21016        -0.007799     -0.001835      0.004733
      3.60018      0.32695      6.85890         0.000530      0.000992      0.003784
      6.82733      0.11926      6.82895         0.000407     -0.001257      0.002900
      5.06059      8.35563      8.31588        -0.000610     -0.003237      0.001955
      3.43601      0.00876     -0.00371         0.000019      0.004830     -0.003299
      5.28162      1.81823      5.02526         0.000610     -0.003748      0.002930
      1.56871      1.72098      1.75550         0.001162     -0.001778     -0.002034
      5.24779      1.92322      8.70409         0.000303     -0.002628     -0.001507
      1.68426      1.77555      8.55185         0.000007     -0.001033     -0.000066
      0.16336      3.40906     10.14957        -0.001238      0.003373      0.000675
      5.17302      8.48257      5.18792         0.001157      0.002244      0.003681
      1.75171      8.55797      1.91013        -0.001151      0.007165     -0.000298
      5.20477      8.59032      1.90423         0.001266     -0.004195     -0.003402
      1.67750      1.68663      5.11779         0.000599     -0.004624      0.005497
      0.10384      3.31974      3.56309        -0.005172      0.000515     -0.000683
      1.70200      5.19815      8.48267        -0.001068      0.000741     -0.002826
      3.39118      3.41089      6.90576         0.004035      0.001452      0.000659
      1.74836      5.09948      5.13460         0.000134     -0.000456     -0.000251
      3.49371      6.89279      3.37264        -0.004501     -0.000665     -0.003053
      3.36907      6.54783      6.73883         0.000439     -0.000880     -0.002336
      0.06996      6.74043      6.76287        -0.002625      0.000881     -0.001791
      6.93735     10.20250      3.51205        -0.002544      0.002361     -0.000426
      3.38288      3.32315      3.39535         0.001941     -0.002625      0.001809
      5.16580      5.08974      5.10884         0.000528      0.001819     -0.003172
      0.02555     10.18884     10.28630        -0.000238      0.002817     -0.001467
      3.48413      0.05021      3.40384         0.002783     -0.000141     -0.001579
      1.80391      8.56834      5.22227         0.003672      0.000546      0.000284
      5.37763      1.75218      1.64585        -0.002190     -0.002291     -0.001662
      0.03672      7.00851      0.03958         0.004889     -0.005628      0.002957
      0.01649      3.37848      6.85028        -0.001035      0.002893      0.000927
 -----------------------------------------------------------------------------------
    total drift:                                0.000286     -0.008778      0.003752


--------------------------------------------------------------------------------------------------------



  FREE ENERGIE OF THE ION-ELECTRON SYSTEM (eV)
  ---------------------------------------------------
  free  energy   TOTEN  =      -363.98939821 eV

  energy  without entropy=     -364.01462103  energy(sigma->0) =     -363.99780582
 
 d Force = 0.3636341E-04[ 0.312E-04, 0.416E-04]  d Energy = 0.4415929E-04-0.780E-05
 d Force =-0.1180304E+00[-0.118E+00,-0.118E+00]  d Ewald  =-0.1527108E+00 0.347E-01


--------------------------------------------------------------------------------------------------------


    POTLOK:  cpu time    0.0966: real time    0.0994


--------------------------------------------------------------------------------------------------------


 Conjugate gradient step on ions:
 trial-energy change:   -0.000044  1 .order   -0.000036   -0.000041   -0.000030
  (g-gl).g = 0.444E-04      g.g   = 0.321E-04  gl.gl    = 0.832E-04
 g(Force)  = 0.174E-04   g(Stress)= 0.147E-04 ortho     = 0.195E-05
 gamma     =   0.53302
 trial     =   1.23015
 opt step  =   4.84038  (harmonic =   4.84038) maximal distance =0.00190658
 next E    =  -363.989434   (d E  =  -0.00008)


--------------------------------------------------------------------------------------------------------


  
 reached required accuracy - stopping structural energy minimisation
     LOOP+:  cpu time    4.0064: real time    4.3022
    4ORBIT:  cpu time    0.0000: real time    0.0000

 total amount of memory used by VASP on root node    66376. kBytes
========================================================================

   base      :      30000. kBytes
   nonlr-proj:      10391. kBytes
   fftplans  :       2814. kBytes
   grid      :       5360. kBytes
   one-center:        124. kBytes
   wavefun   :      17687. kBytes
 
  
  
 General timing and accounting informations for this job:
 ========================================================
  
                  Total CPU time used (sec):      158.423
                            User time (sec):      156.521
                          System time (sec):        1.902
                         Elapsed time (sec):      171.465
  
                   Maximum memory used (kb):      267096.
                   Average memory used (kb):           0.
  
                          Minor page faults:        84253
                          Major page faults:           50
                 Voluntary context switches:         7253
