 vasp.5.4.1 05Feb16 (build Jan 29 2020 16:04:39) complex                        
  
 executed on           IFC91_ompi date 2020.06.15  02:56:31
 running on  160 total cores
 distrk:  each k-point on   20 cores,    8 groups
 distr:  one band on NCORES_PER_BAND=   5 cores,    4 groups


--------------------------------------------------------------------------------------------------------


 INCAR:
 POTCAR:    PAW_PBE Ta 17Jan2003                  
 POTCAR:    PAW_PBE Hf 20Jan2003                  
 POTCAR:    PAW_PBE Zr_sv 04Jan2005               
 POTCAR:    PAW_PBE Nb_sv 25May2007               

 ----------------------------------------------------------------------------- 
|                                                                             |
|           W    W    AA    RRRRR   N    N  II  N    N   GGGG   !!!           |
|           W    W   A  A   R    R  NN   N  II  NN   N  G    G  !!!           |
|           W    W  A    A  R    R  N N  N  II  N N  N  G       !!!           |
|           W WW W  AAAAAA  RRRRR   N  N N  II  N  N N  G  GGG   !            |
|           WW  WW  A    A  R   R   N   NN  II  N   NN  G    G                |
|           W    W  A    A  R    R  N    N  II  N    N   GGGG   !!!           |
|                                                                             |
|      For optimal performance we recommend to set                            |
|        NCORE= 4 - approx SQRT( number of cores)                             |
|      NCORE specifies how many cores store one orbital (NPAR=cpu/NCORE).     |
|      This setting can  greatly improve the performance of VASP for DFT.     |
|      The default, NPAR=number of cores might be grossly inefficient         |
|      on modern multi-core architectures or massively parallel machines.     |
|      Do your own testing !!!!                                               |
|      Unfortunately you need to use the default for GW and RPA calculations. |
|      (for HF NCORE is supported but not extensively tested yet)             |
|                                                                             |
 ----------------------------------------------------------------------------- 


 ----------------------------------------------------------------------------- 
|                                                                             |
|           W    W    AA    RRRRR   N    N  II  N    N   GGGG   !!!           |
|           W    W   A  A   R    R  NN   N  II  NN   N  G    G  !!!           |
|           W    W  A    A  R    R  N N  N  II  N N  N  G       !!!           |
|           W WW W  AAAAAA  RRRRR   N  N N  II  N  N N  G  GGG   !            |
|           WW  WW  A    A  R   R   N   NN  II  N   NN  G    G                |
|           W    W  A    A  R    R  N    N  II  N    N   GGGG   !!!           |
|                                                                             |
|      You have enabled k-point parallelism (KPAR>1).                         |
|      This developmental code was originally  written by Paul Kent at ORNL,  |
|      and carefully double checked in Vienna.                                |
|      GW as well as linear response parallelism added by Martijn Marsman     |
|      and Georg Kresse.                                                      |
|      Carefully verify results versus KPAR=1.                                |
|      Report problems to Paul Kent and Vienna.                               |
|                                                                             |
 ----------------------------------------------------------------------------- 

 POTCAR:    PAW_PBE Ta 17Jan2003                  
   VRHFIN =Ta:  6s5d                                                            
   LEXCH  = PE                                                                  
   EATOM  =   130.6506 eV,    9.6025 Ry                                         
                                                                                
   TITEL  = PAW_PBE Ta 17Jan2003                                                
   LULTRA =        F    use ultrasoft PP ?                                      
   IUNSCR =        1    unscreen: 0-lin 1-nonlin 2-no                           
   RPACOR =    2.330    partial core radius                                     
   POMASS =  180.948; ZVAL   =    5.000    mass and valenz                      
   RCORE  =    2.900    outmost cutoff radius                                   
   RWIGS  =    2.840; RWIGS  =    1.503    wigner-seitz radius (au A)           
   ENMAX  =  223.667; ENMIN  =  167.750 eV                                      
   RCLOC  =    2.205    cutoff for local pot                                    
   LCOR   =        T    correct aug charges                                     
   LPAW   =        T    paw PP                                                  
   EAUG   =  332.075                                                            
   DEXC   =    0.000                                                            
   RMAX   =    2.970    core radius for proj-oper                               
   RAUG   =    1.300    factor for augmentation sphere                          
   RDEP   =    3.060    radius for radial grids                                 
   RDEPT  =    2.354    core radius for aug-charge                              
                                                                                
   Atomic configuration                                                         
   16 entries                                                                   
     n  l   j            E        occ.                                          
     1  0  0.50    -67341.2807   2.0000                                         
     2  0  0.50    -11566.9376   2.0000                                         
     2  1  1.50    -10134.1182   6.0000                                         
     3  0  0.50     -2648.5620   2.0000                                         
     3  1  1.50     -2222.6012   6.0000                                         
     3  2  2.50     -1726.3120  10.0000                                         
     4  0  0.50      -538.6961   2.0000                                         
     4  1  1.50      -399.0129   6.0000                                         
     4  2  2.50      -220.3959  10.0000                                         
     4  3  3.50       -23.0374  14.0000                                         
     5  0  0.50       -71.2901   2.0000                                         
     5  1  1.50       -37.8225   6.0000                                         
     5  2  2.50        -2.6455   4.0000                                         
     6  0  0.50        -4.9623   1.0000                                         
     6  1  1.50        -1.3606   0.0000                                         
     5  3  2.50        -1.3606   0.0000                                         
   Description                                                                  
     l       E           TYP  RCUT    TYP  RCUT                                 
     2     -2.6455043     23  2.500                                             
     2     -0.6258895     23  2.500                                             
     0     -4.9622780     23  2.500                                             
     0      4.7531321     23  2.500                                             
     1     -1.3605826     23  2.900                                             
     1     27.2116520     23  2.900                                             
  local pseudopotential read in
  partial core-charges read in
  partial kinetic energy density read in
  atomic valenz-charges read in
  non local Contribution for L=           2  read in
    real space projection operators read in
  non local Contribution for L=           2  read in
    real space projection operators read in
  non local Contribution for L=           0  read in
    real space projection operators read in
  non local Contribution for L=           0  read in
    real space projection operators read in
  non local Contribution for L=           1  read in
    real space projection operators read in
  non local Contribution for L=           1  read in
    real space projection operators read in
    PAW grid and wavefunctions read in
 
   number of l-projection  operators is LMAX  =           6
   number of lm-projection operators is LMMAX =          18
 
 POTCAR:    PAW_PBE Hf 20Jan2003                  
   VRHFIN =Hf: 6s5d                                                             
   LEXCH  = PE                                                                  
   EATOM  =    75.9011 eV,    5.5786 Ry                                         
                                                                                
   TITEL  = PAW_PBE Hf 20Jan2003                                                
   LULTRA =        F    use ultrasoft PP ?                                      
   IUNSCR =        1    unscreen: 0-lin 1-nonlin 2-no                           
   RPACOR =    2.500    partial core radius                                     
   POMASS =  178.490; ZVAL   =    4.000    mass and valenz                      
   RCORE  =    3.000    outmost cutoff radius                                   
   RWIGS  =    3.050; RWIGS  =    1.614    wigner-seitz radius (au A)           
   ENMAX  =  220.334; ENMIN  =  165.250 eV                                      
   RCLOC  =    2.212    cutoff for local pot                                    
   LCOR   =        T    correct aug charges                                     
   LPAW   =        T    paw PP                                                  
   EAUG   =  335.116                                                            
   DEXC   =    0.000                                                            
   RMAX   =    3.077    core radius for proj-oper                               
   RAUG   =    1.300    factor for augmentation sphere                          
   RDEP   =    3.047    radius for radial grids                                 
   RDEPT  =    2.344    core radius for aug-charge                              
                                                                                
   Atomic configuration                                                         
   16 entries                                                                   
     n  l   j            E        occ.                                          
     1  0  0.50    -65259.4397   2.0000                                         
     2  0  0.50    -11157.9882   2.0000                                         
     2  1  1.50     -9795.2113   6.0000                                         
     3  0  0.50     -2541.4058   2.0000                                         
     3  1  1.50     -2134.4770   6.0000                                         
     3  2  2.50     -1653.5418  10.0000                                         
     4  0  0.50      -510.9575   2.0000                                         
     4  1  1.50      -377.5023   6.0000                                         
     4  2  2.50      -205.2085  10.0000                                         
     4  3  3.50       -15.4905  14.0000                                         
     5  0  0.50       -65.6020   2.0000                                         
     5  1  1.50       -34.2798   6.0000                                         
     5  2  2.50        -1.9877   3.0000                                         
     6  0  0.50        -4.7357   1.0000                                         
     6  1  1.50        -1.3606   0.0000                                         
     5  3  2.50        -1.3606   0.0000                                         
   Description                                                                  
     l       E           TYP  RCUT    TYP  RCUT                                 
     2     -1.9876627     23  2.500                                             
     2      0.0744703     23  2.500                                             
     0     -4.7356889     23  2.600                                             
     0      3.2364747     23  2.600                                             
     1     -1.3605826     23  3.000                                             
     1     27.2116520     23  3.000                                             
  local pseudopotential read in
  partial core-charges read in
  partial kinetic energy density read in
  atomic valenz-charges read in
  non local Contribution for L=           2  read in
    real space projection operators read in
  non local Contribution for L=           2  read in
    real space projection operators read in
  non local Contribution for L=           0  read in
    real space projection operators read in
  non local Contribution for L=           0  read in
    real space projection operators read in
  non local Contribution for L=           1  read in
    real space projection operators read in
  non local Contribution for L=           1  read in
    real space projection operators read in
    PAW grid and wavefunctions read in
 
   number of l-projection  operators is LMAX  =           6
   number of lm-projection operators is LMMAX =          18
 
 POTCAR:    PAW_PBE Zr_sv 04Jan2005               
   VRHFIN =Zr: 4s4p5s4d                                                         
   LEXCH  = PE                                                                  
   EATOM  =  1284.2219 eV,   94.3876 Ry                                         
                                                                                
   TITEL  = PAW_PBE Zr_sv 04Jan2005                                             
   LULTRA =        F    use ultrasoft PP ?                                      
   IUNSCR =        1    unscreen: 0-lin 1-nonlin 2-no                           
   RPACOR =    2.200    partial core radius                                     
   POMASS =   91.224; ZVAL   =   12.000    mass and valenz                      
   RCORE  =    2.500    outmost cutoff radius                                   
   RWIGS  =    3.070; RWIGS  =    1.625    wigner-seitz radius (au A)           
   ENMAX  =  229.898; ENMIN  =  172.424 eV                                      
   ICORE  =        3    local potential                                         
   LCOR   =        T    correct aug charges                                     
   LPAW   =        T    paw PP                                                  
   EAUG   =  461.257                                                            
   DEXC   =    0.000                                                            
   RMAX   =    2.561    core radius for proj-oper                               
   RAUG   =    1.300    factor for augmentation sphere                          
   RDEP   =    2.597    radius for radial grids                                 
   RDEPT  =    2.007    core radius for aug-charge                              
                                                                                
   Atomic configuration                                                         
   11 entries                                                                   
     n  l   j            E        occ.                                          
     1  0  0.50    -17820.0161   2.0000                                         
     2  0  0.50     -2467.0882   2.0000                                         
     2  1  1.50     -2199.6095   6.0000                                         
     3  0  0.50      -402.4863   2.0000                                         
     3  1  1.50      -315.3675   6.0000                                         
     3  2  2.50      -172.4472  10.0000                                         
     4  0  0.50       -52.4146   2.0000                                         
     5  0  0.50        -3.8421   1.0000                                         
     4  1  1.50       -30.5054   6.0000                                         
     4  2  2.50        -2.3341   3.0000                                         
     4  3  2.50        -1.3606   0.0000                                         
   Description                                                                  
     l       E           TYP  RCUT    TYP  RCUT                                 
     0    -52.4145962     23  2.200                                             
     0     -3.8421270     23  2.500                                             
     1    -30.5053914     23  2.200                                             
     1     20.4087390     23  2.200                                             
     2     -2.3340816     23  2.500                                             
     2     -0.6120942     23  2.500                                             
     3     -4.0817478     23  2.500                                             
  local pseudopotential read in
  partial core-charges read in
  partial kinetic energy density read in
  atomic valenz-charges read in
  non local Contribution for L=           0  read in
    real space projection operators read in
  non local Contribution for L=           0  read in
    real space projection operators read in
  non local Contribution for L=           1  read in
    real space projection operators read in
  non local Contribution for L=           1  read in
    real space projection operators read in
  non local Contribution for L=           2  read in
    real space projection operators read in
  non local Contribution for L=           2  read in
    real space projection operators read in
    PAW grid and wavefunctions read in
 
   number of l-projection  operators is LMAX  =           6
   number of lm-projection operators is LMMAX =          18
 
 POTCAR:    PAW_PBE Nb_sv 25May2007               
   VRHFIN =Nb: 4p5s4d                                                           
   LEXCH  = PE                                                                  
   EATOM  =  1555.1913 eV,  114.3033 Ry                                         
                                                                                
   TITEL  = PAW_PBE Nb_sv 25May2007                                             
   LULTRA =        F    use ultrasoft PP ?                                      
   IUNSCR =        1    unscreen: 0-lin 1-nonlin 2-no                           
   RPACOR =    1.800    partial core radius                                     
   POMASS =   92.910; ZVAL   =   13.000    mass and valenz                      
   RCORE  =    2.400    outmost cutoff radius                                   
   RWIGS  =    2.400; RWIGS  =    1.270    wigner-seitz radius (au A)           
   ENMAX  =  293.235; ENMIN  =  219.927 eV                                      
   ICORE  =        3    local potential                                         
   LCOR   =        T    correct aug charges                                     
   LPAW   =        T    paw PP                                                  
   EAUG   =  455.659                                                            
   DEXC   =    0.000                                                            
   RMAX   =    2.456    core radius for proj-oper                               
   RAUG   =    1.300    factor for augmentation sphere                          
   RDEP   =    2.451    radius for radial grids                                 
   RDEPT  =    1.956    core radius for aug-charge                              
                                                                                
   Atomic configuration                                                         
   11 entries                                                                   
     n  l   j            E        occ.                                          
     1  0  0.50    -18805.2457   2.0000                                         
     2  0  0.50     -2630.2869   2.0000                                         
     2  1  1.50     -2348.4046   6.0000                                         
     3  0  0.50      -438.8757   2.0000                                         
     3  1  1.50      -346.7588   6.0000                                         
     3  2  2.50      -196.2560  10.0000                                         
     4  0  0.50       -58.3859   2.0000                                         
     5  0  0.50        -3.9816   1.0000                                         
     4  1  1.50       -34.5141   6.0000                                         
     4  2  2.50        -3.0408   4.0000                                         
     4  3  2.50        -1.3606   0.0000                                         
   Description                                                                  
     l       E           TYP  RCUT    TYP  RCUT                                 
     0    -58.3859094     23  2.200                                             
     0     -3.9816262     23  2.200                                             
     1    -34.5140738     23  2.200                                             
     1     13.6058260     23  2.200                                             
     2     -3.0408010     23  2.200                                             
     2     -0.1283038     23  2.200                                             
     3     -1.3605826     23  2.400                                             
  local pseudopotential read in
  partial core-charges read in
  partial kinetic energy density read in
  atomic valenz-charges read in
  non local Contribution for L=           0  read in
    real space projection operators read in
  non local Contribution for L=           0  read in
    real space projection operators read in
  non local Contribution for L=           1  read in
    real space projection operators read in
  non local Contribution for L=           1  read in
    real space projection operators read in
  non local Contribution for L=           2  read in
    real space projection operators read in
  non local Contribution for L=           2  read in
    real space projection operators read in
    PAW grid and wavefunctions read in
 
   number of l-projection  operators is LMAX  =           6
   number of lm-projection operators is LMMAX =          18
 
 Optimization of the real space projectors (new method)

 maximal supplied QI-value         = 12.85
 optimisation between [QCUT,QGAM] = [  8.87, 17.73] = [ 22.01, 88.06] Ry 
 Optimized for a Real-space Cutoff    1.90 Angstroem

   l    n(q)    QCUT    max X(q) W(low)/X(q) W(high)/X(q)  e(spline) 
   2      9     8.867    62.315    0.23E-03    0.62E-04    0.11E-05
   2      9     8.867    52.185    0.23E-03    0.62E-04    0.11E-05
   0     10     8.867   103.837    0.15E-04    0.23E-04    0.98E-07
   0     10     8.867    59.728    0.12E-04    0.21E-04    0.89E-07
   1     10     8.867    13.958    0.50E-04    0.22E-04    0.14E-06
   1     10     8.867     8.441    0.36E-04    0.19E-04    0.98E-07
 Optimization of the real space projectors (new method)

 maximal supplied QI-value         = 12.47
 optimisation between [QCUT,QGAM] = [  8.86, 17.71] = [ 21.96, 87.83] Ry 
 Optimized for a Real-space Cutoff    1.90 Angstroem

   l    n(q)    QCUT    max X(q) W(low)/X(q) W(high)/X(q)  e(spline) 
   2      9     8.855    48.111    0.22E-03    0.80E-04    0.10E-05
   2      9     8.855    40.545    0.21E-03    0.76E-04    0.95E-06
   0     10     8.855   121.658    0.27E-04    0.12E-04    0.11E-06
   0     10     8.855    71.177    0.22E-04    0.11E-04    0.99E-07
   1     10     8.855    14.183    0.65E-04    0.10E-03    0.98E-07
   1     10     8.855     8.257    0.43E-04    0.73E-04    0.72E-07
 Optimization of the real space projectors (new method)

 maximal supplied QI-value         = 15.12
 optimisation between [QCUT,QGAM] = [  8.77, 17.69] = [ 21.53, 87.61] Ry 
 Optimized for a Real-space Cutoff    1.74 Angstroem

   l    n(q)    QCUT    max X(q) W(low)/X(q) W(high)/X(q)  e(spline) 
   0      9     8.768    12.107    0.28E-04    0.53E-06    0.29E-07
   0      9     8.768     9.948    0.36E-04    0.50E-05    0.64E-07
   1      9     8.768     3.563    0.14E-04    0.16E-04    0.88E-07
   1      9     8.768     4.524    0.21E-03    0.33E-03    0.19E-06
   2      8     8.768    87.261    0.19E-03    0.25E-03    0.24E-06
   2      8     8.768    70.950    0.19E-03    0.24E-03    0.24E-06
 Optimization of the real space projectors (new method)

 maximal supplied QI-value         = 15.68
 optimisation between [QCUT,QGAM] = [  8.78, 17.72] = [ 21.60, 87.97] Ry 
 Optimized for a Real-space Cutoff    1.96 Angstroem

   l    n(q)    QCUT    max X(q) W(low)/X(q) W(high)/X(q)  e(spline) 
   0     10     8.783    10.201    0.29E-04    0.25E-05    0.69E-07
   0     10     8.783     8.174    0.45E-04    0.57E-05    0.14E-06
   1     10     8.783     3.488    0.76E-05    0.24E-04    0.95E-07
   1     10     8.783     4.917    0.78E-04    0.14E-03    0.46E-06
   2      9     8.783   153.744    0.22E-03    0.34E-04    0.15E-05
   2      9     8.783   126.342    0.22E-03    0.35E-04    0.15E-05
  PAW_PBE Ta 17Jan2003                  :
 energy of atom  1       EATOM= -130.6506
 kinetic energy error for atom=    0.0121 (will be added to EATOM!!)
  PAW_PBE Hf 20Jan2003                  :
 energy of atom  2       EATOM=  -75.9011
 kinetic energy error for atom=    0.0071 (will be added to EATOM!!)
  PAW_PBE Zr_sv 04Jan2005               :
 energy of atom  3       EATOM=-1284.2219
 kinetic energy error for atom=    0.0483 (will be added to EATOM!!)
  PAW_PBE Nb_sv 25May2007               :
 energy of atom  4       EATOM=-1555.1913
 kinetic energy error for atom=    0.0655 (will be added to EATOM!!)
 
 
 POSCAR: generated by pypospack                  
  positions in direct lattice
  No initial velocities read in
 exchange correlation table for  LEXCH =        8
   RHO(1)=    0.500       N(1)  =     2000
   RHO(2)=  100.500       N(2)  =     4000
 


--------------------------------------------------------------------------------------------------------


 ion  position               nearest neighbor table
   1  0.254  0.165  0.506-   6 2.87   2 2.88  34 2.92  30 2.93   3 2.95  11 2.98  25 3.05  22 3.05
                             5 3.13  12 3.24  31 3.27  16 3.40  16 3.49
   2  0.016  0.327  0.340-  29 2.72  33 2.80  31 2.82   1 2.88  13 2.96  18 2.99  16 3.00  26 3.08
                             6 3.22   3 3.34  22 3.39  23 3.48  14 3.61
   3  0.007  0.338  0.666-   4 2.77   7 2.77  31 2.89  12 2.93  18 2.93  35 2.94   1 2.95  16 2.99
                             2 3.34  24 3.34  11 3.34  23 3.42  11 3.55
   4  0.234  0.485  0.834-   3 2.77  11 2.84  32 2.91  23 2.93  24 2.97  27 3.00  17 3.01  20 3.05
                             7 3.24  12 3.29  13 3.40
   5  0.255  0.860  0.517-  34 2.70  30 2.73  25 2.94  22 2.95  24 2.97  20 2.99  19 3.01  14 3.04
                             1 3.13   9 3.26   8 3.41   8 3.49
   6  0.483  0.324  0.335-  29 2.71  33 2.77  31 2.78   1 2.87  13 2.97  16 2.98  18 2.99  26 3.10
                             2 3.22  25 3.36  11 3.44  17 3.46  19 3.69
   7  0.765  0.494  0.816-   3 2.77  11 2.85  24 2.94  23 2.97  32 2.98  20 3.00  27 3.06  17 3.08
                             4 3.24  18 3.25  28 3.49  26 3.66
   8  0.749  0.848  0.517-  34 2.78  30 2.81  24 3.00  22 3.01  25 3.01  20 3.03  19 3.04  14 3.08
                            28 3.16  16 3.27   5 3.41   5 3.49  18 3.68
   9  0.244  0.845  0.835-  30 2.87  34 2.92  32 2.94  27 2.97  21 3.00  15 3.02  24 3.03  20 3.06
                            10 3.16   5 3.26  12 3.28  28 3.36  28 3.53
  10  0.237  0.817  0.143-  32 2.74  27 2.88  21 2.92  14 2.93  15 2.98  19 2.99  22 3.10   9 3.16
                            25 3.19  13 3.26  36 3.27
  11  0.493  0.342  0.672-  31 2.83   4 2.84   7 2.85  35 2.88  12 2.90  18 2.90   1 2.98  16 3.03
                            20 3.28  17 3.33   3 3.34   6 3.44   3 3.55
  12  0.253  0.165  0.823-  34 2.88  30 2.89  11 2.90   3 2.93  17 3.01  23 3.06  15 3.07  21 3.09
                             1 3.24   9 3.28   4 3.29  35 3.39
  13  0.246  0.499  0.166-   2 2.96   6 2.97  32 2.98  27 3.04  14 3.05  23 3.07  17 3.07  19 3.10
                            29 3.24  10 3.26  31 3.37   4 3.40  26 3.41  26 3.49
  14  0.016  0.679  0.345-  36 2.92  10 2.93  31 3.01   5 3.04  13 3.05   8 3.08  26 3.09  18 3.12
                            24 3.20  22 3.26  19 3.26   2 3.61  19 3.63
  15  0.504  0.003  0.011-  10 2.98   9 3.02  36 3.05  12 3.07  29 3.08  35 3.10  28 3.10  33 3.11
                            25 3.21  17 3.31  21 3.34  27 3.50  21 3.55
  16  0.747  0.168  0.506-  34 2.95  30 2.96   6 2.98   3 2.99   2 3.00  11 3.03  25 3.07  22 3.07
                            35 3.15  33 3.19   8 3.27  18 3.30   1 3.40   1 3.49
  17  0.510  0.326  0.997-  35 2.96  29 2.98  33 2.99   4 3.01  12 3.01  13 3.07  26 3.07   7 3.08
                            23 3.26  15 3.31  11 3.33  27 3.45   6 3.46  23 3.63
  18  0.744  0.490  0.499-  11 2.90   3 2.93   6 2.99   2 2.99  20 3.02  24 3.06  19 3.11  14 3.12
                             7 3.25  16 3.30  26 3.32  31 3.34   8 3.68
  19  0.488  0.685  0.342-  36 2.97  10 2.99   5 3.01  31 3.02   8 3.04  26 3.10  13 3.10  18 3.11
                            25 3.20  14 3.26  20 3.31  14 3.63  27 3.66   6 3.69
  20  0.488  0.662  0.665-  31 2.98   5 2.99   7 3.00  18 3.02   8 3.03  28 3.04   4 3.05   9 3.06
                            24 3.26  27 3.27  11 3.28  19 3.31  34 3.45  24 3.63
  21  0.989  0.006  0.009-  10 2.92  36 2.95   9 3.00  28 3.03  29 3.08  33 3.08  35 3.09  12 3.09
                            23 3.26  22 3.27  15 3.34  15 3.55
  22  0.002  0.996  0.328-  33 2.91   5 2.95  29 2.97   8 3.01   1 3.05  16 3.07  36 3.08  10 3.10
                            14 3.26  21 3.27   2 3.39  25 3.43  25 3.46  30 3.47
  23  0.984  0.323  1.000-   4 2.93  33 2.94  29 2.95   7 2.97  35 2.99  26 3.04  12 3.06  13 3.07
                            21 3.26  17 3.26   3 3.42   2 3.48  17 3.63
  24  0.016  0.664  0.658-   7 2.94   5 2.97   4 2.97   8 3.00  31 3.00  28 3.02   9 3.03  18 3.06
                            14 3.20  20 3.26   3 3.34  32 3.39  30 3.45  20 3.63
  25  0.499  0.996  0.325-  33 2.90   5 2.94  29 2.98   8 3.01   1 3.05  16 3.07  36 3.16  10 3.19
                            19 3.20  15 3.21   6 3.36  22 3.43  22 3.46
  26  0.752  0.505  0.174-  23 3.04  32 3.04  27 3.07  17 3.07   2 3.08  14 3.09   6 3.10  19 3.10
                            36 3.12  18 3.32  33 3.33  13 3.41  13 3.49   7 3.66
  27  0.497  0.663  0.985-  10 2.88  36 2.95   9 2.97  28 2.99   4 3.00  13 3.04   7 3.06  26 3.07
                            20 3.27  32 3.41  17 3.45  15 3.50  19 3.66
  28  0.757  0.834  0.825-  30 2.89  34 2.92  32 2.95  27 2.99  24 3.02  21 3.03  20 3.04  15 3.10
                             8 3.16   9 3.36  36 3.39  35 3.41   7 3.49   9 3.53
  29  0.247  0.183  0.179-   6 2.71   2 2.72  23 2.95  22 2.97  25 2.98  17 2.98  15 3.08  21 3.08
                            13 3.24
  30  0.002  0.001  0.668-   5 2.73   8 2.81   9 2.87  35 2.88  12 2.89  28 2.89   1 2.93  16 2.96
                            24 3.45  22 3.47
  31  0.259  0.485  0.495-   6 2.78   2 2.82  11 2.83   3 2.89  20 2.98  24 3.00  14 3.01  19 3.02
                             1 3.27  18 3.34  13 3.37
  32  0.003  0.665  0.989-  10 2.74  36 2.80   4 2.91   9 2.94  28 2.95   7 2.98  13 2.98  26 3.04
                            24 3.39  27 3.41
  33  0.751  0.181  0.193-   6 2.77   2 2.80  25 2.90  22 2.91  23 2.94  17 2.99  21 3.08  15 3.11
                            16 3.19  26 3.33
  34  0.500  0.999  0.669-   5 2.70   8 2.78  35 2.83  12 2.88   9 2.92  28 2.92   1 2.92  16 2.95
                            20 3.45
  35  0.744  0.167  0.814-  34 2.83  11 2.88  30 2.88   3 2.94  17 2.96  23 2.99  21 3.09  15 3.10
                            16 3.15  12 3.39  28 3.41
  36  0.763  0.809  0.156-  32 2.80  14 2.92  27 2.95  21 2.95  19 2.97  15 3.05  22 3.08  26 3.12
                            25 3.16  10 3.27  28 3.39
 
  LATTYP: Found a triclinic cell.
 ALAT       =    17.1650945991
 B/A-ratio  =     0.4013390853
 C/A-ratio  =     1.3336382181
 COS(alpha) =     0.0002041667
 COS(beta)  =     0.5328300703
 COS(gamma) =     0.8032542805
  
  Lattice vectors:
  
 A1 = (  13.7828601559,  -0.0016561189, -10.2309938801)
 A2 = (   6.8890207242,   0.0049683568,  -0.0034219807)
 A3 = (   0.0019155110, -10.2675382392, -20.4602667933)


Analysis of symmetry for initial positions (statically):
=====================================================================
 Subroutine PRICEL returns:
 Original cell was already a primitive cell.
 

 Routine SETGRP: Setting up the symmetry group for a 
 triclinic supercell.


 Subroutine GETGRP returns: Found  1 space group operations
 (whereof  1 operations were pure point group operations)
 out of a pool of  2 trial point group operations.


The static configuration has the point symmetry C_1 .


Analysis of symmetry for dynamics (positions and initial velocities):
=====================================================================
 Subroutine PRICEL returns:
 Original cell was already a primitive cell.
 

 Routine SETGRP: Setting up the symmetry group for a 
 triclinic supercell.


 Subroutine GETGRP returns: Found  1 space group operations
 (whereof  1 operations were pure point group operations)
 out of a pool of  2 trial point group operations.


The dynamic configuration has the point symmetry C_1 .


 Subroutine INISYM returns: Found  1 space group operations
 (whereof  1 operations are pure point group operations),
 and found     1 'primitive' translations

 
 
 KPOINTS: k-points                                

Automatic generation of k-mesh.
Space group operators:
 irot       det(A)        alpha          n_x          n_y          n_z        tau_x        tau_y        tau_z
    1     1.000000     0.000000     1.000000     0.000000     0.000000     0.000000     0.000000     0.000000
 
 Subroutine IBZKPT returns following result:
 ===========================================
 
 Found     14 irreducible k-points:
 
 Following reciprocal coordinates:
            Coordinates               Weight
  0.000000  0.000000  0.000000      1.000000
  0.333333  0.000000 -0.000000      2.000000
 -0.000000  0.333333 -0.000000      2.000000
  0.333333  0.333333 -0.000000      2.000000
 -0.333333  0.333333  0.000000      2.000000
 -0.000000  0.000000  0.333333      2.000000
  0.333333  0.000000  0.333333      2.000000
 -0.333333 -0.000000  0.333333      2.000000
 -0.000000  0.333333  0.333333      2.000000
  0.333333  0.333333  0.333333      2.000000
 -0.333333  0.333333  0.333333      2.000000
 -0.000000 -0.333333  0.333333      2.000000
  0.333333 -0.333333  0.333333      2.000000
 -0.333333 -0.333333  0.333333      2.000000
 
 Following cartesian coordinates:
            Coordinates               Weight
  0.000000  0.000000  0.000000      1.000000
  0.241365 -0.000182  0.000114      2.000000
 -0.000117  0.162311 -0.000184      2.000000
  0.241248  0.162129 -0.000070      2.000000
 -0.241483  0.162493 -0.000298      2.000000
  0.000081 -0.000190  0.162632      2.000000
  0.241446 -0.000372  0.162746      2.000000
 -0.241284 -0.000008  0.162518      2.000000
 -0.000036  0.162121  0.162448      2.000000
  0.241329  0.161939  0.162562      2.000000
 -0.241402  0.162303  0.162334      2.000000
  0.000198 -0.162501  0.162816      2.000000
  0.241563 -0.162683  0.162930      2.000000
 -0.241167 -0.162319  0.162702      2.000000
 


--------------------------------------------------------------------------------------------------------




 Dimension of arrays:
   k-points           NKPTS =     14   k-points in BZ     NKDIM =     14   number of bands    NBANDS=    176
   number of dos      NEDOS =    301   number of ions     NIONS =     36
   non local maximal  LDIM  =      6   non local SUM 2l+1 LMDIM =     18
   total plane-waves  NPLWV = 144000
   max r-space proj   IRMAX =   6349   max aug-charges    IRDMAX=  13783
   dimension x,y,z NGX =    40 NGY =   60 NGZ =   60
   dimension x,y,z NGXF=    80 NGYF=  120 NGZF=  120
   support grid    NGXF=    80 NGYF=  120 NGZF=  120
   ions per type =              11   9   8   8
 NGX,Y,Z   is equivalent  to a cutoff of   9.65,  9.74,  9.76 a.u.
 NGXF,Y,Z  is equivalent  to a cutoff of  19.31, 19.47, 19.51 a.u.


 I would recommend the setting:
   dimension x,y,z NGX =    39 NGY =   58 NGZ =   58
 SYSTEM =  automatically generated by mexm         
 POSCAR =  generated by pypospack                  

 Startparameter for this run:
   NWRITE =      2    write-flag & timer
   PREC   = accura    normal or accurate (medium, high low for compatibility)
   ISTART =      0    job   : 0-new  1-cont  2-samecut
   ICHARG =      2    charge: 1-file 2-atom 10-const
   ISPIN  =      1    spin polarized calculation?
   LNONCOLLINEAR =      F non collinear calculations
   LSORBIT =      F    spin-orbit coupling
   INIWAV =      1    electr: 0-lowe 1-rand  2-diag
   LASPH  =      F    aspherical Exc in radial PAW
   METAGGA=      F    non-selfconsistent MetaGGA calc.

 Electronic Relaxation 1
   ENCUT  =  300.0 eV  22.05 Ry    4.70 a.u.   9.73 14.47 14.44*2*pi/ulx,y,z
   ENINI  =  300.0     initial cutoff
   ENAUG  =  461.3 eV  augmentation charge cutoff
   NELM   =     70;   NELMIN=  2; NELMDL= -5     # of ELM steps 
   EDIFF  = 0.1E-04   stopping-criterion for ELM
   LREAL  =      T    real-space projection
   NLSPLINE    = F    spline interpolate recip. space projectors
   LCOMPAT=      F    compatible to vasp.4.4
   GGA_COMPAT  = T    GGA compatible to vasp.4.4-vasp.4.6
   LMAXPAW     = -100 max onsite density
   LMAXMIX     =    2 max onsite mixed and CHGCAR
   VOSKOWN=      0    Vosko Wilk Nusair interpolation
   ROPT   =   -0.00025  -0.00025  -0.00025  -0.00025
 Ionic relaxation
   EDIFFG = -.1E-01   stopping-criterion for IOM
   NSW    =    300    number of steps for IOM
   NBLOCK =      1;   KBLOCK =    300    inner block; outer block 
   IBRION =      2    ionic relax: 0-MD 1-quasi-New 2-CG
   NFREE  =      1    steps in history (QN), initial steepest desc. (CG)
   ISIF   =      3    stress and relaxation
   IWAVPR =     11    prediction:  0-non 1-charg 2-wave 3-comb
   ISYM   =      1    0-nonsym 1-usesym 2-fastsym
   LCORR  =      T    Harris-Foulkes like correction to forces

   POTIM  = 0.1500    time-step for ionic-motion
   TEIN   =    0.0    initial temperature
   TEBEG  =    0.0;   TEEND  =   0.0 temperature during run
   SMASS  =  -3.00    Nose mass-parameter (am)
   estimated Nose-frequenzy (Omega)   =  0.10E-29 period in steps =****** mass=  -0.108E-26a.u.
   SCALEE = 1.0000    scale energy and forces
   NPACO  =    256;   APACO  = 16.0  distance and # of slots for P.C.
   PSTRESS=    0.0 pullay stress

  Mass of Ions in am
   POMASS = 180.95178.49 91.22 92.91
  Ionic Valenz
   ZVAL   =   5.00  4.00 12.00 13.00
  Atomic Wigner-Seitz radii
   RWIGS  =  -1.00 -1.00 -1.00 -1.00
  virtual crystal weights 
   VCA    =   1.00  1.00  1.00  1.00
   NELECT =     291.0000    total number of electrons
   NUPDOWN=      -1.0000    fix difference up-down

 DOS related values:
   EMIN   =  10.00;   EMAX   =-10.00  energy-range for DOS
   EFERMI =   0.00
   ISMEAR =     1;   SIGMA  =   0.15  broadening in eV -4-tet -1-fermi 0-gaus

 Electronic relaxation 2 (details)
   IALGO  =     68    algorithm
   LDIAG  =      T    sub-space diagonalisation (order eigenvalues)
   LSUBROT=      F    optimize rotation matrix (better conditioning)
   TURBO    =      0    0=normal 1=particle mesh
   IRESTART =      0    0=no restart 2=restart with 2 vectors
   NREBOOT  =      0    no. of reboots
   NMIN     =      0    reboot dimension
   EREF     =   0.00    reference energy to select bands
   IMIX   =      4    mixing-type and parameters
     AMIX     =   0.40;   BMIX     =  1.00
     AMIX_MAG =   1.60;   BMIX_MAG =  1.00
     AMIN     =   0.10
     WC   =   100.;   INIMIX=   1;  MIXPRE=   1;  MAXMIX= -45

 Intra band minimization:
   WEIMIN = 0.0010     energy-eigenvalue tresh-hold
   EBREAK =  0.14E-07  absolut break condition
   DEPER  =   0.30     relativ break condition  

   TIME   =   0.40     timestep for ELM

  volume/ion in A,a.u.               =      20.04       135.26
  Fermi-wavevector in a.u.,A,eV,Ry     =   1.209529  2.285679 19.904794  1.462961
  Thomas-Fermi vector in A             =   2.345104
 
 Write flags
   LWAVE  =      F    write WAVECAR
   LCHARG =      F    write CHGCAR
   LVTOT  =      F    write LOCPOT, total local potential
   LVHAR  =      F    write LOCPOT, Hartree potential only
   LELF   =      F    write electronic localiz. function (ELF)
   LORBIT =      0    0 simple, 1 ext, 2 COOP (PROOUT)


 Dipole corrections
   LMONO  =      F    monopole corrections only (constant potential shift)
   LDIPOL =      F    correct potential (dipole corrections)
   IDIPOL =      0    1-x, 2-y, 3-z, 4-all directions 
   EPSILON=  1.0000000 bulk dielectric constant

 Exchange correlation treatment:
   GGA     =    --    GGA type
   LEXCH   =     8    internal setting for exchange type
   VOSKOWN=      0    Vosko Wilk Nusair interpolation
   LHFCALC =     F    Hartree Fock is set to
   LHFONE  =     F    Hartree Fock one center treatment
   AEXX    =    0.0000 exact exchange contribution

 Linear response parameters
   LEPSILON=     F    determine dielectric tensor
   LRPA    =     F    only Hartree local field effects (RPA)
   LNABLA  =     F    use nabla operator in PAW spheres
   LVEL    =     F    velocity operator in full k-point grid
   LINTERFAST=   F  fast interpolation
   KINTER  =     0    interpolate to denser k-point grid
   CSHIFT  =0.1000    complex shift for real part using Kramers Kronig
   OMEGAMAX=  -1.0    maximum frequency
   DEG_THRESHOLD= 0.2000000E-02 threshold for treating states as degnerate
   RTIME   =    0.100 relaxation time in fs

 Orbital magnetization related:
   ORBITALMAG=     F  switch on orbital magnetization
   LCHIMAG   =     F  perturbation theory with respect to B field
   DQ        =  0.001000  dq finite difference perturbation B field



--------------------------------------------------------------------------------------------------------


 conjugate gradient relaxation of ions
 charge density and potential will be updated during run
 non-spin polarized calculation
 RMM-DIIS sequential band-by-band and
  variant of blocked Davidson during initial phase
 perform sub-space diagonalisation
    before iterative eigenvector-optimisation
 modified Broyden-mixing scheme, WC =      100.0
 initial mixing is a Kerker type mixing with AMIX =  0.4000 and BMIX =      1.0000
 Hartree-type preconditioning will be used
 using additional bands           30
 real space projection scheme for non local part
 use partial core corrections
 calculate Harris-corrections to forces 
   (improved forces if not selfconsistent)
 use gradient corrections 
 use of overlap-Matrix (Vanderbilt PP)
 Methfessel and Paxton  Order N= 1 SIGMA  =   0.15


--------------------------------------------------------------------------------------------------------


  energy-cutoff  :      300.00
  volume of cell :      721.55
      direct lattice vectors                 reciprocal lattice vectors
     6.889020724  0.004968357 -0.003421981     0.145158625 -0.000109497  0.000068538
     0.007721904 10.244352574  0.011966956    -0.000070455  0.097614941 -0.000110716
    -0.004818707  0.011592832 10.224149919     0.000048666 -0.000114291  0.097807795

  length of vectors
     6.889023366 10.244362474 10.224157627     0.145158683  0.097615029  0.097807874


 
 k-points in units of 2pi/SCALE and weight: k-points                                
   0.00000000  0.00000000  0.00000000       0.037
   0.24136541 -0.00018207  0.00011396       0.074
  -0.00011715  0.16231119 -0.00018409       0.074
   0.24124826  0.16212913 -0.00007013       0.074
  -0.24148256  0.16249326 -0.00029806       0.074
   0.00008092 -0.00019004  0.16263187       0.074
   0.24144633 -0.00037211  0.16274583       0.074
  -0.24128449 -0.00000797  0.16251790       0.074
  -0.00003623  0.16212116  0.16244777       0.074
   0.24132918  0.16193909  0.16256174       0.074
  -0.24140164  0.16230322  0.16233381       0.074
   0.00019807 -0.16250123  0.16281596       0.074
   0.24156348 -0.16268330  0.16292993       0.074
  -0.24116734 -0.16231917  0.16270200       0.074
 
 k-points in reciprocal lattice and weights: k-points                                
   0.00000000  0.00000000  0.00000000       0.037
   0.33333333  0.00000000 -0.00000000       0.074
  -0.00000000  0.33333333 -0.00000000       0.074
   0.33333333  0.33333333 -0.00000000       0.074
  -0.33333333  0.33333333  0.00000000       0.074
  -0.00000000  0.00000000  0.33333333       0.074
   0.33333333  0.00000000  0.33333333       0.074
  -0.33333333 -0.00000000  0.33333333       0.074
  -0.00000000  0.33333333  0.33333333       0.074
   0.33333333  0.33333333  0.33333333       0.074
  -0.33333333  0.33333333  0.33333333       0.074
  -0.00000000 -0.33333333  0.33333333       0.074
   0.33333333 -0.33333333  0.33333333       0.074
  -0.33333333 -0.33333333  0.33333333       0.074
 
 position of ions in fractional coordinates (direct lattice) 
   0.25351000  0.16529700  0.50641500
   0.01629900  0.32696300  0.33975100
   0.00732100  0.33823200  0.66600900
   0.23424400  0.48513300  0.83363600
   0.25457600  0.86004700  0.51698200
   0.48294900  0.32438800  0.33541600
   0.76535000  0.49384800  0.81621700
   0.74867900  0.84843900  0.51662600
   0.24416400  0.84460800  0.83513500
   0.23694500  0.81658200  0.14266800
   0.49257000  0.34199500  0.67178000
   0.25284400  0.16450900  0.82290900
   0.24647300  0.49911500  0.16576700
   0.01567700  0.67925700  0.34514600
   0.50441500  0.00343500  0.01103500
   0.74725000  0.16777100  0.50556200
   0.51041400  0.32624000  0.99722500
   0.74445700  0.48993400  0.49898200
   0.48829200  0.68468900  0.34154200
   0.48821600  0.66221700  0.66496600
   0.98900300  0.00567800  0.00863000
   0.00185400  0.99649600  0.32841600
   0.98406200  0.32348800  0.99967500
   0.01552400  0.66439400  0.65787300
   0.49905900  0.99636700  0.32521300
   0.75219400  0.50524800  0.17428400
   0.49732300  0.66263000  0.98469300
   0.75664000  0.83410000  0.82548000
   0.24702000  0.18293500  0.17867500
   0.00248900  0.00053400  0.66765300
   0.25908600  0.48463800  0.49450600
   0.00295900  0.66456700  0.98944600
   0.75057300  0.18091100  0.19338600
   0.50005100  0.99889600  0.66871500
   0.74406200  0.16699700  0.81355500
   0.76344600  0.80942800  0.15602800
 
 position of ions in cartesian coordinates  (Angst):
   1.74527179  1.70049106  5.17877348
   0.11317176  3.35354391  3.47752214
   0.04983701  3.47272516  6.81339842
   1.61344087  4.98070151  8.52822343
   1.75792936  8.81788281  5.29512246
   3.32793429  3.32943293  3.43157276
   5.27239235  5.07241783  8.34841582
   5.16172724  8.70141712  5.28965294
   1.68454857  8.66335681  8.54781730
   1.63793711  8.36818507  1.46762020
   3.39272868  3.51375246  6.87078651
   1.73915252  1.69608426  8.41464843
   1.70101294  5.11625631  1.69995612
   0.11158118  6.96262731  3.53689944
   3.47489874  0.03782339  0.11113850
   5.14668009  1.72827878  5.16839231
   3.51396648  3.35621417 10.19793538
   5.12995848  5.02853998  5.10498228
   3.36749502  7.02058097  3.49849933
   3.36523944  6.79411890  6.80496613
   6.81326442  0.06318120  0.08491801
   0.01888455 10.21227285  3.36969310
   6.77690431  3.33040336 10.22133080
   0.10890545  6.81399012  6.73408983
   3.44415454 10.21338448  3.33524218
   5.18494171  5.18169626  1.78537803
   3.42644027  6.80210161 10.07387669
   5.21497173  8.55814339  8.44722371
   1.70227752  1.87734927  1.82814386
   0.01393367  0.01322284  6.82618224
   1.78620827  4.97182250  5.06081653
   0.02074848  6.81954384 10.12418696
   5.17117806  1.85928707  1.97680396
   3.44935274 10.24327954  6.84728499
   5.12322779  1.72390432  8.31736057
   5.26489379  8.29766769  1.60232756
 


--------------------------------------------------------------------------------------------------------


 k-point  1 :   0.0000 0.0000 0.0000  plane waves:    8575
 k-point  2 :   0.3333 0.0000-0.0000  plane waves:    8517
 k-point  3 :  -0.0000 0.3333-0.0000  plane waves:    8518
 k-point  4 :   0.3333 0.3333-0.0000  plane waves:    8502
 k-point  5 :  -0.3333 0.3333 0.0000  plane waves:    8501
 k-point  6 :  -0.0000 0.0000 0.3333  plane waves:    8515
 k-point  7 :   0.3333 0.0000 0.3333  plane waves:    8499
 k-point  8 :  -0.3333-0.0000 0.3333  plane waves:    8497
 k-point  9 :  -0.0000 0.3333 0.3333  plane waves:    8519
 k-point 10 :   0.3333 0.3333 0.3333  plane waves:    8508
 k-point 11 :  -0.3333 0.3333 0.3333  plane waves:    8510
 k-point 12 :  -0.0000-0.3333 0.3333  plane waves:    8526
 k-point 13 :   0.3333-0.3333 0.3333  plane waves:    8511
 k-point 14 :  -0.3333-0.3333 0.3333  plane waves:    8515

 maximum and minimum number of plane-waves per node :      1728     1680

 maximum number of plane-waves:      8575
 maximum index in each direction: 
   IXMAX=   10   IYMAX=   14   IZMAX=   14
   IXMIN=  -10   IYMIN=  -14   IZMIN=  -14

 WARNING: aliasing errors must be expected set NGX to  42 to avoid them
 NGY is ok and might be reduce to  58
 NGZ is ok and might be reduce to  58
 aliasing errors are usually negligible using standard VASP settings
 and one can safely disregard these warnings

 real space projection operators:
  total allocation   :      27429.89 KBytes
  max/ min on nodes  :       5536.12       5444.16


 parallel 3D FFT for wavefunctions:
    minimum data exchange during FFTs selected (reduces bandwidth)
 parallel 3D FFT for charge:
    minimum data exchange during FFTs selected (reduces bandwidth)


 total amount of memory used by VASP on root node    67161. kBytes
========================================================================

   base      :      30000. kBytes
   nonlr-proj:      10571. kBytes
   fftplans  :       2814. kBytes
   grid      :       5360. kBytes
   one-center:        124. kBytes
   wavefun   :      18292. kBytes
 
     INWAV:  cpu time    0.0000: real time    0.0000
 Broyden mixing: mesh for mixing (old mesh)
   NGX = 19   NGY = 29   NGZ = 29
  (NGX  = 80   NGY  =120   NGZ  =120)
  gives a total of  15979 points

 initial charge density was supplied:
 charge density of overlapping atoms calculated
 number of electron     291.0000000 magnetization 
 keeping initial charge density in first step


--------------------------------------------------------------------------------------------------------


 Maximum index for non-local projection operator         1251
 Maximum index for augmentation-charges          682 (set IRDMAX)


--------------------------------------------------------------------------------------------------------


 First call to EWALD:  gamma=   0.198
 Maximum number of real-space cells 3x 2x 2
 Maximum number of reciprocal cells 2x 3x 3

 FEWALD executed in parallel
    FEWALD:  cpu time    0.0387: real time    0.0388


----------------------------------------- Iteration    1(   1)  ---------------------------------------


    POTLOK:  cpu time    0.0491: real time    0.0679
    SETDIJ:  cpu time    0.0441: real time    0.0444
     EDDAV:  cpu time    1.0197: real time    1.0249
       DOS:  cpu time    0.0021: real time    0.0021
    --------------------------------------------
      LOOP:  cpu time    1.1202: real time    1.4311

 eigenvalue-minimisations  :  5440
 total energy-change (2. order) : 0.1791052E+04  (-0.1089134E+05)
 number of electron     291.0000000 magnetization 
 augmentation part      291.0000000 magnetization 

 Free energy of the ion-electron system (eV)
  ---------------------------------------------------
  alpha Z        PSCENC =      1518.77125255
  Ewald energy   TEWEN  =    -19104.43057866
  -Hartree energ DENC   =     -6674.27935668
  -exchange      EXHF   =         0.00000000
  -V(xc)+E(xc)   XCENC  =      -356.79473525
  PAW double counting   =     21096.87946096   -19449.64100719
  entropy T*S    EENTRO =         0.01013188
  eigenvalues    EBANDS =       -73.92791504
  atomic energy  EATOM  =     24834.46488499
  Solvation  Ediel_sol  =         0.00000000
  ---------------------------------------------------
  free energy    TOTEN  =      1791.05213756 eV

  energy without entropy =     1791.04200568  energy(sigma->0) =     1791.04876027


--------------------------------------------------------------------------------------------------------




----------------------------------------- Iteration    1(   2)  ---------------------------------------


     EDDAV:  cpu time    1.0355: real time    1.0404
       DOS:  cpu time    0.0215: real time    0.0216
    --------------------------------------------
      LOOP:  cpu time    1.0578: real time    1.2076

 eigenvalue-minimisations  :  5616
 total energy-change (2. order) :-0.1893431E+04  (-0.1825572E+04)
 number of electron     291.0000000 magnetization 
 augmentation part      291.0000000 magnetization 

 Free energy of the ion-electron system (eV)
  ---------------------------------------------------
  alpha Z        PSCENC =      1518.77125255
  Ewald energy   TEWEN  =    -19104.43057866
  -Hartree energ DENC   =     -6674.27935668
  -exchange      EXHF   =         0.00000000
  -V(xc)+E(xc)   XCENC  =      -356.79473525
  PAW double counting   =     21096.87946096   -19449.64100719
  entropy T*S    EENTRO =         0.00168411
  eigenvalues    EBANDS =     -1967.35067829
  atomic energy  EATOM  =     24834.46488499
  Solvation  Ediel_sol  =         0.00000000
  ---------------------------------------------------
  free energy    TOTEN  =      -102.37907346 eV

  energy without entropy =     -102.38075757  energy(sigma->0) =     -102.37963483


--------------------------------------------------------------------------------------------------------




----------------------------------------- Iteration    1(   3)  ---------------------------------------


     EDDAV:  cpu time    1.5354: real time    1.5774
       DOS:  cpu time    0.0013: real time    0.0013
    --------------------------------------------
      LOOP:  cpu time    1.5370: real time    1.6102

 eigenvalue-minimisations  :  8312
 total energy-change (2. order) :-0.2472904E+03  (-0.2347935E+03)
 number of electron     291.0000000 magnetization 
 augmentation part      291.0000000 magnetization 

 Free energy of the ion-electron system (eV)
  ---------------------------------------------------
  alpha Z        PSCENC =      1518.77125255
  Ewald energy   TEWEN  =    -19104.43057866
  -Hartree energ DENC   =     -6674.27935668
  -exchange      EXHF   =         0.00000000
  -V(xc)+E(xc)   XCENC  =      -356.79473525
  PAW double counting   =     21096.87946096   -19449.64100719
  entropy T*S    EENTRO =        -0.00429256
  eigenvalues    EBANDS =     -2214.63505932
  atomic energy  EATOM  =     24834.46488499
  Solvation  Ediel_sol  =         0.00000000
  ---------------------------------------------------
  free energy    TOTEN  =      -349.66943116 eV

  energy without entropy =     -349.66513860  energy(sigma->0) =     -349.66800031


--------------------------------------------------------------------------------------------------------




----------------------------------------- Iteration    1(   4)  ---------------------------------------


     EDDAV:  cpu time    1.4355: real time    1.4690
       DOS:  cpu time    0.0012: real time    0.0012
    --------------------------------------------
      LOOP:  cpu time    1.4371: real time    1.5077

 eigenvalue-minimisations  :  8384
 total energy-change (2. order) :-0.2901035E+02  (-0.2758253E+02)
 number of electron     291.0000000 magnetization 
 augmentation part      291.0000000 magnetization 

 Free energy of the ion-electron system (eV)
  ---------------------------------------------------
  alpha Z        PSCENC =      1518.77125255
  Ewald energy   TEWEN  =    -19104.43057866
  -Hartree energ DENC   =     -6674.27935668
  -exchange      EXHF   =         0.00000000
  -V(xc)+E(xc)   XCENC  =      -356.79473525
  PAW double counting   =     21096.87946096   -19449.64100719
  entropy T*S    EENTRO =         0.00362385
  eigenvalues    EBANDS =     -2243.65332581
  atomic energy  EATOM  =     24834.46488499
  Solvation  Ediel_sol  =         0.00000000
  ---------------------------------------------------
  free energy    TOTEN  =      -378.67978124 eV

  energy without entropy =     -378.68340509  energy(sigma->0) =     -378.68098919


--------------------------------------------------------------------------------------------------------




----------------------------------------- Iteration    1(   5)  ---------------------------------------


     EDDAV:  cpu time    1.3981: real time    1.4031
       DOS:  cpu time    0.0011: real time    0.0011
    CHARGE:  cpu time    0.0311: real time    0.0332
    MIXING:  cpu time    0.0014: real time    0.0014
    --------------------------------------------
      LOOP:  cpu time    1.4322: real time    1.4699

 eigenvalue-minimisations  :  7880
 total energy-change (2. order) :-0.2890910E+01  (-0.2829785E+01)
 number of electron     291.0000001 magnetization 
 augmentation part       16.6527565 magnetization 

 Broyden mixing:
  rms(total) = 0.65689E+01    rms(broyden)= 0.65684E+01
  rms(prec ) = 0.68340E+01
  weight for this iteration     100.00

 Free energy of the ion-electron system (eV)
  ---------------------------------------------------
  alpha Z        PSCENC =      1518.77125255
  Ewald energy   TEWEN  =    -19104.43057866
  -Hartree energ DENC   =     -6674.27935668
  -exchange      EXHF   =         0.00000000
  -V(xc)+E(xc)   XCENC  =      -356.79473525
  PAW double counting   =     21096.87946096   -19449.64100719
  entropy T*S    EENTRO =         0.00734901
  eigenvalues    EBANDS =     -2246.54796130
  atomic energy  EATOM  =     24834.46488499
  Solvation  Ediel_sol  =         0.00000000
  ---------------------------------------------------
  free energy    TOTEN  =      -381.57069158 eV

  energy without entropy =     -381.57804059  energy(sigma->0) =     -381.57314125


--------------------------------------------------------------------------------------------------------




----------------------------------------- Iteration    1(   6)  ---------------------------------------


    POTLOK:  cpu time    0.0308: real time    0.0308
    SETDIJ:  cpu time    0.0037: real time    0.0037
    EDDIAG:  cpu time    0.0755: real time    0.0782
  RMM-DIIS:  cpu time    0.7061: real time    0.7083
    ORTHCH:  cpu time    0.0119: real time    0.0119
       DOS:  cpu time    0.0011: real time    0.0011
    CHARGE:  cpu time    0.0622: real time    0.0623
    MIXING:  cpu time    0.0017: real time    0.0024
    --------------------------------------------
      LOOP:  cpu time    0.8935: real time    0.9277

 eigenvalue-minimisations  :  6833
 total energy-change (2. order) : 0.1043850E+02  (-0.2225458E+01)
 number of electron     291.0000001 magnetization 
 augmentation part       17.3278497 magnetization 

 Broyden mixing:
  rms(total) = 0.31497E+01    rms(broyden)= 0.31496E+01
  rms(prec ) = 0.34190E+01
  weight for this iteration     100.00

 eigenvalues of (default mixing * dielectric matrix)
  average eigenvalue GAMMA=   1.8480
  1.8480

 Free energy of the ion-electron system (eV)
  ---------------------------------------------------
  alpha Z        PSCENC =      1518.77125255
  Ewald energy   TEWEN  =    -19104.43057866
  -Hartree energ DENC   =     -6516.54286111
  -exchange      EXHF   =         0.00000000
  -V(xc)+E(xc)   XCENC  =      -359.37291644
  PAW double counting   =     26593.11978584   -24953.63101791
  entropy T*S    EENTRO =         0.01220083
  eigenvalues    EBANDS =     -2383.52294530
  atomic energy  EATOM  =     24834.46488499
  Solvation  Ediel_sol  =         0.00000000
  ---------------------------------------------------
  free energy    TOTEN  =      -371.13219520 eV

  energy without entropy =     -371.14439604  energy(sigma->0) =     -371.13626215


--------------------------------------------------------------------------------------------------------




----------------------------------------- Iteration    1(   7)  ---------------------------------------


    POTLOK:  cpu time    0.0286: real time    0.0290
    SETDIJ:  cpu time    0.0036: real time    0.0036
    EDDIAG:  cpu time    0.1282: real time    0.1288
  RMM-DIIS:  cpu time    0.7765: real time    0.7800
    ORTHCH:  cpu time    0.0118: real time    0.0119
       DOS:  cpu time    0.0015: real time    0.0015
    CHARGE:  cpu time    0.0291: real time    0.0301
    MIXING:  cpu time    0.0014: real time    0.0014
    --------------------------------------------
      LOOP:  cpu time    0.9814: real time    1.0173

 eigenvalue-minimisations  :  7374
 total energy-change (2. order) :-0.1721283E+01  (-0.2573120E+01)
 number of electron     291.0000001 magnetization 
 augmentation part       17.8616785 magnetization 

 Broyden mixing:
  rms(total) = 0.11830E+01    rms(broyden)= 0.11827E+01
  rms(prec ) = 0.34470E+01
  weight for this iteration     100.00

 eigenvalues of (default mixing * dielectric matrix)
  average eigenvalue GAMMA=   1.1680
  1.8525  0.4835

 Free energy of the ion-electron system (eV)
  ---------------------------------------------------
  alpha Z        PSCENC =      1518.77125255
  Ewald energy   TEWEN  =    -19104.43057866
  -Hartree energ DENC   =     -6447.32225938
  -exchange      EXHF   =         0.00000000
  -V(xc)+E(xc)   XCENC  =      -357.96809283
  PAW double counting   =     32072.94263060   -30428.13603029
  entropy T*S    EENTRO =         0.00413756
  eigenvalues    EBANDS =     -2461.17942317
  atomic energy  EATOM  =     24834.46488499
  Solvation  Ediel_sol  =         0.00000000
  ---------------------------------------------------
  free energy    TOTEN  =      -372.85347862 eV

  energy without entropy =     -372.85761619  energy(sigma->0) =     -372.85485781


--------------------------------------------------------------------------------------------------------




----------------------------------------- Iteration    1(   8)  ---------------------------------------


    POTLOK:  cpu time    0.0291: real time    0.0292
    SETDIJ:  cpu time    0.0037: real time    0.0037
    EDDIAG:  cpu time    0.0773: real time    0.0776
  RMM-DIIS:  cpu time    0.8668: real time    0.8704
    ORTHCH:  cpu time    0.0126: real time    0.0128
       DOS:  cpu time    0.0011: real time    0.0011
    CHARGE:  cpu time    0.0384: real time    0.0384
    MIXING:  cpu time    0.0015: real time    0.0015
    --------------------------------------------
      LOOP:  cpu time    1.0311: real time    1.0646

 eigenvalue-minimisations  :  7479
 total energy-change (2. order) : 0.5883111E+01  (-0.6764830E+00)
 number of electron     291.0000001 magnetization 
 augmentation part       17.6547040 magnetization 

 Broyden mixing:
  rms(total) = 0.45403E+00    rms(broyden)= 0.45344E+00
  rms(prec ) = 0.75112E+00
  weight for this iteration     100.00

 eigenvalues of (default mixing * dielectric matrix)
  average eigenvalue GAMMA=   1.0817
  1.8163  1.0566  0.3724

 Free energy of the ion-electron system (eV)
  ---------------------------------------------------
  alpha Z        PSCENC =      1518.77125255
  Ewald energy   TEWEN  =    -19104.43057866
  -Hartree energ DENC   =     -6422.65789301
  -exchange      EXHF   =         0.00000000
  -V(xc)+E(xc)   XCENC  =      -357.81195014
  PAW double counting   =     32994.43938075   -31347.71995335
  entropy T*S    EENTRO =        -0.00449857
  eigenvalues    EBANDS =     -2482.02101234
  atomic energy  EATOM  =     24834.46488499
  Solvation  Ediel_sol  =         0.00000000
  ---------------------------------------------------
  free energy    TOTEN  =      -366.97036778 eV

  energy without entropy =     -366.96586921  energy(sigma->0) =     -366.96886825


--------------------------------------------------------------------------------------------------------




----------------------------------------- Iteration    1(   9)  ---------------------------------------


    POTLOK:  cpu time    0.0310: real time    0.0329
    SETDIJ:  cpu time    0.0038: real time    0.0038
    EDDIAG:  cpu time    0.0814: real time    0.0817
  RMM-DIIS:  cpu time    0.7826: real time    0.7851
    ORTHCH:  cpu time    0.0136: real time    0.0136
       DOS:  cpu time    0.0031: real time    0.0031
    CHARGE:  cpu time    0.0314: real time    0.0321
    MIXING:  cpu time    0.0014: real time    0.0014
    --------------------------------------------
      LOOP:  cpu time    0.9490: real time    0.9850

 eigenvalue-minimisations  :  7568
 total energy-change (2. order) : 0.3217207E+00  (-0.2301487E+00)
 number of electron     291.0000001 magnetization 
 augmentation part       17.5253582 magnetization 

 Broyden mixing:
  rms(total) = 0.29177E+00    rms(broyden)= 0.29162E+00
  rms(prec ) = 0.39231E+00
  weight for this iteration     100.00

 eigenvalues of (default mixing * dielectric matrix)
  average eigenvalue GAMMA=   1.1208
  1.8241  1.8241  0.4469  0.3881

 Free energy of the ion-electron system (eV)
  ---------------------------------------------------
  alpha Z        PSCENC =      1518.77125255
  Ewald energy   TEWEN  =    -19104.43057866
  -Hartree energ DENC   =     -6430.92060592
  -exchange      EXHF   =         0.00000000
  -V(xc)+E(xc)   XCENC  =      -357.22978879
  PAW double counting   =     33155.53077846   -31505.29430845
  entropy T*S    EENTRO =         0.00209407
  eigenvalues    EBANDS =     -2477.54237535
  atomic energy  EATOM  =     24834.46488499
  Solvation  Ediel_sol  =         0.00000000
  ---------------------------------------------------
  free energy    TOTEN  =      -366.64864710 eV

  energy without entropy =     -366.65074117  energy(sigma->0) =     -366.64934513


--------------------------------------------------------------------------------------------------------




----------------------------------------- Iteration    1(  10)  ---------------------------------------


    POTLOK:  cpu time    0.0297: real time    0.0297
    SETDIJ:  cpu time    0.0036: real time    0.0036
    EDDIAG:  cpu time    0.0782: real time    0.0784
  RMM-DIIS:  cpu time    0.8257: real time    0.8289
    ORTHCH:  cpu time    0.0125: real time    0.0125
       DOS:  cpu time    0.0030: real time    0.0030
    CHARGE:  cpu time    0.0309: real time    0.0310
    MIXING:  cpu time    0.0014: real time    0.0014
    --------------------------------------------
      LOOP:  cpu time    0.9855: real time    1.0251

 eigenvalue-minimisations  :  7485
 total energy-change (2. order) : 0.2577520E-01  (-0.4898744E-01)
 number of electron     291.0000001 magnetization 
 augmentation part       17.4454022 magnetization 

 Broyden mixing:
  rms(total) = 0.15125E+00    rms(broyden)= 0.15119E+00
  rms(prec ) = 0.26513E+00
  weight for this iteration     100.00

 eigenvalues of (default mixing * dielectric matrix)
  average eigenvalue GAMMA=   1.0871
  1.9534  1.9534  0.6897  0.3948  0.4442

 Free energy of the ion-electron system (eV)
  ---------------------------------------------------
  alpha Z        PSCENC =      1518.77125255
  Ewald energy   TEWEN  =    -19104.43057866
  -Hartree energ DENC   =     -6442.46089249
  -exchange      EXHF   =         0.00000000
  -V(xc)+E(xc)   XCENC  =      -356.28152838
  PAW double counting   =     33374.81836813   -31718.01953700
  entropy T*S    EENTRO =        -0.00128189
  eigenvalues    EBANDS =     -2473.48355915
  atomic energy  EATOM  =     24834.46488499
  Solvation  Ediel_sol  =         0.00000000
  ---------------------------------------------------
  free energy    TOTEN  =      -366.62287190 eV

  energy without entropy =     -366.62159001  energy(sigma->0) =     -366.62244460


--------------------------------------------------------------------------------------------------------




----------------------------------------- Iteration    1(  11)  ---------------------------------------


    POTLOK:  cpu time    0.0291: real time    0.0292
    SETDIJ:  cpu time    0.0036: real time    0.0036
    EDDIAG:  cpu time    0.0823: real time    0.0825
  RMM-DIIS:  cpu time    0.7895: real time    0.7919
    ORTHCH:  cpu time    0.0120: real time    0.0121
       DOS:  cpu time    0.0015: real time    0.0015
    CHARGE:  cpu time    0.1196: real time    0.1199
    MIXING:  cpu time    0.0014: real time    0.0014
    --------------------------------------------
      LOOP:  cpu time    1.0396: real time    1.0713

 eigenvalue-minimisations  :  7511
 total energy-change (2. order) : 0.2959295E-01  (-0.1506033E-01)
 number of electron     291.0000001 magnetization 
 augmentation part       17.4139610 magnetization 

 Broyden mixing:
  rms(total) = 0.75908E-01    rms(broyden)= 0.75860E-01
  rms(prec ) = 0.16397E+00
  weight for this iteration     100.00

 eigenvalues of (default mixing * dielectric matrix)
  average eigenvalue GAMMA=   1.0570
  2.1680  1.8851  0.9866  0.5006  0.3831  0.4189

 Free energy of the ion-electron system (eV)
  ---------------------------------------------------
  alpha Z        PSCENC =      1518.77125255
  Ewald energy   TEWEN  =    -19104.43057866
  -Hartree energ DENC   =     -6448.09857347
  -exchange      EXHF   =         0.00000000
  -V(xc)+E(xc)   XCENC  =      -355.82212237
  PAW double counting   =     33548.96720621   -31888.23806398
  entropy T*S    EENTRO =         0.00088084
  eigenvalues    EBANDS =     -2472.20816505
  atomic energy  EATOM  =     24834.46488499
  Solvation  Ediel_sol  =         0.00000000
  ---------------------------------------------------
  free energy    TOTEN  =      -366.59327895 eV

  energy without entropy =     -366.59415978  energy(sigma->0) =     -366.59357256


--------------------------------------------------------------------------------------------------------




----------------------------------------- Iteration    1(  12)  ---------------------------------------


    POTLOK:  cpu time    0.0339: real time    0.0341
    SETDIJ:  cpu time    0.0233: real time    0.0303
    EDDIAG:  cpu time    0.1169: real time    0.1180
  RMM-DIIS:  cpu time    0.7541: real time    0.8516
    ORTHCH:  cpu time    0.0118: real time    0.0118
       DOS:  cpu time    0.0021: real time    0.0021
    CHARGE:  cpu time    0.0503: real time    0.0505
    MIXING:  cpu time    0.0014: real time    0.0014
    --------------------------------------------
      LOOP:  cpu time    0.9947: real time    1.1580

 eigenvalue-minimisations  :  7612
 total energy-change (2. order) : 0.8689036E-02  (-0.5712703E-02)
 number of electron     291.0000001 magnetization 
 augmentation part       17.4123070 magnetization 

 Broyden mixing:
  rms(total) = 0.43071E-01    rms(broyden)= 0.43052E-01
  rms(prec ) = 0.64984E-01
  weight for this iteration     100.00

 eigenvalues of (default mixing * dielectric matrix)
  average eigenvalue GAMMA=   1.0185
  2.2413  1.8591  1.2153  0.5464  0.5464  0.3687  0.3523

 Free energy of the ion-electron system (eV)
  ---------------------------------------------------
  alpha Z        PSCENC =      1518.77125255
  Ewald energy   TEWEN  =    -19104.43057866
  -Hartree energ DENC   =     -6448.73560732
  -exchange      EXHF   =         0.00000000
  -V(xc)+E(xc)   XCENC  =      -355.68771130
  PAW double counting   =     33654.71768890   -31992.30909829
  entropy T*S    EENTRO =        -0.00068838
  eigenvalues    EBANDS =     -2473.37473241
  atomic energy  EATOM  =     24834.46488499
  Solvation  Ediel_sol  =         0.00000000
  ---------------------------------------------------
  free energy    TOTEN  =      -366.58458991 eV

  energy without entropy =     -366.58390154  energy(sigma->0) =     -366.58436045


--------------------------------------------------------------------------------------------------------




----------------------------------------- Iteration    1(  13)  ---------------------------------------


    POTLOK:  cpu time    0.0273: real time    0.0387
    SETDIJ:  cpu time    0.0037: real time    0.0038
    EDDIAG:  cpu time    0.0758: real time    0.0953
  RMM-DIIS:  cpu time    0.7324: real time    0.8189
    ORTHCH:  cpu time    0.0156: real time    0.0158
       DOS:  cpu time    0.0042: real time    0.0046
    CHARGE:  cpu time    0.0507: real time    0.0509
    MIXING:  cpu time    0.0016: real time    0.0016
    --------------------------------------------
      LOOP:  cpu time    0.9119: real time    1.0627

 eigenvalue-minimisations  :  7677
 total energy-change (2. order) : 0.1319017E-02  (-0.1656609E-02)
 number of electron     291.0000001 magnetization 
 augmentation part       17.4140224 magnetization 

 Broyden mixing:
  rms(total) = 0.24405E-01    rms(broyden)= 0.24397E-01
  rms(prec ) = 0.31676E-01
  weight for this iteration     100.00

 eigenvalues of (default mixing * dielectric matrix)
  average eigenvalue GAMMA=   1.0725
  2.3242  1.9695  1.6207  0.8722  0.6152  0.4418  0.3799  0.3565

 Free energy of the ion-electron system (eV)
  ---------------------------------------------------
  alpha Z        PSCENC =      1518.77125255
  Ewald energy   TEWEN  =    -19104.43057866
  -Hartree energ DENC   =     -6449.24511010
  -exchange      EXHF   =         0.00000000
  -V(xc)+E(xc)   XCENC  =      -355.64472376
  PAW double counting   =     33726.76807816   -32063.47709764
  entropy T*S    EENTRO =        -0.00114170
  eigenvalues    EBANDS =     -2473.78883473
  atomic energy  EATOM  =     24834.46488499
  Solvation  Ediel_sol  =         0.00000000
  ---------------------------------------------------
  free energy    TOTEN  =      -366.58327090 eV

  energy without entropy =     -366.58212919  energy(sigma->0) =     -366.58289033


--------------------------------------------------------------------------------------------------------




----------------------------------------- Iteration    1(  14)  ---------------------------------------


    POTLOK:  cpu time    0.0285: real time    0.0286
    SETDIJ:  cpu time    0.0039: real time    0.0039
    EDDIAG:  cpu time    0.1280: real time    0.1283
  RMM-DIIS:  cpu time    0.8960: real time    0.8999
    ORTHCH:  cpu time    0.0117: real time    0.0117
       DOS:  cpu time    0.0011: real time    0.0011
    CHARGE:  cpu time    0.0292: real time    0.0293
    MIXING:  cpu time    0.0017: real time    0.0017
    --------------------------------------------
      LOOP:  cpu time    1.1006: real time    1.1335

 eigenvalue-minimisations  :  7771
 total energy-change (2. order) :-0.1770093E-03  (-0.6695826E-03)
 number of electron     291.0000001 magnetization 
 augmentation part       17.4139032 magnetization 

 Broyden mixing:
  rms(total) = 0.13445E-01    rms(broyden)= 0.13443E-01
  rms(prec ) = 0.21482E-01
  weight for this iteration     100.00

 eigenvalues of (default mixing * dielectric matrix)
  average eigenvalue GAMMA=   1.0726
  2.5123  2.0918  1.6744  1.0262  0.5915  0.5915  0.4290  0.3850  0.3510

 Free energy of the ion-electron system (eV)
  ---------------------------------------------------
  alpha Z        PSCENC =      1518.77125255
  Ewald energy   TEWEN  =    -19104.43057866
  -Hartree energ DENC   =     -6449.56794228
  -exchange      EXHF   =         0.00000000
  -V(xc)+E(xc)   XCENC  =      -355.63800012
  PAW double counting   =     33763.76411510   -32099.93434940
  entropy T*S    EENTRO =        -0.00083722
  eigenvalues    EBANDS =     -2474.01199287
  atomic energy  EATOM  =     24834.46488499
  Solvation  Ediel_sol  =         0.00000000
  ---------------------------------------------------
  free energy    TOTEN  =      -366.58344790 eV

  energy without entropy =     -366.58261069  energy(sigma->0) =     -366.58316883


--------------------------------------------------------------------------------------------------------




----------------------------------------- Iteration    1(  15)  ---------------------------------------


    POTLOK:  cpu time    0.0290: real time    0.0292
    SETDIJ:  cpu time    0.0037: real time    0.0037
    EDDIAG:  cpu time    0.0741: real time    0.0745
  RMM-DIIS:  cpu time    0.7888: real time    0.7930
    ORTHCH:  cpu time    0.0118: real time    0.0118
       DOS:  cpu time    0.0010: real time    0.0010
    CHARGE:  cpu time    0.0296: real time    0.0297
    MIXING:  cpu time    0.0017: real time    0.0017
    --------------------------------------------
      LOOP:  cpu time    0.9403: real time    0.9768

 eigenvalue-minimisations  :  7639
 total energy-change (2. order) :-0.3605875E-04  (-0.2878904E-03)
 number of electron     291.0000001 magnetization 
 augmentation part       17.4119464 magnetization 

 Broyden mixing:
  rms(total) = 0.53716E-02    rms(broyden)= 0.53678E-02
  rms(prec ) = 0.11115E-01
  weight for this iteration     100.00

 eigenvalues of (default mixing * dielectric matrix)
  average eigenvalue GAMMA=   1.0489
  2.5871  2.0604  1.5750  1.2169  0.7308  0.6840  0.3511  0.3806  0.4518  0.4518

 Free energy of the ion-electron system (eV)
  ---------------------------------------------------
  alpha Z        PSCENC =      1518.77125255
  Ewald energy   TEWEN  =    -19104.43057866
  -Hartree energ DENC   =     -6449.89829207
  -exchange      EXHF   =         0.00000000
  -V(xc)+E(xc)   XCENC  =      -355.63069727
  PAW double counting   =     33786.04068564   -32121.82743649
  entropy T*S    EENTRO =        -0.00087210
  eigenvalues    EBANDS =     -2474.07243056
  atomic energy  EATOM  =     24834.46488499
  Solvation  Ediel_sol  =         0.00000000
  ---------------------------------------------------
  free energy    TOTEN  =      -366.58348396 eV

  energy without entropy =     -366.58261187  energy(sigma->0) =     -366.58319326


--------------------------------------------------------------------------------------------------------




----------------------------------------- Iteration    1(  16)  ---------------------------------------


    POTLOK:  cpu time    0.0290: real time    0.0291
    SETDIJ:  cpu time    0.0210: real time    0.0211
    EDDIAG:  cpu time    0.0813: real time    0.0818
  RMM-DIIS:  cpu time    0.7750: real time    0.7799
    ORTHCH:  cpu time    0.0118: real time    0.0118
       DOS:  cpu time    0.0009: real time    0.0009
    CHARGE:  cpu time    0.0296: real time    0.0297
    MIXING:  cpu time    0.0017: real time    0.0017
    --------------------------------------------
      LOOP:  cpu time    0.9509: real time    0.9833

 eigenvalue-minimisations  :  6577
 total energy-change (2. order) :-0.5037033E-04  (-0.1248839E-03)
 number of electron     291.0000001 magnetization 
 augmentation part       17.4114114 magnetization 

 Broyden mixing:
  rms(total) = 0.33544E-02    rms(broyden)= 0.33521E-02
  rms(prec ) = 0.61410E-02
  weight for this iteration     100.00

 eigenvalues of (default mixing * dielectric matrix)
  average eigenvalue GAMMA=   1.0296
  2.6223  2.0613  1.4968  1.4968  0.8233  0.7242  0.4889  0.4889  0.3480  0.3874
  0.3874

 Free energy of the ion-electron system (eV)
  ---------------------------------------------------
  alpha Z        PSCENC =      1518.77125255
  Ewald energy   TEWEN  =    -19104.43057866
  -Hartree energ DENC   =     -6450.05923431
  -exchange      EXHF   =         0.00000000
[...]
     98       5.4011      2.00000
     99       5.4431      2.00000
    100       5.4770      2.00000
    101       5.5520      2.00000
    102       5.5778      2.00000
    103       5.6733      2.00000
    104       5.7150      2.00000
    105       5.7829      2.00000
    106       6.0036      2.00000
    107       6.0550      2.00000
    108       6.0754      2.00000
    109       6.1189      2.00000
    110       6.1316      2.00000
    111       6.1945      2.00000
    112       6.1989      2.00000
    113       6.2169      2.00000
    114       6.2554      2.00000
    115       6.2956      2.00000
    116       6.3314      2.00000
    117       6.3631      2.00000
    118       6.3808      2.00000
    119       6.4200      2.00000
    120       6.4372      2.00000
    121       6.4761      2.00000
    122       6.5325      2.00000
    123       6.5898      2.00000
    124       6.6217      2.00000
    125       6.6696      2.00000
    126       6.7134      2.00000
    127       6.7537      2.00000
    128       6.7937      2.00000
    129       6.8227      2.00000
    130       6.8896      2.00000
    131       6.9012      2.00000
    132       6.9251      2.00000
    133       6.9496      2.00001
    134       7.0164      2.00014
    135       7.0203      2.00016
    136       7.0406      2.00034
    137       7.1187      2.00407
    138       7.1489      2.00894
    139       7.1988      2.02620
    140       7.2378      2.04839
    141       7.2615      2.06219
    142       7.3162      2.05957
    143       7.3380      2.02537
    144       7.3649      1.93873
    145       7.3907      1.79876
    146       7.4122      1.63725
    147       7.4853      0.87470
    148       7.5011      0.70136
    149       7.5300      0.41544
    150       7.6011     -0.00190
    151       7.6413     -0.06658
    152       7.6648     -0.07030
    153       7.6937     -0.05847
    154       7.7255     -0.03925
    155       7.7395     -0.03131
    156       7.8119     -0.00654
    157       7.8751     -0.00103
    158       7.8789     -0.00091
    159       7.9113     -0.00030
    160       7.9434     -0.00009
    161       7.9922     -0.00001
    162       8.0378     -0.00000
    163       8.0911     -0.00000
    164       8.1660     -0.00000
    165       8.1985     -0.00000
    166       8.2592     -0.00000
    167       8.2947     -0.00000
    168       8.3762     -0.00000
    169       8.5609     -0.00000
    170       8.8240     -0.00000
    171       8.8504     -0.00000
    172       9.2897     -0.00000
    173       9.3933     -0.00000
    174       9.4933     -0.00000
    175       9.5143     -0.00000
    176       9.5750     -0.00000


--------------------------------------------------------------------------------------------------------


 soft charge-density along one line, spin component           1
         0         1         2         3         4         5         6         7         8         9
 total charge-density along one line
 
 pseudopotential strength for first ion, spin component:           1
 -6.405   0.000   0.000  -0.004  -0.000  -7.610   0.000   0.000
  0.000  -6.401  -0.000  -0.000   0.001   0.000  -7.604  -0.001
  0.000  -0.000  -6.408   0.000   0.004   0.000  -0.001  -7.613
 -0.004  -0.000   0.000  -6.407  -0.000  -0.004  -0.000  -0.000
 -0.000   0.001   0.004  -0.000  -6.408  -0.000   0.001   0.006
 -7.610   0.000   0.000  -0.004  -0.000  -9.018   0.000   0.000
  0.000  -7.604  -0.001  -0.000   0.001   0.000  -9.011  -0.001
  0.000  -0.001  -7.613  -0.000   0.006   0.000  -0.001  -9.022
 -0.004  -0.000  -0.000  -7.612  -0.000  -0.005  -0.000  -0.000
 -0.000   0.001   0.006  -0.000  -7.613  -0.000   0.002   0.007
 -0.000   0.001  -0.001   0.000   0.003  -0.000   0.002  -0.001
 -0.000   0.002  -0.001   0.000   0.005  -0.000   0.003  -0.002
 -0.001  -0.003  -0.001  -0.000  -0.001  -0.001  -0.004  -0.001
 -0.000   0.000  -0.002  -0.001   0.000  -0.001   0.000  -0.002
  0.000  -0.000   0.000  -0.003  -0.001   0.000  -0.001   0.001
  0.001   0.004   0.002   0.001   0.003   0.002   0.005   0.002
  0.001  -0.001   0.002   0.001  -0.000   0.001  -0.001   0.002
 -0.001   0.001  -0.001   0.004   0.001  -0.001   0.001  -0.001
 total augmentation occupancy for first ion, spin component:           1
  4.728  -0.004   0.022  -0.263  -0.017  -2.454   0.003  -0.013   0.139   0.008  -0.011   0.001   0.000   0.003   0.054   0.001
 -0.004   4.988  -0.045   0.001   0.081   0.003  -2.611   0.040   0.000  -0.071  -0.171   0.039   0.023   0.084   0.002   0.003
  0.022  -0.045   4.715  -0.010   0.168  -0.013   0.039  -2.554   0.007  -0.101   0.041  -0.008   0.012   0.011   0.002   0.000
 -0.263   0.001  -0.010   4.739  -0.032   0.140   0.000   0.007  -2.439   0.019  -0.016   0.002  -0.002   0.007   0.021   0.000
 -0.017   0.081   0.168  -0.032   4.707   0.008  -0.070  -0.101   0.019  -2.548  -0.178   0.055   0.012   0.000  -0.000  -0.000
 -2.454   0.003  -0.013   0.140   0.008   1.295  -0.001   0.008  -0.074  -0.004   0.007  -0.001   0.000  -0.001  -0.031  -0.000
  0.003  -2.611   0.039   0.000  -0.070  -0.001   1.389  -0.030  -0.001   0.053   0.106  -0.022  -0.014  -0.047  -0.001  -0.002
 -0.013   0.040  -2.554   0.007  -0.101   0.008  -0.030   1.399  -0.004   0.061  -0.023   0.004  -0.006  -0.002  -0.001  -0.000
  0.139   0.000   0.007  -2.439   0.019  -0.074  -0.001  -0.004   1.276  -0.011   0.009  -0.001   0.001  -0.003  -0.013  -0.000
  0.008  -0.071  -0.101   0.019  -2.548  -0.004   0.053   0.061  -0.011   1.395   0.112  -0.031  -0.003  -0.000   0.000   0.000
 -0.011  -0.171   0.041  -0.016  -0.178   0.007   0.106  -0.023   0.009   0.112   2.230  -0.245   0.000   0.009   0.001   0.000
  0.001   0.039  -0.008   0.002   0.055  -0.001  -0.022   0.004  -0.001  -0.031  -0.245   0.029  -0.001   0.000   0.000   0.000
  0.000   0.023   0.012  -0.002   0.012   0.000  -0.014  -0.006   0.001  -0.003   0.000  -0.001   0.335  -0.013  -0.002   0.009
  0.003   0.084   0.011   0.007   0.000  -0.001  -0.047  -0.002  -0.003  -0.000   0.009   0.000  -0.013   0.312   0.000  -0.000
  0.054   0.002   0.002   0.021  -0.000  -0.031  -0.001  -0.001  -0.013   0.000   0.001   0.000  -0.002   0.000   0.296  -0.000
  0.001   0.003   0.000   0.000  -0.000  -0.000  -0.002  -0.000  -0.000   0.000   0.000   0.000   0.009  -0.000  -0.000   0.000
  0.000   0.002   0.001   0.001   0.000  -0.000  -0.001  -0.000  -0.000  -0.000   0.001  -0.000  -0.000   0.008   0.000   0.000
  0.001   0.000  -0.000   0.003   0.000  -0.001  -0.000   0.000  -0.002  -0.000   0.000  -0.000  -0.000   0.000   0.008   0.000


------------------------ aborting loop because EDIFF is reached ----------------------------------------


    CHARGE:  cpu time    0.0283: real time    0.0285
    FORLOC:  cpu time    0.0133: real time    0.0134
    FORNL :  cpu time    0.3131: real time    0.3148
    STRESS:  cpu time    0.9694: real time    0.9746
    FORCOR:  cpu time    0.0444: real time    0.0445
    FORHAR:  cpu time    0.0187: real time    0.0187
    MIXING:  cpu time    0.0013: real time    0.0013
    OFIELD:  cpu time    0.0000: real time    0.0000

  FORCE on cell =-STRESS in cart. coord.  units (eV):
  Direction    XX          YY          ZZ          XY          YZ          ZX
  --------------------------------------------------------------------------------------
  Alpha Z  1518.09505  1518.09505  1518.09505
  Ewald   -6087.81937 -6480.44598 -6523.03552   -73.02457  -103.31097   -60.25490
  Hartree  2419.99885  2021.69402  2019.93727   -61.67642  -101.97783   -53.08967
  E(xc)   -1271.19994 -1271.55442 -1272.03549     0.23471    -0.49934    -0.12155
  Local   -1360.55256  -569.18764  -523.46303   134.59294   206.56639   112.58582
  n-local  -292.14210  -294.97683  -292.75136    -0.31233    -0.92160    -0.54224
  augment   210.67473   210.76847   210.40705     0.09406    -0.07736     0.08003
  Kinetic  4862.82333  4865.51136  4862.75326     0.12061     0.25761     1.37859
  Fock        0.00000     0.00000     0.00000     0.00000     0.00000     0.00000
  -------------------------------------------------------------------------------------
  Total      -0.12200    -0.09598    -0.09277     0.02899     0.03690     0.03608
  in kB      -0.27078    -0.21301    -0.20590     0.06435     0.08189     0.08007
  external pressure =       -0.23 kB  Pullay stress =        0.00 kB


 VOLUME and BASIS-vectors are now :
 -----------------------------------------------------------------------------
  energy-cutoff  :      300.00
  volume of cell :      721.87
      direct lattice vectors                 reciprocal lattice vectors
     6.884431134  0.005884562 -0.004876917     0.145255464 -0.000128643  0.000099255
     0.009070592 10.253226871  0.014596520    -0.000083462  0.097530538 -0.000135710
    -0.006975429  0.014224072 10.226675618     0.000069389 -0.000139267  0.097783728

  length of vectors
     6.884435377 10.253241273 10.226687889     0.145255555  0.097530669  0.097783852


 FORCES acting on ions
    electron-ion (+dipol)            ewald-force                    non-local-force                 convergence-correction
 -----------------------------------------------------------------------------------------------
   -.759E+01 -.973E+02 -.266E+02   0.766E+01 0.975E+02 0.269E+02   -.668E-01 -.158E+00 -.276E+00   0.947E-03 -.647E-02 -.210E-02
   0.171E+02 -.986E+02 -.106E+03   -.163E+02 0.980E+02 0.106E+03   -.860E+00 0.592E+00 -.217E-01   0.205E-02 -.508E-02 -.838E-02
   0.251E+01 -.386E+02 0.493E+02   -.220E+01 0.390E+02 -.490E+02   -.304E+00 -.423E+00 -.308E+00   0.578E-03 -.457E-02 0.538E-02
   -.667E+02 0.473E+02 0.507E+02   0.662E+02 -.482E+02 -.510E+02   0.451E+00 0.886E+00 0.247E+00   0.648E-03 -.139E-02 0.973E-02
   -.287E+02 0.117E+03 0.525E+02   0.289E+02 -.116E+03 -.518E+02   -.140E+00 -.752E+00 -.709E+00   0.984E-03 0.601E-02 -.562E-02
   -.202E+02 -.994E+02 -.816E+02   0.192E+02 0.988E+02 0.816E+02   0.901E+00 0.588E+00 0.652E-02   -.254E-02 -.494E-02 -.804E-02
   0.626E+02 0.404E+02 0.931E+02   -.622E+02 -.408E+02 -.938E+02   -.406E+00 0.415E+00 0.711E+00   -.161E-03 -.131E-02 0.897E-02
   0.305E+02 0.128E+03 0.633E+02   -.307E+02 -.127E+03 -.625E+02   0.183E+00 -.625E+00 -.782E+00   -.975E-03 0.485E-02 -.540E-02
   -.657E+02 0.352E+02 0.187E+02   0.655E+02 -.345E+02 -.187E+02   0.158E+00 -.720E+00 -.390E-01   0.120E-02 0.284E-02 0.900E-02
   -.625E+02 0.556E+02 -.818E+02   0.621E+02 -.563E+02 0.811E+02   0.359E+00 0.687E+00 0.655E+00   0.186E-02 0.292E-02 -.115E-02
   -.336E+01 -.592E+02 0.216E+02   0.310E+01 0.596E+02 -.213E+02   0.259E+00 -.385E+00 -.344E+00   -.612E-03 -.452E-02 0.547E-02
   -.364E+02 -.771E+02 0.124E+02   0.365E+02 0.773E+02 -.132E+02   -.162E+00 -.220E+00 0.830E+00   0.312E-03 -.135E-02 0.490E-02
   -.321E+02 -.799E+01 -.530E+02   0.320E+02 0.801E+01 0.532E+02   0.135E+00 -.285E-01 -.176E+00   0.649E-03 0.244E-02 -.526E-02
   -.187E+02 0.482E+02 -.483E+02   0.190E+02 -.477E+02 0.483E+02   -.305E+00 -.515E+00 -.602E-01   -.878E-03 0.529E-02 -.833E-02
   0.556E+02 -.117E+02 0.202E+02   -.558E+02 0.115E+02 -.203E+02   0.176E+00 0.242E+00 0.111E+00   -.497E-02 -.181E-02 0.408E-02
   0.592E+01 -.102E+03 -.239E+01   -.598E+01 0.103E+03 0.247E+01   0.575E-01 -.269E+00 -.848E-01   -.732E-03 -.359E-02 -.101E-02
   0.476E+02 -.508E+02 0.436E+02   -.477E+02 0.507E+02 -.440E+02   0.400E-01 0.852E-01 0.327E+00   -.353E-02 -.719E-05 0.205E-02
   0.178E+02 -.441E+01 -.228E+01   -.180E+02 0.350E+01 0.278E+01   0.158E+00 0.910E+00 -.499E+00   -.949E-04 -.110E-03 -.315E-02
   0.174E+02 0.480E+02 -.565E+02   -.178E+02 -.476E+02 0.567E+02   0.354E+00 -.426E+00 -.156E+00   0.765E-03 0.535E-02 -.853E-02
   -.844E+01 0.587E+02 0.519E+02   0.823E+01 -.588E+02 -.519E+02   0.214E+00 0.107E+00 0.436E-02   0.843E-03 0.252E-02 0.335E-02
   -.155E+03 -.171E+02 0.604E+02   0.155E+03 0.168E+02 -.604E+02   -.130E+00 0.318E+00 -.723E-01   0.170E-01 -.369E-02 0.150E-01
   -.553E+02 0.111E+03 -.223E+03   0.554E+02 -.111E+03 0.223E+03   -.125E+00 0.120E+00 -.688E-01   0.134E-01 -.491E-02 -.179E-01
   -.115E+03 -.194E+03 0.136E+03   0.115E+03 0.194E+03 -.136E+03   0.129E+00 -.123E-01 0.347E+00   0.105E-01 -.345E-02 0.717E-02
   -.180E+01 0.179E+03 0.184E+03   0.213E+01 -.179E+03 -.184E+03   -.332E+00 0.851E-01 -.738E-01   -.173E-02 0.773E-02 0.104E-01
   0.532E+02 0.123E+03 -.149E+03   -.534E+02 -.123E+03 0.149E+03   0.154E+00 0.519E-01 -.158E+00   -.131E-01 -.645E-02 -.158E-01
   0.870E+02 0.320E+02 -.248E+03   -.868E+02 -.320E+02 0.248E+03   -.210E+00 -.776E-01 -.586E+00   -.322E-02 0.118E-01 -.148E-01
   0.164E+03 0.189E+03 0.501E+02   -.164E+03 -.188E+03 -.502E+02   0.435E+00 -.389E+00 0.715E-01   -.477E-02 0.533E-02 0.216E-01
   0.141E+03 0.153E+03 0.124E+03   -.141E+03 -.152E+03 -.125E+03   -.316E+00 -.277E+00 0.441E+00   -.203E-02 0.469E-02 0.183E-01
   -.147E+03 -.183E+03 0.331E+01   0.147E+03 0.185E+03 -.253E+01   -.861E-01 -.124E+01 -.760E+00   -.238E-02 -.716E-02 -.165E-01
   -.130E+03 -.922E+02 0.175E+03   0.131E+03 0.915E+02 -.175E+03   -.354E+00 0.629E+00 0.233E+00   0.714E-02 0.260E-02 0.522E-03
   -.709E+02 -.403E+02 0.260E+02   0.712E+02 0.391E+02 -.262E+02   -.298E+00 0.123E+01 0.147E+00   0.434E-03 -.938E-03 -.857E-02
   -.191E+03 0.224E+03 0.145E+02   0.192E+03 -.224E+03 -.144E+02   -.479E+00 -.511E+00 -.107E+00   0.952E-02 0.469E-02 0.219E-01
   0.134E+03 -.197E+03 -.103E+03   -.134E+03 0.198E+03 0.104E+03   -.660E-03 -.114E+01 -.121E+01   0.149E-02 -.171E-01 -.846E-02
   0.134E+03 -.296E+02 0.116E+03   -.134E+03 0.292E+02 -.116E+03   0.387E+00 0.451E+00 0.368E+00   -.524E-02 0.424E-02 0.103E-02
   0.127E+03 -.309E+03 0.876E+02   -.127E+03 0.310E+03 -.888E+02   0.291E+00 -.426E+00 0.119E+01   0.154E-02 -.133E-01 0.658E-02
   0.120E+03 0.121E+03 -.272E+03   -.119E+03 -.122E+03 0.271E+03   -.738E+00 0.921E+00 0.752E+00   -.186E-03 -.864E-02 0.199E-02
 -----------------------------------------------------------------------------------------------
   0.450E+00 0.296E+00 0.202E-01   -.426E-13 -.284E-13 0.000E+00   -.474E+00 -.269E+00 -.426E-01   0.248E-01 -.275E-01 0.183E-01
 
 
 POSITION                                       TOTAL-FORCE (eV/Angst)
 -----------------------------------------------------------------------------------
      1.74200      1.70080      5.20077         0.000800      0.008039      0.005335
      0.12980      3.34997      3.47045        -0.001077     -0.004283      0.001018
      0.04534      3.47901      6.81514         0.003896      0.000818     -0.002821
      1.60670      4.98710      8.53609        -0.003347      0.001448      0.000771
      1.75707      8.82627      5.29776        -0.001065     -0.004125      0.000463
      3.30772      3.33057      3.42548        -0.002768     -0.005914      0.001571
      5.27485      5.07032      8.35930         0.003329     -0.003280      0.003343
      5.15895      8.71803      5.28898        -0.000033      0.005515     -0.001472
      1.67977      8.66999      8.54749         0.000953      0.001548     -0.004177
      1.64123      8.35882      1.47489         0.002510      0.002636      0.004745
      3.39420      3.52338      6.87170        -0.003562      0.002551     -0.003538
      1.74170      1.70119      8.40262        -0.000107      0.004251      0.001188
      1.69681      5.16598      1.69836         0.000102     -0.003433      0.002253
      0.10087      6.97684      3.54424        -0.003590     -0.000241      0.000007
      3.46931      0.03730      0.10863        -0.000146     -0.001072      0.000589
      5.14293      1.73276      5.16639        -0.001286      0.002832     -0.001660
      3.49981      3.36550     10.20539         0.001395      0.003528     -0.000916
      5.12714      5.03005      5.09648        -0.001526     -0.003977     -0.002104
      3.37368      7.03157      3.50430         0.001242     -0.000304      0.005676
      3.36742      6.80137      6.80478         0.002970     -0.000094      0.001634
      6.81350      0.06540      0.08602         0.003931     -0.003192      0.001022
      0.02113     10.22572      3.37262         0.003271     -0.001373      0.002857
      6.79399      3.31743      0.00759        -0.000900     -0.000367     -0.001037
      0.10511      6.81923      6.73768        -0.002262      0.007315     -0.003834
      3.43949     10.22836      3.33778        -0.004575     -0.002961      0.004725
      5.18062      5.17548      1.79035        -0.000934     -0.004139     -0.004869
      3.42867      6.80993     10.06911        -0.000861     -0.000492     -0.002774
      5.21439      8.56933      8.45426        -0.000210      0.002597     -0.000793
      1.70029      1.83812      1.82285        -0.000344      0.000267      0.001498
      0.01255      0.01230      6.82889         0.001981     -0.000294      0.001358
      1.78394      4.97734      5.05838        -0.002590     -0.002369     -0.001737
      0.01025      6.83089     10.12805         0.003789     -0.001173     -0.005217
      5.16409      1.87347      1.97602        -0.000112     -0.004818      0.000017
      3.44867     10.25004      6.85236         0.001721      0.000948      0.000300
      5.11557      1.73643      8.32610        -0.001311      0.003833     -0.001766
      5.25676      8.31911      1.59996         0.000716     -0.000223     -0.001656
 -----------------------------------------------------------------------------------
    total drift:                                0.001029     -0.000832     -0.004113


--------------------------------------------------------------------------------------------------------



  FREE ENERGIE OF THE ION-ELECTRON SYSTEM (eV)
  ---------------------------------------------------
  free  energy   TOTEN  =      -366.59458630 eV

  energy  without entropy=     -366.59138619  energy(sigma->0) =     -366.59351960
 
 d Force = 0.7552604E-04[ 0.508E-04, 0.100E-03]  d Energy = 0.1239476E-03-0.484E-04
 d Force = 0.1142260E+00[ 0.114E+00, 0.115E+00]  d Ewald  = 0.2025204E+01-0.191E+01


--------------------------------------------------------------------------------------------------------


    POTLOK:  cpu time    0.0347: real time    0.0349


--------------------------------------------------------------------------------------------------------


 Conjugate gradient step on ions:
 trial-energy change:   -0.000124  1 .order   -0.000130   -0.000180   -0.000080
  (g-gl).g = 0.101E-03      g.g   = 0.105E-03  gl.gl    = 0.746E-04
 g(Force)  = 0.254E-04   g(Stress)= 0.795E-04 ortho     = 0.504E-05
 gamma     =   1.35327
 trial     =   1.61024
 opt step  =   2.90211  (harmonic =   2.90211) maximal distance =0.00229082
 next E    =  -366.594624   (d E  =  -0.00016)


--------------------------------------------------------------------------------------------------------


  
 reached required accuracy - stopping structural energy minimisation
     LOOP+:  cpu time    5.8393: real time    6.5362
    4ORBIT:  cpu time    0.0000: real time    0.0000

 total amount of memory used by VASP on root node    67161. kBytes
========================================================================

   base      :      30000. kBytes
   nonlr-proj:      10571. kBytes
   fftplans  :       2814. kBytes
   grid      :       5360. kBytes
   one-center:        124. kBytes
   wavefun   :      18292. kBytes
 
  
  
 General timing and accounting informations for this job:
 ========================================================
  
                  Total CPU time used (sec):      160.231
                            User time (sec):      159.403
                          System time (sec):        0.828
                         Elapsed time (sec):      179.406
  
                   Maximum memory used (kb):      269384.
                   Average memory used (kb):           0.
  
                          Minor page faults:       122020
                          Major page faults:           34
                 Voluntary context switches:         7081
