<?xml version="1.0" encoding="ISO-8859-1"?>
<modeling>
 <generator>
  <i name="program" type="string">vasp </i>
  <i name="version" type="string">5.4.1  </i>
  <i name="subversion" type="string">05Feb16 (build Jan 29 2020 16:04:39) complex                          parallel </i>
  <i name="platform" type="string">IFC91_ompi </i>
  <i name="date" type="string">2020 06 15 </i>
  <i name="time" type="string">02:56:31 </i>
 </generator>
 <incar>
  <i type="string" name="SYSTEM"> automatically generated by mexm</i>
  <i type="int" name="ISTART">     0</i>
  <i type="string" name="PREC">accurate               ! avoid wrap aro</i>
  <i type="string" name="ALGO"> Fast                   ! blocked Davids</i>
  <i type="int" name="ISPIN">     1</i>
  <i type="int" name="ICHARG">     2</i>
  <i type="int" name="NELM">    70</i>
  <i type="int" name="IBRION">     2</i>
  <i name="EDIFF">      0.00001000</i>
  <i name="EDIFFG">     -0.01000000</i>
  <i type="int" name="NSW">   300</i>
  <i type="int" name="ISIF">     3</i>
  <i type="int" name="ISYM">     1</i>
  <i name="ENCUT">    300.00000000</i>
  <i name="POTIM">      0.15000000</i>
  <i type="string" name="LREAL"> Auto                  ! unpublished met</i>
  <i type="int" name="ISMEAR">     1</i>
  <i name="SIGMA">      0.15000000</i>
  <i type="logical" name="LWAVE"> F  </i>
  <i type="logical" name="LCHARG"> F  </i>
  <i type="logical" name="LVTOT"> F  </i>
  <v type="int" name="KPOINT_BSE">    -1     0     0     0</v>
  <i type="int" name="NELM">    70</i>
 </incar>
 <kpoints>
  <generation param="Gamma">
   <v type="int" name="divisions">       3        3        3 </v>
   <v name="usershift">      0.00000000       0.00000000       0.00000000 </v>
   <v name="genvec1">      0.33333333       0.00000000      -0.00000000 </v>
   <v name="genvec2">     -0.00000000       0.33333333       0.00000000 </v>
   <v name="genvec3">     -0.00000000       0.00000000       0.33333333 </v>
   <v name="shift">      0.00000000       0.00000000       0.00000000 </v>
  </generation>
  <varray name="kpointlist" >
   <v>       0.00000000       0.00000000       0.00000000 </v>
   <v>       0.33333333       0.00000000      -0.00000000 </v>
   <v>      -0.00000000       0.33333333      -0.00000000 </v>
   <v>       0.33333333       0.33333333      -0.00000000 </v>
   <v>      -0.33333333       0.33333333       0.00000000 </v>
   <v>      -0.00000000       0.00000000       0.33333333 </v>
   <v>       0.33333333       0.00000000       0.33333333 </v>
   <v>      -0.33333333      -0.00000000       0.33333333 </v>
   <v>      -0.00000000       0.33333333       0.33333333 </v>
   <v>       0.33333333       0.33333333       0.33333333 </v>
   <v>      -0.33333333       0.33333333       0.33333333 </v>
   <v>      -0.00000000      -0.33333333       0.33333333 </v>
   <v>       0.33333333      -0.33333333       0.33333333 </v>
   <v>      -0.33333333      -0.33333333       0.33333333 </v>
  </varray>
  <varray name="weights" >
   <v>       0.03703704 </v>
   <v>       0.07407407 </v>
   <v>       0.07407407 </v>
   <v>       0.07407407 </v>
   <v>       0.07407407 </v>
   <v>       0.07407407 </v>
   <v>       0.07407407 </v>
   <v>       0.07407407 </v>
   <v>       0.07407407 </v>
   <v>       0.07407407 </v>
   <v>       0.07407407 </v>
   <v>       0.07407407 </v>
   <v>       0.07407407 </v>
   <v>       0.07407407 </v>
  </varray>
 </kpoints>
 <parameters>
  <separator name="general" >
   <i type="string" name="SYSTEM">automatically generated by mexm</i>
   <i type="logical" name="LCOMPAT"> F  </i>
  </separator>
  <separator name="electronic" >
   <i type="string" name="PREC">accura</i>
   <i name="ENMAX">    300.00000000</i>
   <i name="ENAUG">    461.25700000</i>
   <i name="EDIFF">      0.00001000</i>
   <i type="int" name="IALGO">    68</i>
   <i type="int" name="IWAVPR">    11</i>
   <i type="int" name="NBANDS">   176</i>
   <i name="NELECT">    291.00000000</i>
   <i type="int" name="TURBO">     0</i>
   <i type="int" name="IRESTART">     0</i>
   <i type="int" name="NREBOOT">     0</i>
   <i type="int" name="NMIN">     0</i>
   <i name="EREF">      0.00000000</i>
   <separator name="electronic smearing" >
    <i type="int" name="ISMEAR">     1</i>
    <i name="SIGMA">      0.15000000</i>
    <i name="KSPACING">      0.50000000</i>
    <i type="logical" name="KGAMMA"> T  </i>
   </separator>
   <separator name="electronic projectors" >
    <i type="logical" name="LREAL"> T  </i>
    <v name="ROPT">     -0.00025000     -0.00025000     -0.00025000     -0.00025000</v>
    <i type="int" name="LMAXPAW">  -100</i>
    <i type="int" name="LMAXMIX">     2</i>
    <i type="logical" name="NLSPLINE"> F  </i>
   </separator>
   <separator name="electronic startup" >
    <i type="int" name="ISTART">     0</i>
    <i type="int" name="ICHARG">     2</i>
    <i type="int" name="INIWAV">     1</i>
   </separator>
   <separator name="electronic spin" >
    <i type="int" name="ISPIN">     1</i>
    <i type="logical" name="LNONCOLLINEAR"> F  </i>
    <v name="MAGMOM">      1.00000000      1.00000000      1.00000000      1.00000000      1.00000000      1.00000000      1.00000000      1.00000000      1.00000000      1.00000000      1.00000000      1.00000000      1.00000000      1.00000000      1.00000000      1.00000000      1.00000000      1.00000000      1.00000000      1.00000000
      1.00000000      1.00000000      1.00000000      1.00000000      1.00000000      1.00000000      1.00000000      1.00000000      1.00000000      1.00000000      1.00000000      1.00000000      1.00000000      1.00000000      1.00000000      1.00000000</v>
    <i name="NUPDOWN">     -1.00000000</i>
    <i type="logical" name="LSORBIT"> F  </i>
    <v name="SAXIS">      0.00000000      0.00000000      1.00000000</v>
    <i type="logical" name="LSPIRAL"> F  </i>
    <v name="QSPIRAL">      0.00000000      0.00000000      0.00000000</v>
    <i type="logical" name="LZEROZ"> F  </i>
   </separator>
   <separator name="electronic exchange-correlation" >
    <i type="logical" name="LASPH"> F  </i>
    <i type="logical" name="LMETAGGA"> F  </i>
   </separator>
   <separator name="electronic convergence" >
    <i type="int" name="NELM">    70</i>
    <i type="int" name="NELMDL">    -5</i>
    <i type="int" name="NELMIN">     2</i>
    <i name="ENINI">    300.00000000</i>
    <separator name="electronic convergence detail" >
     <i type="logical" name="LDIAG"> T  </i>
     <i type="logical" name="LSUBROT"> F  </i>
     <i name="WEIMIN">      0.00100000</i>
     <i name="EBREAK">      0.00000001</i>
     <i name="DEPER">      0.30000000</i>
     <i type="int" name="NRMM">     4</i>
     <i name="TIME">      0.40000000</i>
    </separator>
   </separator>
   <separator name="electronic mixer" >
    <i name="AMIX">      0.40000000</i>
    <i name="BMIX">      1.00000000</i>
    <i name="AMIN">      0.10000000</i>
    <i name="AMIX_MAG">      1.60000000</i>
    <i name="BMIX_MAG">      1.00000000</i>
    <separator name="electronic mixer details" >
     <i type="int" name="IMIX">     4</i>
     <i type="logical" name="MIXFIRST"> F  </i>
     <i type="int" name="MAXMIX">   -45</i>
     <i name="WC">    100.00000000</i>
     <i type="int" name="INIMIX">     1</i>
     <i type="int" name="MIXPRE">     1</i>
     <i type="int" name="MREMOVE">     5</i>
    </separator>
   </separator>
   <separator name="electronic dipolcorrection" >
    <i type="logical" name="LDIPOL"> F  </i>
    <i type="logical" name="LMONO"> F  </i>
    <i type="int" name="IDIPOL">     0</i>
    <i name="EPSILON">      1.00000000</i>
    <v name="DIPOL">   -100.00000000   -100.00000000   -100.00000000</v>
    <i name="EFIELD">      0.00000000</i>
   </separator>
  </separator>
  <separator name="grids" >
   <i type="int" name="NGX">    40</i>
   <i type="int" name="NGY">    60</i>
   <i type="int" name="NGZ">    60</i>
   <i type="int" name="NGXF">    80</i>
   <i type="int" name="NGYF">   120</i>
   <i type="int" name="NGZF">   120</i>
   <i type="logical" name="ADDGRID"> F  </i>
  </separator>
  <separator name="ionic" >
   <i type="int" name="NSW">   300</i>
   <i type="int" name="IBRION">     2</i>
   <i type="int" name="ISIF">     3</i>
   <i name="PSTRESS">      0.00000000</i>
   <i name="EDIFFG">     -0.01000000</i>
   <i type="int" name="NFREE">     1</i>
   <i name="POTIM">      0.15000000</i>
   <i name="SMASS">     -3.00000000</i>
   <i name="SCALEE">      1.00000000</i>
  </separator>
  <separator name="ionic md" >
   <i name="TEBEG">      0.00010000</i>
   <i name="TEEND">      0.00010000</i>
   <i type="int" name="NBLOCK">     1</i>
   <i type="int" name="KBLOCK">   300</i>
   <i type="int" name="NPACO">   256</i>
   <i name="APACO">     16.00000000</i>
  </separator>
  <separator name="symmetry" >
   <i type="int" name="ISYM">     1</i>
   <i name="SYMPREC">      0.00001000</i>
  </separator>
  <separator name="dos" >
   <i type="logical" name="LORBIT"> F  </i>
   <v name="RWIGS">     -1.00000000     -1.00000000     -1.00000000     -1.00000000</v>
   <i type="int" name="NEDOS">   301</i>
   <i name="EMIN">     10.00000000</i>
   <i name="EMAX">    -10.00000000</i>
   <i name="EFERMI">      0.00000000</i>
  </separator>
  <separator name="writing" >
   <i type="int" name="NWRITE">     2</i>
   <i type="logical" name="LWAVE"> F  </i>
   <i type="logical" name="LCHARG"> F  </i>
   <i type="logical" name="LPARD"> F  </i>
   <i type="logical" name="LVTOT"> F  </i>
   <i type="logical" name="LVHAR"> F  </i>
   <i type="logical" name="LELF"> F  </i>
   <i type="logical" name="LOPTICS"> F  </i>
   <v name="STM">      0.00000000      0.00000000      0.00000000      0.00000000      0.00000000      0.00000000      0.00000000</v>
  </separator>
  <separator name="performance" >
   <i type="int" name="NPAR">     4</i>
   <i type="int" name="NSIM">     4</i>
   <i type="int" name="NBLK">    -1</i>
   <i type="logical" name="LPLANE"> T  </i>
   <i type="logical" name="LSCALAPACK"> T  </i>
   <i type="logical" name="LSCAAWARE"> F  </i>
   <i type="logical" name="LSCALU"> F  </i>
   <i type="logical" name="LASYNC"> F  </i>
   <i type="logical" name="LORBITALREAL"> F  </i>
  </separator>
  <separator name="miscellaneous" >
   <i type="int" name="IDIOT">     3</i>
   <i type="logical" name="LMUSIC"> F  </i>
   <v name="POMASS">    180.94800000    178.49000000     91.22400000     92.91000000</v>
   <v name="DARWINR">      0.00000000      0.00000000      0.00000000      0.00000000</v>
   <v name="DARWINV">      1.00000000      1.00000000      1.00000000      1.00000000</v>
   <i type="logical" name="LCORR"> T  </i>
  </separator>
  <i type="logical" name="GGA_COMPAT"> T  </i>
  <i type="logical" name="LBERRY"> F  </i>
  <i type="int" name="ICORELEVEL">     0</i>
  <i type="logical" name="LDAU"> F  </i>
  <i type="int" name="I_CONSTRAINED_M">     0</i>
  <separator name="electronic exchange-correlation" >
   <i type="string" name="GGA">--</i>
   <i type="int" name="VOSKOWN">     0</i>
   <i type="logical" name="LHFCALC"> F  </i>
   <i type="string" name="PRECFOCK"></i>
   <i type="logical" name="LSYMGRAD"> F  </i>
   <i type="logical" name="LHFONE"> F  </i>
   <i type="logical" name="LRHFCALC"> F  </i>
   <i type="logical" name="LTHOMAS"> F  </i>
   <i type="logical" name="LMODELHF"> F  </i>
   <i name="ENCUT4O">     -1.00000000</i>
   <i type="int" name="EXXOEP">     0</i>
   <i type="int" name="FOURORBIT">     0</i>
   <i name="AEXX">      0.00000000</i>
   <i name="HFALPHA">      0.00000000</i>
   <i name="MCALPHA">      0.00000000</i>
   <i name="ALDAX">      1.00000000</i>
   <i name="AGGAX">      1.00000000</i>
   <i name="ALDAC">      1.00000000</i>
   <i name="AGGAC">      1.00000000</i>
   <i type="int" name="NKREDX">     1</i>
   <i type="int" name="NKREDY">     1</i>
   <i type="int" name="NKREDZ">     1</i>
   <i type="logical" name="SHIFTRED"> F  </i>
   <i type="logical" name="ODDONLY"> F  </i>
   <i type="logical" name="EVENONLY"> F  </i>
   <i type="int" name="LMAXFOCK">     0</i>
   <i type="int" name="NMAXFOCKAE">     0</i>
   <i type="logical" name="LFOCKAEDFT"> F  </i>
   <i name="HFSCREEN">      0.00000000</i>
   <i name="HFSCREENC">      0.00000000</i>
   <i type="int" name="NBANDSGWLOW">     0</i>
  </separator>
  <separator name="vdW DFT" >
   <i type="logical" name="LUSE_VDW"> F  </i>
   <i name="Zab_VDW">     -0.84910000</i>
   <i name="PARAM1">      0.12340000</i>
   <i name="PARAM2">      1.00000000</i>
   <i name="PARAM3">      0.00000000</i>
  </separator>
  <separator name="model GW" >
   <i type="int" name="MODEL_GW">     0</i>
   <i name="MODEL_EPS0">     12.02588519</i>
   <i name="MODEL_ALPHA">      1.00000000</i>
  </separator>
  <separator name="linear response parameters" >
   <i type="logical" name="LEPSILON"> F  </i>
   <i type="logical" name="LRPA"> F  </i>
   <i type="logical" name="LNABLA"> F  </i>
   <i type="logical" name="LVEL"> F  </i>
   <i type="int" name="KINTER">     0</i>
   <i name="CSHIFT">      0.10000000</i>
   <i name="OMEGAMAX">     -1.00000000</i>
   <i name="DEG_THRESHOLD">      0.00200000</i>
  </separator>
  <separator name="orbital magnetization" >
   <i type="logical" name="NUCIND"> F  </i>
   <v name="MAGPOS">      0.00000000      0.00000000      0.00000000</v>
   <i type="logical" name="LNICSALL"> T  </i>
   <i type="logical" name="ORBITALMAG"> F  </i>
   <i type="logical" name="LMAGBLOCH"> F  </i>
   <i type="logical" name="LCHIMAG"> F  </i>
   <i type="logical" name="LGAUGE"> T  </i>
   <i type="int" name="MAGATOM">     0</i>
   <v name="MAGDIPOL">      0.00000000      0.00000000      0.00000000</v>
   <v name="AVECCONST">      0.00000000      0.00000000      0.00000000</v>
  </separator>
  <separator name="response functions" >
   <i type="logical" name="LADDER"> F  </i>
   <i type="logical" name="LFXC"> F  </i>
   <i type="logical" name="LHARTREE"> T  </i>
   <i type="int" name="IBSE">     0</i>
   <v type="int" name="KPOINT">    -1     0     0     0</v>
   <i type="logical" name="LTCTE"> F  </i>
   <i type="logical" name="LTETE"> F  </i>
   <i type="logical" name="LTRIPLET"> F  </i>
   <i type="logical" name="LFXCEPS"> F  </i>
   <i type="logical" name="LFXHEG"> F  </i>
   <i type="int" name="NATURALO">     0</i>
   <i type="logical" name="L2ORDER"> F  </i>
   <i type="logical" name="LUSEW"> F  </i>
   <i name="ENCUTGW">     -2.00000000</i>
   <i name="ENCUTGWSOFT">     -2.00000000</i>
   <i name="ENCUTLF">     -1.00000000</i>
   <i type="int" name="LMAXMP2">    -1</i>
   <i name="SCISSOR">      0.00000000</i>
   <i type="int" name="NOMEGA">     0</i>
   <i type="int" name="NOMEGAR">     0</i>
   <i type="int" name="NBANDSGW">    -1</i>
   <i type="int" name="NBANDSO">    -1</i>
   <i type="int" name="NBANDSV">    -1</i>
   <i type="int" name="NELM">    70</i>
   <i type="int" name="NELMHF">     1</i>
   <i type="int" name="DIM">     3</i>
   <i type="int" name="ANTIRES">     0</i>
   <i name="OMEGAMAX">    -30.00000000</i>
   <i name="OMEGAMIN">    -30.00000000</i>
   <i name="OMEGATL">   -200.00000000</i>
   <i type="int" name="OMEGAGRID">     0</i>
   <i name="CSHIFT">     -0.10000000</i>
   <i type="logical" name="SELFENERGY"> F  </i>
   <i type="logical" name="LSPECTRAL"> F  </i>
   <i type="logical" name="LSPECTRALGW"> F  </i>
   <i type="logical" name="LSINGLES"> F  </i>
   <i type="logical" name="LFERMIGW"> F  </i>
   <i type="logical" name="ODDONLYGW"> F  </i>
   <i type="logical" name="EVENONLYGW"> F  </i>
   <i type="int" name="NKREDLFX">     1</i>
   <i type="int" name="NKREDLFY">     1</i>
   <i type="int" name="NKREDLFZ">     1</i>
   <i type="int" name="MAXMEM">  1800</i>
   <i type="int" name="TELESCOPE">     0</i>
   <i type="int" name="TAUPAR">     1</i>
   <i type="int" name="OMEGAPAR">    -1</i>
   <i name="LAMBDA">      1.00000000</i>
  </separator>
  <separator name="External order field" >
   <i name="OFIELD_KAPPA">      0.00000000</i>
   <v name="OFIELD_K">      0.00000000      0.00000000      0.00000000</v>
   <i name="OFIELD_Q6_NEAR">      0.00000000</i>
   <i name="OFIELD_Q6_FAR">      0.00000000</i>
   <i name="OFIELD_A">      0.00000000</i>
  </separator>
 </parameters>
 <atominfo>
  <atoms>      36 </atoms>
  <types>       4 </types>
  <array name="atoms" >
   <dimension dim="1">ion</dimension>
   <field type="string">element</field>
   <field type="int">atomtype</field>
   <set>
    <rc><c>Ta</c><c>   1</c></rc>
    <rc><c>Ta</c><c>   1</c></rc>
    <rc><c>Ta</c><c>   1</c></rc>
    <rc><c>Ta</c><c>   1</c></rc>
    <rc><c>Ta</c><c>   1</c></rc>
    <rc><c>Ta</c><c>   1</c></rc>
    <rc><c>Ta</c><c>   1</c></rc>
    <rc><c>Ta</c><c>   1</c></rc>
    <rc><c>Ta</c><c>   1</c></rc>
    <rc><c>Ta</c><c>   1</c></rc>
    <rc><c>Ta</c><c>   1</c></rc>
    <rc><c>Hf</c><c>   2</c></rc>
    <rc><c>Hf</c><c>   2</c></rc>
    <rc><c>Hf</c><c>   2</c></rc>
    <rc><c>Hf</c><c>   2</c></rc>
    <rc><c>Hf</c><c>   2</c></rc>
    <rc><c>Hf</c><c>   2</c></rc>
    <rc><c>Hf</c><c>   2</c></rc>
    <rc><c>Hf</c><c>   2</c></rc>
    <rc><c>Hf</c><c>   2</c></rc>
    <rc><c>Zr</c><c>   3</c></rc>
    <rc><c>Zr</c><c>   3</c></rc>
    <rc><c>Zr</c><c>   3</c></rc>
    <rc><c>Zr</c><c>   3</c></rc>
    <rc><c>Zr</c><c>   3</c></rc>
    <rc><c>Zr</c><c>   3</c></rc>
    <rc><c>Zr</c><c>   3</c></rc>
    <rc><c>Zr</c><c>   3</c></rc>
    <rc><c>Nb</c><c>   4</c></rc>
    <rc><c>Nb</c><c>   4</c></rc>
    <rc><c>Nb</c><c>   4</c></rc>
    <rc><c>Nb</c><c>   4</c></rc>
    <rc><c>Nb</c><c>   4</c></rc>
    <rc><c>Nb</c><c>   4</c></rc>
    <rc><c>Nb</c><c>   4</c></rc>
    <rc><c>Nb</c><c>   4</c></rc>
   </set>
  </array>
  <array name="atomtypes" >
   <dimension dim="1">type</dimension>
   <field type="int">atomspertype</field>
   <field type="string">element</field>
   <field>mass</field>
   <field>valence</field>
   <field type="string">pseudopotential</field>
   <set>
    <rc><c>  11</c><c>Ta</c><c>    180.94800000</c><c>      5.00000000</c><c>  PAW_PBE Ta 17Jan2003                  </c></rc>
    <rc><c>   9</c><c>Hf</c><c>    178.49000000</c><c>      4.00000000</c><c>  PAW_PBE Hf 20Jan2003                  </c></rc>
    <rc><c>   8</c><c>Zr</c><c>     91.22400000</c><c>     12.00000000</c><c>  PAW_PBE Zr_sv 04Jan2005               </c></rc>
    <rc><c>   8</c><c>Nb</c><c>     92.91000000</c><c>     13.00000000</c><c>  PAW_PBE Nb_sv 25May2007               </c></rc>
   </set>
  </array>
 </atominfo>
 <structure name="initialpos" >
  <crystal>
   <varray name="basis" >
    <v>       6.88902072       0.00496836      -0.00342198 </v>
    <v>       0.00772190      10.24435257       0.01196696 </v>
    <v>      -0.00481871       0.01159283      10.22414992 </v>
   </varray>
   <i name="volume">    721.55311153 </i>
   <varray name="rec_basis" >
    <v>       0.14515863      -0.00010950       0.00006854 </v>
    <v>      -0.00007045       0.09761494      -0.00011072 </v>
    <v>       0.00004867      -0.00011429       0.09780780 </v>
   </varray>
  </crystal>
  <varray name="positions" >
   <v>       0.25351000       0.16529700       0.50641500 </v>
   <v>       0.01629900       0.32696300       0.33975100 </v>
   <v>       0.00732100       0.33823200       0.66600900 </v>
   <v>       0.23424400       0.48513300       0.83363600 </v>
   <v>       0.25457600       0.86004700       0.51698200 </v>
   <v>       0.48294900       0.32438800       0.33541600 </v>
   <v>       0.76535000       0.49384800       0.81621700 </v>
   <v>       0.74867900       0.84843900       0.51662600 </v>
   <v>       0.24416400       0.84460800       0.83513500 </v>
   <v>       0.23694500       0.81658200       0.14266800 </v>
   <v>       0.49257000       0.34199500       0.67178000 </v>
   <v>       0.25284400       0.16450900       0.82290900 </v>
   <v>       0.24647300       0.49911500       0.16576700 </v>
   <v>       0.01567700       0.67925700       0.34514600 </v>
   <v>       0.50441500       0.00343500       0.01103500 </v>
   <v>       0.74725000       0.16777100       0.50556200 </v>
   <v>       0.51041400       0.32624000       0.99722500 </v>
   <v>       0.74445700       0.48993400       0.49898200 </v>
   <v>       0.48829200       0.68468900       0.34154200 </v>
   <v>       0.48821600       0.66221700       0.66496600 </v>
   <v>       0.98900300       0.00567800       0.00863000 </v>
   <v>       0.00185400       0.99649600       0.32841600 </v>
   <v>       0.98406200       0.32348800       0.99967500 </v>
   <v>       0.01552400       0.66439400       0.65787300 </v>
   <v>       0.49905900       0.99636700       0.32521300 </v>
   <v>       0.75219400       0.50524800       0.17428400 </v>
   <v>       0.49732300       0.66263000       0.98469300 </v>
   <v>       0.75664000       0.83410000       0.82548000 </v>
   <v>       0.24702000       0.18293500       0.17867500 </v>
   <v>       0.00248900       0.00053400       0.66765300 </v>
   <v>       0.25908600       0.48463800       0.49450600 </v>
   <v>       0.00295900       0.66456700       0.98944600 </v>
   <v>       0.75057300       0.18091100       0.19338600 </v>
   <v>       0.50005100       0.99889600       0.66871500 </v>
   <v>       0.74406200       0.16699700       0.81355500 </v>
   <v>       0.76344600       0.80942800       0.15602800 </v>
  </varray>
 </structure>
 <calculation>
  <scstep>
   <time name="dav">    1.02    1.02</time>
   <time name="total">    1.12    1.43</time>
   <energy>
    <i name="alphaZ">   1518.77125255 </i>
    <i name="ewald"> -19104.43057866 </i>
    <i name="hartreedc">  -6674.27935668 </i>
    <i name="XCdc">   -356.79473525 </i>
    <i name="pawpsdc">  21096.87946096 </i>
    <i name="pawaedc"> -19449.64100719 </i>
    <i name="eentropy">      0.01013188 </i>
    <i name="bandstr">    -73.92791504 </i>
    <i name="atom">  24834.46488499 </i>
    <i name="e_fr_energy">   1791.05213756 </i>
    <i name="e_wo_entrp">   1791.04200568 </i>
    <i name="e_0_energy">   1791.04876027 </i>
   </energy>
  </scstep>
  <scstep>
   <time name="dav">    1.04    1.04</time>
   <time name="total">    1.06    1.21</time>
   <energy>
    <i name="e_fr_energy">   -102.37907346 </i>
    <i name="e_wo_entrp">   -102.38075757 </i>
    <i name="e_0_energy">   -102.37963483 </i>
   </energy>
  </scstep>
  <scstep>
   <time name="dav">    1.54    1.58</time>
   <time name="total">    1.54    1.61</time>
   <energy>
    <i name="e_fr_energy">   -349.66943116 </i>
    <i name="e_wo_entrp">   -349.66513860 </i>
    <i name="e_0_energy">   -349.66800031 </i>
   </energy>
  </scstep>
  <scstep>
   <time name="dav">    1.44    1.47</time>
   <time name="total">    1.44    1.51</time>
   <energy>
    <i name="e_fr_energy">   -378.67978124 </i>
    <i name="e_wo_entrp">   -378.68340509 </i>
    <i name="e_0_energy">   -378.68098919 </i>
   </energy>
  </scstep>
  <scstep>
   <time name="dav">    1.40    1.40</time>
   <time name="total">    1.43    1.47</time>
   <energy>
    <i name="e_fr_energy">   -381.57069158 </i>
    <i name="e_wo_entrp">   -381.57804059 </i>
    <i name="e_0_energy">   -381.57314125 </i>
   </energy>
  </scstep>
  <scstep>
   <time name="diag">    0.08    0.08</time>
   <time name="diis">    0.71    0.71</time>
   <time name="orth">    0.01    0.01</time>
   <time name="total">    0.89    0.93</time>
   <energy>
    <i name="e_fr_energy">   -371.13219520 </i>
    <i name="e_wo_entrp">   -371.14439604 </i>
    <i name="e_0_energy">   -371.13626215 </i>
   </energy>
  </scstep>
  <scstep>
   <time name="diag">    0.13    0.13</time>
   <time name="diis">    0.78    0.78</time>
   <time name="orth">    0.01    0.01</time>
   <time name="total">    0.98    1.02</time>
   <energy>
    <i name="e_fr_energy">   -372.85347862 </i>
    <i name="e_wo_entrp">   -372.85761619 </i>
    <i name="e_0_energy">   -372.85485781 </i>
   </energy>
  </scstep>
  <scstep>
   <time name="diag">    0.08    0.08</time>
   <time name="diis">    0.87    0.87</time>
   <time name="orth">    0.01    0.01</time>
   <time name="total">    1.03    1.06</time>
   <energy>
    <i name="e_fr_energy">   -366.97036778 </i>
    <i name="e_wo_entrp">   -366.96586921 </i>
    <i name="e_0_energy">   -366.96886825 </i>
   </energy>
  </scstep>
  <scstep>
   <time name="diag">    0.08    0.08</time>
   <time name="diis">    0.78    0.79</time>
   <time name="orth">    0.01    0.01</time>
   <time name="total">    0.95    0.99</time>
   <energy>
    <i name="e_fr_energy">   -366.64864710 </i>
    <i name="e_wo_entrp">   -366.65074117 </i>
    <i name="e_0_energy">   -366.64934513 </i>
   </energy>
  </scstep>
  <scstep>
   <time name="diag">    0.08    0.08</time>
   <time name="diis">    0.83    0.83</time>
   <time name="orth">    0.01    0.01</time>
   <time name="total">    0.99    1.03</time>
   <energy>
    <i name="e_fr_energy">   -366.62287190 </i>
    <i name="e_wo_entrp">   -366.62159001 </i>
    <i name="e_0_energy">   -366.62244460 </i>
   </energy>
  </scstep>
  <scstep>
   <time name="diag">    0.08    0.08</time>
   <time name="diis">    0.79    0.79</time>
   <time name="orth">    0.01    0.01</time>
   <time name="total">    1.04    1.07</time>
   <energy>
    <i name="e_fr_energy">   -366.59327895 </i>
    <i name="e_wo_entrp">   -366.59415978 </i>
    <i name="e_0_energy">   -366.59357256 </i>
   </energy>
  </scstep>
  <scstep>
   <time name="diag">    0.12    0.12</time>
   <time name="diis">    0.75    0.85</time>
   <time name="orth">    0.01    0.01</time>
   <time name="total">    0.99    1.16</time>
   <energy>
    <i name="e_fr_energy">   -366.58458991 </i>
    <i name="e_wo_entrp">   -366.58390154 </i>
    <i name="e_0_energy">   -366.58436045 </i>
   </energy>
  </scstep>
  <scstep>
   <time name="diag">    0.08    0.10</time>
   <time name="diis">    0.73    0.82</time>
   <time name="orth">    0.02    0.02</time>
   <time name="total">    0.91    1.06</time>
   <energy>
    <i name="e_fr_energy">   -366.58327090 </i>
    <i name="e_wo_entrp">   -366.58212919 </i>
    <i name="e_0_energy">   -366.58289033 </i>
   </energy>
  </scstep>
  <scstep>
   <time name="diag">    0.13    0.13</time>
   <time name="diis">    0.90    0.90</time>
   <time name="orth">    0.01    0.01</time>
   <time name="total">    1.10    1.13</time>
   <energy>
    <i name="e_fr_energy">   -366.58344790 </i>
    <i name="e_wo_entrp">   -366.58261069 </i>
    <i name="e_0_energy">   -366.58316883 </i>
   </energy>
  </scstep>
  <scstep>
   <time name="diag">    0.07    0.07</time>
   <time name="diis">    0.79    0.79</time>
   <time name="orth">    0.01    0.01</time>
   <time name="total">    0.94    0.98</time>
   <energy>
    <i name="e_fr_energy">   -366.58348396 </i>
    <i name="e_wo_entrp">   -366.58261187 </i>
    <i name="e_0_energy">   -366.58319326 </i>
   </energy>
  </scstep>
  <scstep>
   <time name="diag">    0.08    0.08</time>
   <time name="diis">    0.77    0.78</time>
   <time name="orth">    0.01    0.01</time>
   <time name="total">    0.95    0.98</time>
   <energy>
    <i name="e_fr_energy">   -366.58353433 </i>
    <i name="e_wo_entrp">   -366.58262541 </i>
    <i name="e_0_energy">   -366.58323136 </i>
   </energy>
  </scstep>
  <scstep>
   <time name="diag">    0.07    0.07</time>
   <time name="diis">    0.67    0.68</time>
   <time name="orth">    0.01    0.01</time>
   <time name="total">    0.83    0.86</time>
   <energy>
    <i name="e_fr_energy">   -366.58355360 </i>
    <i name="e_wo_entrp">   -366.58269474 </i>
    <i name="e_0_energy">   -366.58326732 </i>
   </energy>
  </scstep>
  <scstep>
   <time name="diag">    0.08    0.08</time>
   <time name="diis">    0.58    0.58</time>
   <time name="orth">    0.01    0.01</time>
   <time name="total">    0.73    0.77</time>
   <energy>
    <i name="e_fr_energy">   -366.58356160 </i>
    <i name="e_wo_entrp">   -366.58266597 </i>
    <i name="e_0_energy">   -366.58326306 </i>
   </energy>
  </scstep>
  <scstep>
   <time name="diag">    0.07    0.07</time>
   <time name="diis">    0.50    0.50</time>
   <time name="orth">    0.01    0.01</time>
   <time name="total">    0.65    0.68</time>
   <energy>
    <i name="e_fr_energy">   -366.58356672 </i>
    <i name="e_wo_entrp">   -366.58267942 </i>
    <i name="e_0_energy">   -366.58327095 </i>
   </energy>
  </scstep>
  <scstep>
   <time name="diag">    0.07    0.07</time>
   <time name="diis">    0.46    0.47</time>
   <time name="orth">    0.01    0.01</time>
   <time name="total">    0.58    0.61</time>
   <energy>
    <i name="alphaZ">   1518.77125255 </i>
    <i name="ewald"> -19104.43057866 </i>
    <i name="hartreedc">  -6450.13209037 </i>
    <i name="XCdc">   -355.62577048 </i>
    <i name="pawpsdc">  33799.52584165 </i>
    <i name="pawaedc"> -32135.07676020 </i>
    <i name="eentropy">     -0.00088880 </i>
    <i name="bandstr">  -2474.07945799 </i>
    <i name="atom">  24834.46488499 </i>
    <i name="e_fr_energy">   -366.58356731 </i>
    <i name="e_wo_entrp">   -366.58267851 </i>
    <i name="e_0_energy">   -366.58327105 </i>
   </energy>
  </scstep>
  <structure>
   <crystal>
    <varray name="basis" >
     <v>       6.88902072       0.00496836      -0.00342198 </v>
     <v>       0.00772190      10.24435257       0.01196696 </v>
     <v>      -0.00481871       0.01159283      10.22414992 </v>
    </varray>
    <i name="volume">    721.55311153 </i>
    <varray name="rec_basis" >
     <v>       0.14515863      -0.00010950       0.00006854 </v>
     <v>      -0.00007045       0.09761494      -0.00011072 </v>
     <v>       0.00004867      -0.00011429       0.09780780 </v>
    </varray>
   </crystal>
   <varray name="positions" >
    <v>       0.25351000       0.16529700       0.50641500 </v>
    <v>       0.01629900       0.32696300       0.33975100 </v>
    <v>       0.00732100       0.33823200       0.66600900 </v>
    <v>       0.23424400       0.48513300       0.83363600 </v>
    <v>       0.25457600       0.86004700       0.51698200 </v>
    <v>       0.48294900       0.32438800       0.33541600 </v>
    <v>       0.76535000       0.49384800       0.81621700 </v>
    <v>       0.74867900       0.84843900       0.51662600 </v>
    <v>       0.24416400       0.84460800       0.83513500 </v>
    <v>       0.23694500       0.81658200       0.14266800 </v>
    <v>       0.49257000       0.34199500       0.67178000 </v>
    <v>       0.25284400       0.16450900       0.82290900 </v>
    <v>       0.24647300       0.49911500       0.16576700 </v>
    <v>       0.01567700       0.67925700       0.34514600 </v>
    <v>       0.50441500       0.00343500       0.01103500 </v>
    <v>       0.74725000       0.16777100       0.50556200 </v>
    <v>       0.51041400       0.32624000       0.99722500 </v>
    <v>       0.74445700       0.48993400       0.49898200 </v>
    <v>       0.48829200       0.68468900       0.34154200 </v>
    <v>       0.48821600       0.66221700       0.66496600 </v>
    <v>       0.98900300       0.00567800       0.00863000 </v>
    <v>       0.00185400       0.99649600       0.32841600 </v>
    <v>       0.98406200       0.32348800       0.99967500 </v>
    <v>       0.01552400       0.66439400       0.65787300 </v>
    <v>       0.49905900       0.99636700       0.32521300 </v>
    <v>       0.75219400       0.50524800       0.17428400 </v>
    <v>       0.49732300       0.66263000       0.98469300 </v>
    <v>       0.75664000       0.83410000       0.82548000 </v>
    <v>       0.24702000       0.18293500       0.17867500 </v>
    <v>       0.00248900       0.00053400       0.66765300 </v>
    <v>       0.25908600       0.48463800       0.49450600 </v>
    <v>       0.00295900       0.66456700       0.98944600 </v>
    <v>       0.75057300       0.18091100       0.19338600 </v>
    <v>       0.50005100       0.99889600       0.66871500 </v>
    <v>       0.74406200       0.16699700       0.81355500 </v>
    <v>       0.76344600       0.80942800       0.15602800 </v>
   </varray>
  </structure>
  <varray name="forces" >
   <v>       0.00267273      -0.00797770       0.11800694 </v>
   <v>       0.02689482      -0.02184176      -0.00927498 </v>
   <v>      -0.01123853       0.00772011      -0.00613983 </v>
   <v>      -0.00473872      -0.02074332       0.01356186 </v>
   <v>      -0.00099808       0.01680941      -0.02166541 </v>
   <v>      -0.02035792      -0.01604156      -0.00926332 </v>
   <v>       0.00723173      -0.02440722       0.01288648 </v>
   <v>       0.00204818       0.00404705      -0.02338734 </v>
   <v>      -0.00649695       0.00981393       0.00557644 </v>
   <v>       0.00221006      -0.04562180       0.00412567 </v>
   <v>       0.00688857       0.00687743      -0.01311008 </v>
   <v>       0.00314989       0.01132585      -0.06249415 </v>
   <v>      -0.00383292       0.15738479      -0.00181526 </v>
   <v>      -0.00612080       0.00238208       0.00759941 </v>
   <v>      -0.00762896       0.00263659      -0.00448997 </v>
   <v>       0.00294291      -0.00403798      -0.02060483 </v>
   <v>      -0.00220029       0.01271155      -0.00036290 </v>
   <v>       0.00201842       0.01503528       0.01351700 </v>
   <v>       0.00698261      -0.00544125       0.00449782 </v>
   <v>       0.00633927       0.00169452       0.00460284 </v>
   <v>       0.01058424       0.01460899       0.00962661 </v>
   <v>       0.02514338       0.03959358      -0.01101583 </v>
   <v>       0.03708989      -0.01252735       0.01986830 </v>
   <v>      -0.00796248       0.00178215       0.00510271 </v>
   <v>      -0.02140488       0.03815982      -0.00590451 </v>
   <v>      -0.00189938      -0.02624568      -0.00028192 </v>
   <v>      -0.00806495      -0.00546039      -0.00635097 </v>
   <v>       0.00360314      -0.00086047       0.00110895 </v>
   <v>      -0.01571752      -0.13397567      -0.02833891 </v>
   <v>      -0.00596461      -0.01338520      -0.00058220 </v>
   <v>      -0.00290355      -0.00865490      -0.01903976 </v>
   <v>      -0.00129772      -0.00231768      -0.00526400 </v>
   <v>      -0.01407358       0.00721041       0.00595967 </v>
   <v>       0.00848136      -0.01717574       0.00164375 </v>
   <v>      -0.00420670      -0.00065296       0.01226851 </v>
   <v>      -0.00717268       0.01757508       0.00943321 </v>
  </varray>
  <varray name="stress" >
   <v>       0.16744501       0.08072653      -0.04030938 </v>
   <v>       0.08072657       0.88368420       0.01474049 </v>
   <v>      -0.04030936       0.01474049       0.51461502 </v>
  </varray>
  <energy>
   <i name="e_fr_energy">   -366.58356731 </i>
   <i name="e_wo_entrp">   -366.58327105 </i>
   <i name="e_0_energy">     -0.00088880 </i>
  </energy>
  <time name="totalsc">   21.72   23.21</time>
 </calculation>
 <calculation>
  <scstep>
   <time name="dav">    1.04    1.04</time>
   <time name="total">    1.14    1.29</time>
   <energy>
    <i name="alphaZ">   1518.34079342 </i>
    <i name="ewald"> -19102.19290778 </i>
    <i name="hartreedc">  -6449.94522977 </i>
    <i name="XCdc">   -355.70621087 </i>
    <i name="pawpsdc">  33799.55677761 </i>
    <i name="pawaedc"> -32135.10644912 </i>
    <i name="eentropy">     -0.00093797 </i>
    <i name="bandstr">  -2475.99547501 </i>
    <i name="atom">  24834.46488499 </i>
    <i name="e_fr_energy">   -366.58475449 </i>
    <i name="e_wo_entrp">   -366.58381652 </i>
    <i name="e_0_energy">   -366.58444184 </i>
   </energy>
  </scstep>
  <scstep>
   <time name="diag">    0.08    0.08</time>
   <time name="diis">    0.79    0.80</time>
   <time name="orth">    0.01    0.01</time>
   <time name="total">    1.09    1.12</time>
   <energy>
    <i name="e_fr_energy">   -366.58487621 </i>
    <i name="e_wo_entrp">   -366.58386204 </i>
    <i name="e_0_energy">   -366.58453815 </i>
   </energy>
  </scstep>
  <scstep>
   <time name="diag">    0.10    0.10</time>
   <time name="diis">    0.83    0.83</time>
   <time name="orth">    0.01    0.01</time>
   <time name="total">    1.01    1.05</time>
   <energy>
    <i name="e_fr_energy">   -366.58479988 </i>
    <i name="e_wo_entrp">   -366.58384506 </i>
    <i name="e_0_energy">   -366.58448161 </i>
   </energy>
  </scstep>
  <scstep>
   <time name="diag">    0.11    0.11</time>
   <time name="diis">    0.70    0.70</time>
   <time name="orth">    0.01    0.01</time>
   <time name="total">    0.88    0.92</time>
   <energy>
    <i name="e_fr_energy">   -366.58476818 </i>
    <i name="e_wo_entrp">   -366.58381890 </i>
    <i name="e_0_energy">   -366.58445175 </i>
   </energy>
  </scstep>
  <scstep>
   <time name="diag">    0.08    0.08</time>
   <time name="diis">    0.41    0.41</time>
   <time name="orth">    0.01    0.01</time>
   <time name="total">    0.54    0.57</time>
   <energy>
    <i name="alphaZ">   1518.34079342 </i>
    <i name="ewald"> -19102.19290778 </i>
    <i name="hartreedc">  -6451.15460419 </i>
    <i name="XCdc">   -355.65481476 </i>
    <i name="pawpsdc">  33785.44693818 </i>
    <i name="pawaedc"> -32120.95218013 </i>
    <i name="eentropy">     -0.00096551 </i>
    <i name="bandstr">  -2474.88190478 </i>
    <i name="atom">  24834.46488499 </i>
    <i name="e_fr_energy">   -366.58476056 </i>
    <i name="e_wo_entrp">   -366.58379505 </i>
    <i name="e_0_energy">   -366.58443872 </i>
   </energy>
  </scstep>
  <structure>
   <crystal>
    <varray name="basis" >
     <v>       6.88922967       0.00506983      -0.00347256 </v>
     <v>       0.00787178      10.24599176       0.01199535 </v>
     <v>      -0.00489330       0.01162190      10.22510260 </v>
    </varray>
    <i name="volume">    721.75767636 </i>
    <varray name="rec_basis" >
     <v>       0.14515423      -0.00011160       0.00006959 </v>
     <v>      -0.00007188       0.09759933      -0.00011097 </v>
     <v>       0.00004938      -0.00011453       0.09779868 </v>
    </varray>
   </crystal>
   <varray name="positions" >
    <v>       0.25351574       0.16528554       0.50658206 </v>
    <v>       0.01635553       0.32693213       0.33973793 </v>
    <v>       0.00729737       0.33824293       0.66600029 </v>
    <v>       0.23423409       0.48510368       0.83365523 </v>
    <v>       0.25457386       0.86007078       0.51695130 </v>
    <v>       0.48290625       0.32436537       0.33540290 </v>
    <v>       0.76536524       0.49381349       0.81623529 </v>
    <v>       0.74868327       0.84844475       0.51659289 </v>
    <v>       0.24415034       0.84462186       0.83514287 </v>
    <v>       0.23694972       0.81651754       0.14267392 </v>
    <v>       0.49258445       0.34200473       0.67176144 </v>
    <v>       0.25285054       0.16452510       0.82282052 </v>
    <v>       0.24646470       0.49933735       0.16576417 </v>
    <v>       0.01566414       0.67926036       0.34515675 </v>
    <v>       0.50439896       0.00343874       0.01102863 </v>
    <v>       0.74725617       0.16776533       0.50553284 </v>
    <v>       0.51040936       0.32625796       0.99722446 </v>
    <v>       0.74446123       0.48995522       0.49900111 </v>
    <v>       0.48830668       0.68468130       0.34154838 </v>
    <v>       0.48822932       0.66221938       0.66497252 </v>
    <v>       0.98902522       0.00569861       0.00864361 </v>
    <v>       0.00190675       0.99655193       0.32840036 </v>
    <v>       0.98413996       0.32347023       0.99970317 </v>
    <v>       0.01550727       0.66439652       0.65788021 </v>
    <v>       0.49901397       0.99642094       0.32520456 </v>
    <v>       0.75219005       0.50521092       0.17428364 </v>
    <v>       0.49730606       0.66262230       0.98468401 </v>
    <v>       0.75664757       0.83409878       0.82548157 </v>
    <v>       0.24698716       0.18274579       0.17863510 </v>
    <v>       0.00247649       0.00051510       0.66765219 </v>
    <v>       0.25907989       0.48462581       0.49447906 </v>
    <v>       0.00295627       0.66456374       0.98943855 </v>
    <v>       0.75054343       0.18092119       0.19339441 </v>
    <v>       0.50006885       0.99887172       0.66871736 </v>
    <v>       0.74405318       0.16699606       0.81357236 </v>
    <v>       0.76343091       0.80945282       0.15604132 </v>
   </varray>
  </structure>
  <varray name="forces" >
   <v>       0.00216370      -0.00557350       0.10560868 </v>
   <v>       0.02868160      -0.02195126      -0.01075083 </v>
   <v>      -0.01074187       0.00718960      -0.00504863 </v>
   <v>      -0.00504363      -0.01906178       0.01316864 </v>
   <v>      -0.00021996       0.01555624      -0.01875292 </v>
   <v>      -0.02493303      -0.01620887      -0.01020744 </v>
   <v>       0.00752655      -0.02350928       0.01248655 </v>
   <v>       0.00159915       0.00493606      -0.02165467 </v>
   <v>      -0.00657887       0.00849369       0.00439319 </v>
   <v>       0.00228993      -0.04211616       0.00456006 </v>
   <v>       0.00721030       0.00656380      -0.01081106 </v>
   <v>       0.00420329       0.01091551      -0.05739457 </v>
   <v>      -0.00378246       0.14368268      -0.00176760 </v>
   <v>      -0.00725712       0.00545677       0.00868011 </v>
   <v>      -0.00798748       0.00133985      -0.00450944 </v>
   <v>       0.00260376      -0.00303252      -0.01812436 </v>
   <v>      -0.00423156       0.01140059       0.00040306 </v>
   <v>       0.00204061       0.01200010       0.01073514 </v>
   <v>       0.00738482      -0.00193644       0.00496116 </v>
   <v>       0.00494641       0.00253715       0.00377391 </v>
   <v>       0.01026173       0.01244008       0.00898196 </v>
   <v>       0.02272706       0.03409151      -0.00910059 </v>
   <v>       0.03545197      -0.01184493       0.01948153 </v>
   <v>      -0.00645940       0.00238834       0.00486095 </v>
   <v>      -0.01991033       0.03293249      -0.00489295 </v>
   <v>      -0.00143381      -0.02496122       0.00027027 </v>
   <v>      -0.00614164      -0.00428322      -0.00768728 </v>
   <v>       0.00376860      -0.00063030       0.00197516 </v>
   <v>      -0.01300132      -0.12235219      -0.02512469 </v>
   <v>      -0.00552507      -0.01415901      -0.00071721 </v>
   <v>      -0.00190740      -0.00996598      -0.01909926 </v>
   <v>      -0.00270391      -0.00107457      -0.00614727 </v>
   <v>      -0.01227426       0.00971335       0.00661963 </v>
   <v>       0.00786542      -0.01761477       0.00126713 </v>
   <v>      -0.00382148       0.00129655       0.01182622 </v>
   <v>      -0.00677032       0.01734163       0.00773744 </v>
  </varray>
  <varray name="stress" >
   <v>      -0.16559198       0.07682411      -0.04479237 </v>
   <v>       0.07682412       0.52530902       0.01545275 </v>
   <v>      -0.04479237       0.01545277       0.17151305 </v>
  </varray>
  <energy>
   <i name="e_fr_energy">   -366.58476056 </i>
   <i name="e_wo_entrp">   -366.58443872 </i>
   <i name="e_0_energy">     -0.00096551 </i>
  </energy>
  <time name="totalsc">    6.36    6.77</time>
 </calculation>
 <calculation>
  <scstep>
   <time name="dav">    1.08    1.09</time>
   <time name="total">    1.21    1.34</time>
   <energy>
    <i name="alphaZ">   1517.05047313 </i>
    <i name="ewald"> -19095.46527840 </i>
    <i name="hartreedc">  -6450.61877830 </i>
    <i name="XCdc">   -355.89484485 </i>
    <i name="pawpsdc">  33786.47352855 </i>
    <i name="pawaedc"> -32121.98079095 </i>
    <i name="eentropy">     -0.00110432 </i>
    <i name="bandstr">  -2480.61564256 </i>
    <i name="atom">  24834.46488499 </i>
    <i name="e_fr_energy">   -366.58755272 </i>
    <i name="e_wo_entrp">   -366.58644840 </i>
    <i name="e_0_energy">   -366.58718461 </i>
   </energy>
  </scstep>
  <scstep>
   <time name="diag">    0.11    0.11</time>
   <time name="diis">    0.81    0.83</time>
   <time name="orth">    0.01    0.01</time>
   <time name="total">    1.00    1.04</time>
   <energy>
    <i name="e_fr_energy">   -366.58842247 </i>
    <i name="e_wo_entrp">   -366.58707504 </i>
    <i name="e_0_energy">   -366.58797332 </i>
   </energy>
  </scstep>
  <scstep>
   <time name="diag">    0.07    0.07</time>
   <time name="diis">    0.80    0.80</time>
   <time name="orth">    0.01    0.01</time>
   <time name="total">    0.95    0.99</time>
   <energy>
    <i name="e_fr_energy">   -366.58773328 </i>
    <i name="e_wo_entrp">   -366.58657355 </i>
    <i name="e_0_energy">   -366.58734670 </i>
   </energy>
  </scstep>
  <scstep>
   <time name="diag">    0.08    0.08</time>
   <time name="diis">    0.81    0.81</time>
   <time name="orth">    0.01    0.01</time>
   <time name="total">    0.96    1.00</time>
   <energy>
    <i name="e_fr_energy">   -366.58746741 </i>
    <i name="e_wo_entrp">   -366.58632653 </i>
    <i name="e_0_energy">   -366.58708712 </i>
   </energy>
  </scstep>
  <scstep>
   <time name="diag">    0.07    0.07</time>
   <time name="diis">    0.78    0.78</time>
   <time name="orth">    0.01    0.01</time>
   <time name="total">    0.93    0.96</time>
   <energy>
    <i name="e_fr_energy">   -366.58742286 </i>
    <i name="e_wo_entrp">   -366.58622790 </i>
    <i name="e_0_energy">   -366.58702454 </i>
   </energy>
  </scstep>
  <scstep>
   <time name="diag">    0.10    0.10</time>
   <time name="diis">    0.72    0.73</time>
   <time name="orth">    0.01    0.01</time>
   <time name="total">    0.90    0.93</time>
   <energy>
    <i name="e_fr_energy">   -366.58741984 </i>
    <i name="e_wo_entrp">   -366.58626771 </i>
    <i name="e_0_energy">   -366.58703580 </i>
   </energy>
  </scstep>
  <scstep>
   <time name="diag">    0.12    0.12</time>
   <time name="diis">    0.51    0.51</time>
   <time name="orth">    0.01    0.01</time>
   <time name="total">    0.67    0.70</time>
   <energy>
    <i name="alphaZ">   1517.05047313 </i>
    <i name="ewald"> -19095.46527840 </i>
    <i name="hartreedc">  -6454.09799777 </i>
    <i name="XCdc">   -355.74647937 </i>
    <i name="pawpsdc">  33748.70597755 </i>
    <i name="pawaedc"> -32084.18243556 </i>
    <i name="eentropy">     -0.00119184 </i>
    <i name="bandstr">  -2477.31536713 </i>
    <i name="atom">  24834.46488499 </i>
    <i name="e_fr_energy">   -366.58741439 </i>
    <i name="e_wo_entrp">   -366.58622256 </i>
    <i name="e_0_energy">   -366.58701711 </i>
   </energy>
  </scstep>
  <structure>
   <crystal>
    <varray name="basis" >
     <v>       6.88985652       0.00537426      -0.00362431 </v>
     <v>       0.00832141      10.25090931       0.01208055 </v>
     <v>      -0.00511708       0.01170912      10.22796064 </v>
    </varray>
    <i name="volume">    722.37156403 </i>
    <varray name="rec_basis" >
     <v>       0.14514103      -0.00011791       0.00007275 </v>
     <v>      -0.00007615       0.09755251      -0.00011172 </v>
     <v>       0.00005152      -0.00011526       0.09777136 </v>
    </varray>
   </crystal>
   <varray name="positions" >
    <v>       0.25353298       0.16525115       0.50708319 </v>
    <v>       0.01652511       0.32683953       0.33969871 </v>
    <v>       0.00722649       0.33827571       0.66597415 </v>
    <v>       0.23420437       0.48501573       0.83371291 </v>
    <v>       0.25456742       0.86014212       0.51685922 </v>
    <v>       0.48277799       0.32429750       0.33536360 </v>
    <v>       0.76541098       0.49370998       0.81629014 </v>
    <v>       0.74869609       0.84846201       0.51649356 </v>
    <v>       0.24410936       0.84466344       0.83516649 </v>
    <v>       0.23696388       0.81632418       0.14269167 </v>
    <v>       0.49262779       0.34203392       0.67170575 </v>
    <v>       0.25287015       0.16457338       0.82255510 </v>
    <v>       0.24643977       0.50000431       0.16575567 </v>
    <v>       0.01562558       0.67927044       0.34518899 </v>
    <v>       0.50435086       0.00344996       0.01100954 </v>
    <v>       0.74727467       0.16774830       0.50544537 </v>
    <v>       0.51039543       0.32631184       0.99722285 </v>
    <v>       0.74447392       0.49001886       0.49905844 </v>
    <v>       0.48835073       0.68465820       0.34156752 </v>
    <v>       0.48826928       0.66222652       0.66499207 </v>
    <v>       0.98909189       0.00576044       0.00868444 </v>
    <v>       0.00206499       0.99671968       0.32835344 </v>
    <v>       0.98437383       0.32341693       0.99978768 </v>
    <v>       0.01545710       0.66440407       0.65790186 </v>
    <v>       0.49887886       0.99658274       0.32517926 </v>
    <v>       0.75217821       0.50509971       0.17428257 </v>
    <v>       0.49725524       0.66259922       0.98465706 </v>
    <v>       0.75667029       0.83409512       0.82548629 </v>
    <v>       0.24688867       0.18217824       0.17851539 </v>
    <v>       0.00243896       0.00045840       0.66764978 </v>
    <v>       0.25906158       0.48458923       0.49439825 </v>
    <v>       0.00294809       0.66455394       0.98941621 </v>
    <v>       0.75045471       0.18095176       0.19341965 </v>
    <v>       0.50012239       0.99879891       0.66872444 </v>
    <v>       0.74402670       0.16699325       0.81362445 </v>
    <v>       0.76338565       0.80952727       0.15608127 </v>
   </varray>
  </structure>
  <varray name="forces" >
   <v>       0.00032945       0.00101129       0.07100155 </v>
   <v>       0.03660103      -0.02165917      -0.01458930 </v>
   <v>      -0.00918410       0.00739144      -0.00260451 </v>
   <v>      -0.00609582      -0.01391220       0.01159393 </v>
   <v>       0.00217519       0.01103901      -0.01014199 </v>
   <v>      -0.04019111      -0.01569723      -0.01292214 </v>
   <v>       0.00830879      -0.02140543       0.01100246 </v>
   <v>       0.00066157       0.00758006      -0.01664581 </v>
   <v>      -0.00708785       0.00328987       0.00045748 </v>
   <v>       0.00182659      -0.03413216       0.00499368 </v>
   <v>       0.00786585       0.00706280      -0.00521833 </v>
   <v>       0.00749056       0.00927913      -0.04348931 </v>
   <v>      -0.00439831       0.10563342      -0.00173294 </v>
   <v>      -0.01038052       0.01278235       0.01206611 </v>
   <v>      -0.00862238      -0.00234254      -0.00481279 </v>
   <v>       0.00211015      -0.00021336      -0.01178158 </v>
   <v>      -0.01146942       0.00831295       0.00268849 </v>
   <v>       0.00201877       0.00266172       0.00401899 </v>
   <v>       0.00834255       0.00653257       0.00774873 </v>
   <v>       0.00050971       0.00345855       0.00105395 </v>
   <v>       0.00768260       0.00540351       0.00614586 </v>
   <v>       0.01592127       0.01989120      -0.00353310 </v>
   <v>       0.03244494      -0.00989503       0.01913069 </v>
   <v>      -0.00087966       0.00237034       0.00393182 </v>
   <v>      -0.01583978       0.01969724      -0.00179789 </v>
   <v>       0.00037020      -0.02281543       0.00145093 </v>
   <v>       0.00100588      -0.00084216      -0.01376301 </v>
   <v>       0.00458967       0.00104923       0.00422274 </v>
   <v>      -0.00415723      -0.08554981      -0.01492922 </v>
   <v>      -0.00458487      -0.01770241      -0.00033396 </v>
   <v>       0.00039416      -0.01392992      -0.01762771 </v>
   <v>      -0.00870816       0.00332966      -0.00815006 </v>
   <v>      -0.00770453       0.01861623       0.00894321 </v>
   <v>       0.00679277      -0.02022304       0.00068548 </v>
   <v>      -0.00328900       0.00582683       0.00978930 </v>
   <v>      -0.00484899       0.01810050       0.00314825 </v>
  </varray>
  <varray name="stress" >
   <v>      -1.14790132       0.04155258      -0.04865540 </v>
   <v>       0.04155255      -0.73763694       0.01115757 </v>
   <v>      -0.04865543       0.01115751      -0.95266959 </v>
  </varray>
  <energy>
   <i name="e_fr_energy">   -366.58741439 </i>
   <i name="e_wo_entrp">   -366.58701711 </i>
   <i name="e_0_energy">     -0.00119184 </i>
  </energy>
  <time name="totalsc">    8.26    8.70</time>
 </calculation>
 <calculation>
  <scstep>
   <time name="dav">    0.93    0.94</time>
   <time name="total">    1.05    1.18</time>
   <energy>
    <i name="alphaZ">   1514.47458087 </i>
    <i name="ewald"> -19081.94498492 </i>
    <i name="hartreedc">  -6453.05534921 </i>
    <i name="XCdc">   -356.22724089 </i>
    <i name="pawpsdc">  33749.43312656 </i>
    <i name="pawaedc"> -32084.94089758 </i>
    <i name="eentropy">     -0.00140802 </i>
    <i name="bandstr">  -2488.79199664 </i>
    <i name="atom">  24834.46488499 </i>
    <i name="e_fr_energy">   -366.58928484 </i>
    <i name="e_wo_entrp">   -366.58787682 </i>
    <i name="e_0_energy">   -366.58881550 </i>
   </energy>
  </scstep>
  <scstep>
   <time name="diag">    0.08    0.08</time>
   <time name="diis">    0.73    0.74</time>
   <time name="orth">    0.01    0.01</time>
   <time name="total">    0.89    0.92</time>
   <energy>
    <i name="e_fr_energy">   -366.59279134 </i>
    <i name="e_wo_entrp">   -366.59095152 </i>
    <i name="e_0_energy">   -366.59217806 </i>
   </energy>
  </scstep>
  <scstep>
   <time name="diag">    0.07    0.08</time>
   <time name="diis">    0.78    0.78</time>
   <time name="orth">    0.01    0.01</time>
   <time name="total">    0.93    0.96</time>
   <energy>
    <i name="e_fr_energy">   -366.59005790 </i>
    <i name="e_wo_entrp">   -366.58853597 </i>
    <i name="e_0_energy">   -366.58955059 </i>
   </energy>
  </scstep>
  <scstep>
   <time name="diag">    0.12    0.12</time>
   <time name="diis">    0.80    0.80</time>
   <time name="orth">    0.01    0.01</time>
   <time name="total">    1.02    1.06</time>
   <energy>
    <i name="e_fr_energy">   -366.58898120 </i>
    <i name="e_wo_entrp">   -366.58751356 </i>
    <i name="e_0_energy">   -366.58849198 </i>
   </energy>
  </scstep>
  <scstep>
   <time name="diag">    0.07    0.07</time>
   <time name="diis">    0.79    0.81</time>
   <time name="orth">    0.01    0.01</time>
   <time name="total">    0.95    1.00</time>
   <energy>
    <i name="e_fr_energy">   -366.58881405 </i>
    <i name="e_wo_entrp">   -366.58724449 </i>
    <i name="e_0_energy">   -366.58829086 </i>
   </energy>
  </scstep>
  <scstep>
   <time name="diag">    0.08    0.09</time>
   <time name="diis">    0.81    0.81</time>
   <time name="orth">    0.01    0.01</time>
   <time name="total">    0.98    1.04</time>
   <energy>
    <i name="e_fr_energy">   -366.58881869 </i>
    <i name="e_wo_entrp">   -366.58732585 </i>
    <i name="e_0_energy">   -366.58832108 </i>
   </energy>
  </scstep>
  <scstep>
   <time name="diag">    0.08    0.08</time>
   <time name="diis">    0.78    0.78</time>
   <time name="orth">    0.01    0.01</time>
   <time name="total">    0.94    0.98</time>
   <energy>
    <i name="e_fr_energy">   -366.58881483 </i>
    <i name="e_wo_entrp">   -366.58725066 </i>
    <i name="e_0_energy">   -366.58829344 </i>
   </energy>
  </scstep>
  <scstep>
   <time name="diag">    0.08    0.08</time>
   <time name="diis">    0.67    0.67</time>
   <time name="orth">    0.01    0.01</time>
   <time name="total">    0.83    0.86</time>
   <energy>
    <i name="e_fr_energy">   -366.58881391 </i>
    <i name="e_wo_entrp">   -366.58728269 </i>
    <i name="e_0_energy">   -366.58830351 </i>
   </energy>
  </scstep>
  <scstep>
   <time name="diag">    0.08    0.08</time>
   <time name="diis">    0.49    0.49</time>
   <time name="orth">    0.01    0.01</time>
   <time name="total">    0.61    0.64</time>
   <energy>
    <i name="alphaZ">   1514.47458087 </i>
    <i name="ewald"> -19081.94498492 </i>
    <i name="hartreedc">  -6459.92267957 </i>
    <i name="XCdc">   -355.93453117 </i>
    <i name="pawpsdc">  33674.34602811 </i>
    <i name="pawaedc"> -32009.94130815 </i>
    <i name="eentropy">     -0.00152568 </i>
    <i name="bandstr">  -2482.12927850 </i>
    <i name="atom">  24834.46488499 </i>
    <i name="e_fr_energy">   -366.58881402 </i>
    <i name="e_wo_entrp">   -366.58728834 </i>
    <i name="e_0_energy">   -366.58830546 </i>
   </energy>
  </scstep>
  <structure>
   <crystal>
    <varray name="basis" >
     <v>       6.89111021       0.00598310      -0.00392781 </v>
     <v>       0.00922067      10.26074441       0.01225095 </v>
     <v>      -0.00556465       0.01188354      10.23367673 </v>
    </varray>
    <i name="volume">    723.60020883 </i>
    <varray name="rec_basis" >
     <v>       0.14511466      -0.00013050       0.00007906 </v>
     <v>      -0.00008468       0.09745903      -0.00011322 </v>
     <v>       0.00005580      -0.00011672       0.09771676 </v>
    </varray>
   </crystal>
   <varray name="positions" >
    <v>       0.25356750       0.16518241       0.50808518 </v>
    <v>       0.01686424       0.32665442       0.33962030 </v>
    <v>       0.00708472       0.33834124       0.66592190 </v>
    <v>       0.23414494       0.48483991       0.83382824 </v>
    <v>       0.25455453       0.86028473       0.51667510 </v>
    <v>       0.48252152       0.32416184       0.33528502 </v>
    <v>       0.76550246       0.49350305       0.81639983 </v>
    <v>       0.74872172       0.84849651       0.51629497 </v>
    <v>       0.24402741       0.84474657       0.83521371 </v>
    <v>       0.23699223       0.81593766       0.14272716 </v>
    <v>       0.49271446       0.34209226       0.67159440 </v>
    <v>       0.25290933       0.16466991       0.82202442 </v>
    <v>       0.24638984       0.50133758       0.16573866 </v>
    <v>       0.01554846       0.67929058       0.34525346 </v>
    <v>       0.50425465       0.00347239       0.01097136 </v>
    <v>       0.74731168       0.16771428       0.50527049 </v>
    <v>       0.51036756       0.32641954       0.99721964 </v>
    <v>       0.74449929       0.49014608       0.49917306 </v>
    <v>       0.48843882       0.68461201       0.34160579 </v>
    <v>       0.48834919       0.66224079       0.66503116 </v>
    <v>       0.98922520       0.00588403       0.00876607 </v>
    <v>       0.00238141       0.99705503       0.32825963 </v>
    <v>       0.98484155       0.32331038       0.99995666 </v>
    <v>       0.01535676       0.66441917       0.65794513 </v>
    <v>       0.49860866       0.99690620       0.32512865 </v>
    <v>       0.75215453       0.50487740       0.17428043 </v>
    <v>       0.49715361       0.66255308       0.98460315 </v>
    <v>       0.75671572       0.83408779       0.82549573 </v>
    <v>       0.24669177       0.18104369       0.17827606 </v>
    <v>       0.00236392       0.00034505       0.66764494 </v>
    <v>       0.25902495       0.48451612       0.49423667 </v>
    <v>       0.00293172       0.66453437       0.98937153 </v>
    <v>       0.75027730       0.18101288       0.19347012 </v>
    <v>       0.50022947       0.99865333       0.66873861 </v>
    <v>       0.74397377       0.16698763       0.81372860 </v>
    <v>       0.76329513       0.80967611       0.15616115 </v>
   </varray>
  </structure>
  <varray name="forces" >
   <v>      -0.00371629       0.01386091       0.00344848 </v>
   <v>       0.04869225      -0.02283614      -0.02308250 </v>
   <v>      -0.00646871       0.00729963       0.00164795 </v>
   <v>      -0.00835821      -0.00474407       0.00693584 </v>
   <v>       0.00659746       0.00195477       0.00629388 </v>
   <v>      -0.06613760      -0.01605109      -0.01826728 </v>
   <v>       0.00983439      -0.01835675       0.00605004 </v>
   <v>      -0.00127808       0.01259900      -0.00706249 </v>
   <v>      -0.00797489      -0.00653441      -0.00861999 </v>
   <v>       0.00162797      -0.01667454       0.00749917 </v>
   <v>       0.00931755       0.00749537       0.00523716 </v>
   <v>       0.01354119       0.00629726      -0.01594299 </v>
   <v>      -0.00457000       0.03209325      -0.00102964 </v>
   <v>      -0.01721670       0.02791133       0.02116129 </v>
   <v>      -0.01106414      -0.00793642      -0.00419539 </v>
   <v>       0.00095043       0.00625421       0.00085354 </v>
   <v>      -0.02453348       0.00192353       0.00867287 </v>
   <v>       0.00278178      -0.01514579      -0.00903658 </v>
   <v>       0.01067778       0.02437392       0.01392467 </v>
   <v>      -0.00793320       0.00603333      -0.00458719 </v>
   <v>       0.00392388      -0.00743149       0.00068542 </v>
   <v>       0.00170233      -0.00838276       0.00887732 </v>
   <v>       0.02478412      -0.00602610       0.01867714 </v>
   <v>       0.00901809       0.00340273       0.00197928 </v>
   <v>      -0.00772154      -0.00659278       0.00586917 </v>
   <v>       0.00354341      -0.01699638       0.00462987 </v>
   <v>       0.01402249       0.00549166      -0.02462025 </v>
   <v>       0.00601213       0.00504359       0.00725584 </v>
   <v>       0.01236277      -0.01924566       0.00376883 </v>
   <v>      -0.00212941      -0.02277556      -0.00045714 </v>
   <v>       0.00569002      -0.02062852      -0.01354763 </v>
   <v>      -0.01932894       0.01186376      -0.01118494 </v>
   <v>       0.00282675       0.03582505       0.01264413 </v>
   <v>       0.00347169      -0.02358226      -0.00121439 </v>
   <v>      -0.00262414       0.01618114       0.00270506 </v>
   <v>      -0.00032317       0.01403628      -0.00596855 </v>
  </varray>
  <varray name="stress" >
   <v>      -3.35362023      -0.02886898      -0.05133376 </v>
   <v>      -0.02886900      -3.41801397       0.01766380 </v>
   <v>      -0.05133371       0.01766386      -3.39920754 </v>
  </varray>
  <energy>
   <i name="e_fr_energy">   -366.58881402 </i>
   <i name="e_wo_entrp">   -366.58830546 </i>
   <i name="e_0_energy">     -0.00152568 </i>
  </energy>
  <time name="totalsc">    9.83   10.39</time>
 </calculation>
 <calculation>
  <scstep>
   <time name="dav">    0.94    0.95</time>
   <time name="total">    1.06    1.21</time>
   <energy>
    <i name="alphaZ">   1514.99279572 </i>
    <i name="ewald"> -19083.70050386 </i>
    <i name="hartreedc">  -6461.01504112 </i>
    <i name="XCdc">   -355.83991435 </i>
    <i name="pawpsdc">  33673.99772692 </i>
    <i name="pawaedc"> -32009.65524424 </i>
    <i name="eentropy">     -0.00161503 </i>
    <i name="bandstr">  -2479.83278197 </i>
    <i name="atom">  24834.46488499 </i>
    <i name="e_fr_energy">   -366.58969294 </i>
    <i name="e_wo_entrp">   -366.58807791 </i>
    <i name="e_0_energy">   -366.58915460 </i>
   </energy>
  </scstep>
  <scstep>
   <time name="diag">    0.08    0.08</time>
   <time name="diis">    0.75    0.75</time>
   <time name="orth">    0.01    0.01</time>
   <time name="total">    0.90    0.93</time>
   <energy>
    <i name="e_fr_energy">   -366.58969579 </i>
    <i name="e_wo_entrp">   -366.58803352 </i>
    <i name="e_0_energy">   -366.58914170 </i>
   </energy>
  </scstep>
  <scstep>
   <time name="diag">    0.07    0.07</time>
   <time name="diis">    0.77    0.78</time>
   <time name="orth">    0.01    0.01</time>
   <time name="total">    0.93    0.97</time>
   <energy>
    <i name="e_fr_energy">   -366.58964114 </i>
    <i name="e_wo_entrp">   -366.58796716 </i>
    <i name="e_0_energy">   -366.58908314 </i>
   </energy>
  </scstep>
  <scstep>
   <time name="diag">    0.07    0.08</time>
   <time name="diis">    0.69    0.70</time>
   <time name="orth">    0.01    0.01</time>
   <time name="total">    0.84    0.89</time>
   <energy>
    <i name="e_fr_energy">   -366.58960779 </i>
    <i name="e_wo_entrp">   -366.58794286 </i>
    <i name="e_0_energy">   -366.58905281 </i>
   </energy>
  </scstep>
  <scstep>
   <time name="diag">    0.08    0.08</time>
   <time name="diis">    0.46    0.46</time>
   <time name="orth">    0.01    0.01</time>
   <time name="total">    0.58    0.61</time>
   <energy>
    <i name="alphaZ">   1514.99279572 </i>
    <i name="ewald"> -19083.70050386 </i>
    <i name="hartreedc">  -6459.53657709 </i>
    <i name="XCdc">   -355.90290445 </i>
    <i name="pawpsdc">  33690.47586356 </i>
    <i name="pawaedc"> -32026.26665170 </i>
    <i name="eentropy">     -0.00168387 </i>
    <i name="bandstr">  -2481.11482352 </i>
    <i name="atom">  24834.46488499 </i>
    <i name="e_fr_energy">   -366.58960022 </i>
    <i name="e_wo_entrp">   -366.58791635 </i>
    <i name="e_0_energy">   -366.58903893 </i>
   </energy>
  </scstep>
  <structure>
   <crystal>
    <varray name="basis" >
     <v>       6.88996672       0.00605614      -0.00398986 </v>
     <v>       0.00932833      10.26012389       0.01228284 </v>
     <v>      -0.00565645       0.01191607      10.23249326 </v>
    </varray>
    <i name="volume">    723.35269586 </i>
    <varray name="rec_basis" >
     <v>       0.14513874      -0.00013205       0.00008039 </v>
     <v>      -0.00008574       0.09746492      -0.00011355 </v>
     <v>       0.00005670      -0.00011705       0.09772806 </v>
    </varray>
   </crystal>
   <varray name="positions" >
    <v>       0.25356989       0.16517892       0.50822718 </v>
    <v>       0.01694397       0.32661834       0.33959907 </v>
    <v>       0.00706056       0.33835366       0.66591530 </v>
    <v>       0.23413110       0.48481316       0.83384749 </v>
    <v>       0.25455708       0.86030558       0.51665209 </v>
    <v>       0.48244188       0.32413574       0.33526588 </v>
    <v>       0.76552180       0.49346590       0.81641791 </v>
    <v>       0.74872445       0.84850693       0.51626398 </v>
    <v>       0.24401065       0.84475533       0.83521649 </v>
    <v>       0.23699730       0.81587610       0.14273548 </v>
    <v>       0.49273276       0.34210375       0.67158112 </v>
    <v>       0.25292376       0.16468624       0.82194293 </v>
    <v>       0.24637978       0.50153866       0.16573580 </v>
    <v>       0.01552627       0.67930578       0.34527189 </v>
    <v>       0.50423385       0.00347202       0.01096414 </v>
    <v>       0.74731749       0.16771228       0.50524635 </v>
    <v>       0.51034745       0.32643549       0.99722303 </v>
    <v>       0.74450469       0.49015720       0.49918512 </v>
    <v>       0.48845822       0.68461634       0.34161734 </v>
    <v>       0.48835515       0.66224547       0.66503459 </v>
    <v>       0.98924649       0.00589805       0.00877782 </v>
    <v>       0.00242691       0.99709830       0.32825043 </v>
    <v>       0.98492353       0.32329275       0.99998866 </v>
    <v>       0.01534864       0.66442279       0.65795207 </v>
    <v>       0.49856566       0.99694861       0.32512416 </v>
    <v>       0.75215357       0.50483870       0.17428220 </v>
    <v>       0.49714860       0.66254906       0.98458465 </v>
    <v>       0.75672606       0.83408900       0.82550028 </v>
    <v>       0.24667235       0.18087616       0.17824420 </v>
    <v>       0.00235200       0.00031907       0.66764407 </v>
    <v>       0.25902358       0.48449673       0.49420801 </v>
    <v>       0.00291665       0.66453690       0.98936029 </v>
    <v>       0.75025427       0.18103732       0.19348280 </v>
    <v>       0.50024680       0.99862247       0.66874007 </v>
    <v>       0.74396460       0.16699402       0.81374440 </v>
    <v>       0.76328221       0.80970320       0.15616969 </v>
   </varray>
  </structure>
  <varray name="forces" >
   <v>      -0.00447703       0.01440233      -0.00641363 </v>
   <v>       0.04687271      -0.01973410      -0.02266342 </v>
   <v>      -0.00671895       0.00566459       0.00085233 </v>
   <v>      -0.00768217      -0.00207516       0.00733376 </v>
   <v>       0.00655042      -0.00183981       0.00666539 </v>
   <v>      -0.06503748      -0.01271397      -0.01726764 </v>
   <v>       0.00900368      -0.01624992       0.00701558 </v>
   <v>      -0.00108767       0.01178209      -0.00741503 </v>
   <v>      -0.00773062      -0.00816700      -0.00979153 </v>
   <v>       0.00244166      -0.01274691       0.00890033 </v>
   <v>       0.01024393       0.00635905       0.00570689 </v>
   <v>       0.01351773       0.00552437      -0.00999234 </v>
   <v>      -0.00465906       0.02208087      -0.00110787 </v>
   <v>      -0.01848702       0.02769266       0.02201881 </v>
   <v>      -0.01001264      -0.00750800      -0.00473992 </v>
   <v>       0.00095294       0.00656935       0.00255400 </v>
   <v>      -0.02594549       0.00113896       0.00936834 </v>
   <v>       0.00296087      -0.01608957      -0.01219445 </v>
   <v>       0.01176914       0.02450745       0.01488670 </v>
   <v>      -0.00807057       0.00595463      -0.00599447 </v>
   <v>       0.00295223      -0.00807601      -0.00042246 </v>
   <v>      -0.00113013      -0.01209320       0.00992876 </v>
   <v>       0.02394148      -0.00564254       0.01871545 </v>
   <v>       0.00957470       0.00293983       0.00127763 </v>
   <v>      -0.00562284      -0.01027780       0.00595387 </v>
   <v>       0.00348398      -0.01614217       0.00469271 </v>
   <v>       0.01693421       0.00564832      -0.02575749 </v>
   <v>       0.00576975       0.00526258       0.00860111 </v>
   <v>       0.01395942      -0.01481657       0.00333356 </v>
   <v>      -0.00251086      -0.02125706       0.00076157 </v>
   <v>       0.00525579      -0.01802975      -0.01174073 </v>
   <v>      -0.02170204       0.01178691      -0.01146218 </v>
   <v>       0.00402214       0.03505821       0.00998846 </v>
   <v>       0.00394745      -0.02194007       0.00012594 </v>
   <v>      -0.00201328       0.01691221       0.00467984 </v>
   <v>      -0.00126639       0.01611519      -0.00639789 </v>
  </varray>
  <varray name="stress" >
   <v>      -3.05225571      -0.03254551      -0.04634561 </v>
   <v>      -0.03254551      -3.16558558       0.02278042 </v>
   <v>      -0.04634561       0.02278042      -3.12950482 </v>
  </varray>
  <energy>
   <i name="e_fr_energy">   -366.58960022 </i>
   <i name="e_wo_entrp">   -366.58903893 </i>
   <i name="e_0_energy">     -0.00168387 </i>
  </energy>
  <time name="totalsc">    5.88    6.28</time>
 </calculation>
 <calculation>
  <scstep>
   <time name="dav">    1.04    1.05</time>
   <time name="total">    1.16    1.31</time>
   <energy>
    <i name="alphaZ">   1516.54891400 </i>
    <i name="ewald"> -19088.95744357 </i>
    <i name="hartreedc">  -6462.95535646 </i>
    <i name="XCdc">   -355.61327007 </i>
    <i name="pawpsdc">  33688.86749319 </i>
    <i name="pawaedc"> -32024.67072712 </i>
    <i name="eentropy">     -0.00190277 </i>
    <i name="bandstr">  -2474.27448641 </i>
    <i name="atom">  24834.46488499 </i>
    <i name="e_fr_energy">   -366.59189422 </i>
    <i name="e_wo_entrp">   -366.58999145 </i>
    <i name="e_0_energy">   -366.59125996 </i>
   </energy>
  </scstep>
  <scstep>
   <time name="diag">    0.11    0.11</time>
   <time name="diis">    0.70    0.71</time>
   <time name="orth">    0.01    0.01</time>
   <time name="total">    0.89    0.92</time>
   <energy>
    <i name="e_fr_energy">   -366.59198794 </i>
    <i name="e_wo_entrp">   -366.58992595 </i>
    <i name="e_0_energy">   -366.59130061 </i>
   </energy>
  </scstep>
  <scstep>
   <time name="diag">    0.08    0.08</time>
   <time name="diis">    0.81    0.82</time>
   <time name="orth">    0.01    0.01</time>
   <time name="total">    0.97    1.00</time>
   <energy>
    <i name="e_fr_energy">   -366.59142885 </i>
    <i name="e_wo_entrp">   -366.58933875 </i>
    <i name="e_0_energy">   -366.59073215 </i>
   </energy>
  </scstep>
  <scstep>
   <time name="diag">    0.08    0.08</time>
   <time name="diis">    0.79    0.80</time>
   <time name="orth">    0.01    0.01</time>
   <time name="total">    0.96    1.00</time>
   <energy>
    <i name="e_fr_energy">   -366.59117103 </i>
    <i name="e_wo_entrp">   -366.58911227 </i>
    <i name="e_0_energy">   -366.59048478 </i>
   </energy>
  </scstep>
  <scstep>
   <time name="diag">    0.07    0.08</time>
   <time name="diis">    0.77    0.77</time>
   <time name="orth">    0.01    0.01</time>
   <time name="total">    0.92    0.96</time>
   <energy>
    <i name="e_fr_energy">   -366.59112217 </i>
    <i name="e_wo_entrp">   -366.58899949 </i>
    <i name="e_0_energy">   -366.59041461 </i>
   </energy>
  </scstep>
  <scstep>
   <time name="diag">    0.08    0.08</time>
   <time name="diis">    0.70    0.71</time>
   <time name="orth">    0.01    0.01</time>
   <time name="total">    0.85    0.89</time>
   <energy>
    <i name="e_fr_energy">   -366.59113626 </i>
    <i name="e_wo_entrp">   -366.58905983 </i>
    <i name="e_0_energy">   -366.59044412 </i>
   </energy>
  </scstep>
  <scstep>
   <time name="diag">    0.08    0.08</time>
   <time name="diis">    0.53    0.53</time>
   <time name="orth">    0.01    0.01</time>
   <time name="total">    0.68    0.71</time>
   <energy>
    <i name="e_fr_energy">   -366.59114856 </i>
    <i name="e_wo_entrp">   -366.58905239 </i>
    <i name="e_0_energy">   -366.59044984 </i>
   </energy>
  </scstep>
  <scstep>
   <time name="diag">    0.07    0.08</time>
   <time name="diis">    0.44    0.44</time>
   <time name="orth">    0.01    0.01</time>
   <time name="total">    0.56    0.59</time>
   <energy>
    <i name="alphaZ">   1516.54891400 </i>
    <i name="ewald"> -19088.95744357 </i>
    <i name="hartreedc">  -6458.96744996 </i>
    <i name="XCdc">   -355.78195555 </i>
    <i name="pawpsdc">  33733.90231107 </i>
    <i name="pawaedc"> -32069.72942071 </i>
    <i name="eentropy">     -0.00209562 </i>
    <i name="bandstr">  -2478.06890247 </i>
    <i name="atom">  24834.46488499 </i>
    <i name="e_fr_energy">   -366.59115782 </i>
    <i name="e_wo_entrp">   -366.58906220 </i>
    <i name="e_0_energy">   -366.59045928 </i>
   </energy>
  </scstep>
  <structure>
   <crystal>
    <varray name="basis" >
     <v>       6.88653625       0.00627524      -0.00417601 </v>
     <v>       0.00965133      10.25826232       0.01237852 </v>
     <v>      -0.00593185       0.01201365      10.22894286 </v>
    </varray>
    <i name="volume">    722.61046965 </i>
    <varray name="rec_basis" >
     <v>       0.14521106      -0.00013672       0.00008437 </v>
     <v>      -0.00008890       0.09748262      -0.00011454 </v>
     <v>       0.00005939      -0.00011802       0.09776199 </v>
    </varray>
   </crystal>
   <varray name="positions" >
    <v>       0.25357706       0.16516846       0.50865321 </v>
    <v>       0.01718319       0.32651010       0.33953537 </v>
    <v>       0.00698807       0.33839094       0.66589550 </v>
    <v>       0.23408956       0.48473293       0.83390526 </v>
    <v>       0.25456471       0.86036812       0.51658305 </v>
    <v>       0.48220291       0.32405746       0.33520842 </v>
    <v>       0.76557983       0.49335445       0.81647216 </v>
    <v>       0.74873267       0.84853821       0.51617101 </v>
    <v>       0.24396037       0.84478160       0.83522486 </v>
    <v>       0.23701252       0.81569139       0.14276045 </v>
    <v>       0.49278768       0.34213823       0.67154127 </v>
    <v>       0.25296703       0.16473521       0.82169844 </v>
    <v>       0.24634957       0.50214192       0.16572721 </v>
    <v>       0.01545967       0.67935138       0.34532718 </v>
    <v>       0.50417145       0.00347091       0.01094249 </v>
    <v>       0.74733493       0.16770630       0.50517392 </v>
    <v>       0.51028711       0.32648334       0.99723323 </v>
    <v>       0.74452089       0.49019054       0.49922130 </v>
    <v>       0.48851642       0.68462932       0.34165199 </v>
    <v>       0.48837304       0.66225951       0.66504490 </v>
    <v>       0.98931037       0.00594012       0.00881309 </v>
    <v>       0.00256343       0.99722811       0.32822283 </v>
    <v>       0.98516950       0.32323986       0.00008469 </v>
    <v>       0.01532428       0.66443366       0.65797291 </v>
    <v>       0.49843665       0.99707583       0.32511070 </v>
    <v>       0.75215068       0.50472261       0.17428751 </v>
    <v>       0.49713359       0.66253699       0.98452913 </v>
    <v>       0.75675709       0.83409261       0.82551393 </v>
    <v>       0.24661409       0.18037354       0.17814861 </v>
    <v>       0.00231625       0.00024112       0.66764146 </v>
    <v>       0.25901947       0.48443856       0.49412201 </v>
    <v>       0.00287143       0.66454450       0.98932654 </v>
    <v>       0.75018516       0.18111067       0.19352083 </v>
    <v>       0.50029879       0.99852989       0.66874445 </v>
    <v>       0.74393711       0.16701318       0.81379179 </v>
    <v>       0.76324344       0.80978446       0.15619530 </v>
   </varray>
  </structure>
  <varray name="forces" >
   <v>      -0.00608480       0.01556134      -0.03550168 </v>
   <v>       0.04267477      -0.01301052      -0.02350009 </v>
   <v>      -0.00740565       0.00121331      -0.00008504 </v>
   <v>      -0.00463294       0.00644229       0.00867927 </v>
   <v>       0.00669724      -0.01341165       0.00648829 </v>
   <v>      -0.06330489      -0.00533866      -0.01656617 </v>
   <v>       0.00589288      -0.01010428       0.01022953 </v>
   <v>      -0.00086209       0.00836660      -0.00933106 </v>
   <v>      -0.00623089      -0.01421978      -0.01189170 </v>
   <v>       0.00674343      -0.00042286       0.01472827 </v>
   <v>       0.01281892       0.00343506       0.00840271 </v>
   <v>       0.01423573       0.00309180       0.00817915 </v>
   <v>      -0.00388789      -0.00624692      -0.00291419 </v>
   <v>      -0.02288357       0.02958108       0.02272848 </v>
   <v>      -0.00899541      -0.00883825      -0.00412032 </v>
   <v>       0.00041939       0.00701051       0.00771462 </v>
   <v>      -0.03148083      -0.00044582       0.01216740 </v>
   <v>       0.00330132      -0.01738783      -0.02083053 </v>
   <v>       0.01517371       0.02719231       0.01496681 </v>
   <v>      -0.00848133       0.00649032      -0.00915620 </v>
   <v>       0.00012664      -0.01113313      -0.00283738 </v>
   <v>      -0.00821338      -0.02345996       0.01290688 </v>
   <v>       0.02106376      -0.00450778       0.01901533 </v>
   <v>       0.01116907       0.00210230      -0.00088445 </v>
   <v>      -0.00066517      -0.02137241       0.00639064 </v>
   <v>       0.00320977      -0.01289127       0.00535686 </v>
   <v>       0.02508718       0.00617216      -0.02754239 </v>
   <v>       0.00521818       0.00552361       0.01253503 </v>
   <v>       0.01810059       0.00267204       0.00381585 </v>
   <v>      -0.00396947      -0.01744252       0.00394142 </v>
   <v>       0.00563807      -0.01144595      -0.00827628 </v>
   <v>      -0.02944070       0.01171621      -0.01229305 </v>
   <v>       0.00769040       0.03494162       0.00476376 </v>
   <v>       0.00558201      -0.01817488       0.00298817 </v>
   <v>      -0.00039539       0.01922203       0.00809502 </v>
   <v>      -0.00390868       0.01911988      -0.00836299 </v>
  </varray>
  <varray name="stress" >
   <v>      -1.55714251      -0.05621632      -0.03377626 </v>
   <v>      -0.05621635      -1.85166900       0.02790133 </v>
   <v>      -0.03377633       0.02790137      -1.71594672 </v>
  </varray>
  <energy>
   <i name="e_fr_energy">   -366.59115782 </i>
   <i name="e_wo_entrp">   -366.59045928 </i>
   <i name="e_0_energy">     -0.00209562 </i>
  </energy>
  <time name="totalsc">    8.54    9.06</time>
 </calculation>
 <calculation>
  <scstep>
   <time name="dav">    0.94    0.94</time>
   <time name="total">    1.04    1.17</time>
   <energy>
    <i name="alphaZ">   1519.66779581 </i>
    <i name="ewald"> -19099.42797235 </i>
    <i name="hartreedc">  -6465.91712799 </i>
    <i name="XCdc">   -355.20005014 </i>
    <i name="pawpsdc">  33733.81497190 </i>
    <i name="pawaedc"> -32069.61609201 </i>
    <i name="eentropy">     -0.00250426 </i>
    <i name="bandstr">  -2464.37731581 </i>
    <i name="atom">  24834.46488499 </i>
    <i name="e_fr_energy">   -366.59340985 </i>
    <i name="e_wo_entrp">   -366.59090559 </i>
    <i name="e_0_energy">   -366.59257510 </i>
[...]
       <r>    6.7937    1.0000 </r>
       <r>    6.8227    1.0000 </r>
       <r>    6.8896    1.0000 </r>
       <r>    6.9012    1.0000 </r>
       <r>    6.9251    1.0000 </r>
       <r>    6.9496    1.0000 </r>
       <r>    7.0164    1.0001 </r>
       <r>    7.0203    1.0001 </r>
       <r>    7.0406    1.0002 </r>
       <r>    7.1187    1.0020 </r>
       <r>    7.1489    1.0045 </r>
       <r>    7.1988    1.0131 </r>
       <r>    7.2378    1.0242 </r>
       <r>    7.2615    1.0311 </r>
       <r>    7.3162    1.0298 </r>
       <r>    7.3380    1.0127 </r>
       <r>    7.3649    0.9694 </r>
       <r>    7.3907    0.8994 </r>
       <r>    7.4122    0.8186 </r>
       <r>    7.4853    0.4373 </r>
       <r>    7.5011    0.3507 </r>
       <r>    7.5300    0.2077 </r>
       <r>    7.6011   -0.0009 </r>
       <r>    7.6413   -0.0333 </r>
       <r>    7.6648   -0.0351 </r>
       <r>    7.6937   -0.0292 </r>
       <r>    7.7255   -0.0196 </r>
       <r>    7.7395   -0.0157 </r>
       <r>    7.8119   -0.0033 </r>
       <r>    7.8751   -0.0005 </r>
       <r>    7.8789   -0.0005 </r>
       <r>    7.9113   -0.0001 </r>
       <r>    7.9434   -0.0000 </r>
       <r>    7.9922   -0.0000 </r>
       <r>    8.0378   -0.0000 </r>
       <r>    8.0911   -0.0000 </r>
       <r>    8.1660   -0.0000 </r>
       <r>    8.1985   -0.0000 </r>
       <r>    8.2592   -0.0000 </r>
       <r>    8.2947   -0.0000 </r>
       <r>    8.3762   -0.0000 </r>
       <r>    8.5609   -0.0000 </r>
       <r>    8.8240   -0.0000 </r>
       <r>    8.8504   -0.0000 </r>
       <r>    9.2897   -0.0000 </r>
       <r>    9.3933   -0.0000 </r>
       <r>    9.4933   -0.0000 </r>
       <r>    9.5143   -0.0000 </r>
       <r>    9.5750   -0.0000 </r>
      </set>
     </set>
    </set>
   </array>
  </eigenvalues>
  <separator name="orbital magnetization" >
   <v name="MAGDIPOLOUT">      0.00000000      0.00000000      0.00000000</v>
  </separator>
  <dos>
   <i name="efermi">      7.47416281 </i>
   <total>
    <array>
     <dimension dim="1">gridpoints</dimension>
     <dimension dim="2">spin</dimension>
     <field>energy</field>
     <field>total</field>
     <field>integrated</field>
     <set>
      <set comment="spin 1">
       <r>   -49.6014     0.0000     0.0000 </r>
       <r>   -49.3947     0.0000     0.0000 </r>
       <r>   -49.1879     0.0000     0.0000 </r>
       <r>   -48.9812     0.0000     0.0000 </r>
       <r>   -48.7745     0.0000     0.0000 </r>
       <r>   -48.5677     0.0000     0.0000 </r>
       <r>   -48.3610     0.0000     0.0000 </r>
       <r>   -48.1542    -0.0000    -0.0000 </r>
       <r>   -47.9475    -0.0000    -0.0000 </r>
       <r>   -47.7408    -0.0000    -0.0000 </r>
       <r>   -47.5340    -0.0000    -0.0000 </r>
       <r>   -47.3273    -0.0000    -0.0000 </r>
       <r>   -47.1206    -0.0586    -0.0121 </r>
       <r>   -46.9138    -0.5185    -0.1193 </r>
       <r>   -46.7071    20.3852     4.0950 </r>
       <r>   -46.5004    41.7460    12.7255 </r>
       <r>   -46.2936    16.9710    16.2340 </r>
       <r>   -46.0869    -1.1209    16.0023 </r>
       <r>   -45.8801    -0.0109    16.0000 </r>
       <r>   -45.6734    -0.0000    16.0000 </r>
       <r>   -45.4667    -0.0000    16.0000 </r>
       <r>   -45.2599     0.0000    16.0000 </r>
       <r>   -45.0532     0.0000    16.0000 </r>
       <r>   -44.8465     0.0000    16.0000 </r>
       <r>   -44.6397     0.0000    16.0000 </r>
       <r>   -44.4330     0.0000    16.0000 </r>
       <r>   -44.2263     0.0000    16.0000 </r>
       <r>   -44.0195     0.0000    16.0000 </r>
       <r>   -43.8128     0.0000    16.0000 </r>
       <r>   -43.6060     0.0000    16.0000 </r>
       <r>   -43.3993     0.0000    16.0000 </r>
       <r>   -43.1926     0.0000    16.0000 </r>
       <r>   -42.9858     0.0000    16.0000 </r>
       <r>   -42.7791     0.0000    16.0000 </r>
       <r>   -42.5724     0.0000    16.0000 </r>
       <r>   -42.3656     0.0000    16.0000 </r>
       <r>   -42.1589    -0.0000    16.0000 </r>
       <r>   -41.9521    -0.0000    16.0000 </r>
       <r>   -41.7454    -0.0000    16.0000 </r>
       <r>   -41.5387    -0.0000    16.0000 </r>
       <r>   -41.3319    -0.0000    16.0000 </r>
       <r>   -41.1252    -0.0275    15.9943 </r>
       <r>   -40.9185    -0.9899    15.7897 </r>
       <r>   -40.7117    18.8790    19.6926 </r>
       <r>   -40.5050    52.8276    30.6140 </r>
       <r>   -40.2983     7.3514    32.1338 </r>
       <r>   -40.0915    -0.6449    32.0005 </r>
       <r>   -39.8848    -0.0024    32.0000 </r>
       <r>   -39.6780    -0.0000    32.0000 </r>
       <r>   -39.4713    -0.0000    32.0000 </r>
       <r>   -39.2646     0.0000    32.0000 </r>
       <r>   -39.0578     0.0000    32.0000 </r>
       <r>   -38.8511     0.0000    32.0000 </r>
       <r>   -38.6444     0.0000    32.0000 </r>
       <r>   -38.4376     0.0000    32.0000 </r>
       <r>   -38.2309     0.0000    32.0000 </r>
       <r>   -38.0242     0.0000    32.0000 </r>
       <r>   -37.8174     0.0000    32.0000 </r>
       <r>   -37.6107     0.0000    32.0000 </r>
       <r>   -37.4039     0.0000    32.0000 </r>
       <r>   -37.1972     0.0000    32.0000 </r>
       <r>   -36.9905     0.0000    32.0000 </r>
       <r>   -36.7837     0.0000    32.0000 </r>
       <r>   -36.5770     0.0000    32.0000 </r>
       <r>   -36.3703     0.0000    32.0000 </r>
       <r>   -36.1635     0.0000    32.0000 </r>
       <r>   -35.9568     0.0000    32.0000 </r>
       <r>   -35.7501     0.0000    32.0000 </r>
       <r>   -35.5433     0.0000    32.0000 </r>
       <r>   -35.3366     0.0000    32.0000 </r>
       <r>   -35.1298     0.0000    32.0000 </r>
       <r>   -34.9231     0.0000    32.0000 </r>
       <r>   -34.7164     0.0000    32.0000 </r>
       <r>   -34.5096     0.0000    32.0000 </r>
       <r>   -34.3029     0.0000    32.0000 </r>
       <r>   -34.0962     0.0000    32.0000 </r>
       <r>   -33.8894     0.0000    32.0000 </r>
       <r>   -33.6827     0.0000    32.0000 </r>
       <r>   -33.4759     0.0000    32.0000 </r>
       <r>   -33.2692     0.0000    32.0000 </r>
       <r>   -33.0625     0.0000    32.0000 </r>
       <r>   -32.8557     0.0000    32.0000 </r>
       <r>   -32.6490     0.0000    32.0000 </r>
       <r>   -32.4423     0.0000    32.0000 </r>
       <r>   -32.2355     0.0000    32.0000 </r>
       <r>   -32.0288     0.0000    32.0000 </r>
       <r>   -31.8221     0.0000    32.0000 </r>
       <r>   -31.6153     0.0000    32.0000 </r>
       <r>   -31.4086     0.0000    32.0000 </r>
       <r>   -31.2018     0.0000    32.0000 </r>
       <r>   -30.9951     0.0000    32.0000 </r>
       <r>   -30.7884     0.0000    32.0000 </r>
       <r>   -30.5816     0.0000    32.0000 </r>
       <r>   -30.3749     0.0000    32.0000 </r>
       <r>   -30.1682     0.0000    32.0000 </r>
       <r>   -29.9614     0.0000    32.0000 </r>
       <r>   -29.7547     0.0000    32.0000 </r>
       <r>   -29.5480     0.0000    32.0000 </r>
       <r>   -29.3412     0.0000    32.0000 </r>
       <r>   -29.1345     0.0000    32.0000 </r>
       <r>   -28.9277     0.0000    32.0000 </r>
       <r>   -28.7210     0.0000    32.0000 </r>
       <r>   -28.5143     0.0000    32.0000 </r>
       <r>   -28.3075     0.0000    32.0000 </r>
       <r>   -28.1008     0.0000    32.0000 </r>
       <r>   -27.8941     0.0000    32.0000 </r>
       <r>   -27.6873     0.0000    32.0000 </r>
       <r>   -27.4806     0.0000    32.0000 </r>
       <r>   -27.2738     0.0000    32.0000 </r>
       <r>   -27.0671     0.0000    32.0000 </r>
       <r>   -26.8604     0.0000    32.0000 </r>
       <r>   -26.6536     0.0000    32.0000 </r>
       <r>   -26.4469     0.0000    32.0000 </r>
       <r>   -26.2402     0.0000    32.0000 </r>
       <r>   -26.0334     0.0000    32.0000 </r>
       <r>   -25.8267     0.0000    32.0000 </r>
       <r>   -25.6200     0.0000    32.0000 </r>
       <r>   -25.4132     0.0000    32.0000 </r>
       <r>   -25.2065     0.0000    32.0000 </r>
       <r>   -24.9997     0.0000    32.0000 </r>
       <r>   -24.7930     0.0000    32.0000 </r>
       <r>   -24.5863     0.0000    32.0000 </r>
       <r>   -24.3795    -0.0000    32.0000 </r>
       <r>   -24.1728    -0.0000    32.0000 </r>
       <r>   -23.9661    -0.0000    32.0000 </r>
       <r>   -23.7593    -0.0000    32.0000 </r>
       <r>   -23.5526    -0.0007    31.9998 </r>
       <r>   -23.3459    -0.3108    31.9356 </r>
       <r>   -23.1391     2.6937    32.4925 </r>
       <r>   -22.9324    33.4996    39.4181 </r>
       <r>   -22.7256    91.6416    58.3638 </r>
       <r>   -22.5189    89.8900    76.9473 </r>
       <r>   -22.3122    15.9665    80.2482 </r>
       <r>   -22.1054    -1.1835    80.0035 </r>
       <r>   -21.8987    -0.0169    80.0000 </r>
       <r>   -21.6920    -0.0000    80.0000 </r>
       <r>   -21.4852    -0.0000    80.0000 </r>
       <r>   -21.2785     0.0000    80.0000 </r>
       <r>   -21.0718     0.0000    80.0000 </r>
       <r>   -20.8650     0.0000    80.0000 </r>
       <r>   -20.6583     0.0000    80.0000 </r>
       <r>   -20.4515    -0.0000    80.0000 </r>
       <r>   -20.2448    -0.0000    80.0000 </r>
       <r>   -20.0381    -0.0000    80.0000 </r>
       <r>   -19.8313    -0.0000    80.0000 </r>
       <r>   -19.6246    -0.0000    80.0000 </r>
       <r>   -19.4179    -0.0188    79.9961 </r>
       <r>   -19.2111    -1.1972    79.7486 </r>
       <r>   -19.0044    17.7420    83.4165 </r>
       <r>   -18.7976    71.9555    98.2924 </r>
       <r>   -18.5909    99.3202   118.8255 </r>
       <r>   -18.3842    43.9436   127.9102 </r>
       <r>   -18.1774     0.6677   128.0483 </r>
       <r>   -17.9707    -0.2331   128.0001 </r>
       <r>   -17.7640    -0.0004   128.0000 </r>
       <r>   -17.5572    -0.0000   128.0000 </r>
       <r>   -17.3505    -0.0000   128.0000 </r>
       <r>   -17.1438     0.0000   128.0000 </r>
       <r>   -16.9370     0.0000   128.0000 </r>
       <r>   -16.7303     0.0000   128.0000 </r>
       <r>   -16.5235     0.0000   128.0000 </r>
       <r>   -16.3168     0.0000   128.0000 </r>
       <r>   -16.1101     0.0000   128.0000 </r>
       <r>   -15.9033     0.0000   128.0000 </r>
       <r>   -15.6966     0.0000   128.0000 </r>
       <r>   -15.4899     0.0000   128.0000 </r>
       <r>   -15.2831     0.0000   128.0000 </r>
       <r>   -15.0764     0.0000   128.0000 </r>
       <r>   -14.8697     0.0000   128.0000 </r>
       <r>   -14.6629     0.0000   128.0000 </r>
       <r>   -14.4562     0.0000   128.0000 </r>
       <r>   -14.2494     0.0000   128.0000 </r>
       <r>   -14.0427     0.0000   128.0000 </r>
       <r>   -13.8360     0.0000   128.0000 </r>
       <r>   -13.6292     0.0000   128.0000 </r>
       <r>   -13.4225     0.0000   128.0000 </r>
       <r>   -13.2158     0.0000   128.0000 </r>
       <r>   -13.0090     0.0000   128.0000 </r>
       <r>   -12.8023     0.0000   128.0000 </r>
       <r>   -12.5955     0.0000   128.0000 </r>
       <r>   -12.3888     0.0000   128.0000 </r>
       <r>   -12.1821     0.0000   128.0000 </r>
       <r>   -11.9753     0.0000   128.0000 </r>
       <r>   -11.7686     0.0000   128.0000 </r>
       <r>   -11.5619     0.0000   128.0000 </r>
       <r>   -11.3551     0.0000   128.0000 </r>
       <r>   -11.1484     0.0000   128.0000 </r>
       <r>   -10.9417     0.0000   128.0000 </r>
       <r>   -10.7349     0.0000   128.0000 </r>
       <r>   -10.5282     0.0000   128.0000 </r>
       <r>   -10.3214     0.0000   128.0000 </r>
       <r>   -10.1147     0.0000   128.0000 </r>
       <r>    -9.9080     0.0000   128.0000 </r>
       <r>    -9.7012     0.0000   128.0000 </r>
       <r>    -9.4945     0.0000   128.0000 </r>
       <r>    -9.2878     0.0000   128.0000 </r>
       <r>    -9.0810     0.0000   128.0000 </r>
       <r>    -8.8743     0.0000   128.0000 </r>
       <r>    -8.6676     0.0000   128.0000 </r>
       <r>    -8.4608     0.0000   128.0000 </r>
       <r>    -8.2541     0.0000   128.0000 </r>
       <r>    -8.0473     0.0000   128.0000 </r>
       <r>    -7.8406     0.0000   128.0000 </r>
       <r>    -7.6339     0.0000   128.0000 </r>
       <r>    -7.4271     0.0000   128.0000 </r>
       <r>    -7.2204     0.0000   128.0000 </r>
       <r>    -7.0137     0.0000   128.0000 </r>
       <r>    -6.8069     0.0000   128.0000 </r>
       <r>    -6.6002     0.0000   128.0000 </r>
       <r>    -6.3935     0.0000   128.0000 </r>
       <r>    -6.1867     0.0000   128.0000 </r>
       <r>    -5.9800     0.0000   128.0000 </r>
       <r>    -5.7732     0.0000   128.0000 </r>
       <r>    -5.5665     0.0000   128.0000 </r>
       <r>    -5.3598     0.0000   128.0000 </r>
       <r>    -5.1530     0.0000   128.0000 </r>
       <r>    -4.9463     0.0000   128.0000 </r>
       <r>    -4.7396     0.0000   128.0000 </r>
       <r>    -4.5328     0.0000   128.0000 </r>
       <r>    -4.3261     0.0000   128.0000 </r>
       <r>    -4.1193     0.0000   128.0000 </r>
       <r>    -3.9126     0.0000   128.0000 </r>
       <r>    -3.7059     0.0000   128.0000 </r>
       <r>    -3.4991     0.0000   128.0000 </r>
       <r>    -3.2924     0.0000   128.0000 </r>
       <r>    -3.0857     0.0000   128.0000 </r>
       <r>    -2.8789     0.0000   128.0000 </r>
       <r>    -2.6722     0.0000   128.0000 </r>
       <r>    -2.4655     0.0000   128.0000 </r>
       <r>    -2.2587     0.0000   128.0000 </r>
       <r>    -2.0520     0.0000   128.0000 </r>
       <r>    -1.8452     0.0000   128.0000 </r>
       <r>    -1.6385     0.0000   128.0000 </r>
       <r>    -1.4318     0.0000   128.0000 </r>
       <r>    -1.2250     0.0000   128.0000 </r>
       <r>    -1.0183     0.0000   128.0000 </r>
       <r>    -0.8116     0.0000   128.0000 </r>
       <r>    -0.6048    -0.0000   128.0000 </r>
       <r>    -0.3981    -0.0000   128.0000 </r>
       <r>    -0.1914    -0.0000   128.0000 </r>
       <r>     0.0154    -0.0000   128.0000 </r>
       <r>     0.2221    -0.0001   128.0000 </r>
       <r>     0.4289    -0.0101   127.9979 </r>
       <r>     0.6356     0.1174   128.0222 </r>
       <r>     0.8423     0.7359   128.1743 </r>
       <r>     1.0491     1.5499   128.4947 </r>
       <r>     1.2558     1.6366   128.8331 </r>
       <r>     1.4625     2.8923   129.4310 </r>
       <r>     1.6693     3.8037   130.2174 </r>
       <r>     1.8760     2.3128   130.6955 </r>
       <r>     2.0828     3.1417   131.3450 </r>
       <r>     2.2895     4.7682   132.3308 </r>
       <r>     2.4962     3.6572   133.0868 </r>
       <r>     2.7030     5.5103   134.2260 </r>
       <r>     2.9097     8.9225   136.0706 </r>
       <r>     3.1164     6.3997   137.3937 </r>
       <r>     3.3232     7.7619   138.9984 </r>
       <r>     3.5299     8.7620   140.8098 </r>
       <r>     3.7366    13.6012   143.6216 </r>
       <r>     3.9434    19.1601   147.5827 </r>
       <r>     4.1501    22.8444   152.3055 </r>
       <r>     4.3569    24.1997   157.3085 </r>
       <r>     4.5636    30.4353   163.6006 </r>
       <r>     4.7703    34.3068   170.6930 </r>
       <r>     4.9771    39.6178   178.8835 </r>
       <r>     5.1838    37.1323   186.5601 </r>
       <r>     5.3905    37.4163   194.2954 </r>
       <r>     5.5973    34.0256   201.3297 </r>
       <r>     5.8040    29.3755   207.4027 </r>
       <r>     6.0107    13.3017   210.1527 </r>
       <r>     6.2175    46.8736   219.8432 </r>
       <r>     6.4242    67.2817   233.7528 </r>
       <r>     6.6310    57.0570   245.5485 </r>
       <r>     6.8377    53.4712   256.6030 </r>
       <r>     7.0444    57.2085   268.4301 </r>
       <r>     7.2512    55.7179   279.9490 </r>
       <r>     7.4579    49.6388   290.2111 </r>
       <r>     7.6646    46.6949   299.8647 </r>
       <r>     7.8714    46.6561   309.5102 </r>
       <r>     8.0781    42.6263   318.3226 </r>
       <r>     8.2848    33.4440   325.2367 </r>
       <r>     8.4916    25.9970   330.6112 </r>
       <r>     8.6983    23.4923   335.4680 </r>
       <r>     8.9051    17.4004   339.0653 </r>
       <r>     9.1118    13.3270   341.8204 </r>
       <r>     9.3185    22.9230   346.5595 </r>
       <r>     9.5253    19.8514   350.6635 </r>
       <r>     9.7320     6.8603   352.0818 </r>
       <r>     9.9387    -0.3860   352.0020 </r>
       <r>    10.1455    -0.0096   352.0000 </r>
       <r>    10.3522    -0.0000   352.0000 </r>
       <r>    10.5590    -0.0000   352.0000 </r>
       <r>    10.7657     0.0000   352.0000 </r>
       <r>    10.9724     0.0000   352.0000 </r>
       <r>    11.1792     0.0000   352.0000 </r>
       <r>    11.3859     0.0000   352.0000 </r>
       <r>    11.5926     0.0000   352.0000 </r>
       <r>    11.7994     0.0000   352.0000 </r>
       <r>    12.0061     0.0000   352.0000 </r>
       <r>    12.2128     0.0000   352.0000 </r>
       <r>    12.4196     0.0000   352.0000 </r>
      </set>
     </set>
    </array>
   </total>
  </dos>
 </calculation>
 <structure name="finalpos" >
  <crystal>
   <varray name="basis" >
    <v>       6.88443113       0.00588456      -0.00487692 </v>
    <v>       0.00907059      10.25322687       0.01459652 </v>
    <v>      -0.00697543       0.01422407      10.22667562 </v>
   </varray>
   <i name="volume">    721.87451335 </i>
   <varray name="rec_basis" >
    <v>       0.14525546      -0.00012864       0.00009926 </v>
    <v>      -0.00008346       0.09753054      -0.00013571 </v>
    <v>       0.00006939      -0.00013927       0.09778373 </v>
   </varray>
  </crystal>
  <varray name="positions" >
   <v>       0.25333288       0.16502912       0.50843433 </v>
   <v>       0.01876717       0.32624277       0.33889572 </v>
   <v>       0.00681475       0.33838104       0.66592829 </v>
   <v>       0.23358780       0.48510215       0.83410783 </v>
   <v>       0.25461398       0.85996486       0.51692770 </v>
   <v>       0.48037632       0.32409147       0.33472184 </v>
   <v>       0.76637873       0.49293619       0.81706389 </v>
   <v>       0.74876914       0.84912596       0.51632019 </v>
   <v>       0.24372848       0.84428848       0.83471456 </v>
   <v>       0.23746913       0.81490269       0.14317033 </v>
   <v>       0.49325490       0.34242085       0.67168568 </v>
   <v>       0.25360660       0.16463201       0.82152382 </v>
   <v>       0.24597557       0.50346904       0.16547001 </v>
   <v>       0.01410652       0.67996521       0.34560401 </v>
   <v>       0.50394222       0.00333353       0.01085825 </v>
   <v>       0.74732886       0.16786624       0.50530398 </v>
   <v>       0.50894594       0.32656172       0.99769498 </v>
   <v>       0.74460367       0.48946398       0.49800826 </v>
   <v>       0.48948859       0.68503571       0.34191861 </v>
   <v>       0.48893662       0.66213691       0.66468284 </v>
   <v>       0.98969840       0.00579784       0.00887485 </v>
   <v>       0.00208809       0.99686014       0.32836479 </v>
   <v>       0.98643854       0.32298257       0.00075127 </v>
   <v>       0.01505964       0.66416017       0.65789354 </v>
   <v>       0.49861973       0.99683789       0.32519522 </v>
   <v>       0.75202495       0.50409220       0.17470572 </v>
   <v>       0.49815603       0.66252334       0.98388512 </v>
   <v>       0.75715549       0.83418865       0.82585732 </v>
   <v>       0.24692092       0.17888378       0.17810718 </v>
   <v>       0.00249849       0.00027163       0.66775303 </v>
   <v>       0.25898922       0.48460742       0.49405777 </v>
   <v>       0.00161588       0.66484525       0.98940784 </v>
   <v>       0.75006695       0.18202100       0.19332037 </v>
   <v>       0.50030041       0.99847455       0.66886090 </v>
   <v>       0.74366823       0.16779848       0.81427046 </v>
   <v>       0.76266114       0.81071113       0.15565646 </v>
  </varray>
 </structure>
</modeling>
