   32   32  300    1
  0.1719663E+02  0.8277008E-09  0.8094403E-09  0.8213717E-09  0.1500000E-15
  1.000000000000000E-004
  CAR 
 automatically generated by mexm         
    343     14    208
 
  0.0000000E+00  0.0000000E+00  0.0000000E+00  0.3703704E-01
    1       -0.273150   1.000000
    2        2.071203   1.000000
    3        2.090092   1.000000
    4        2.140627   1.000000
    5        2.155879   1.000000
    6        2.174497   1.000000
    7        2.220846   1.000000
    8        2.290357   1.000000
    9        2.306777   1.000000
   10        2.315169   1.000000
   11        2.339501   1.000000
   12        2.535147   1.000000
   13        2.574423   1.000000
   14        2.594071   1.000000
   15        2.850106   1.000000
   16        2.867864   1.000000
   17        2.899675   1.000000
   18        3.397044   1.000000
   19        3.422894   1.000000
   20        3.445917   1.000000
   21        3.454243   1.000000
   22        3.471847   1.000000
   23        3.483624   1.000000
   24        3.496951   1.000000
   25        3.508596   1.000000
   26        3.546057   1.000000
   27        3.549044   1.000000
   28        3.568461   1.000000
   29        3.575244   1.000000
   30        3.582107   1.000000
   31        3.605168   1.000000
   32        3.620003   1.000000
   33        3.666263   1.000000
   34        3.693703   1.000000
   35        3.754167   1.000000
   36        3.774017   1.000000
   37        3.787668   1.000000
   38        3.834559   1.000000
   39        3.859203   1.000000
   40        3.880802   1.000000
   41        3.885757   1.000000
   42        4.165014   1.000000
   43        4.212089   1.000000
   44        4.230556   1.000000
   45        4.231444   1.000000
   46        4.250409   1.000000
   47        4.269808   1.000000
   48        4.293532   1.000000
   49        4.310331   1.000000
   50        4.323595   1.000000
   51        4.350433   1.000000
   52        4.377688   1.000000
   53        4.391537   1.000000
   54        4.417648   1.000000
   55        4.455479   1.000000
   56        4.471303   1.000000
   57        4.495974   1.000000
   58        4.532108   1.000000
   59        4.543331   1.000000
   60        4.565196   1.000000
   61        4.572714   1.000000
   62        4.599121   1.000000
   63        4.608879   1.000000
   64        4.628396   1.000000
   65        4.638992   1.000000
   66        4.655848   1.000000
   67        4.660692   1.000000
   68        4.665778   1.000000
   69        4.699648   1.000000
   70        4.733609   1.000000
   71        4.741461   1.000000
   72        4.775732   1.000000
   73        4.784877   1.000000
   74        4.817373   1.000000
   75        4.828614   1.000000
   76        4.862496   1.000000
   77        4.883796   1.000000
   78        4.937668   1.000000
   79        4.949757   1.000000
   80        4.985972   1.000000
   81        5.027742   1.000000
   82        5.060684   1.000000
   83        5.087019   1.000000
   84        5.100962   1.000000
   85        5.155709   1.000000
   86        5.174642   1.000000
   87        5.261621   1.000000
   88        5.365541   1.000000
   89        5.451303   1.000000
   90        5.492624   1.000000
   91        5.529854   1.000000
   92        5.568761   1.000000
   93        5.606973   1.000000
   94        5.615591   1.000000
   95        5.751708   1.000000
   96        5.755953   1.000000
   97        5.794035   1.000000
   98        5.806936   1.000000
   99        5.853050   1.000000
  100        5.881783   1.000000
  101        5.916892   1.000000
  102        5.965012   1.000000
  103        5.994770   1.000000
  104        6.015206   1.000000
  105        6.023126   1.000000
  106        6.042664   1.000000
  107        6.065685   1.000000
  108        6.105389   1.000000
  109        6.128874   1.000000
  110        6.141822   1.000000
  111        6.150160   1.000000
  112        6.161906   1.000000
  113        6.198136   1.000000
  114        6.260825   1.000000
  115        6.280719   1.000000
  116        6.309789   1.000000
  117        6.330327   1.000000
  118        6.360721   1.000000
  119        6.372975   1.000000
  120        6.400722   1.000000
  121        6.464465   1.000000
  122        6.482845   1.000000
  123        6.492026   1.000000
  124        6.536282   1.000000
  125        6.569025   1.000000
  126        6.577630   1.000000
  127        6.623298   1.000000
  128        6.652438   1.000000
  129        6.673191   1.000000
  130        6.695937   1.000000
  131        6.739247   1.000000
  132        6.774227   1.000000
  133        6.819538   1.000000
  134        6.865849   1.000000
  135        6.933444   1.000000
  136        6.961707   1.000000
  137        7.154055   1.000000
  138        7.253045   1.000000
  139        7.295994   1.000000
  140        7.316066   1.000000
  141        7.383271   1.000000
  142        7.446757   1.000000
  143        7.520717   1.000000
  144        7.614144   1.000000
  145        7.641072   1.000000
  146        7.701785   1.000000
  147        7.787617   1.000000
  148        7.810860   1.000000
  149        7.839578   1.000000
  150        7.860224   1.000000
  151        7.913473   1.000000
  152        8.100787   1.000000
  153        8.143761   1.000000
  154        8.203044   1.000000
  155        8.247812   1.000000
  156        8.329394   1.000000
  157        8.344671   1.000000
  158        8.386668   1.000000
  159        8.469845   1.000008
  160        8.480561   1.000012
  161        8.505942   1.000035
  162        8.569329   1.000359
  163        8.586514   1.000630
  164        8.608325   1.001231
  165        8.623959   1.001929
  166        8.637335   1.002777
  167        8.671777   1.006481
  168        8.702026   1.012177
  169        8.743106   1.023631
  170        8.798714   1.035449
  171        8.892134   0.917425
  172        9.599188  -0.000000
  173        9.607764  -0.000000
  174        9.652156  -0.000000
  175        9.667706  -0.000000
  176        9.690969  -0.000000
  177        9.709076  -0.000000
  178        9.729207  -0.000000
  179        9.751194  -0.000000
  180        9.760200  -0.000000
  181        9.832316  -0.000000
  182        9.842779  -0.000000
  183        9.978238  -0.000000
  184       10.429624  -0.000000
  185       10.670101  -0.000000
  186       10.724854  -0.000000
  187       12.805751  -0.000000
  188       12.852309  -0.000000
  189       12.859237  -0.000000
  190       12.882350  -0.000000
  191       14.125940   0.000000
  192       14.180207   0.000000
  193       14.317864   0.000000
  194       14.464308   0.000000
  195       14.543381   0.000000
  196       14.717676   0.000000
  197       15.340968   0.000000
  198       15.678929   0.000000
  199       15.744302   0.000000
  200       15.749796   0.000000
  201       15.846304   0.000000
  202       15.867857   0.000000
  203       15.891044   0.000000
  204       15.925071   0.000000
  205       15.942030   0.000000
  206       15.966208   0.000000
  207       16.000909   0.000000
  208       16.056392   0.000000
 
  0.3333333E+00 -0.3176374E-21 -0.1084202E-18  0.7407407E-01
    1        0.041911   1.000000
    2        0.931472   1.000000
    3        2.354585   1.000000
    4        2.364318   1.000000
    5        2.382779   1.000000
    6        2.418704   1.000000
    7        2.460608   1.000000
    8        2.481600   1.000000
    9        2.484076   1.000000
   10        2.506606   1.000000
   11        2.594890   1.000000
   12        2.738535   1.000000
   13        2.758411   1.000000
   14        2.784981   1.000000
   15        2.867811   1.000000
   16        2.894857   1.000000
   17        2.935534   1.000000
   18        2.947599   1.000000
   19        2.965432   1.000000
   20        2.987081   1.000000
   21        2.996466   1.000000
   22        3.036849   1.000000
   23        3.090800   1.000000
   24        3.112678   1.000000
   25        3.131581   1.000000
   26        3.261557   1.000000
   27        3.318677   1.000000
   28        3.361807   1.000000
   29        3.576425   1.000000
   30        3.595593   1.000000
   31        3.731507   1.000000
   32        3.742032   1.000000
   33        3.759966   1.000000
   34        3.781218   1.000000
   35        3.800422   1.000000
   36        3.807794   1.000000
   37        3.828206   1.000000
   38        3.854746   1.000000
   39        3.904370   1.000000
   40        3.921827   1.000000
   41        3.978408   1.000000
   42        4.008869   1.000000
   43        4.111488   1.000000
   44        4.122146   1.000000
   45        4.162764   1.000000
   46        4.173884   1.000000
   47        4.206474   1.000000
   48        4.259276   1.000000
   49        4.283031   1.000000
   50        4.305898   1.000000
   51        4.314300   1.000000
   52        4.326864   1.000000
   53        4.343370   1.000000
   54        4.361955   1.000000
   55        4.386750   1.000000
   56        4.403429   1.000000
   57        4.442827   1.000000
   58        4.452274   1.000000
   59        4.455282   1.000000
   60        4.499209   1.000000
   61        4.525698   1.000000
   62        4.599546   1.000000
   63        4.611489   1.000000
   64        4.627613   1.000000
   65        4.656164   1.000000
   66        4.683948   1.000000
   67        4.733707   1.000000
   68        4.771440   1.000000
   69        4.819201   1.000000
   70        4.852713   1.000000
   71        4.898667   1.000000
   72        4.910626   1.000000
   73        4.947210   1.000000
   74        4.984258   1.000000
   75        5.017660   1.000000
   76        5.042258   1.000000
   77        5.073748   1.000000
   78        5.087523   1.000000
   79        5.097883   1.000000
   80        5.122254   1.000000
   81        5.161136   1.000000
   82        5.209681   1.000000
   83        5.239706   1.000000
   84        5.280897   1.000000
   85        5.325126   1.000000
   86        5.351301   1.000000
   87        5.366406   1.000000
   88        5.430768   1.000000
   89        5.446297   1.000000
   90        5.494442   1.000000
   91        5.556924   1.000000
   92        5.596742   1.000000
   93        5.625904   1.000000
   94        5.669603   1.000000
   95        5.721363   1.000000
   96        5.770059   1.000000
   97        5.781980   1.000000
   98        5.811111   1.000000
   99        5.846186   1.000000
  100        5.881209   1.000000
  101        5.916204   1.000000
  102        5.930363   1.000000
  103        5.992286   1.000000
  104        6.004774   1.000000
  105        6.044400   1.000000
  106        6.058205   1.000000
  107        6.088505   1.000000
  108        6.126539   1.000000
  109        6.177207   1.000000
  110        6.216483   1.000000
  111        6.233321   1.000000
  112        6.271742   1.000000
  113        6.290119   1.000000
  114        6.339177   1.000000
  115        6.377606   1.000000
  116        6.407430   1.000000
  117        6.430406   1.000000
  118        6.458290   1.000000
  119        6.503652   1.000000
  120        6.554917   1.000000
  121        6.592839   1.000000
  122        6.648328   1.000000
  123        6.678029   1.000000
  124        6.694294   1.000000
  125        6.709712   1.000000
  126        6.750213   1.000000
  127        6.770895   1.000000
  128        6.793655   1.000000
  129        6.838547   1.000000
  130        6.859634   1.000000
  131        6.888708   1.000000
  132        6.919118   1.000000
  133        6.949647   1.000000
  134        6.961340   1.000000
  135        7.025159   1.000000
  136        7.058312   1.000000
  137        7.116290   1.000000
  138        7.126448   1.000000
  139        7.189491   1.000000
  140        7.217832   1.000000
  141        7.262310   1.000000
  142        7.291817   1.000000
  143        7.300079   1.000000
  144        7.384390   1.000000
  145        7.415185   1.000000
  146        7.465682   1.000000
  147        7.531568   1.000000
  148        7.622156   1.000000
  149        7.660307   1.000000
  150        7.744618   1.000000
  151        7.838213   1.000000
  152        7.887804   1.000000
  153        7.910244   1.000000
  154        7.948394   1.000000
  155        8.032633   1.000000
  156        8.063738   1.000000
  157        8.084680   1.000000
  158        8.145125   1.000000
  159        8.182042   1.000000
  160        8.265057   1.000000
  161        8.299017   1.000000
  162        8.325766   1.000000
  163        8.386830   1.000000
  164        8.434894   1.000002
  165        8.484855   1.000015
  166        8.557624   1.000241
  167        8.727912   1.019026
  168        8.772977   1.032179
  169        8.788193   1.034906
  170        8.872225   0.968944
  171        8.896021   0.905306
  172        8.947361   0.686016
  173        9.201047  -0.029174
  174        9.236648  -0.018439
  175        9.310390  -0.004064
  176        9.339370  -0.001888
  177        9.678494  -0.000000
  178        9.873462  -0.000000
  179        9.899586  -0.000000
  180       10.004576  -0.000000
  181       10.754532  -0.000000
  182       10.877694  -0.000000
  183       10.913518  -0.000000
  184       10.994726  -0.000000
  185       11.862163  -0.000000
  186       11.915324  -0.000000
  187       12.517044  -0.000000
  188       12.705331  -0.000000
  189       12.718131  -0.000000
  190       12.933261  -0.000000
  191       13.651103   0.000000
  192       13.686965   0.000000
  193       13.717344   0.000000
  194       13.737281   0.000000
  195       13.884515   0.000000
  196       13.935536   0.000000
  197       14.688667   0.000000
  198       14.743039   0.000000
  199       15.309802   0.000000
  200       15.397290   0.000000
  201       15.871023   0.000000
  202       15.900460   0.000000
  203       15.939768   0.000000
  204       16.005948   0.000000
  205       16.522018   0.000000
  206       16.530699   0.000000
  207       16.575619   0.000000
  208       16.629517   0.000000
 
 -0.7644472E-19  0.3333333E+00  0.0000000E+00  0.7407407E-01
    1        0.053361   1.000000
    2        0.975714   1.000000
    3        2.305427   1.000000
    4        2.325215   1.000000
    5        2.367874   1.000000
    6        2.408821   1.000000
    7        2.463912   1.000000
    8        2.484481   1.000000
    9        2.490699   1.000000
   10        2.515121   1.000000
   11        2.635487   1.000000
   12        2.736498   1.000000
   13        2.781446   1.000000
   14        2.815725   1.000000
   15        2.879101   1.000000
   16        2.899098   1.000000
   17        2.910136   1.000000
   18        2.957150   1.000000
   19        2.983973   1.000000
   20        2.998703   1.000000
   21        3.013577   1.000000
   22        3.039635   1.000000
   23        3.069763   1.000000
   24        3.089984   1.000000
   25        3.114168   1.000000
   26        3.310522   1.000000
   27        3.325488   1.000000
   28        3.381057   1.000000
   29        3.552246   1.000000
   30        3.566930   1.000000
   31        3.699910   1.000000
   32        3.737435   1.000000
   33        3.747897   1.000000
   34        3.761863   1.000000
   35        3.796358   1.000000
   36        3.824693   1.000000
   37        3.836283   1.000000
   38        3.859035   1.000000
   39        3.911800   1.000000
   40        3.945747   1.000000
   41        3.960721   1.000000
   42        4.011412   1.000000
   43        4.065856   1.000000
   44        4.074498   1.000000
   45        4.149444   1.000000
   46        4.168511   1.000000
   47        4.236408   1.000000
   48        4.251698   1.000000
   49        4.282458   1.000000
   50        4.297720   1.000000
   51        4.308305   1.000000
   52        4.329637   1.000000
   53        4.339035   1.000000
   54        4.361161   1.000000
   55        4.385542   1.000000
   56        4.394859   1.000000
   57        4.421327   1.000000
   58        4.436118   1.000000
   59        4.493716   1.000000
   60        4.505138   1.000000
   61        4.539491   1.000000
   62        4.564425   1.000000
   63        4.585888   1.000000
   64        4.627274   1.000000
   65        4.677945   1.000000
   66        4.696184   1.000000
   67        4.746222   1.000000
   68        4.780901   1.000000
   69        4.818200   1.000000
   70        4.842452   1.000000
   71        4.876075   1.000000
   72        4.914232   1.000000
   73        4.931529   1.000000
   74        4.978488   1.000000
   75        4.989053   1.000000
   76        5.031903   1.000000
   77        5.068843   1.000000
   78        5.088570   1.000000
   79        5.099607   1.000000
   80        5.125475   1.000000
   81        5.144994   1.000000
   82        5.161489   1.000000
   83        5.227118   1.000000
   84        5.265902   1.000000
   85        5.297749   1.000000
   86        5.330084   1.000000
   87        5.341432   1.000000
   88        5.369428   1.000000
   89        5.396815   1.000000
   90        5.433623   1.000000
   91        5.482090   1.000000
   92        5.573080   1.000000
   93        5.594583   1.000000
   94        5.644678   1.000000
   95        5.713721   1.000000
   96        5.742831   1.000000
   97        5.785074   1.000000
   98        5.805499   1.000000
   99        5.821750   1.000000
  100        5.965156   1.000000
  101        5.991211   1.000000
  102        6.003500   1.000000
  103        6.026711   1.000000
  104        6.064184   1.000000
  105        6.071617   1.000000
  106        6.091874   1.000000
  107        6.127792   1.000000
  108        6.149864   1.000000
  109        6.201929   1.000000
  110        6.229692   1.000000
  111        6.258312   1.000000
  112        6.301298   1.000000
  113        6.318242   1.000000
  114        6.365806   1.000000
  115        6.388725   1.000000
  116        6.430883   1.000000
  117        6.461619   1.000000
  118        6.492791   1.000000
  119        6.507947   1.000000
  120        6.557423   1.000000
  121        6.631813   1.000000
  122        6.644612   1.000000
  123        6.666793   1.000000
  124        6.682253   1.000000
  125        6.740799   1.000000
  126        6.757009   1.000000
  127        6.781974   1.000000
  128        6.816465   1.000000
  129        6.836984   1.000000
  130        6.869669   1.000000
  131        6.890761   1.000000
  132        6.919747   1.000000
  133        6.936661   1.000000
  134        6.972208   1.000000
  135        6.981452   1.000000
  136        7.048421   1.000000
  137        7.075725   1.000000
  138        7.112986   1.000000
  139        7.179710   1.000000
  140        7.212000   1.000000
  141        7.255039   1.000000
  142        7.314146   1.000000
  143        7.359886   1.000000
  144        7.414785   1.000000
  145        7.482336   1.000000
  146        7.512373   1.000000
  147        7.566080   1.000000
  148        7.629377   1.000000
  149        7.641614   1.000000
  150        7.707340   1.000000
  151        7.752689   1.000000
  152        7.849795   1.000000
  153        7.920344   1.000000
  154        7.956927   1.000000
  155        7.980143   1.000000
  156        8.041412   1.000000
  157        8.122186   1.000000
  158        8.158039   1.000000
  159        8.201715   1.000000
  160        8.255195   1.000000
  161        8.306147   1.000000
  162        8.380755   1.000000
  163        8.442239   1.000002
  164        8.480936   1.000013
  165        8.560091   1.000263
  166        8.656879   1.004565
  167        8.687791   1.009176
  168        8.773252   1.032244
  169        8.841204   1.016823
  170        8.890164   0.923308
  171        8.938800   0.729308
  172        8.949299   0.675929
  173        8.979800   0.508313
  174        9.069045   0.086765
  175        9.315759  -0.003550
  176        9.407851  -0.000218
  177        9.676266  -0.000000
  178        9.710217  -0.000000
  179        9.776009  -0.000000
  180        9.867135  -0.000000
  181       10.878395  -0.000000
  182       10.940138  -0.000000
  183       11.034450  -0.000000
  184       11.104677  -0.000000
  185       11.714369  -0.000000
  186       11.933205  -0.000000
  187       12.730512  -0.000000
  188       12.839525  -0.000000
  189       12.879733  -0.000000
  190       13.003931  -0.000000
  191       13.709493   0.000000
  192       13.743614   0.000000
  193       13.771735   0.000000
  194       13.800882   0.000000
  195       13.861431   0.000000
  196       13.998701   0.000000
  197       14.353229   0.000000
  198       14.585643   0.000000
  199       15.072184   0.000000
  200       15.303301   0.000000
  201       16.010414   0.000000
  202       16.072318   0.000000
  203       16.109325   0.000000
  204       16.137724   0.000000
  205       16.358693   0.000000
  206       16.412925   0.000000
  207       16.433647   0.000000
  208       16.464633   0.000000
 
  0.3333333E+00  0.3333333E+00  0.0000000E+00  0.7407407E-01
    1        0.353401   1.000000
    2        1.194930   1.000000
    3        1.250792   1.000000
    4        1.955155   1.000000
    5        2.409918   1.000000
    6        2.431325   1.000000
    7        2.502789   1.000000
    8        2.516365   1.000000
    9        2.639401   1.000000
   10        2.667329   1.000000
   11        2.703136   1.000000
   12        2.709145   1.000000
   13        2.802855   1.000000
   14        2.831715   1.000000
   15        2.839603   1.000000
   16        2.860711   1.000000
   17        2.888168   1.000000
   18        2.987333   1.000000
   19        3.037842   1.000000
   20        3.136555   1.000000
   21        3.149715   1.000000
   22        3.221960   1.000000
   23        3.253080   1.000000
   24        3.276146   1.000000
   25        3.304631   1.000000
   26        3.368910   1.000000
   27        3.388442   1.000000
   28        3.403698   1.000000
   29        3.425113   1.000000
   30        3.455510   1.000000
   31        3.466295   1.000000
   32        3.509882   1.000000
   33        3.544012   1.000000
   34        3.617465   1.000000
   35        3.632182   1.000000
   36        3.667895   1.000000
   37        3.688152   1.000000
   38        3.774279   1.000000
   39        3.788779   1.000000
   40        3.862833   1.000000
   41        3.912499   1.000000
   42        3.920568   1.000000
   43        3.937235   1.000000
   44        3.979192   1.000000
   45        3.998111   1.000000
   46        4.107492   1.000000
   47        4.156270   1.000000
   48        4.201237   1.000000
   49        4.246664   1.000000
   50        4.273167   1.000000
   51        4.301693   1.000000
   52        4.345023   1.000000
   53        4.397647   1.000000
   54        4.419938   1.000000
   55        4.475305   1.000000
   56        4.520867   1.000000
   57        4.538631   1.000000
   58        4.593555   1.000000
   59        4.615361   1.000000
   60        4.648394   1.000000
   61        4.692172   1.000000
   62        4.707605   1.000000
   63        4.741406   1.000000
   64        4.782466   1.000000
   65        4.820924   1.000000
   66        4.851327   1.000000
   67        4.877681   1.000000
   68        4.912781   1.000000
   69        4.925494   1.000000
   70        4.936693   1.000000
   71        4.955642   1.000000
   72        5.005477   1.000000
   73        5.038586   1.000000
   74        5.078934   1.000000
   75        5.093031   1.000000
   76        5.116207   1.000000
   77        5.124114   1.000000
   78        5.154034   1.000000
   79        5.180920   1.000000
   80        5.218024   1.000000
   81        5.238081   1.000000
   82        5.265639   1.000000
   83        5.277523   1.000000
   84        5.301876   1.000000
   85        5.334583   1.000000
   86        5.381361   1.000000
   87        5.395970   1.000000
   88        5.407021   1.000000
   89        5.440433   1.000000
   90        5.478524   1.000000
   91        5.502070   1.000000
   92        5.551832   1.000000
   93        5.573644   1.000000
   94        5.588845   1.000000
   95        5.616991   1.000000
   96        5.663727   1.000000
   97        5.681421   1.000000
   98        5.705873   1.000000
   99        5.732887   1.000000
  100        5.768788   1.000000
  101        5.795146   1.000000
  102        5.816373   1.000000
  103        5.841894   1.000000
  104        5.919672   1.000000
  105        5.958368   1.000000
  106        5.987896   1.000000
  107        6.026814   1.000000
  108        6.062321   1.000000
  109        6.073776   1.000000
  110        6.108330   1.000000
  111        6.133347   1.000000
  112        6.146505   1.000000
  113        6.218312   1.000000
  114        6.281814   1.000000
  115        6.321570   1.000000
  116        6.372422   1.000000
  117        6.410251   1.000000
  118        6.460847   1.000000
  119        6.532346   1.000000
  120        6.574340   1.000000
  121        6.599236   1.000000
  122        6.641171   1.000000
  123        6.662269   1.000000
  124        6.688361   1.000000
  125        6.718815   1.000000
  126        6.762477   1.000000
  127        6.804110   1.000000
  128        6.838122   1.000000
  129        6.868996   1.000000
  130        6.907605   1.000000
  131        6.918717   1.000000
  132        6.946281   1.000000
  133        7.007898   1.000000
  134        7.035901   1.000000
  135        7.099715   1.000000
  136        7.131481   1.000000
  137        7.140561   1.000000
  138        7.202663   1.000000
  139        7.244186   1.000000
  140        7.296490   1.000000
  141        7.306174   1.000000
  142        7.356772   1.000000
  143        7.432687   1.000000
  144        7.454577   1.000000
  145        7.484638   1.000000
  146        7.550955   1.000000
  147        7.567091   1.000000
  148        7.651999   1.000000
  149        7.700517   1.000000
  150        7.750628   1.000000
  151        7.786888   1.000000
  152        7.843899   1.000000
  153        7.868262   1.000000
  154        7.944684   1.000000
  155        7.984494   1.000000
  156        8.009600   1.000000
  157        8.069623   1.000000
  158        8.090870   1.000000
  159        8.155963   1.000000
  160        8.175571   1.000000
  161        8.258992   1.000000
  162        8.278882   1.000000
  163        8.302591   1.000000
  164        8.343578   1.000000
  165        8.392707   1.000000
  166        8.470671   1.000008
  167        8.545178   1.000155
  168        8.626064   1.002046
  169        8.665164   1.005565
  170        8.801921   1.035323
  171        8.841950   1.016077
  172        8.886421   0.934005
  173        8.946385   0.691053
  174        9.017678   0.301167
  175        9.717635  -0.000000
  176        9.833300  -0.000000
  177       10.177110  -0.000000
  178       10.303745  -0.000000
  179       10.856605  -0.000000
  180       10.876535  -0.000000
  181       11.103822  -0.000000
  182       11.140985  -0.000000
  183       11.249649  -0.000000
  184       11.294661  -0.000000
  185       11.586145  -0.000000
  186       11.771983  -0.000000
  187       12.128677  -0.000000
  188       12.729820  -0.000000
  189       12.784128  -0.000000
  190       12.805680  -0.000000
  191       13.018806  -0.000000
  192       13.059411  -0.000000
  193       13.654267   0.000000
  194       13.787113   0.000000
  195       13.840309   0.000000
  196       13.886785   0.000000
  197       14.296806   0.000000
  198       14.357986   0.000000
  199       14.526989   0.000000
  200       14.544060   0.000000
  201       14.594418   0.000000
  202       14.683146   0.000000
  203       14.823476   0.000000
  204       15.554724   0.000000
  205       15.622861   0.000000
  206       16.214995   0.000000
  207       16.448194   0.000000
  208       16.654922   0.000000
 
 -0.3333333E+00  0.3333333E+00  0.0000000E+00  0.7407407E-01
    1        0.355700   1.000000
    2        1.194734   1.000000
    3        1.243172   1.000000
    4        1.959252   1.000000
    5        2.411880   1.000000
    6        2.438909   1.000000
    7        2.512948   1.000000
    8        2.523958   1.000000
    9        2.631866   1.000000
   10        2.648082   1.000000
   11        2.712206   1.000000
   12        2.718188   1.000000
   13        2.799085   1.000000
   14        2.810575   1.000000
   15        2.834473   1.000000
   16        2.859817   1.000000
   17        2.899522   1.000000
   18        2.993187   1.000000
   19        3.042194   1.000000
   20        3.114447   1.000000
   21        3.164169   1.000000
   22        3.202100   1.000000
   23        3.278462   1.000000
   24        3.300669   1.000000
   25        3.335152   1.000000
   26        3.366852   1.000000
   27        3.369244   1.000000
   28        3.407686   1.000000
   29        3.429718   1.000000
   30        3.460512   1.000000
   31        3.469505   1.000000
   32        3.491543   1.000000
   33        3.531756   1.000000
   34        3.596923   1.000000
   35        3.627642   1.000000
   36        3.650986   1.000000
   37        3.684628   1.000000
   38        3.758339   1.000000
   39        3.778833   1.000000
   40        3.835215   1.000000
   41        3.883126   1.000000
   42        3.908105   1.000000
   43        3.976586   1.000000
   44        3.994224   1.000000
   45        4.073177   1.000000
   46        4.094348   1.000000
   47        4.158517   1.000000
   48        4.176996   1.000000
   49        4.274654   1.000000
   50        4.308278   1.000000
   51        4.348887   1.000000
   52        4.352882   1.000000
   53        4.369253   1.000000
   54        4.392364   1.000000
   55        4.466612   1.000000
   56        4.527267   1.000000
   57        4.544807   1.000000
   58        4.580352   1.000000
   59        4.623419   1.000000
   60        4.654057   1.000000
   61        4.689123   1.000000