 vasp.5.4.1 05Feb16 (build Jan 29 2020 16:04:39) complex                        
  
 executed on           IFC91_ompi date 2020.06.15  10:16:01
 running on  160 total cores
 distrk:  each k-point on   20 cores,    8 groups
 distr:  one band on NCORES_PER_BAND=   5 cores,    4 groups


--------------------------------------------------------------------------------------------------------


 INCAR:
 POTCAR:    PAW_PBE Ta 17Jan2003                  
 POTCAR:    PAW_PBE Hf 20Jan2003                  
 POTCAR:    PAW_PBE Nb_sv 25May2007               
 POTCAR:    PAW_PBE Zr_sv 04Jan2005               

 ----------------------------------------------------------------------------- 
|                                                                             |
|           W    W    AA    RRRRR   N    N  II  N    N   GGGG   !!!           |
|           W    W   A  A   R    R  NN   N  II  NN   N  G    G  !!!           |
|           W    W  A    A  R    R  N N  N  II  N N  N  G       !!!           |
|           W WW W  AAAAAA  RRRRR   N  N N  II  N  N N  G  GGG   !            |
|           WW  WW  A    A  R   R   N   NN  II  N   NN  G    G                |
|           W    W  A    A  R    R  N    N  II  N    N   GGGG   !!!           |
|                                                                             |
|      For optimal performance we recommend to set                            |
|        NCORE= 4 - approx SQRT( number of cores)                             |
|      NCORE specifies how many cores store one orbital (NPAR=cpu/NCORE).     |
|      This setting can  greatly improve the performance of VASP for DFT.     |
|      The default, NPAR=number of cores might be grossly inefficient         |
|      on modern multi-core architectures or massively parallel machines.     |
|      Do your own testing !!!!                                               |
|      Unfortunately you need to use the default for GW and RPA calculations. |
|      (for HF NCORE is supported but not extensively tested yet)             |
|                                                                             |
 ----------------------------------------------------------------------------- 


 ----------------------------------------------------------------------------- 
|                                                                             |
|           W    W    AA    RRRRR   N    N  II  N    N   GGGG   !!!           |
|           W    W   A  A   R    R  NN   N  II  NN   N  G    G  !!!           |
|           W    W  A    A  R    R  N N  N  II  N N  N  G       !!!           |
|           W WW W  AAAAAA  RRRRR   N  N N  II  N  N N  G  GGG   !            |
|           WW  WW  A    A  R   R   N   NN  II  N   NN  G    G                |
|           W    W  A    A  R    R  N    N  II  N    N   GGGG   !!!           |
|                                                                             |
|      You have enabled k-point parallelism (KPAR>1).                         |
|      This developmental code was originally  written by Paul Kent at ORNL,  |
|      and carefully double checked in Vienna.                                |
|      GW as well as linear response parallelism added by Martijn Marsman     |
|      and Georg Kresse.                                                      |
|      Carefully verify results versus KPAR=1.                                |
|      Report problems to Paul Kent and Vienna.                               |
|                                                                             |
 ----------------------------------------------------------------------------- 

 POTCAR:    PAW_PBE Ta 17Jan2003                  
   VRHFIN =Ta:  6s5d                                                            
   LEXCH  = PE                                                                  
   EATOM  =   130.6506 eV,    9.6025 Ry                                         
                                                                                
   TITEL  = PAW_PBE Ta 17Jan2003                                                
   LULTRA =        F    use ultrasoft PP ?                                      
   IUNSCR =        1    unscreen: 0-lin 1-nonlin 2-no                           
   RPACOR =    2.330    partial core radius                                     
   POMASS =  180.948; ZVAL   =    5.000    mass and valenz                      
   RCORE  =    2.900    outmost cutoff radius                                   
   RWIGS  =    2.840; RWIGS  =    1.503    wigner-seitz radius (au A)           
   ENMAX  =  223.667; ENMIN  =  167.750 eV                                      
   RCLOC  =    2.205    cutoff for local pot                                    
   LCOR   =        T    correct aug charges                                     
   LPAW   =        T    paw PP                                                  
   EAUG   =  332.075                                                            
   DEXC   =    0.000                                                            
   RMAX   =    2.970    core radius for proj-oper                               
   RAUG   =    1.300    factor for augmentation sphere                          
   RDEP   =    3.060    radius for radial grids                                 
   RDEPT  =    2.354    core radius for aug-charge                              
                                                                                
   Atomic configuration                                                         
   16 entries                                                                   
     n  l   j            E        occ.                                          
     1  0  0.50    -67341.2807   2.0000                                         
     2  0  0.50    -11566.9376   2.0000                                         
     2  1  1.50    -10134.1182   6.0000                                         
     3  0  0.50     -2648.5620   2.0000                                         
     3  1  1.50     -2222.6012   6.0000                                         
     3  2  2.50     -1726.3120  10.0000                                         
     4  0  0.50      -538.6961   2.0000                                         
     4  1  1.50      -399.0129   6.0000                                         
     4  2  2.50      -220.3959  10.0000                                         
     4  3  3.50       -23.0374  14.0000                                         
     5  0  0.50       -71.2901   2.0000                                         
     5  1  1.50       -37.8225   6.0000                                         
     5  2  2.50        -2.6455   4.0000                                         
     6  0  0.50        -4.9623   1.0000                                         
     6  1  1.50        -1.3606   0.0000                                         
     5  3  2.50        -1.3606   0.0000                                         
   Description                                                                  
     l       E           TYP  RCUT    TYP  RCUT                                 
     2     -2.6455043     23  2.500                                             
     2     -0.6258895     23  2.500                                             
     0     -4.9622780     23  2.500                                             
     0      4.7531321     23  2.500                                             
     1     -1.3605826     23  2.900                                             
     1     27.2116520     23  2.900                                             
  local pseudopotential read in
  partial core-charges read in
  partial kinetic energy density read in
  atomic valenz-charges read in
  non local Contribution for L=           2  read in
    real space projection operators read in
  non local Contribution for L=           2  read in
    real space projection operators read in
  non local Contribution for L=           0  read in
    real space projection operators read in
  non local Contribution for L=           0  read in
    real space projection operators read in
  non local Contribution for L=           1  read in
    real space projection operators read in
  non local Contribution for L=           1  read in
    real space projection operators read in
    PAW grid and wavefunctions read in
 
   number of l-projection  operators is LMAX  =           6
   number of lm-projection operators is LMMAX =          18
 
 POTCAR:    PAW_PBE Hf 20Jan2003                  
   VRHFIN =Hf: 6s5d                                                             
   LEXCH  = PE                                                                  
   EATOM  =    75.9011 eV,    5.5786 Ry                                         
                                                                                
   TITEL  = PAW_PBE Hf 20Jan2003                                                
   LULTRA =        F    use ultrasoft PP ?                                      
   IUNSCR =        1    unscreen: 0-lin 1-nonlin 2-no                           
   RPACOR =    2.500    partial core radius                                     
   POMASS =  178.490; ZVAL   =    4.000    mass and valenz                      
   RCORE  =    3.000    outmost cutoff radius                                   
   RWIGS  =    3.050; RWIGS  =    1.614    wigner-seitz radius (au A)           
   ENMAX  =  220.334; ENMIN  =  165.250 eV                                      
   RCLOC  =    2.212    cutoff for local pot                                    
   LCOR   =        T    correct aug charges                                     
   LPAW   =        T    paw PP                                                  
   EAUG   =  335.116                                                            
   DEXC   =    0.000                                                            
   RMAX   =    3.077    core radius for proj-oper                               
   RAUG   =    1.300    factor for augmentation sphere                          
   RDEP   =    3.047    radius for radial grids                                 
   RDEPT  =    2.344    core radius for aug-charge                              
                                                                                
   Atomic configuration                                                         
   16 entries                                                                   
     n  l   j            E        occ.                                          
     1  0  0.50    -65259.4397   2.0000                                         
     2  0  0.50    -11157.9882   2.0000                                         
     2  1  1.50     -9795.2113   6.0000                                         
     3  0  0.50     -2541.4058   2.0000                                         
     3  1  1.50     -2134.4770   6.0000                                         
     3  2  2.50     -1653.5418  10.0000                                         
     4  0  0.50      -510.9575   2.0000                                         
     4  1  1.50      -377.5023   6.0000                                         
     4  2  2.50      -205.2085  10.0000                                         
     4  3  3.50       -15.4905  14.0000                                         
     5  0  0.50       -65.6020   2.0000                                         
     5  1  1.50       -34.2798   6.0000                                         
     5  2  2.50        -1.9877   3.0000                                         
     6  0  0.50        -4.7357   1.0000                                         
     6  1  1.50        -1.3606   0.0000                                         
     5  3  2.50        -1.3606   0.0000                                         
   Description                                                                  
     l       E           TYP  RCUT    TYP  RCUT                                 
     2     -1.9876627     23  2.500                                             
     2      0.0744703     23  2.500                                             
     0     -4.7356889     23  2.600                                             
     0      3.2364747     23  2.600                                             
     1     -1.3605826     23  3.000                                             
     1     27.2116520     23  3.000                                             
  local pseudopotential read in
  partial core-charges read in
  partial kinetic energy density read in
  atomic valenz-charges read in
  non local Contribution for L=           2  read in
    real space projection operators read in
  non local Contribution for L=           2  read in
    real space projection operators read in
  non local Contribution for L=           0  read in
    real space projection operators read in
  non local Contribution for L=           0  read in
    real space projection operators read in
  non local Contribution for L=           1  read in
    real space projection operators read in
  non local Contribution for L=           1  read in
    real space projection operators read in
    PAW grid and wavefunctions read in
 
   number of l-projection  operators is LMAX  =           6
   number of lm-projection operators is LMMAX =          18
 
 POTCAR:    PAW_PBE Nb_sv 25May2007               
   VRHFIN =Nb: 4p5s4d                                                           
   LEXCH  = PE                                                                  
   EATOM  =  1555.1913 eV,  114.3033 Ry                                         
                                                                                
   TITEL  = PAW_PBE Nb_sv 25May2007                                             
   LULTRA =        F    use ultrasoft PP ?                                      
   IUNSCR =        1    unscreen: 0-lin 1-nonlin 2-no                           
   RPACOR =    1.800    partial core radius                                     
   POMASS =   92.910; ZVAL   =   13.000    mass and valenz                      
   RCORE  =    2.400    outmost cutoff radius                                   
   RWIGS  =    2.400; RWIGS  =    1.270    wigner-seitz radius (au A)           
   ENMAX  =  293.235; ENMIN  =  219.927 eV                                      
   ICORE  =        3    local potential                                         
   LCOR   =        T    correct aug charges                                     
   LPAW   =        T    paw PP                                                  
   EAUG   =  455.659                                                            
   DEXC   =    0.000                                                            
   RMAX   =    2.456    core radius for proj-oper                               
   RAUG   =    1.300    factor for augmentation sphere                          
   RDEP   =    2.451    radius for radial grids                                 
   RDEPT  =    1.956    core radius for aug-charge                              
                                                                                
   Atomic configuration                                                         
   11 entries                                                                   
     n  l   j            E        occ.                                          
     1  0  0.50    -18805.2457   2.0000                                         
     2  0  0.50     -2630.2869   2.0000                                         
     2  1  1.50     -2348.4046   6.0000                                         
     3  0  0.50      -438.8757   2.0000                                         
     3  1  1.50      -346.7588   6.0000                                         
     3  2  2.50      -196.2560  10.0000                                         
     4  0  0.50       -58.3859   2.0000                                         
     5  0  0.50        -3.9816   1.0000                                         
     4  1  1.50       -34.5141   6.0000                                         
     4  2  2.50        -3.0408   4.0000                                         
     4  3  2.50        -1.3606   0.0000                                         
   Description                                                                  
     l       E           TYP  RCUT    TYP  RCUT                                 
     0    -58.3859094     23  2.200                                             
     0     -3.9816262     23  2.200                                             
     1    -34.5140738     23  2.200                                             
     1     13.6058260     23  2.200                                             
     2     -3.0408010     23  2.200                                             
     2     -0.1283038     23  2.200                                             
     3     -1.3605826     23  2.400                                             
  local pseudopotential read in
  partial core-charges read in
  partial kinetic energy density read in
  atomic valenz-charges read in
  non local Contribution for L=           0  read in
    real space projection operators read in
  non local Contribution for L=           0  read in
    real space projection operators read in
  non local Contribution for L=           1  read in
    real space projection operators read in
  non local Contribution for L=           1  read in
    real space projection operators read in
  non local Contribution for L=           2  read in
    real space projection operators read in
  non local Contribution for L=           2  read in
    real space projection operators read in
    PAW grid and wavefunctions read in
 
   number of l-projection  operators is LMAX  =           6
   number of lm-projection operators is LMMAX =          18
 
 POTCAR:    PAW_PBE Zr_sv 04Jan2005               
   VRHFIN =Zr: 4s4p5s4d                                                         
   LEXCH  = PE                                                                  
   EATOM  =  1284.2219 eV,   94.3876 Ry                                         
                                                                                
   TITEL  = PAW_PBE Zr_sv 04Jan2005                                             
   LULTRA =        F    use ultrasoft PP ?                                      
   IUNSCR =        1    unscreen: 0-lin 1-nonlin 2-no                           
   RPACOR =    2.200    partial core radius                                     
   POMASS =   91.224; ZVAL   =   12.000    mass and valenz                      
   RCORE  =    2.500    outmost cutoff radius                                   
   RWIGS  =    3.070; RWIGS  =    1.625    wigner-seitz radius (au A)           
   ENMAX  =  229.898; ENMIN  =  172.424 eV                                      
   ICORE  =        3    local potential                                         
   LCOR   =        T    correct aug charges                                     
   LPAW   =        T    paw PP                                                  
   EAUG   =  461.257                                                            
   DEXC   =    0.000                                                            
   RMAX   =    2.561    core radius for proj-oper                               
   RAUG   =    1.300    factor for augmentation sphere                          
   RDEP   =    2.597    radius for radial grids                                 
   RDEPT  =    2.007    core radius for aug-charge                              
                                                                                
   Atomic configuration                                                         
   11 entries                                                                   
     n  l   j            E        occ.                                          
     1  0  0.50    -17820.0161   2.0000                                         
     2  0  0.50     -2467.0882   2.0000                                         
     2  1  1.50     -2199.6095   6.0000                                         
     3  0  0.50      -402.4863   2.0000                                         
     3  1  1.50      -315.3675   6.0000                                         
     3  2  2.50      -172.4472  10.0000                                         
     4  0  0.50       -52.4146   2.0000                                         
     5  0  0.50        -3.8421   1.0000                                         
     4  1  1.50       -30.5054   6.0000                                         
     4  2  2.50        -2.3341   3.0000                                         
     4  3  2.50        -1.3606   0.0000                                         
   Description                                                                  
     l       E           TYP  RCUT    TYP  RCUT                                 
     0    -52.4145962     23  2.200                                             
     0     -3.8421270     23  2.500                                             
     1    -30.5053914     23  2.200                                             
     1     20.4087390     23  2.200                                             
     2     -2.3340816     23  2.500                                             
     2     -0.6120942     23  2.500                                             
     3     -4.0817478     23  2.500                                             
  local pseudopotential read in
  partial core-charges read in
  partial kinetic energy density read in
  atomic valenz-charges read in
  non local Contribution for L=           0  read in
    real space projection operators read in
  non local Contribution for L=           0  read in
    real space projection operators read in
  non local Contribution for L=           1  read in
    real space projection operators read in
  non local Contribution for L=           1  read in
    real space projection operators read in
  non local Contribution for L=           2  read in
    real space projection operators read in
  non local Contribution for L=           2  read in
    real space projection operators read in
    PAW grid and wavefunctions read in
 
   number of l-projection  operators is LMAX  =           6
   number of lm-projection operators is LMMAX =          18
 
 Optimization of the real space projectors (new method)

 maximal supplied QI-value         = 12.85
 optimisation between [QCUT,QGAM] = [  8.87, 17.73] = [ 22.01, 88.06] Ry 
 Optimized for a Real-space Cutoff    1.90 Angstroem

   l    n(q)    QCUT    max X(q) W(low)/X(q) W(high)/X(q)  e(spline) 
   2      9     8.867    62.315    0.23E-03    0.62E-04    0.11E-05
   2      9     8.867    52.185    0.23E-03    0.62E-04    0.11E-05
   0     10     8.867   103.837    0.15E-04    0.23E-04    0.98E-07
   0     10     8.867    59.728    0.12E-04    0.21E-04    0.89E-07
   1     10     8.867    13.958    0.50E-04    0.22E-04    0.14E-06
   1     10     8.867     8.441    0.36E-04    0.19E-04    0.98E-07
 Optimization of the real space projectors (new method)

 maximal supplied QI-value         = 12.47
 optimisation between [QCUT,QGAM] = [  8.86, 17.71] = [ 21.96, 87.83] Ry 
 Optimized for a Real-space Cutoff    1.90 Angstroem

   l    n(q)    QCUT    max X(q) W(low)/X(q) W(high)/X(q)  e(spline) 
   2      9     8.855    48.111    0.22E-03    0.80E-04    0.10E-05
   2      9     8.855    40.545    0.21E-03    0.76E-04    0.95E-06
   0     10     8.855   121.658    0.27E-04    0.12E-04    0.11E-06
   0     10     8.855    71.177    0.22E-04    0.11E-04    0.99E-07
   1     10     8.855    14.183    0.65E-04    0.10E-03    0.98E-07
   1     10     8.855     8.257    0.43E-04    0.73E-04    0.72E-07
 Optimization of the real space projectors (new method)

 maximal supplied QI-value         = 15.68
 optimisation between [QCUT,QGAM] = [  8.78, 17.72] = [ 21.60, 87.97] Ry 
 Optimized for a Real-space Cutoff    1.96 Angstroem

   l    n(q)    QCUT    max X(q) W(low)/X(q) W(high)/X(q)  e(spline) 
   0     10     8.783    10.201    0.29E-04    0.25E-05    0.69E-07
   0     10     8.783     8.174    0.45E-04    0.57E-05    0.14E-06
   1     10     8.783     3.488    0.76E-05    0.24E-04    0.95E-07
   1     10     8.783     4.917    0.78E-04    0.14E-03    0.46E-06
   2      9     8.783   153.744    0.22E-03    0.34E-04    0.15E-05
   2      9     8.783   126.342    0.22E-03    0.35E-04    0.15E-05
 Optimization of the real space projectors (new method)

 maximal supplied QI-value         = 15.12
 optimisation between [QCUT,QGAM] = [  8.77, 17.69] = [ 21.53, 87.61] Ry 
 Optimized for a Real-space Cutoff    1.74 Angstroem

   l    n(q)    QCUT    max X(q) W(low)/X(q) W(high)/X(q)  e(spline) 
   0      9     8.768    12.107    0.28E-04    0.53E-06    0.29E-07
   0      9     8.768     9.948    0.36E-04    0.50E-05    0.64E-07
   1      9     8.768     3.563    0.14E-04    0.16E-04    0.88E-07
   1      9     8.768     4.524    0.21E-03    0.33E-03    0.19E-06
   2      8     8.768    87.261    0.19E-03    0.25E-03    0.24E-06
   2      8     8.768    70.950    0.19E-03    0.24E-03    0.24E-06
  PAW_PBE Ta 17Jan2003                  :
 energy of atom  1       EATOM= -130.6506
 kinetic energy error for atom=    0.0121 (will be added to EATOM!!)
  PAW_PBE Hf 20Jan2003                  :
 energy of atom  2       EATOM=  -75.9011
 kinetic energy error for atom=    0.0071 (will be added to EATOM!!)
  PAW_PBE Nb_sv 25May2007               :
 energy of atom  3       EATOM=-1555.1913
 kinetic energy error for atom=    0.0655 (will be added to EATOM!!)
  PAW_PBE Zr_sv 04Jan2005               :
 energy of atom  4       EATOM=-1284.2219
 kinetic energy error for atom=    0.0483 (will be added to EATOM!!)
 
 
 POSCAR: generated by pypospack                  
  positions in direct lattice
  No initial velocities read in
 exchange correlation table for  LEXCH =        8
   RHO(1)=    0.500       N(1)  =     2000
   RHO(2)=  100.500       N(2)  =     4000
 


--------------------------------------------------------------------------------------------------------


 ion  position               nearest neighbor table
   1  0.739  0.496  0.833-  18 2.79  27 2.84  25 2.85   7 2.91  34 2.92  11 2.96  12 2.96  16 3.00
                            23 3.31  32 3.36   5 3.45   2 3.46  35 3.49
   2  0.730  0.498  0.172-  24 2.74  18 2.76  22 2.78   4 2.86  12 2.92   6 2.96  11 3.02  27 3.02
                            10 3.22   5 3.31  33 3.33   1 3.46  10 3.73
   3  0.038  0.992  0.669-  28 2.83  26 2.86   9 2.92  14 2.98  35 2.99  17 3.02  32 3.04  15 3.04
                            31 3.12  16 3.43  30 3.45
   4  0.518  0.670  0.341-  21 2.77   5 2.84   2 2.86  26 2.91  15 2.91  13 2.95  36 3.00  10 3.00
                             6 3.23  20 3.25   7 3.27  22 3.33
   5  0.753  0.506  0.495-  22 2.81   4 2.84   6 2.85   7 2.85  24 2.86  16 2.97  34 3.03  25 3.07
                             2 3.31  15 3.36  36 3.41   1 3.45  31 3.52  36 3.54
   6  0.984  0.668  0.328-  21 2.82   5 2.85  15 2.92   2 2.96  13 2.96  26 2.99  36 3.02  10 3.04
                            19 3.22   4 3.23  24 3.26  12 3.30  16 3.48
   7  0.501  0.652  0.661-   5 2.85  23 2.87   1 2.91  17 2.96  36 3.00  35 3.00  15 3.01  26 3.09
                            34 3.23   4 3.27  16 3.40  16 3.55  14 3.63
   8  0.493  0.013  0.997-  33 2.97  17 2.99  28 3.01  29 3.02  32 3.04  13 3.06  35 3.11  21 3.18
                            27 3.29  30 3.43  14 3.46  30 3.53
   9  0.229  0.171  0.487-   3 2.92  14 2.96  20 3.02  22 3.02  19 3.03  25 3.09  29 3.09  24 3.10
                            34 3.11  31 3.21  36 3.32  31 3.74
  10  0.267  0.507  0.168-  18 2.95  24 2.96  27 2.99   4 3.00  22 3.01   6 3.04  11 3.06  12 3.08
                             2 3.22  13 3.23  36 3.26  23 3.34  29 3.42   2 3.73
  11  0.998  0.341  1.000-  28 2.93  23 2.96   1 2.96   2 3.02  32 3.02  10 3.06  33 3.09  29 3.11
                            24 3.24  25 3.26  12 3.30  27 3.44  30 3.51
  12  0.976  0.662  0.005-   2 2.92   1 2.96  21 2.98  17 3.05  23 3.06  18 3.06  10 3.08  35 3.08
                            13 3.09  11 3.30   6 3.30  16 3.44  30 3.45
  13  0.264  0.822  0.169-  19 2.93   4 2.95  20 2.96   6 2.96  18 3.03   8 3.06  30 3.09  12 3.09
                            10 3.23  26 3.27  21 3.32  17 3.32  29 3.61
  14  0.467  0.005  0.659-  26 2.92  28 2.93   9 2.96   3 2.98  17 3.02  35 3.08  31 3.08  15 3.09
                            32 3.15  20 3.21  34 3.41   8 3.46   7 3.63
  15  0.758  0.833  0.506-  19 2.90   4 2.91  20 2.92   6 2.92   7 3.01  16 3.03   3 3.04  14 3.09
                            35 3.19  21 3.31   5 3.36  31 3.38  26 3.42
  16  0.011  0.658  0.669-  23 2.95  36 2.96   5 2.97   1 3.00  35 3.00  26 3.02  17 3.03  15 3.03
                            25 3.18   7 3.40   3 3.43  12 3.44   6 3.48   7 3.55
  17  0.271  0.816  0.844-  18 2.94   7 2.96   8 2.99  14 3.02   3 3.02  16 3.03  12 3.05  30 3.12
                            23 3.19  35 3.30  13 3.32  35 3.68
  18  0.535  0.660  0.002-   2 2.76   1 2.79  21 2.93  17 2.94  10 2.95  35 2.96  23 2.97  13 3.03
                            12 3.06
  19  0.996  0.982  0.323-  21 2.76  15 2.90  26 2.92  13 2.93  29 2.99  31 3.02   9 3.03  33 3.10
                             6 3.22  30 3.24
  20  0.498  0.986  0.345-  26 2.76  21 2.85  15 2.92  13 2.96   9 3.02  33 3.02  31 3.05  29 3.07
                            14 3.21   4 3.25
  21  0.741  0.832  0.182-  19 2.76   4 2.77   6 2.82  20 2.85  18 2.93  12 2.98  30 3.04   8 3.18
                            15 3.31  13 3.32
  22  0.515  0.345  0.344-   2 2.78   5 2.81  36 2.83  33 2.86  10 3.01   9 3.02  29 3.02  31 3.03
                            34 3.29   4 3.33
  23  0.263  0.505  0.841-  27 2.82   7 2.87  25 2.92  34 2.94  16 2.95  11 2.96  18 2.97  12 3.06
                            17 3.19   1 3.31  10 3.34
  24  0.977  0.351  0.317-   2 2.74   5 2.86  33 2.89  36 2.95  29 2.95  10 2.96  31 3.03   9 3.10
                            11 3.24   6 3.26
  25  0.006  0.347  0.680-  28 2.83   1 2.85  32 2.85  23 2.92  36 2.96   5 3.07   9 3.09  31 3.13
                            16 3.18  11 3.26  34 3.38
  26  0.250  0.830  0.490-  20 2.76   3 2.86   4 2.91  14 2.92  19 2.92   6 2.99  16 3.02   7 3.09
                            13 3.27  15 3.42  36 3.43
  27  0.493  0.334  0.988-  23 2.82   1 2.84  28 2.94  10 2.99   2 3.02  33 3.04  32 3.05  29 3.06
                             8 3.29  34 3.29  11 3.44
  28  0.233  0.174  0.828-  25 2.83   3 2.83  11 2.93  14 2.93  27 2.94  34 2.95  30 3.01   8 3.01
                            32 3.25
  29  0.251  0.174  0.184-  24 2.95  19 2.99   8 3.02  22 3.02  27 3.06  20 3.07   9 3.09  30 3.11
                            11 3.11  33 3.32  10 3.42  13 3.61  33 3.62
  30  1.000  0.998  0.006-  28 3.01  21 3.04  32 3.06  13 3.09  29 3.11  35 3.11  17 3.12  33 3.12
                            19 3.24   8 3.43   3 3.45  12 3.45  11 3.51   8 3.53
  31  0.768  0.163  0.499-  19 3.02  22 3.03  24 3.03  20 3.05  14 3.08  34 3.11   3 3.12  25 3.13
                             9 3.21  32 3.28  33 3.30  15 3.38   5 3.52   9 3.74
  32  0.765  0.169  0.821-  25 2.85  11 3.02  34 3.03   8 3.04   3 3.04  27 3.05  30 3.06  14 3.15
                            28 3.25  31 3.28   1 3.36  35 3.42  33 3.64
  33  0.730  0.174  0.177-  22 2.86  24 2.89   8 2.97  20 3.02  27 3.04  11 3.09  19 3.10  30 3.12
                            31 3.30  29 3.32   2 3.33  29 3.62  32 3.64
  34  0.493  0.337  0.666-   1 2.92  23 2.94  28 2.95  36 3.01  32 3.03   5 3.03   9 3.11  31 3.11
                             7 3.23  27 3.29  22 3.29  25 3.38  14 3.41
  35  0.744  0.835  0.818-  18 2.96   3 2.99   7 3.00  16 3.00  14 3.08  12 3.08   8 3.11  30 3.11
                            15 3.19  17 3.30  32 3.42   1 3.49  17 3.68
  36  0.244  0.495  0.487-  22 2.83  24 2.95  16 2.96  25 2.96   4 3.00   7 3.00  34 3.01   6 3.02
                            10 3.26   9 3.32   5 3.41  26 3.43   5 3.54
 
  LATTYP: Found a triclinic cell.
 ALAT       =    29.7143655174
 B/A-ratio  =     0.3450512657
 C/A-ratio  =     0.3434143618
 COS(alpha) =     0.0003927307
 COS(beta)  =     0.6839691101
 COS(gamma) =     0.6913319244
  
  Lattice vectors:
  
 A1 = (   6.8506755853, -20.5232691486, -20.3668157938)
 A2 = (   0.0210905747, -10.2529574091,  -0.0026038978)
 A3 = (  -0.0681951860,  -0.0015563527, -10.2041118776)


Analysis of symmetry for initial positions (statically):
=====================================================================
 Subroutine PRICEL returns:
 Original cell was already a primitive cell.
 

 Routine SETGRP: Setting up the symmetry group for a 
 triclinic supercell.


 Subroutine GETGRP returns: Found  1 space group operations
 (whereof  1 operations were pure point group operations)
 out of a pool of  2 trial point group operations.


The static configuration has the point symmetry C_1 .


Analysis of symmetry for dynamics (positions and initial velocities):
=====================================================================
 Subroutine PRICEL returns:
 Original cell was already a primitive cell.
 

 Routine SETGRP: Setting up the symmetry group for a 
 triclinic supercell.


 Subroutine GETGRP returns: Found  1 space group operations
 (whereof  1 operations were pure point group operations)
 out of a pool of  2 trial point group operations.


The dynamic configuration has the point symmetry C_1 .


 Subroutine INISYM returns: Found  1 space group operations
 (whereof  1 operations are pure point group operations),
 and found     1 'primitive' translations

 
 
 KPOINTS: k-points                                

Automatic generation of k-mesh.
Space group operators:
 irot       det(A)        alpha          n_x          n_y          n_z        tau_x        tau_y        tau_z
    1     1.000000     0.000000     1.000000     0.000000     0.000000     0.000000     0.000000     0.000000
 
 Subroutine IBZKPT returns following result:
 ===========================================
 
 Found     14 irreducible k-points:
 
 Following reciprocal coordinates:
            Coordinates               Weight
  0.000000  0.000000  0.000000      1.000000
  0.333333 -0.000000  0.000000      2.000000
  0.000000  0.333333 -0.000000      2.000000
  0.333333  0.333333  0.000000      2.000000
 -0.333333  0.333333 -0.000000      2.000000
  0.000000  0.000000  0.333333      2.000000
  0.333333 -0.000000  0.333333      2.000000
 -0.333333  0.000000  0.333333      2.000000
  0.000000  0.333333  0.333333      2.000000
  0.333333  0.333333  0.333333      2.000000
 -0.333333  0.333333  0.333333      2.000000
  0.000000 -0.333333  0.333333      2.000000
  0.333333 -0.333333  0.333333      2.000000
 -0.333333 -0.333333  0.333333      2.000000
 
 Following cartesian coordinates:
            Coordinates               Weight
  0.000000  0.000000  0.000000      1.000000
  0.239435  0.000493 -0.001600      2.000000
  0.000333  0.162175 -0.000027      2.000000
  0.239768  0.162668 -0.001627      2.000000
 -0.239103  0.161682  0.001573      2.000000
 -0.001094 -0.000044  0.162958      2.000000
  0.238342  0.000449  0.161358      2.000000
 -0.240529 -0.000537  0.164559      2.000000
 -0.000761  0.162132  0.162931      2.000000
  0.238674  0.162625  0.161331      2.000000
 -0.240197  0.161639  0.164532      2.000000
 -0.001427 -0.162219  0.162985      2.000000
  0.238009 -0.161726  0.161385      2.000000
 -0.240862 -0.162712  0.164586      2.000000
 


--------------------------------------------------------------------------------------------------------




 Dimension of arrays:
   k-points           NKPTS =     14   k-points in BZ     NKDIM =     14   number of bands    NBANDS=    192
   number of dos      NEDOS =    301   number of ions     NIONS =     36
   non local maximal  LDIM  =      6   non local SUM 2l+1 LMDIM =     18
   total plane-waves  NPLWV = 144000
   max r-space proj   IRMAX =   6306   max aug-charges    IRDMAX=  13689
   dimension x,y,z NGX =    40 NGY =   60 NGZ =   60
   dimension x,y,z NGXF=    80 NGYF=  120 NGZF=  120
   support grid    NGXF=    80 NGYF=  120 NGZF=  120
   ions per type =               8   9  11   8
 NGX,Y,Z   is equivalent  to a cutoff of   9.57,  9.73,  9.78 a.u.
 NGXF,Y,Z  is equivalent  to a cutoff of  19.15, 19.46, 19.55 a.u.


 I would recommend the setting:
   dimension x,y,z NGX =    39 NGY =   58 NGZ =   58
 SYSTEM =  automatically generated by mexm         
 POSCAR =  generated by pypospack                  

 Startparameter for this run:
   NWRITE =      2    write-flag & timer
   PREC   = accura    normal or accurate (medium, high low for compatibility)
   ISTART =      0    job   : 0-new  1-cont  2-samecut
   ICHARG =      2    charge: 1-file 2-atom 10-const
   ISPIN  =      1    spin polarized calculation?
   LNONCOLLINEAR =      F non collinear calculations
   LSORBIT =      F    spin-orbit coupling
   INIWAV =      1    electr: 0-lowe 1-rand  2-diag
   LASPH  =      F    aspherical Exc in radial PAW
   METAGGA=      F    non-selfconsistent MetaGGA calc.

 Electronic Relaxation 1
   ENCUT  =  300.0 eV  22.05 Ry    4.70 a.u.   9.81 14.48 14.41*2*pi/ulx,y,z
   ENINI  =  300.0     initial cutoff
   ENAUG  =  461.3 eV  augmentation charge cutoff
   NELM   =     70;   NELMIN=  2; NELMDL= -5     # of ELM steps 
   EDIFF  = 0.1E-04   stopping-criterion for ELM
   LREAL  =      T    real-space projection
   NLSPLINE    = F    spline interpolate recip. space projectors
   LCOMPAT=      F    compatible to vasp.4.4
   GGA_COMPAT  = T    GGA compatible to vasp.4.4-vasp.4.6
   LMAXPAW     = -100 max onsite density
   LMAXMIX     =    2 max onsite mixed and CHGCAR
   VOSKOWN=      0    Vosko Wilk Nusair interpolation
   ROPT   =   -0.00025  -0.00025  -0.00025  -0.00025
 Ionic relaxation
   EDIFFG = -.1E-01   stopping-criterion for IOM
   NSW    =    300    number of steps for IOM
   NBLOCK =      1;   KBLOCK =    300    inner block; outer block 
   IBRION =      2    ionic relax: 0-MD 1-quasi-New 2-CG
   NFREE  =      1    steps in history (QN), initial steepest desc. (CG)
   ISIF   =      3    stress and relaxation
   IWAVPR =     11    prediction:  0-non 1-charg 2-wave 3-comb
   ISYM   =      1    0-nonsym 1-usesym 2-fastsym
   LCORR  =      T    Harris-Foulkes like correction to forces

   POTIM  = 0.1500    time-step for ionic-motion
   TEIN   =    0.0    initial temperature
   TEBEG  =    0.0;   TEEND  =   0.0 temperature during run
   SMASS  =  -3.00    Nose mass-parameter (am)
   estimated Nose-frequenzy (Omega)   =  0.10E-29 period in steps =****** mass=  -0.110E-26a.u.
   SCALEE = 1.0000    scale energy and forces
   NPACO  =    256;   APACO  = 16.0  distance and # of slots for P.C.
   PSTRESS=    0.0 pullay stress

  Mass of Ions in am
   POMASS = 180.95178.49 92.91 91.22
  Ionic Valenz
   ZVAL   =   5.00  4.00 13.00 12.00
  Atomic Wigner-Seitz radii
   RWIGS  =  -1.00 -1.00 -1.00 -1.00
  virtual crystal weights 
   VCA    =   1.00  1.00  1.00  1.00
   NELECT =     315.0000    total number of electrons
   NUPDOWN=      -1.0000    fix difference up-down

 DOS related values:
   EMIN   =  10.00;   EMAX   =-10.00  energy-range for DOS
   EFERMI =   0.00
   ISMEAR =     1;   SIGMA  =   0.15  broadening in eV -4-tet -1-fermi 0-gaus

 Electronic relaxation 2 (details)
   IALGO  =     68    algorithm
   LDIAG  =      T    sub-space diagonalisation (order eigenvalues)
   LSUBROT=      F    optimize rotation matrix (better conditioning)
   TURBO    =      0    0=normal 1=particle mesh
   IRESTART =      0    0=no restart 2=restart with 2 vectors
   NREBOOT  =      0    no. of reboots
   NMIN     =      0    reboot dimension
   EREF     =   0.00    reference energy to select bands
   IMIX   =      4    mixing-type and parameters
     AMIX     =   0.40;   BMIX     =  1.00
     AMIX_MAG =   1.60;   BMIX_MAG =  1.00
     AMIN     =   0.10
     WC   =   100.;   INIMIX=   1;  MIXPRE=   1;  MAXMIX= -45

 Intra band minimization:
   WEIMIN = 0.0010     energy-eigenvalue tresh-hold
   EBREAK =  0.13E-07  absolut break condition
   DEPER  =   0.30     relativ break condition  

   TIME   =   0.40     timestep for ELM

  volume/ion in A,a.u.               =      20.18       136.20
  Fermi-wavevector in a.u.,A,eV,Ry     =   1.239050  2.341466 20.888290  1.535246
  Thomas-Fermi vector in A             =   2.373550
 
 Write flags
   LWAVE  =      F    write WAVECAR
   LCHARG =      F    write CHGCAR
   LVTOT  =      F    write LOCPOT, total local potential
   LVHAR  =      F    write LOCPOT, Hartree potential only
   LELF   =      F    write electronic localiz. function (ELF)
   LORBIT =      0    0 simple, 1 ext, 2 COOP (PROOUT)


 Dipole corrections
   LMONO  =      F    monopole corrections only (constant potential shift)
   LDIPOL =      F    correct potential (dipole corrections)
   IDIPOL =      0    1-x, 2-y, 3-z, 4-all directions 
   EPSILON=  1.0000000 bulk dielectric constant

 Exchange correlation treatment:
   GGA     =    --    GGA type
   LEXCH   =     8    internal setting for exchange type
   VOSKOWN=      0    Vosko Wilk Nusair interpolation
   LHFCALC =     F    Hartree Fock is set to
   LHFONE  =     F    Hartree Fock one center treatment
   AEXX    =    0.0000 exact exchange contribution

 Linear response parameters
   LEPSILON=     F    determine dielectric tensor
   LRPA    =     F    only Hartree local field effects (RPA)
   LNABLA  =     F    use nabla operator in PAW spheres
   LVEL    =     F    velocity operator in full k-point grid
   LINTERFAST=   F  fast interpolation
   KINTER  =     0    interpolate to denser k-point grid
   CSHIFT  =0.1000    complex shift for real part using Kramers Kronig
   OMEGAMAX=  -1.0    maximum frequency
   DEG_THRESHOLD= 0.2000000E-02 threshold for treating states as degnerate
   RTIME   =    0.100 relaxation time in fs

 Orbital magnetization related:
   ORBITALMAG=     F  switch on orbital magnetization
   LCHIMAG   =     F  perturbation theory with respect to B field
   DQ        =  0.001000  dq finite difference perturbation B field



--------------------------------------------------------------------------------------------------------


 conjugate gradient relaxation of ions
 charge density and potential will be updated during run
 non-spin polarized calculation
 RMM-DIIS sequential band-by-band and
  variant of blocked Davidson during initial phase
 perform sub-space diagonalisation
    before iterative eigenvector-optimisation
 modified Broyden-mixing scheme, WC =      100.0
 initial mixing is a Kerker type mixing with AMIX =  0.4000 and BMIX =      1.0000
 Hartree-type preconditioning will be used
 using additional bands           34
 real space projection scheme for non local part
 use partial core corrections
 calculate Harris-corrections to forces 
   (improved forces if not selfconsistent)
 use gradient corrections 
 use of overlap-Matrix (Vanderbilt PP)
 Methfessel and Paxton  Order N= 1 SIGMA  =   0.15


--------------------------------------------------------------------------------------------------------


  energy-cutoff  :      300.00
  volume of cell :      726.55
      direct lattice vectors                 reciprocal lattice vectors
     6.944884808 -0.014241625  0.046615757     0.143997937  0.000296452 -0.000962399
    -0.021090575 10.252957409  0.002603898     0.000200117  0.097533250 -0.000016213
     0.068195186  0.001556353 10.204111878    -0.000657881 -0.000026243  0.098004110

  length of vectors
     6.945055856 10.252979432 10.204339872     0.144001458  0.097533457  0.098006322


 
 k-points in units of 2pi/SCALE and weight: k-points                                
   0.00000000  0.00000000  0.00000000       0.037
   0.23943545  0.00049293 -0.00160025       0.074
   0.00033275  0.16217536 -0.00002696       0.074
   0.23976820  0.16266829 -0.00162721       0.074
  -0.23910270  0.16168243  0.00157329       0.074
  -0.00109391 -0.00004364  0.16295829       0.074
   0.23834154  0.00044929  0.16135805       0.074
  -0.24052935 -0.00053657  0.16455854       0.074
  -0.00076116  0.16213173  0.16293134       0.074
   0.23867429  0.16262466  0.16133109       0.074
  -0.24019661  0.16163880  0.16453158       0.074
  -0.00142665 -0.16221900  0.16298525       0.074
   0.23800880 -0.16172607  0.16138501       0.074
  -0.24086210 -0.16271193  0.16458550       0.074
 
 k-points in reciprocal lattice and weights: k-points                                
   0.00000000  0.00000000  0.00000000       0.037
   0.33333333 -0.00000000  0.00000000       0.074
   0.00000000  0.33333333 -0.00000000       0.074
   0.33333333  0.33333333  0.00000000       0.074
  -0.33333333  0.33333333 -0.00000000       0.074
   0.00000000  0.00000000  0.33333333       0.074
   0.33333333 -0.00000000  0.33333333       0.074
  -0.33333333  0.00000000  0.33333333       0.074
   0.00000000  0.33333333  0.33333333       0.074
   0.33333333  0.33333333  0.33333333       0.074
  -0.33333333  0.33333333  0.33333333       0.074
   0.00000000 -0.33333333  0.33333333       0.074
   0.33333333 -0.33333333  0.33333333       0.074
  -0.33333333 -0.33333333  0.33333333       0.074
 
 position of ions in fractional coordinates (direct lattice) 
   0.73908600  0.49561500  0.83273100
   0.72960200  0.49838100  0.17159300
   0.03838100  0.99151500  0.66893600
   0.51849000  0.66953500  0.34062800
   0.75331100  0.50582200  0.49492000
   0.98413300  0.66842600  0.32838100
   0.50056900  0.65201100  0.66101900
   0.49291000  0.01335400  0.99729000
   0.22932200  0.17092800  0.48686100
   0.26668700  0.50653800  0.16813900
   0.99808800  0.34078400  0.99950200
   0.97581600  0.66173000  0.00534200
   0.26422500  0.82202600  0.16927200
   0.46710100  0.00504800  0.65856300
   0.75782500  0.83338200  0.50562900
   0.01097100  0.65772700  0.66877600
   0.27134600  0.81582900  0.84388600
   0.53509000  0.65959300  0.00195700
   0.99603300  0.98232300  0.32312100
   0.49774900  0.98646000  0.34530200
   0.74131400  0.83190800  0.18209300
   0.51450600  0.34500200  0.34403700
   0.26338600  0.50477500  0.84071900
   0.97740200  0.35106700  0.31688300
   0.00634000  0.34742400  0.68046800
   0.25012100  0.82995100  0.48956800
   0.49299800  0.33373800  0.98796600
   0.23268800  0.17398500  0.82819500
   0.25136800  0.17381900  0.18404800
   0.99976900  0.99826300  0.00600500
   0.76763700  0.16282300  0.49893300
   0.76506000  0.16854500  0.82062300
   0.72979200  0.17379600  0.17727500
   0.49289400  0.33735300  0.66592400
   0.74439500  0.83547800  0.81809200
   0.24358900  0.49505100  0.48732000
 
 position of ions in cartesian coordinates  (Angst):
   5.17920257  5.07228972  8.53302387
   5.06819252  5.09975551  1.78626285
   0.29125822 10.16645556  6.83026875
   3.60996164  6.85785984  3.50171943
   5.25474120  5.17621332  5.08665232
   6.84298684  6.83983873  3.39845308
   3.50772107  6.67894088  6.77014400
   3.49093190  0.13145029 10.19947088
   1.62221148  1.75000931  4.97911921
   1.85289359  5.18997617  1.72945996
   6.99258008  3.48138502 10.24644422
   6.76333775  6.77080061  0.10172184
   1.82921872  8.42469802  1.74172795
   3.28876700  0.04612961  6.74183794
   5.27991229  8.53462443  5.19699151
   0.10792779  6.74453152  6.82648920
   1.92480937  8.36210897  8.62588049
   3.70236067  6.75516143  0.04663059
   6.91865199 10.05803364  3.34615153
   3.45955239 10.10758102  3.54927183
   5.14321278  8.51924318  1.89482046
   3.58937028  3.53049885  3.53547447
   1.87587242  5.17299399  8.59238305
   6.80214999  3.58604839  3.27998606
   0.08310784  3.56309223  6.94477180
   1.75294357  8.50665207  5.00942733
   3.48415012  3.41631803 10.10516609
   1.66880082  1.78183590  8.46229440
   1.75460705  1.77886536  1.89021670
   6.92263611 10.22091903  0.11048006
   5.36174134  1.65926140  5.12737611
   5.36566140  1.71846619  8.40983163
   5.07674522  1.77180546  1.84340629
   3.46138989  3.45288274  6.81901806
   5.20790675  8.55679220  8.38477833
   1.71448951  5.07302616  4.98531195
 


--------------------------------------------------------------------------------------------------------


 k-point  1 :   0.0000 0.0000 0.0000  plane waves:    8617
 k-point  2 :   0.3333-0.0000 0.0000  plane waves:    8586
 k-point  3 :   0.0000 0.3333-0.0000  plane waves:    8572
 k-point  4 :   0.3333 0.3333 0.0000  plane waves:    8574
 k-point  5 :  -0.3333 0.3333-0.0000  plane waves:    8577
 k-point  6 :   0.0000 0.0000 0.3333  plane waves:    8575
 k-point  7 :   0.3333-0.0000 0.3333  plane waves:    8571
 k-point  8 :  -0.3333 0.0000 0.3333  plane waves:    8568
 k-point  9 :   0.0000 0.3333 0.3333  plane waves:    8565
 k-point 10 :   0.3333 0.3333 0.3333  plane waves:    8582
 k-point 11 :  -0.3333 0.3333 0.3333  plane waves:    8575
 k-point 12 :   0.0000-0.3333 0.3333  plane waves:    8567
 k-point 13 :   0.3333-0.3333 0.3333  plane waves:    8580
 k-point 14 :  -0.3333-0.3333 0.3333  plane waves:    8579

 maximum and minimum number of plane-waves per node :      1738     1696

 maximum number of plane-waves:      8617
 maximum index in each direction: 
   IXMAX=   10   IYMAX=   14   IZMAX=   14
   IXMIN=  -10   IYMIN=  -14   IZMIN=  -14

 WARNING: aliasing errors must be expected set NGX to  42 to avoid them
 NGY is ok and might be reduce to  58
 NGZ is ok and might be reduce to  58
 aliasing errors are usually negligible using standard VASP settings
 and one can safely disregard these warnings

 real space projection operators:
  total allocation   :      27446.77 KBytes
  max/ min on nodes  :       5530.92       5432.77


 parallel 3D FFT for wavefunctions:
    minimum data exchange during FFTs selected (reduces bandwidth)
 parallel 3D FFT for charge:
    minimum data exchange during FFTs selected (reduces bandwidth)


 total amount of memory used by VASP on root node    69084. kBytes
========================================================================

   base      :      30000. kBytes
   nonlr-proj:      10530. kBytes
   fftplans  :       2814. kBytes
   grid      :       5360. kBytes
   one-center:        124. kBytes
   wavefun   :      20256. kBytes
 
     INWAV:  cpu time    0.0000: real time    0.0000
 Broyden mixing: mesh for mixing (old mesh)
   NGX = 19   NGY = 29   NGZ = 29
  (NGX  = 80   NGY  =120   NGZ  =120)
  gives a total of  15979 points

 initial charge density was supplied:
 charge density of overlapping atoms calculated
 number of electron     315.0000000 magnetization 
 keeping initial charge density in first step


--------------------------------------------------------------------------------------------------------


 Maximum index for non-local projection operator         1225
 Maximum index for augmentation-charges          680 (set IRDMAX)


--------------------------------------------------------------------------------------------------------


 First call to EWALD:  gamma=   0.197
 Maximum number of real-space cells 3x 2x 2
 Maximum number of reciprocal cells 2x 3x 3

 FEWALD executed in parallel
    FEWALD:  cpu time    0.0860: real time    0.0870


----------------------------------------- Iteration    1(   1)  ---------------------------------------


    POTLOK:  cpu time    0.0513: real time    0.0667
    SETDIJ:  cpu time    1.3933: real time    1.3992
     EDDAV:  cpu time    1.0922: real time    1.1251
       DOS:  cpu time    0.0021: real time    0.0021
    --------------------------------------------
      LOOP:  cpu time    2.5465: real time    2.8527

 eigenvalue-minimisations  :  5904
 total energy-change (2. order) : 0.2142299E+04  (-0.1207710E+05)
 number of electron     315.0000000 magnetization 
 augmentation part      315.0000000 magnetization 

 Free energy of the ion-electron system (eV)
  ---------------------------------------------------
  alpha Z        PSCENC =      1637.58607916
  Ewald energy   TEWEN  =    -22099.29542703
  -Hartree energ DENC   =     -7733.59796607
  -exchange      EXHF   =         0.00000000
  -V(xc)+E(xc)   XCENC  =        12.82886760
  PAW double counting   =     24230.45059827   -22748.86655826
  entropy T*S    EENTRO =         0.00339032
  eigenvalues    EBANDS =      -264.73631258
  atomic energy  EATOM  =     29107.92662258
  Solvation  Ediel_sol  =         0.00000000
  ---------------------------------------------------
  free energy    TOTEN  =      2142.29929397 eV

  energy without entropy =     2142.29590365  energy(sigma->0) =     2142.29816386


--------------------------------------------------------------------------------------------------------




----------------------------------------- Iteration    1(   2)  ---------------------------------------


     EDDAV:  cpu time    1.3392: real time    1.3485
       DOS:  cpu time    0.0013: real time    0.0013
    --------------------------------------------
      LOOP:  cpu time    1.3418: real time    1.4506

 eigenvalue-minimisations  :  6176
 total energy-change (2. order) :-0.2213360E+04  (-0.2139560E+04)
 number of electron     315.0000000 magnetization 
 augmentation part      315.0000000 magnetization 

 Free energy of the ion-electron system (eV)
  ---------------------------------------------------
  alpha Z        PSCENC =      1637.58607916
  Ewald energy   TEWEN  =    -22099.29542703
  -Hartree energ DENC   =     -7733.59796607
  -exchange      EXHF   =         0.00000000
  -V(xc)+E(xc)   XCENC  =        12.82886760
  PAW double counting   =     24230.45059827   -22748.86655826
  entropy T*S    EENTRO =        -0.01264618
  eigenvalues    EBANDS =     -2478.08017445
  atomic energy  EATOM  =     29107.92662258
  Solvation  Ediel_sol  =         0.00000000
  ---------------------------------------------------
  free energy    TOTEN  =       -71.06060440 eV

  energy without entropy =      -71.04795822  energy(sigma->0) =      -71.05638900


--------------------------------------------------------------------------------------------------------




----------------------------------------- Iteration    1(   3)  ---------------------------------------


     EDDAV:  cpu time    1.5021: real time    1.5089
       DOS:  cpu time    0.0015: real time    0.0015
    --------------------------------------------
      LOOP:  cpu time    1.5040: real time    1.5361

 eigenvalue-minimisations  :  9152
 total energy-change (2. order) :-0.2712672E+03  (-0.2578099E+03)
 number of electron     315.0000000 magnetization 
 augmentation part      315.0000000 magnetization 

 Free energy of the ion-electron system (eV)
  ---------------------------------------------------
  alpha Z        PSCENC =      1637.58607916
  Ewald energy   TEWEN  =    -22099.29542703
  -Hartree energ DENC   =     -7733.59796607
  -exchange      EXHF   =         0.00000000
  -V(xc)+E(xc)   XCENC  =        12.82886760
  PAW double counting   =     24230.45059827   -22748.86655826
  entropy T*S    EENTRO =        -0.00279377
  eigenvalues    EBANDS =     -2749.35719498
  atomic energy  EATOM  =     29107.92662258
  Solvation  Ediel_sol  =         0.00000000
  ---------------------------------------------------
  free energy    TOTEN  =      -342.32777251 eV

  energy without entropy =     -342.32497874  energy(sigma->0) =     -342.32684125


--------------------------------------------------------------------------------------------------------




----------------------------------------- Iteration    1(   4)  ---------------------------------------


     EDDAV:  cpu time    1.6005: real time    1.6118
       DOS:  cpu time    0.0017: real time    0.0017
    --------------------------------------------
      LOOP:  cpu time    1.6026: real time    1.6367

 eigenvalue-minimisations  :  9000
 total energy-change (2. order) :-0.3110266E+02  (-0.2974486E+02)
 number of electron     315.0000000 magnetization 
 augmentation part      315.0000000 magnetization 

 Free energy of the ion-electron system (eV)
  ---------------------------------------------------
  alpha Z        PSCENC =      1637.58607916
  Ewald energy   TEWEN  =    -22099.29542703
  -Hartree energ DENC   =     -7733.59796607
  -exchange      EXHF   =         0.00000000
  -V(xc)+E(xc)   XCENC  =        12.82886760
  PAW double counting   =     24230.45059827   -22748.86655826
  entropy T*S    EENTRO =         0.00426221
  eigenvalues    EBANDS =     -2780.46690915
  atomic energy  EATOM  =     29107.92662258
  Solvation  Ediel_sol  =         0.00000000
  ---------------------------------------------------
  free energy    TOTEN  =      -373.43043071 eV

  energy without entropy =     -373.43469292  energy(sigma->0) =     -373.43185145


--------------------------------------------------------------------------------------------------------




----------------------------------------- Iteration    1(   5)  ---------------------------------------


     EDDAV:  cpu time    1.4819: real time    1.4935
       DOS:  cpu time    0.0014: real time    0.0014
    CHARGE:  cpu time    0.0319: real time    0.0320
    MIXING:  cpu time    0.0013: real time    0.0014
    --------------------------------------------
      LOOP:  cpu time    1.5170: real time    1.5544

 eigenvalue-minimisations  :  8784
 total energy-change (2. order) :-0.3091634E+01  (-0.3043435E+01)
 number of electron     315.0000003 magnetization 
 augmentation part       19.1368523 magnetization 

 Broyden mixing:
  rms(total) = 0.62321E+01    rms(broyden)= 0.62316E+01
  rms(prec ) = 0.65334E+01
  weight for this iteration     100.00

 Free energy of the ion-electron system (eV)
  ---------------------------------------------------
  alpha Z        PSCENC =      1637.58607916
  Ewald energy   TEWEN  =    -22099.29542703
  -Hartree energ DENC   =     -7733.59796607
  -exchange      EXHF   =         0.00000000
  -V(xc)+E(xc)   XCENC  =        12.82886760
  PAW double counting   =     24230.45059827   -22748.86655826
  entropy T*S    EENTRO =         0.00647749
  eigenvalues    EBANDS =     -2783.56075878
  atomic energy  EATOM  =     29107.92662258
  Solvation  Ediel_sol  =         0.00000000
  ---------------------------------------------------
  free energy    TOTEN  =      -376.52206506 eV

  energy without entropy =     -376.52854255  energy(sigma->0) =     -376.52422422


--------------------------------------------------------------------------------------------------------




----------------------------------------- Iteration    1(   6)  ---------------------------------------


    POTLOK:  cpu time    0.0289: real time    0.0290
    SETDIJ:  cpu time    0.0049: real time    0.0050
    EDDIAG:  cpu time    0.0862: real time    0.0866
  RMM-DIIS:  cpu time    0.7636: real time    0.7682
    ORTHCH:  cpu time    0.0139: real time    0.0140
       DOS:  cpu time    0.0012: real time    0.0012
    CHARGE:  cpu time    0.0329: real time    0.0331
    MIXING:  cpu time    0.0018: real time    0.0140
    --------------------------------------------
      LOOP:  cpu time    0.9341: real time    0.9784

 eigenvalue-minimisations  :  7461
 total energy-change (2. order) : 0.1011173E+02  (-0.2743442E+01)
 number of electron     315.0000003 magnetization 
 augmentation part       19.9808733 magnetization 

 Broyden mixing:
  rms(total) = 0.29192E+01    rms(broyden)= 0.29191E+01
  rms(prec ) = 0.33614E+01
  weight for this iteration     100.00

 eigenvalues of (default mixing * dielectric matrix)
  average eigenvalue GAMMA=   1.7705
  1.7705

 Free energy of the ion-electron system (eV)
  ---------------------------------------------------
  alpha Z        PSCENC =      1637.58607916
  Ewald energy   TEWEN  =    -22099.29542703
  -Hartree energ DENC   =     -7532.88228218
  -exchange      EXHF   =         0.00000000
  -V(xc)+E(xc)   XCENC  =         7.18500179
  PAW double counting   =     29622.50423433   -28147.41245848
  entropy T*S    EENTRO =        -0.00102795
  eigenvalues    EBANDS =     -2962.02107655
  atomic energy  EATOM  =     29107.92662258
  Solvation  Ediel_sol  =         0.00000000
  ---------------------------------------------------
  free energy    TOTEN  =      -366.41033433 eV

  energy without entropy =     -366.40930638  energy(sigma->0) =     -366.40999168


--------------------------------------------------------------------------------------------------------




----------------------------------------- Iteration    1(   7)  ---------------------------------------


    POTLOK:  cpu time    0.0290: real time    0.0291
    SETDIJ:  cpu time    0.0036: real time    0.0036
    EDDIAG:  cpu time    0.1475: real time    0.1480
  RMM-DIIS:  cpu time    0.8057: real time    0.8092
    ORTHCH:  cpu time    0.0138: real time    0.0138
       DOS:  cpu time    0.0014: real time    0.0014
    CHARGE:  cpu time    0.0315: real time    0.0316
    MIXING:  cpu time    0.0012: real time    0.0012
    --------------------------------------------
      LOOP:  cpu time    1.0342: real time    1.0650

 eigenvalue-minimisations  :  7814
 total energy-change (2. order) :-0.3923380E+01  (-0.2638459E+01)
 number of electron     315.0000003 magnetization 
 augmentation part       20.3799603 magnetization 

 Broyden mixing:
  rms(total) = 0.14844E+01    rms(broyden)= 0.14841E+01
  rms(prec ) = 0.42822E+01
  weight for this iteration     100.00

 eigenvalues of (default mixing * dielectric matrix)
  average eigenvalue GAMMA=   1.1105
  1.7947  0.4264

 Free energy of the ion-electron system (eV)
  ---------------------------------------------------
  alpha Z        PSCENC =      1637.58607916
  Ewald energy   TEWEN  =    -22099.29542703
  -Hartree energ DENC   =     -7478.51677099
  -exchange      EXHF   =         0.00000000
  -V(xc)+E(xc)   XCENC  =         7.21135249
  PAW double counting   =     33975.11711408   -32491.71755100
  entropy T*S    EENTRO =        -0.01136491
  eigenvalues    EBANDS =     -3028.63376915
  atomic energy  EATOM  =     29107.92662258
  Solvation  Ediel_sol  =         0.00000000
  ---------------------------------------------------
  free energy    TOTEN  =      -370.33371478 eV

  energy without entropy =     -370.32234987  energy(sigma->0) =     -370.32992648


--------------------------------------------------------------------------------------------------------




----------------------------------------- Iteration    1(   8)  ---------------------------------------


    POTLOK:  cpu time    0.0292: real time    0.0294
    SETDIJ:  cpu time    0.1513: real time    0.1519
    EDDIAG:  cpu time    0.0986: real time    0.0993
  RMM-DIIS:  cpu time    0.7962: real time    0.8044
    ORTHCH:  cpu time    0.0140: real time    0.0143
       DOS:  cpu time    0.0037: real time    0.0038
    CHARGE:  cpu time    0.0336: real time    0.0341
    MIXING:  cpu time    0.0012: real time    0.0012
    --------------------------------------------
      LOOP:  cpu time    1.1284: real time    1.1605

 eigenvalue-minimisations  :  7703
 total energy-change (2. order) : 0.8499170E+01  (-0.8551023E+00)
 number of electron     315.0000004 magnetization 
 augmentation part       20.2243742 magnetization 

 Broyden mixing:
  rms(total) = 0.46718E+00    rms(broyden)= 0.46664E+00
  rms(prec ) = 0.75998E+00
  weight for this iteration     100.00

 eigenvalues of (default mixing * dielectric matrix)
  average eigenvalue GAMMA=   1.0961
  1.8251  1.1099  0.3534

 Free energy of the ion-electron system (eV)
  ---------------------------------------------------
  alpha Z        PSCENC =      1637.58607916
  Ewald energy   TEWEN  =    -22099.29542703
  -Hartree energ DENC   =     -7442.79447967
  -exchange      EXHF   =         0.00000000
  -V(xc)+E(xc)   XCENC  =         7.10811466
  PAW double counting   =     35401.69805342   -33914.80814468
  entropy T*S    EENTRO =         0.01614576
  eigenvalues    EBANDS =     -3059.27150923
  atomic energy  EATOM  =     29107.92662258
  Solvation  Ediel_sol  =         0.00000000
  ---------------------------------------------------
  free energy    TOTEN  =      -361.83454503 eV

  energy without entropy =     -361.85069079  energy(sigma->0) =     -361.83992695


--------------------------------------------------------------------------------------------------------




----------------------------------------- Iteration    1(   9)  ---------------------------------------


    POTLOK:  cpu time    0.0293: real time    0.0300
    SETDIJ:  cpu time    0.6549: real time    0.6797
    EDDIAG:  cpu time    0.0976: real time    0.0980
  RMM-DIIS:  cpu time    0.8490: real time    0.8560
    ORTHCH:  cpu time    0.0145: real time    0.0145
       DOS:  cpu time    0.0027: real time    0.0027
    CHARGE:  cpu time    0.0326: real time    0.0327
    MIXING:  cpu time    0.0014: real time    0.0014
    --------------------------------------------
      LOOP:  cpu time    1.6827: real time    1.7368

 eigenvalue-minimisations  :  8051
 total energy-change (2. order) : 0.3139707E+00  (-0.2265171E+00)
 number of electron     315.0000004 magnetization 
 augmentation part       20.0951965 magnetization 

 Broyden mixing:
  rms(total) = 0.31487E+00    rms(broyden)= 0.31477E+00
  rms(prec ) = 0.44752E+00
  weight for this iteration     100.00

 eigenvalues of (default mixing * dielectric matrix)
  average eigenvalue GAMMA=   1.1214
  1.8297  1.8297  0.4725  0.3536

 Free energy of the ion-electron system (eV)
  ---------------------------------------------------
  alpha Z        PSCENC =      1637.58607916
  Ewald energy   TEWEN  =    -22099.29542703
  -Hartree energ DENC   =     -7438.97348256
  -exchange      EXHF   =         0.00000000
  -V(xc)+E(xc)   XCENC  =         7.37616444
  PAW double counting   =     35633.08806222   -34141.87811230
  entropy T*S    EENTRO =         0.01369702
  eigenvalues    EBANDS =     -3067.36417785
  atomic energy  EATOM  =     29107.92662258
  Solvation  Ediel_sol  =         0.00000000
  ---------------------------------------------------
  free energy    TOTEN  =      -361.52057433 eV

  energy without entropy =     -361.53427136  energy(sigma->0) =     -361.52514001


--------------------------------------------------------------------------------------------------------




----------------------------------------- Iteration    1(  10)  ---------------------------------------


    POTLOK:  cpu time    0.0296: real time    0.0298
    SETDIJ:  cpu time    0.0271: real time    0.0273
    EDDIAG:  cpu time    0.0863: real time    0.0876
  RMM-DIIS:  cpu time    0.8211: real time    0.8286
    ORTHCH:  cpu time    0.0138: real time    0.0146
       DOS:  cpu time    0.0010: real time    0.0010
    CHARGE:  cpu time    0.0335: real time    0.0336
    MIXING:  cpu time    0.0013: real time    0.0013
    --------------------------------------------
      LOOP:  cpu time    1.0144: real time    1.0491

 eigenvalue-minimisations  :  8079
 total energy-change (2. order) : 0.4028649E-01  (-0.5176664E-01)
 number of electron     315.0000004 magnetization 
 augmentation part       19.9829934 magnetization 

 Broyden mixing:
  rms(total) = 0.15863E+00    rms(broyden)= 0.15857E+00
  rms(prec ) = 0.29564E+00
  weight for this iteration     100.00

 eigenvalues of (default mixing * dielectric matrix)
  average eigenvalue GAMMA=   1.0847
  2.0702  1.8211  0.7117  0.3570  0.4637

 Free energy of the ion-electron system (eV)
  ---------------------------------------------------
  alpha Z        PSCENC =      1637.58607916
  Ewald energy   TEWEN  =    -22099.29542703
  -Hartree energ DENC   =     -7454.84013466
  -exchange      EXHF   =         0.00000000
  -V(xc)+E(xc)   XCENC  =         8.50506289
  PAW double counting   =     35905.95748747   -34406.21437865
  entropy T*S    EENTRO =         0.01529556
  eigenvalues    EBANDS =     -3061.12089516
  atomic energy  EATOM  =     29107.92662258
  Solvation  Ediel_sol  =         0.00000000
  ---------------------------------------------------
  free energy    TOTEN  =      -361.48028784 eV

  energy without entropy =     -361.49558340  energy(sigma->0) =     -361.48538636


--------------------------------------------------------------------------------------------------------




----------------------------------------- Iteration    1(  11)  ---------------------------------------


    POTLOK:  cpu time    0.0286: real time    0.0288
    SETDIJ:  cpu time    0.0037: real time    0.0038
    EDDIAG:  cpu time    0.0838: real time    0.0842
  RMM-DIIS:  cpu time    0.8135: real time    0.8183
    ORTHCH:  cpu time    0.0139: real time    0.0140
       DOS:  cpu time    0.0134: real time    0.0134
    CHARGE:  cpu time    0.0566: real time    0.0568
    MIXING:  cpu time    0.0014: real time    0.0014
    --------------------------------------------
      LOOP:  cpu time    1.0156: real time    1.0496

 eigenvalue-minimisations  :  7965
 total energy-change (2. order) : 0.4393264E-01  (-0.1548464E-01)
 number of electron     315.0000004 magnetization 
 augmentation part       19.9471469 magnetization 

 Broyden mixing:
  rms(total) = 0.76674E-01    rms(broyden)= 0.76602E-01
  rms(prec ) = 0.13948E+00
  weight for this iteration     100.00

 eigenvalues of (default mixing * dielectric matrix)
  average eigenvalue GAMMA=   1.0471
  2.1340  1.8372  1.0765  0.4912  0.3512  0.3923

 Free energy of the ion-electron system (eV)
  ---------------------------------------------------
  alpha Z        PSCENC =      1637.58607916
  Ewald energy   TEWEN  =    -22099.29542703
  -Hartree energ DENC   =     -7460.77823869
  -exchange      EXHF   =         0.00000000
  -V(xc)+E(xc)   XCENC  =         9.01705082
  PAW double counting   =     36056.83457536   -34552.86045060
  entropy T*S    EENTRO =         0.01392128
  eigenvalues    EBANDS =     -3059.88048807
  atomic energy  EATOM  =     29107.92662258
  Solvation  Ediel_sol  =         0.00000000
  ---------------------------------------------------
  free energy    TOTEN  =      -361.43635520 eV

  energy without entropy =     -361.45027648  energy(sigma->0) =     -361.44099563


--------------------------------------------------------------------------------------------------------




----------------------------------------- Iteration    1(  12)  ---------------------------------------


    POTLOK:  cpu time    0.0285: real time    0.0286
    SETDIJ:  cpu time    0.0056: real time    0.0056
    EDDIAG:  cpu time    0.1375: real time    0.1380
  RMM-DIIS:  cpu time    0.8927: real time    0.8970
    ORTHCH:  cpu time    0.0140: real time    0.0142
       DOS:  cpu time    0.0010: real time    0.0010
    CHARGE:  cpu time    0.0328: real time    0.0329
    MIXING:  cpu time    0.0015: real time    0.0015
    --------------------------------------------
      LOOP:  cpu time    1.1143: real time    1.1439

 eigenvalue-minimisations  :  8051
 total energy-change (2. order) : 0.3659117E-02  (-0.6306086E-02)
 number of electron     315.0000004 magnetization 
 augmentation part       19.9411827 magnetization 

 Broyden mixing:
  rms(total) = 0.43473E-01    rms(broyden)= 0.43451E-01
  rms(prec ) = 0.69327E-01
  weight for this iteration     100.00

 eigenvalues of (default mixing * dielectric matrix)
  average eigenvalue GAMMA=   1.0271
  2.1862  1.8941  1.2767  0.6032  0.4981  0.3508  0.3809

 Free energy of the ion-electron system (eV)
  ---------------------------------------------------
  alpha Z        PSCENC =      1637.58607916
  Ewald energy   TEWEN  =    -22099.29542703
  -Hartree energ DENC   =     -7463.78571816
  -exchange      EXHF   =         0.00000000
  -V(xc)+E(xc)   XCENC  =         9.18549444
  PAW double counting   =     36152.21702169   -34646.23421421
  entropy T*S    EENTRO =         0.01364279
  eigenvalues    EBANDS =     -3059.04619733
  atomic energy  EATOM  =     29107.92662258
  Solvation  Ediel_sol  =         0.00000000
  ---------------------------------------------------
  free energy    TOTEN  =      -361.43269608 eV

  energy without entropy =     -361.44633887  energy(sigma->0) =     -361.43724368


--------------------------------------------------------------------------------------------------------




----------------------------------------- Iteration    1(  13)  ---------------------------------------


    POTLOK:  cpu time    0.0280: real time    0.0282
    SETDIJ:  cpu time    0.0035: real time    0.0035
    EDDIAG:  cpu time    0.0828: real time    0.0833
  RMM-DIIS:  cpu time    0.8308: real time    0.8364
    ORTHCH:  cpu time    0.0140: real time    0.0140
       DOS:  cpu time    0.0013: real time    0.0013
    CHARGE:  cpu time    0.0315: real time    0.0316
    MIXING:  cpu time    0.0015: real time    0.0015
    --------------------------------------------
      LOOP:  cpu time    0.9938: real time    1.0497

 eigenvalue-minimisations  :  8197
 total energy-change (2. order) : 0.2183677E-02  (-0.1754638E-02)
 number of electron     315.0000004 magnetization 
 augmentation part       19.9394975 magnetization 

 Broyden mixing:
  rms(total) = 0.25192E-01    rms(broyden)= 0.25181E-01
  rms(prec ) = 0.35841E-01
  weight for this iteration     100.00

 eigenvalues of (default mixing * dielectric matrix)
  average eigenvalue GAMMA=   1.0443
  2.2345  2.0491  1.4238  0.9319  0.5509  0.4576  0.3559  0.3504

 Free energy of the ion-electron system (eV)
  ---------------------------------------------------
  alpha Z        PSCENC =      1637.58607916
  Ewald energy   TEWEN  =    -22099.29542703
  -Hartree energ DENC   =     -7463.74388466
  -exchange      EXHF   =         0.00000000
  -V(xc)+E(xc)   XCENC  =         9.20468435
  PAW double counting   =     36204.15692857   -34697.15466718
  entropy T*S    EENTRO =         0.01384069
  eigenvalues    EBANDS =     -3060.12468889
  atomic energy  EATOM  =     29107.92662258
  Solvation  Ediel_sol  =         0.00000000
  ---------------------------------------------------
  free energy    TOTEN  =      -361.43051241 eV

  energy without entropy =     -361.44435309  energy(sigma->0) =     -361.43512597


--------------------------------------------------------------------------------------------------------




----------------------------------------- Iteration    1(  14)  ---------------------------------------


    POTLOK:  cpu time    0.0286: real time    0.0288
    SETDIJ:  cpu time    0.0036: real time    0.0036
    EDDIAG:  cpu time    0.0833: real time    0.0837
  RMM-DIIS:  cpu time    0.8656: real time    0.8695
    ORTHCH:  cpu time    0.0139: real time    0.0139
       DOS:  cpu time    0.0015: real time    0.0015
    CHARGE:  cpu time    0.0330: real time    0.0331
    MIXING:  cpu time    0.0016: real time    0.0016
    --------------------------------------------
      LOOP:  cpu time    1.0317: real time    1.0814

 eigenvalue-minimisations  :  8393
 total energy-change (2. order) :-0.8331885E-05  (-0.6376274E-03)
 number of electron     315.0000004 magnetization 
 augmentation part       19.9394893 magnetization 

 Broyden mixing:
  rms(total) = 0.13787E-01    rms(broyden)= 0.13783E-01
  rms(prec ) = 0.22131E-01
  weight for this iteration     100.00

 eigenvalues of (default mixing * dielectric matrix)
  average eigenvalue GAMMA=   1.0535
  2.4580  2.0673  1.5457  1.1128  0.5745  0.5745  0.4391  0.3467  0.3629

 Free energy of the ion-electron system (eV)
  ---------------------------------------------------
  alpha Z        PSCENC =      1637.58607916
  Ewald energy   TEWEN  =    -22099.29542703
  -Hartree energ DENC   =     -7464.54486277
  -exchange      EXHF   =         0.00000000
  -V(xc)+E(xc)   XCENC  =         9.22824692
  PAW double counting   =     36234.94125472   -34727.32274551
  entropy T*S    EENTRO =         0.01411959
  eigenvalues    EBANDS =     -3059.96380840
  atomic energy  EATOM  =     29107.92662258
  Solvation  Ediel_sol  =         0.00000000
  ---------------------------------------------------
  free energy    TOTEN  =      -361.43052074 eV

  energy without entropy =     -361.44464033  energy(sigma->0) =     -361.43522727


--------------------------------------------------------------------------------------------------------




----------------------------------------- Iteration    1(  15)  ---------------------------------------


    POTLOK:  cpu time    0.0289: real time    0.0291
    SETDIJ:  cpu time    0.0035: real time    0.0035
    EDDIAG:  cpu time    0.0845: real time    0.0851
  RMM-DIIS:  cpu time    0.9147: real time    0.9253
    ORTHCH:  cpu time    0.0138: real time    0.0139
       DOS:  cpu time    0.0011: real time    0.0011
    CHARGE:  cpu time    0.0329: real time    0.0332
    MIXING:  cpu time    0.0016: real time    0.0017
    --------------------------------------------
      LOOP:  cpu time    1.0818: real time    1.1324

 eigenvalue-minimisations  :  8380
 total energy-change (2. order) :-0.1215961E-03  (-0.2902484E-03)
 number of electron     315.0000004 magnetization 
 augmentation part       19.9391729 magnetization 

 Broyden mixing:
  rms(total) = 0.77435E-02    rms(broyden)= 0.77394E-02
  rms(prec ) = 0.15844E-01
  weight for this iteration     100.00

 eigenvalues of (default mixing * dielectric matrix)
  average eigenvalue GAMMA=   1.0258
  2.5366  2.0899  1.5471  1.2103  0.6794  0.6383  0.4285  0.4285  0.3498  0.3498

 Free energy of the ion-electron system (eV)
  ---------------------------------------------------
  alpha Z        PSCENC =      1637.58607916
  Ewald energy   TEWEN  =    -22099.29542703
  -Hartree energ DENC   =     -7464.56265228
  -exchange      EXHF   =         0.00000000
  -V(xc)+E(xc)   XCENC  =         9.23190217
  PAW double counting   =     36256.64724659   -34748.61618287
  entropy T*S    EENTRO =         0.01393217
  eigenvalues    EBANDS =     -3060.36216282
  atomic energy  EATOM  =     29107.92662258
  Solvation  Ediel_sol  =         0.00000000
  ---------------------------------------------------
  free energy    TOTEN  =      -361.43064233 eV

  energy without entropy =     -361.44457450  energy(sigma->0) =     -361.43528639


--------------------------------------------------------------------------------------------------------




----------------------------------------- Iteration    1(  16)  ---------------------------------------


    POTLOK:  cpu time    0.0292: real time    0.0294
    SETDIJ:  cpu time    0.0036: real time    0.0036
    EDDIAG:  cpu time    0.0839: real time    0.0845
  RMM-DIIS:  cpu time    0.7858: real time    0.7923
    ORTHCH:  cpu time    0.0141: real time    0.0142
       DOS:  cpu time    0.0015: real time    0.0015
    CHARGE:  cpu time    0.0336: real time    0.0337
    MIXING:  cpu time    0.0016: real time    0.0017
    --------------------------------------------
      LOOP:  cpu time    0.9539: real time    0.9842

 eigenvalue-minimisations  :  7685
 total energy-change (2. order) : 0.1474419E-04  (-0.1120941E-03)
 number of electron     315.0000004 magnetization 
 augmentation part       19.9388130 magnetization 

 Broyden mixing:
  rms(total) = 0.37316E-02    rms(broyden)= 0.37294E-02
  rms(prec ) = 0.58023E-02
  weight for this iteration     100.00

 eigenvalues of (default mixing * dielectric matrix)
  average eigenvalue GAMMA=   1.0259
  2.5666  2.1048  1.6094  1.3377  0.9818  0.6544  0.4960  0.4758  0.3594  0.3594
  0.3397

 Free energy of the ion-electron system (eV)
  ---------------------------------------------------
  alpha Z        PSCENC =      1637.58607916
  Ewald energy   TEWEN  =    -22099.29542703
  -Hartree energ DENC   =     -7464.79579523
  -exchange      EXHF   =         0.00000000
  -V(xc)+E(xc)   XCENC  =         9.23770128
[...]
    114       6.0726      2.00000
    115       6.1060      2.00000
    116       6.1401      2.00000
    117       6.1833      2.00000
    118       6.3668      2.00000
    119       6.4424      2.00000
    120       6.4630      2.00000
    121       6.5325      2.00000
    122       6.5538      2.00000
    123       6.5907      2.00000
    124       6.6128      2.00000
    125       6.6549      2.00000
    126       6.7218      2.00000
    127       6.7383      2.00000
    128       6.7665      2.00000
    129       6.7917      2.00000
    130       6.8187      2.00000
    131       6.8427      2.00000
    132       6.8684      2.00000
    133       6.9023      2.00000
    134       6.9464      2.00000
    135       6.9858      2.00000
    136       7.0126      2.00000
    137       7.0426      2.00000
    138       7.0814      2.00000
    139       7.1397      2.00000
    140       7.1497      2.00000
    141       7.2019      2.00000
    142       7.2402      2.00000
    143       7.2810      2.00000
    144       7.3434      2.00000
    145       7.3889      2.00001
    146       7.4037      2.00003
    147       7.4786      2.00046
    148       7.5200      2.00178
    149       7.5377      2.00301
    150       7.5857      2.01064
    151       7.6031      2.01575
    152       7.6282      2.02609
    153       7.6826      2.05755
    154       7.7006      2.06661
    155       7.7951      1.93596
    156       7.8134      1.84182
    157       7.8282      1.74418
    158       7.8622      1.44987
    159       7.8977      1.06862
    160       7.9206      0.81127
    161       7.9571      0.43825
    162       8.0177      0.04183
    163       8.0451     -0.03614
    164       8.0888     -0.07089
    165       8.1027     -0.06815
    166       8.1398     -0.04855
    167       8.1953     -0.01909
    168       8.2017     -0.01670
    169       8.2439     -0.00613
    170       8.3035     -0.00107
    171       8.3332     -0.00039
    172       8.3738     -0.00009
    173       8.4048     -0.00002
    174       8.4639     -0.00000
    175       8.4979     -0.00000
    176       8.5520     -0.00000
    177       8.6102     -0.00000
    178       8.6791     -0.00000
    179       8.7568     -0.00000
    180       8.8366     -0.00000
    181       9.0063     -0.00000
    182       9.1098     -0.00000
    183       9.2106     -0.00000
    184       9.6887     -0.00000
    185       9.8602     -0.00000
    186       9.8681     -0.00000
    187       9.9211     -0.00000
    188       9.9899     -0.00000
    189      10.0444     -0.00000
    190      10.1097     -0.00000
    191      10.1514     -0.00000
    192      10.2145     -0.00000


--------------------------------------------------------------------------------------------------------


 soft charge-density along one line, spin component           1
         0         1         2         3         4         5         6         7         8         9
 total charge-density along one line
 
 pseudopotential strength for first ion, spin component:           1
 -6.327  -0.004   0.001  -0.000  -0.000  -7.511  -0.005   0.001
 -0.004  -6.328   0.000  -0.003  -0.000  -0.005  -7.513   0.000
  0.001   0.000  -6.334  -0.000  -0.000   0.001   0.000  -7.520
 -0.000  -0.003  -0.000  -6.323  -0.001  -0.001  -0.003  -0.000
 -0.000  -0.000  -0.000  -0.001  -6.334  -0.000  -0.000  -0.000
 -7.511  -0.005   0.001  -0.001  -0.000  -8.895  -0.006   0.001
 -0.005  -7.513   0.000  -0.003  -0.000  -0.006  -8.897   0.000
  0.001   0.000  -7.520  -0.000  -0.000   0.001   0.000  -8.906
 -0.001  -0.003  -0.000  -7.506  -0.002  -0.001  -0.004  -0.000
 -0.000  -0.000  -0.000  -0.002  -7.519  -0.001  -0.000  -0.001
  0.002   0.000   0.000   0.003  -0.001   0.002   0.000   0.000
  0.003   0.000   0.000   0.005  -0.002   0.004   0.000   0.000
  0.004   0.001  -0.001  -0.002  -0.001   0.005   0.001  -0.001
 -0.002  -0.001   0.002   0.004   0.000  -0.003  -0.001   0.002
 -0.000  -0.002  -0.004   0.002   0.006  -0.001  -0.003  -0.004
 -0.004  -0.002   0.001   0.004   0.001  -0.005  -0.002   0.001
  0.004   0.002  -0.003  -0.004  -0.001   0.004   0.002  -0.004
  0.001   0.004   0.004  -0.003  -0.007   0.001   0.004   0.005
 total augmentation occupancy for first ion, spin component:           1
  5.156  -0.245   0.026   0.030  -0.034  -2.675   0.127  -0.032  -0.025   0.016  -0.115   0.035  -0.031   0.042  -0.047  -0.003
 -0.245   5.026   0.075  -0.219  -0.136   0.127  -2.606  -0.045   0.120   0.083   0.070  -0.005   0.058   0.060   0.043   0.000
  0.026   0.075   4.801   0.026   0.028  -0.030  -0.045  -2.664  -0.002  -0.002  -0.023  -0.001   0.043   0.008   0.023   0.001
  0.030  -0.219   0.026   5.350  -0.050  -0.024   0.121  -0.002  -2.757   0.039  -0.113   0.043   0.036  -0.049  -0.040   0.002
 -0.034  -0.136   0.028  -0.050   4.829   0.016   0.083  -0.002   0.038  -2.658   0.033  -0.017   0.001  -0.028  -0.048   0.001
 -2.675   0.127  -0.030  -0.024   0.016   1.414  -0.070   0.026   0.021  -0.007   0.067  -0.018   0.017  -0.019   0.021   0.002
  0.127  -2.606  -0.045   0.121   0.083  -0.070   1.378   0.027  -0.066  -0.050  -0.040   0.004  -0.029  -0.032  -0.020  -0.000
 -0.032  -0.045  -2.664  -0.002  -0.002   0.026   0.027   1.489  -0.005  -0.006   0.009   0.001  -0.023  -0.007  -0.014  -0.001
 -0.025   0.120  -0.002  -2.757   0.038   0.021  -0.066  -0.005   1.450  -0.027   0.058  -0.022  -0.017   0.026   0.017  -0.001
  0.016   0.083  -0.002   0.039  -2.658  -0.007  -0.050  -0.006  -0.027   1.473  -0.023   0.010  -0.001   0.013   0.029  -0.000
 -0.115   0.070  -0.023  -0.113   0.033   0.067  -0.040   0.009   0.058  -0.023   2.237  -0.233  -0.008   0.005  -0.021   0.000
  0.035  -0.005  -0.001   0.043  -0.017  -0.018   0.004   0.001  -0.022   0.010  -0.233   0.026  -0.000  -0.001  -0.001  -0.000
 -0.031   0.058   0.043   0.036   0.001   0.017  -0.029  -0.023  -0.017  -0.001  -0.008  -0.000   0.283  -0.002  -0.003   0.007
  0.042   0.060   0.008  -0.049  -0.028  -0.019  -0.032  -0.007   0.026   0.013   0.005  -0.001  -0.002   0.292   0.000  -0.000
 -0.047   0.043   0.023  -0.040  -0.048   0.021  -0.020  -0.014   0.017   0.029  -0.021  -0.001  -0.003   0.000   0.289  -0.000
 -0.003   0.000   0.001   0.002   0.001   0.002  -0.000  -0.001  -0.001  -0.000   0.000  -0.000   0.007  -0.000  -0.000   0.000
  0.002   0.002  -0.001  -0.004  -0.001  -0.001  -0.001   0.000   0.002   0.000  -0.001   0.000  -0.000   0.007   0.000   0.000
 -0.000   0.002   0.003  -0.002  -0.005   0.000  -0.001  -0.001   0.001   0.003  -0.002   0.000   0.000   0.000   0.007  -0.000


------------------------ aborting loop because EDIFF is reached ----------------------------------------


    CHARGE:  cpu time    0.0510: real time    0.0513
    FORLOC:  cpu time    0.0127: real time    0.0129
    FORNL :  cpu time    0.3606: real time    0.3623
    STRESS:  cpu time    1.0943: real time    1.1029
    FORCOR:  cpu time    0.0428: real time    0.0430
    FORHAR:  cpu time    0.0187: real time    0.0187
    MIXING:  cpu time    0.0013: real time    0.0013
    OFIELD:  cpu time    0.0000: real time    0.0000

  FORCE on cell =-STRESS in cart. coord.  units (eV):
  Direction    XX          YY          ZZ          XY          YZ          ZX
  --------------------------------------------------------------------------------------
  Alpha Z  1649.18540  1649.18540  1649.18540
  Ewald   -6675.59241 -8547.20377 -6927.98855   379.43175   -41.73488   180.57031
  Hartree  3152.26683  1369.35704  2928.66151   315.51009   -41.39288   193.13854
  E(xc)   -1382.71998 -1382.79704 -1383.15184    -0.22502     0.02639     0.35956
  Local   -2139.38994  1508.64424 -1666.54593  -695.53022    84.90948  -372.15109
  n-local  -304.75149  -303.58569  -308.34160    -1.33502    -0.78690     5.35796
  augment   257.24471   257.44050   257.81793     0.07775    -0.04860    -0.75474
  Kinetic  5443.65602  5448.83838  5450.20552     2.04063    -0.97697    -6.52070
  Fock        0.00000     0.00000     0.00000     0.00000     0.00000     0.00000
  -------------------------------------------------------------------------------------
  Total      -0.10085    -0.12095    -0.15757    -0.03005    -0.00435    -0.00015
  in kB      -0.22398    -0.26861    -0.34994    -0.06674    -0.00966    -0.00034
  external pressure =       -0.28 kB  Pullay stress =        0.00 kB


 VOLUME and BASIS-vectors are now :
 -----------------------------------------------------------------------------
  energy-cutoff  :      300.00
  volume of cell :      721.44
      direct lattice vectors                 reciprocal lattice vectors
     6.937123595 -0.018847736  0.059380343     0.144163608  0.000391319 -0.001235962
    -0.027832263 10.236879470 -0.005271561     0.000264911  0.097686769  0.000058167
     0.087121529 -0.006285964 10.159934932    -0.000842435  0.000048398  0.098433081

  length of vectors
     6.937403335 10.236918662 10.160310404     0.144169437  0.097687145  0.098436698


 FORCES acting on ions
    electron-ion (+dipol)            ewald-force                    non-local-force                 convergence-correction
 -----------------------------------------------------------------------------------------------
   -.771E+02 -.125E+03 0.122E+02   0.766E+02 0.125E+03 -.123E+02   0.534E+00 0.395E-01 0.807E-01   -.295E-02 0.470E-02 0.330E-02
   -.586E+02 -.109E+03 0.204E+02   0.580E+02 0.109E+03 -.199E+02   0.593E+00 -.477E-01 -.492E+00   -.121E-02 0.227E-02 0.790E-02
   -.691E+01 0.114E+03 -.152E+01   0.793E+01 -.114E+03 0.160E+01   -.102E+01 0.424E+00 -.816E-01   0.539E-03 -.681E-02 0.109E-02
   -.313E+01 0.200E+02 -.249E+02   0.403E+01 -.200E+02 0.251E+02   -.894E+00 0.520E-01 -.164E+00   -.210E-02 0.727E-02 -.261E-02
   -.141E+02 -.168E+03 -.347E+02   0.139E+02 0.169E+03 0.341E+02   0.164E+00 -.436E+00 0.587E+00   0.789E-03 0.385E-02 -.114E-01
   -.562E+01 0.222E+02 0.360E+01   0.491E+01 -.223E+02 -.374E+01   0.706E+00 0.710E-01 0.142E+00   0.170E-02 0.553E-02 -.643E-03
   -.440E+02 -.937E+02 0.216E+02   0.442E+02 0.931E+02 -.216E+02   -.193E+00 0.610E+00 0.117E-01   -.205E-02 0.108E-01 -.638E-02
   0.329E+02 0.127E+03 0.575E+02   -.333E+02 -.127E+03 -.579E+02   0.356E+00 -.254E+00 0.392E+00   0.147E-02 -.366E-02 0.486E-02
   -.336E+01 0.411E+02 -.528E+02   0.296E+01 -.413E+02 0.527E+02   0.397E+00 0.213E+00 0.307E-01   0.689E-03 -.467E-02 -.621E-02
   0.489E+02 -.101E+03 0.611E+01   -.484E+02 0.101E+03 -.567E+01   -.500E+00 -.438E-01 -.450E+00   0.640E-03 0.187E-02 0.623E-02
   0.203E+02 -.950E+02 -.246E+02   -.202E+02 0.956E+02 0.242E+02   -.117E+00 -.563E+00 0.376E+00   0.442E-03 -.648E-02 0.783E-02
   -.479E+02 0.969E+01 0.664E+01   0.471E+02 -.101E+02 -.669E+01   0.763E+00 0.362E+00 0.440E-01   -.833E-03 0.950E-02 0.667E-02
   0.205E+02 0.957E+02 0.445E+02   -.201E+02 -.956E+02 -.442E+02   -.399E+00 -.383E-01 -.266E+00   0.111E-02 0.373E-02 0.247E-02
   0.222E+01 0.900E+02 -.168E+02   -.336E+01 -.899E+02 0.167E+02   0.115E+01 -.120E+00 0.115E+00   -.161E-03 -.523E-02 -.682E-04
   -.251E+01 0.835E+02 -.819E+02   0.255E+01 -.838E+02 0.814E+02   -.437E-01 0.265E+00 0.523E+00   -.157E-03 0.137E-02 -.442E-02
   0.349E+02 -.635E+02 -.104E+02   -.350E+02 0.631E+02 0.105E+02   0.434E-01 0.445E+00 -.104E+00   0.174E-02 0.876E-02 -.596E-02
   0.266E+02 0.225E+02 0.336E+02   -.262E+02 -.224E+02 -.334E+02   -.372E+00 -.878E-01 -.209E+00   0.119E-02 0.656E-02 0.265E-02
   0.747E+02 -.753E+02 -.942E+00   -.735E+02 0.747E+02 0.999E+00   -.112E+01 0.609E+00 -.809E-01   -.102E-02 0.292E-01 0.238E-01
   -.900E+02 0.225E+03 -.152E+03   0.899E+02 -.226E+03 0.152E+03   0.840E-01 0.916E+00 0.283E+00   0.161E-02 -.151E-01 -.158E-01
   0.667E+02 0.197E+03 -.152E+03   -.666E+02 -.198E+03 0.153E+03   -.118E+00 0.110E+01 -.647E+00   0.242E-03 -.137E-01 -.126E-01
   -.186E+02 0.317E+03 0.542E+02   0.181E+02 -.318E+03 -.530E+02   0.523E+00 0.322E+00 -.123E+01   -.344E-02 0.129E-01 0.271E-02
   0.588E+02 -.251E+03 -.162E+02   -.575E+02 0.252E+03 0.165E+02   -.124E+01 -.115E+01 -.290E+00   0.398E-03 -.267E-02 -.120E-01
   0.178E+03 -.409E+03 -.563E+02   -.178E+03 0.409E+03 0.562E+02   -.677E+00 -.189E+00 0.896E-01   0.914E-02 0.142E-01 0.785E-02
   -.776E+02 -.298E+03 0.542E+02   0.766E+02 0.299E+03 -.547E+02   0.109E+01 -.104E+01 0.558E+00   -.259E-03 -.490E-03 -.657E-02
   0.924E+02 -.167E+03 0.378E+02   -.922E+02 0.168E+03 -.366E+02   -.216E+00 -.108E+01 -.123E+01   0.403E-02 -.104E-01 -.138E-01
   0.336E+02 0.215E+03 -.237E+03   -.338E+02 -.214E+03 0.236E+03   0.166E+00 -.435E+00 0.710E+00   0.639E-04 0.194E-02 -.145E-01
   -.692E+02 -.191E+03 -.947E+02   0.691E+02 0.192E+03 0.937E+02   0.471E-01 -.431E+00 0.959E+00   -.247E-02 -.181E-01 0.268E-01
   0.298E+02 0.272E+03 0.880E+02   -.297E+02 -.273E+03 -.879E+02   -.399E-01 0.335E+00 -.133E+00   0.429E-02 -.308E-01 0.192E-01
   0.421E+02 0.246E+01 0.479E+02   -.415E+02 -.269E+01 -.477E+02   -.560E+00 0.248E+00 -.203E+00   0.253E-02 -.155E-01 0.285E-03
   -.996E+02 0.269E+03 0.155E+03   0.100E+03 -.269E+03 -.155E+03   -.520E+00 0.155E+00 -.607E-01   -.552E-02 -.751E-02 0.102E-01
   -.153E+02 0.153E+03 -.189E+03   0.158E+02 -.153E+03 0.188E+03   -.542E+00 0.283E+00 0.332E+00   -.305E-02 -.134E-01 -.201E-01
   -.171E+02 0.169E+03 0.467E+02   0.171E+02 -.168E+03 -.466E+02   0.463E-01 -.100E+00 -.910E-01   -.456E-02 -.336E-01 0.174E-01
   -.445E+02 -.127E+02 0.140E+03   0.440E+02 0.129E+02 -.140E+03   0.508E+00 -.190E+00 -.204E+00   -.254E-02 -.191E-01 0.226E-02
   -.717E+02 -.869E+02 0.877E+02   0.716E+02 0.874E+02 -.873E+02   0.143E+00 -.530E+00 -.380E+00   -.180E-02 -.104E-01 -.961E-02
   -.345E+02 0.127E+03 0.199E+03   0.337E+02 -.127E+03 -.200E+03   0.761E+00 0.146E+00 0.357E+00   -.185E-02 0.200E-01 0.123E-01
   0.391E+02 -.325E+03 0.282E+02   -.392E+02 0.325E+03 -.287E+02   0.767E-01 0.564E-01 0.597E+00   -.151E-02 0.146E-01 -.274E-01
 -----------------------------------------------------------------------------------------------
   0.419E+00 0.140E+00 0.130E+00   0.924E-13 0.114E-12 -.568E-13   -.418E+00 -.821E-01 -.126E+00   -.486E-02 -.586E-01 -.423E-02
 
 
 POSITION                                       TOTAL-FORCE (eV/Angst)
 -----------------------------------------------------------------------------------
      5.18577      5.06455      8.49253         0.000549      0.002610     -0.003414
      5.06485      5.10135      1.78205        -0.004258      0.001080      0.003673
      0.28603     10.14555      6.81247         0.002350     -0.003411      0.001685
      3.60438      6.84303      3.48868        -0.000401      0.004042      0.000243
      5.26892      5.16608      5.07389        -0.004237     -0.001014     -0.000997
      6.84295      6.82175      3.38170        -0.003009     -0.001129      0.001186
      3.50639      6.66365      6.73782        -0.001542      0.000106      0.000916
      3.47263      0.07852     10.15027        -0.005406      0.004324     -0.002208
      1.61207      1.74112      4.94808         0.002337      0.001518      0.003392
      1.85041      5.17038      1.73334         0.001886      0.000374      0.000872
      7.00610      3.46846     10.19518        -0.000240      0.006641      0.000500
      6.77013      6.76743      0.11649        -0.000007     -0.001277     -0.000367
      1.84684      8.45333      1.71111        -0.002642      0.002031      0.000130
      3.29813      0.05312      6.71495         0.000313      0.003098      0.003064
      5.27891      8.51223      5.18339         0.000604      0.001592     -0.002822
      0.12690      6.75180      6.80476         0.006165      0.000750      0.000180
      1.95852      8.40159      8.61018         0.003744      0.004142      0.001651
      3.68714      6.74971      0.05003         0.002203      0.000847     -0.000069
      6.89277     10.04677      3.33358        -0.001696      0.000633     -0.000006
      3.45884     10.09797      3.53803        -0.002886     -0.005158     -0.003898
      5.10980      8.51991      1.85739         0.000082      0.001008     -0.004020
      3.60995      3.50180      3.52478        -0.001060      0.000020     -0.005771
      1.89560      5.15558      8.53772         0.000622     -0.004650      0.000247
      6.77761      3.55059      3.25490        -0.000092      0.000215     -0.001105
      0.09252      3.54910      6.94127        -0.002254     -0.001044      0.001055
      1.74688      8.49204      4.98330         0.001682      0.000819      0.000638
      3.49019      3.41011     10.05241         0.000263     -0.006512     -0.004731
      1.77713      1.71460      8.51386        -0.001085     -0.002627      0.000101
      1.78288      1.74255      1.80991         0.001686     -0.001336      0.003007
     -0.01289     10.20950      0.05798         0.004612      0.000247      0.002149
      5.39249      1.65126      5.13719        -0.004936     -0.000370     -0.005376
      5.28975      1.69022      8.44076         0.003291      0.000317      0.001795
      5.03667      1.71695      1.77327        -0.000293     -0.000421     -0.005108
      3.47114      3.43457      6.78321         0.000772     -0.002643      0.006820
      5.18876      8.55246      8.39277         0.001772     -0.000128      0.007458
      1.70897      5.04927      4.95795         0.001111     -0.004697     -0.000870
 -----------------------------------------------------------------------------------
    total drift:                               -0.003610     -0.000516     -0.000076


--------------------------------------------------------------------------------------------------------



  FREE ENERGIE OF THE ION-ELECTRON SYSTEM (eV)
  ---------------------------------------------------
  free  energy   TOTEN  =      -361.60880332 eV

  energy  without entropy=     -361.62610065  energy(sigma->0) =     -361.61456909
 
 d Force = 0.8308989E-04[ 0.654E-04, 0.101E-03]  d Energy = 0.7504915E-04 0.804E-05
 d Force =-0.4917431E+00[-0.492E+00,-0.491E+00]  d Ewald  =-0.3148412E+01 0.266E+01


--------------------------------------------------------------------------------------------------------


    POTLOK:  cpu time    0.0705: real time    0.0709


--------------------------------------------------------------------------------------------------------


 Conjugate gradient step on ions:
 trial-energy change:   -0.000075  1 .order   -0.000078   -0.000133   -0.000022
  (g-gl).g = 0.109E-04      g.g   = 0.358E-04  gl.gl    = 0.841E-04
 g(Force)  = 0.278E-04   g(Stress)= 0.806E-05 ortho     =-0.667E-05
 gamma     =   0.13004
 trial     =   3.79663
 opt step  =   4.56199  (harmonic =   4.56199) maximal distance =0.00077158
 next E    =  -361.608808   (d E  =  -0.00008)


--------------------------------------------------------------------------------------------------------


  
 reached required accuracy - stopping structural energy minimisation
     LOOP+:  cpu time    6.9791: real time    7.6770
    4ORBIT:  cpu time    0.0000: real time    0.0000

 total amount of memory used by VASP on root node    69084. kBytes
========================================================================

   base      :      30000. kBytes
   nonlr-proj:      10530. kBytes
   fftplans  :       2814. kBytes
   grid      :       5360. kBytes
   one-center:        124. kBytes
   wavefun   :      20256. kBytes
 
  
  
 General timing and accounting informations for this job:
 ========================================================
  
                  Total CPU time used (sec):      328.123
                            User time (sec):      325.850
                          System time (sec):        2.273
                         Elapsed time (sec):      364.239
  
                   Maximum memory used (kb):      298888.
                   Average memory used (kb):           0.
  
                          Minor page faults:       100014
                          Major page faults:           35
                 Voluntary context switches:        10059
