<?xml version="1.0" encoding="ISO-8859-1"?>
<modeling>
 <generator>
  <i name="program" type="string">vasp </i>
  <i name="version" type="string">5.4.1  </i>
  <i name="subversion" type="string">05Feb16 (build Jan 29 2020 16:04:39) complex                          parallel </i>
  <i name="platform" type="string">IFC91_ompi </i>
  <i name="date" type="string">2020 06 15 </i>
  <i name="time" type="string">11:20:54 </i>
 </generator>
 <incar>
  <i type="string" name="SYSTEM"> automatically generated by mexm</i>
  <i type="int" name="ISTART">     0</i>
  <i type="string" name="PREC">accurate               ! avoid wrap aro</i>
  <i type="string" name="ALGO"> Fast                   ! blocked Davids</i>
  <i type="int" name="ISPIN">     1</i>
  <i type="int" name="ICHARG">     2</i>
  <i type="int" name="NELM">    70</i>
  <i type="int" name="IBRION">     2</i>
  <i name="EDIFF">      0.00001000</i>
  <i name="EDIFFG">     -0.01000000</i>
  <i type="int" name="NSW">   300</i>
  <i type="int" name="ISIF">     3</i>
  <i type="int" name="ISYM">     1</i>
  <i name="ENCUT">    300.00000000</i>
  <i name="POTIM">      0.15000000</i>
  <i type="string" name="LREAL"> Auto                  ! unpublished met</i>
  <i type="int" name="ISMEAR">     1</i>
  <i name="SIGMA">      0.15000000</i>
  <i type="logical" name="LWAVE"> F  </i>
  <i type="logical" name="LCHARG"> F  </i>
  <i type="logical" name="LVTOT"> F  </i>
  <v type="int" name="KPOINT_BSE">    -1     0     0     0</v>
  <i type="int" name="NELM">    70</i>
 </incar>
 <kpoints>
  <generation param="Gamma">
   <v type="int" name="divisions">       3        3        3 </v>
   <v name="usershift">      0.00000000       0.00000000       0.00000000 </v>
   <v name="genvec1">      0.33333333      -0.00000000       0.00000000 </v>
   <v name="genvec2">      0.00000000       0.33333333       0.00000000 </v>
   <v name="genvec3">     -0.00000000       0.00000000       0.33333333 </v>
   <v name="shift">      0.00000000       0.00000000       0.00000000 </v>
  </generation>
  <varray name="kpointlist" >
   <v>       0.00000000       0.00000000       0.00000000 </v>
   <v>       0.33333333      -0.00000000       0.00000000 </v>
   <v>      -0.00000000       0.33333333       0.00000000 </v>
   <v>       0.33333333       0.33333333       0.00000000 </v>
   <v>      -0.33333333       0.33333333      -0.00000000 </v>
   <v>       0.00000000       0.00000000       0.33333333 </v>
   <v>       0.33333333      -0.00000000       0.33333333 </v>
   <v>      -0.33333333       0.00000000       0.33333333 </v>
   <v>       0.00000000       0.33333333       0.33333333 </v>
   <v>       0.33333333       0.33333333       0.33333333 </v>
   <v>      -0.33333333       0.33333333       0.33333333 </v>
   <v>       0.00000000      -0.33333333       0.33333333 </v>
   <v>       0.33333333      -0.33333333       0.33333333 </v>
   <v>      -0.33333333      -0.33333333       0.33333333 </v>
  </varray>
  <varray name="weights" >
   <v>       0.03703704 </v>
   <v>       0.07407407 </v>
   <v>       0.07407407 </v>
   <v>       0.07407407 </v>
   <v>       0.07407407 </v>
   <v>       0.07407407 </v>
   <v>       0.07407407 </v>
   <v>       0.07407407 </v>
   <v>       0.07407407 </v>
   <v>       0.07407407 </v>
   <v>       0.07407407 </v>
   <v>       0.07407407 </v>
   <v>       0.07407407 </v>
   <v>       0.07407407 </v>
  </varray>
 </kpoints>
 <parameters>
  <separator name="general" >
   <i type="string" name="SYSTEM">automatically generated by mexm</i>
   <i type="logical" name="LCOMPAT"> F  </i>
  </separator>
  <separator name="electronic" >
   <i type="string" name="PREC">accura</i>
   <i name="ENMAX">    300.00000000</i>
   <i name="ENAUG">    461.25700000</i>
   <i name="EDIFF">      0.00001000</i>
   <i type="int" name="IALGO">    68</i>
   <i type="int" name="IWAVPR">    11</i>
   <i type="int" name="NBANDS">   176</i>
   <i name="NELECT">    289.00000000</i>
   <i type="int" name="TURBO">     0</i>
   <i type="int" name="IRESTART">     0</i>
   <i type="int" name="NREBOOT">     0</i>
   <i type="int" name="NMIN">     0</i>
   <i name="EREF">      0.00000000</i>
   <separator name="electronic smearing" >
    <i type="int" name="ISMEAR">     1</i>
    <i name="SIGMA">      0.15000000</i>
    <i name="KSPACING">      0.50000000</i>
    <i type="logical" name="KGAMMA"> T  </i>
   </separator>
   <separator name="electronic projectors" >
    <i type="logical" name="LREAL"> T  </i>
    <v name="ROPT">     -0.00025000     -0.00025000     -0.00025000     -0.00025000</v>
    <i type="int" name="LMAXPAW">  -100</i>
    <i type="int" name="LMAXMIX">     2</i>
    <i type="logical" name="NLSPLINE"> F  </i>
   </separator>
   <separator name="electronic startup" >
    <i type="int" name="ISTART">     0</i>
    <i type="int" name="ICHARG">     2</i>
    <i type="int" name="INIWAV">     1</i>
   </separator>
   <separator name="electronic spin" >
    <i type="int" name="ISPIN">     1</i>
    <i type="logical" name="LNONCOLLINEAR"> F  </i>
    <v name="MAGMOM">      1.00000000      1.00000000      1.00000000      1.00000000      1.00000000      1.00000000      1.00000000      1.00000000      1.00000000      1.00000000      1.00000000      1.00000000      1.00000000      1.00000000      1.00000000      1.00000000      1.00000000      1.00000000      1.00000000      1.00000000
      1.00000000      1.00000000      1.00000000      1.00000000      1.00000000      1.00000000      1.00000000      1.00000000      1.00000000      1.00000000      1.00000000      1.00000000      1.00000000      1.00000000      1.00000000      1.00000000</v>
    <i name="NUPDOWN">     -1.00000000</i>
    <i type="logical" name="LSORBIT"> F  </i>
    <v name="SAXIS">      0.00000000      0.00000000      1.00000000</v>
    <i type="logical" name="LSPIRAL"> F  </i>
    <v name="QSPIRAL">      0.00000000      0.00000000      0.00000000</v>
    <i type="logical" name="LZEROZ"> F  </i>
   </separator>
   <separator name="electronic exchange-correlation" >
    <i type="logical" name="LASPH"> F  </i>
    <i type="logical" name="LMETAGGA"> F  </i>
   </separator>
   <separator name="electronic convergence" >
    <i type="int" name="NELM">    70</i>
    <i type="int" name="NELMDL">    -5</i>
    <i type="int" name="NELMIN">     2</i>
    <i name="ENINI">    300.00000000</i>
    <separator name="electronic convergence detail" >
     <i type="logical" name="LDIAG"> T  </i>
     <i type="logical" name="LSUBROT"> F  </i>
     <i name="WEIMIN">      0.00100000</i>
     <i name="EBREAK">      0.00000001</i>
     <i name="DEPER">      0.30000000</i>
     <i type="int" name="NRMM">     4</i>
     <i name="TIME">      0.40000000</i>
    </separator>
   </separator>
   <separator name="electronic mixer" >
    <i name="AMIX">      0.40000000</i>
    <i name="BMIX">      1.00000000</i>
    <i name="AMIN">      0.10000000</i>
    <i name="AMIX_MAG">      1.60000000</i>
    <i name="BMIX_MAG">      1.00000000</i>
    <separator name="electronic mixer details" >
     <i type="int" name="IMIX">     4</i>
     <i type="logical" name="MIXFIRST"> F  </i>
     <i type="int" name="MAXMIX">   -45</i>
     <i name="WC">    100.00000000</i>
     <i type="int" name="INIMIX">     1</i>
     <i type="int" name="MIXPRE">     1</i>
     <i type="int" name="MREMOVE">     5</i>
    </separator>
   </separator>
   <separator name="electronic dipolcorrection" >
    <i type="logical" name="LDIPOL"> F  </i>
    <i type="logical" name="LMONO"> F  </i>
    <i type="int" name="IDIPOL">     0</i>
    <i name="EPSILON">      1.00000000</i>
    <v name="DIPOL">   -100.00000000   -100.00000000   -100.00000000</v>
    <i name="EFIELD">      0.00000000</i>
   </separator>
  </separator>
  <separator name="grids" >
   <i type="int" name="NGX">    40</i>
   <i type="int" name="NGY">    60</i>
   <i type="int" name="NGZ">    60</i>
   <i type="int" name="NGXF">    80</i>
   <i type="int" name="NGYF">   120</i>
   <i type="int" name="NGZF">   120</i>
   <i type="logical" name="ADDGRID"> F  </i>
  </separator>
  <separator name="ionic" >
   <i type="int" name="NSW">   300</i>
   <i type="int" name="IBRION">     2</i>
   <i type="int" name="ISIF">     3</i>
   <i name="PSTRESS">      0.00000000</i>
   <i name="EDIFFG">     -0.01000000</i>
   <i type="int" name="NFREE">     1</i>
   <i name="POTIM">      0.15000000</i>
   <i name="SMASS">     -3.00000000</i>
   <i name="SCALEE">      1.00000000</i>
  </separator>
  <separator name="ionic md" >
   <i name="TEBEG">      0.00010000</i>
   <i name="TEEND">      0.00010000</i>
   <i type="int" name="NBLOCK">     1</i>
   <i type="int" name="KBLOCK">   300</i>
   <i type="int" name="NPACO">   256</i>
   <i name="APACO">     16.00000000</i>
  </separator>
  <separator name="symmetry" >
   <i type="int" name="ISYM">     1</i>
   <i name="SYMPREC">      0.00001000</i>
  </separator>
  <separator name="dos" >
   <i type="logical" name="LORBIT"> F  </i>
   <v name="RWIGS">     -1.00000000     -1.00000000     -1.00000000     -1.00000000</v>
   <i type="int" name="NEDOS">   301</i>
   <i name="EMIN">     10.00000000</i>
   <i name="EMAX">    -10.00000000</i>
   <i name="EFERMI">      0.00000000</i>
  </separator>
  <separator name="writing" >
   <i type="int" name="NWRITE">     2</i>
   <i type="logical" name="LWAVE"> F  </i>
   <i type="logical" name="LCHARG"> F  </i>
   <i type="logical" name="LPARD"> F  </i>
   <i type="logical" name="LVTOT"> F  </i>
   <i type="logical" name="LVHAR"> F  </i>
   <i type="logical" name="LELF"> F  </i>
   <i type="logical" name="LOPTICS"> F  </i>
   <v name="STM">      0.00000000      0.00000000      0.00000000      0.00000000      0.00000000      0.00000000      0.00000000</v>
  </separator>
  <separator name="performance" >
   <i type="int" name="NPAR">     4</i>
   <i type="int" name="NSIM">     4</i>
   <i type="int" name="NBLK">    -1</i>
   <i type="logical" name="LPLANE"> T  </i>
   <i type="logical" name="LSCALAPACK"> T  </i>
   <i type="logical" name="LSCAAWARE"> F  </i>
   <i type="logical" name="LSCALU"> F  </i>
   <i type="logical" name="LASYNC"> F  </i>
   <i type="logical" name="LORBITALREAL"> F  </i>
  </separator>
  <separator name="miscellaneous" >
   <i type="int" name="IDIOT">     3</i>
   <i type="logical" name="LMUSIC"> F  </i>
   <v name="POMASS">     92.91000000    180.94800000     91.22400000    178.49000000</v>
   <v name="DARWINR">      0.00000000      0.00000000      0.00000000      0.00000000</v>
   <v name="DARWINV">      1.00000000      1.00000000      1.00000000      1.00000000</v>
   <i type="logical" name="LCORR"> T  </i>
  </separator>
  <i type="logical" name="GGA_COMPAT"> T  </i>
  <i type="logical" name="LBERRY"> F  </i>
  <i type="int" name="ICORELEVEL">     0</i>
  <i type="logical" name="LDAU"> F  </i>
  <i type="int" name="I_CONSTRAINED_M">     0</i>
  <separator name="electronic exchange-correlation" >
   <i type="string" name="GGA">--</i>
   <i type="int" name="VOSKOWN">     0</i>
   <i type="logical" name="LHFCALC"> F  </i>
   <i type="string" name="PRECFOCK"></i>
   <i type="logical" name="LSYMGRAD"> F  </i>
   <i type="logical" name="LHFONE"> F  </i>
   <i type="logical" name="LRHFCALC"> F  </i>
   <i type="logical" name="LTHOMAS"> F  </i>
   <i type="logical" name="LMODELHF"> F  </i>
   <i name="ENCUT4O">     -1.00000000</i>
   <i type="int" name="EXXOEP">     0</i>
   <i type="int" name="FOURORBIT">     0</i>
   <i name="AEXX">      0.00000000</i>
   <i name="HFALPHA">      0.00000000</i>
   <i name="MCALPHA">      0.00000000</i>
   <i name="ALDAX">      1.00000000</i>
   <i name="AGGAX">      1.00000000</i>
   <i name="ALDAC">      1.00000000</i>
   <i name="AGGAC">      1.00000000</i>
   <i type="int" name="NKREDX">     1</i>
   <i type="int" name="NKREDY">     1</i>
   <i type="int" name="NKREDZ">     1</i>
   <i type="logical" name="SHIFTRED"> F  </i>
   <i type="logical" name="ODDONLY"> F  </i>
   <i type="logical" name="EVENONLY"> F  </i>
   <i type="int" name="LMAXFOCK">     0</i>
   <i type="int" name="NMAXFOCKAE">     0</i>
   <i type="logical" name="LFOCKAEDFT"> F  </i>
   <i name="HFSCREEN">      0.00000000</i>
   <i name="HFSCREENC">      0.00000000</i>
   <i type="int" name="NBANDSGWLOW">     0</i>
  </separator>
  <separator name="vdW DFT" >
   <i type="logical" name="LUSE_VDW"> F  </i>
   <i name="Zab_VDW">     -0.84910000</i>
   <i name="PARAM1">      0.12340000</i>
   <i name="PARAM2">      1.00000000</i>
   <i name="PARAM3">      0.00000000</i>
  </separator>
  <separator name="model GW" >
   <i type="int" name="MODEL_GW">     0</i>
   <i name="MODEL_EPS0">     11.58077892</i>
   <i name="MODEL_ALPHA">      1.00000000</i>
  </separator>
  <separator name="linear response parameters" >
   <i type="logical" name="LEPSILON"> F  </i>
   <i type="logical" name="LRPA"> F  </i>
   <i type="logical" name="LNABLA"> F  </i>
   <i type="logical" name="LVEL"> F  </i>
   <i type="int" name="KINTER">     0</i>
   <i name="CSHIFT">      0.10000000</i>
   <i name="OMEGAMAX">     -1.00000000</i>
   <i name="DEG_THRESHOLD">      0.00200000</i>
  </separator>
  <separator name="orbital magnetization" >
   <i type="logical" name="NUCIND"> F  </i>
   <v name="MAGPOS">      0.00000000      0.00000000      0.00000000</v>
   <i type="logical" name="LNICSALL"> T  </i>
   <i type="logical" name="ORBITALMAG"> F  </i>
   <i type="logical" name="LMAGBLOCH"> F  </i>
   <i type="logical" name="LCHIMAG"> F  </i>
   <i type="logical" name="LGAUGE"> T  </i>
   <i type="int" name="MAGATOM">     0</i>
   <v name="MAGDIPOL">      0.00000000      0.00000000      0.00000000</v>
   <v name="AVECCONST">      0.00000000      0.00000000      0.00000000</v>
  </separator>
  <separator name="response functions" >
   <i type="logical" name="LADDER"> F  </i>
   <i type="logical" name="LFXC"> F  </i>
   <i type="logical" name="LHARTREE"> T  </i>
   <i type="int" name="IBSE">     0</i>
   <v type="int" name="KPOINT">    -1     0     0     0</v>
   <i type="logical" name="LTCTE"> F  </i>
   <i type="logical" name="LTETE"> F  </i>
   <i type="logical" name="LTRIPLET"> F  </i>
   <i type="logical" name="LFXCEPS"> F  </i>
   <i type="logical" name="LFXHEG"> F  </i>
   <i type="int" name="NATURALO">     0</i>
   <i type="logical" name="L2ORDER"> F  </i>
   <i type="logical" name="LUSEW"> F  </i>
   <i name="ENCUTGW">     -2.00000000</i>
   <i name="ENCUTGWSOFT">     -2.00000000</i>
   <i name="ENCUTLF">     -1.00000000</i>
   <i type="int" name="LMAXMP2">    -1</i>
   <i name="SCISSOR">      0.00000000</i>
   <i type="int" name="NOMEGA">     0</i>
   <i type="int" name="NOMEGAR">     0</i>
   <i type="int" name="NBANDSGW">    -1</i>
   <i type="int" name="NBANDSO">    -1</i>
   <i type="int" name="NBANDSV">    -1</i>
   <i type="int" name="NELM">    70</i>
   <i type="int" name="NELMHF">     1</i>
   <i type="int" name="DIM">     3</i>
   <i type="int" name="ANTIRES">     0</i>
   <i name="OMEGAMAX">    -30.00000000</i>
   <i name="OMEGAMIN">    -30.00000000</i>
   <i name="OMEGATL">   -200.00000000</i>
   <i type="int" name="OMEGAGRID">     0</i>
   <i name="CSHIFT">     -0.10000000</i>
   <i type="logical" name="SELFENERGY"> F  </i>
   <i type="logical" name="LSPECTRAL"> F  </i>
   <i type="logical" name="LSPECTRALGW"> F  </i>
   <i type="logical" name="LSINGLES"> F  </i>
   <i type="logical" name="LFERMIGW"> F  </i>
   <i type="logical" name="ODDONLYGW"> F  </i>
   <i type="logical" name="EVENONLYGW"> F  </i>
   <i type="int" name="NKREDLFX">     1</i>
   <i type="int" name="NKREDLFY">     1</i>
   <i type="int" name="NKREDLFZ">     1</i>
   <i type="int" name="MAXMEM">  1800</i>
   <i type="int" name="TELESCOPE">     0</i>
   <i type="int" name="TAUPAR">     1</i>
   <i type="int" name="OMEGAPAR">    -1</i>
   <i name="LAMBDA">      1.00000000</i>
  </separator>
  <separator name="External order field" >
   <i name="OFIELD_KAPPA">      0.00000000</i>
   <v name="OFIELD_K">      0.00000000      0.00000000      0.00000000</v>
   <i name="OFIELD_Q6_NEAR">      0.00000000</i>
   <i name="OFIELD_Q6_FAR">      0.00000000</i>
   <i name="OFIELD_A">      0.00000000</i>
  </separator>
 </parameters>
 <atominfo>
  <atoms>      36 </atoms>
  <types>       4 </types>
  <array name="atoms" >
   <dimension dim="1">ion</dimension>
   <field type="string">element</field>
   <field type="int">atomtype</field>
   <set>
    <rc><c>Nb</c><c>   1</c></rc>
    <rc><c>Nb</c><c>   1</c></rc>
    <rc><c>Nb</c><c>   1</c></rc>
    <rc><c>Nb</c><c>   1</c></rc>
    <rc><c>Nb</c><c>   1</c></rc>
    <rc><c>Nb</c><c>   1</c></rc>
    <rc><c>Nb</c><c>   1</c></rc>
    <rc><c>Nb</c><c>   1</c></rc>
    <rc><c>Nb</c><c>   1</c></rc>
    <rc><c>Nb</c><c>   1</c></rc>
    <rc><c>Ta</c><c>   2</c></rc>
    <rc><c>Ta</c><c>   2</c></rc>
    <rc><c>Ta</c><c>   2</c></rc>
    <rc><c>Ta</c><c>   2</c></rc>
    <rc><c>Ta</c><c>   2</c></rc>
    <rc><c>Ta</c><c>   2</c></rc>
    <rc><c>Ta</c><c>   2</c></rc>
    <rc><c>Ta</c><c>   2</c></rc>
    <rc><c>Ta</c><c>   2</c></rc>
    <rc><c>Ta</c><c>   2</c></rc>
    <rc><c>Ta</c><c>   2</c></rc>
    <rc><c>Ta</c><c>   2</c></rc>
    <rc><c>Ta</c><c>   2</c></rc>
    <rc><c>Ta</c><c>   2</c></rc>
    <rc><c>Ta</c><c>   2</c></rc>
    <rc><c>Zr</c><c>   3</c></rc>
    <rc><c>Zr</c><c>   3</c></rc>
    <rc><c>Zr</c><c>   3</c></rc>
    <rc><c>Zr</c><c>   3</c></rc>
    <rc><c>Zr</c><c>   3</c></rc>
    <rc><c>Hf</c><c>   4</c></rc>
    <rc><c>Hf</c><c>   4</c></rc>
    <rc><c>Hf</c><c>   4</c></rc>
    <rc><c>Hf</c><c>   4</c></rc>
    <rc><c>Hf</c><c>   4</c></rc>
    <rc><c>Hf</c><c>   4</c></rc>
   </set>
  </array>
  <array name="atomtypes" >
   <dimension dim="1">type</dimension>
   <field type="int">atomspertype</field>
   <field type="string">element</field>
   <field>mass</field>
   <field>valence</field>
   <field type="string">pseudopotential</field>
   <set>
    <rc><c>  10</c><c>Nb</c><c>     92.91000000</c><c>     13.00000000</c><c>  PAW_PBE Nb_sv 25May2007               </c></rc>
    <rc><c>  15</c><c>Ta</c><c>    180.94800000</c><c>      5.00000000</c><c>  PAW_PBE Ta 17Jan2003                  </c></rc>
    <rc><c>   5</c><c>Zr</c><c>     91.22400000</c><c>     12.00000000</c><c>  PAW_PBE Zr_sv 04Jan2005               </c></rc>
    <rc><c>   6</c><c>Hf</c><c>    178.49000000</c><c>      4.00000000</c><c>  PAW_PBE Hf 20Jan2003                  </c></rc>
   </set>
  </array>
 </atominfo>
 <structure name="initialpos" >
  <crystal>
   <varray name="basis" >
    <v>       6.77042365      -0.01758379      -0.01039564 </v>
    <v>      -0.02515106      10.09185994      -0.00881933 </v>
    <v>      -0.01529915      -0.00910865      10.16965263 </v>
   </varray>
   <i name="volume">    694.84673522 </i>
   <varray name="rec_basis" >
    <v>       0.14770254       0.00036830       0.00022253 </v>
    <v>       0.00025749       0.09909048       0.00008914 </v>
    <v>       0.00015121       0.00008631       0.09833208 </v>
   </varray>
  </crystal>
  <varray name="positions" >
   <v>       0.98590100       0.66998000       0.00272100 </v>
   <v>       0.49827900       0.66475400       0.34365400 </v>
   <v>       0.75712100       0.84022500       0.83012300 </v>
   <v>       0.24595200       0.50443200       0.48887100 </v>
   <v>       0.50867200       0.00032700       0.33850800 </v>
   <v>       0.99434700       0.99794600       0.33539500 </v>
   <v>       0.99903700       0.00456700       0.65948200 </v>
   <v>       0.99536500       0.66639000       0.65998300 </v>
   <v>       0.00281400       0.33201200       0.34442700 </v>
   <v>       0.21898400       0.52488600       0.83141100 </v>
   <v>       0.52135600       0.99562900       0.00488400 </v>
   <v>       0.24503500       0.83775700       0.49631800 </v>
   <v>       0.75696500       0.83600200       0.49678100 </v>
   <v>       0.24476200       0.50823400       0.17947000 </v>
   <v>       0.75312400       0.50111800       0.49182800 </v>
   <v>       0.75032200       0.83671900       0.17364500 </v>
   <v>       0.98042000       0.99638900       0.00685600 </v>
   <v>       0.77207500       0.50162300       0.82521000 </v>
   <v>       0.99829400       0.66778100       0.33897700 </v>
   <v>       0.25357000       0.15821800       0.49307400 </v>
   <v>       0.25815500       0.14268000       0.83089400 </v>
   <v>       0.50409100       0.99506500       0.65751400 </v>
   <v>       0.49909700       0.33021500       0.34661900 </v>
   <v>       0.74849600       0.16347000       0.17284600 </v>
   <v>       0.75006700       0.16118500       0.49754400 </v>
   <v>       0.24303100       0.84134300       0.83232300 </v>
   <v>       0.75122800       0.49058200       0.17733200 </v>
   <v>       0.02010600       0.33400200       0.99357800 </v>
   <v>       0.50794300       0.66252300       0.99359100 </v>
   <v>       0.25383500       0.16225100       0.17384700 </v>
   <v>       0.25103700       0.82937700       0.17168300 </v>
   <v>       0.48819800       0.33925700       0.66489400 </v>
   <v>       0.01324200       0.33168800       0.66135800 </v>
   <v>       0.74402600       0.16235200       0.83194500 </v>
   <v>       0.50361600       0.66892400       0.66255400 </v>
   <v>       0.48143600       0.34011100       0.98986300 </v>
  </varray>
 </structure>
 <calculation>
  <scstep>
   <time name="dav">    0.99    1.13</time>
   <time name="total">    1.06    1.58</time>
   <energy>
    <i name="alphaZ">   1605.06565609 </i>
    <i name="ewald"> -19135.66636526 </i>
    <i name="hartreedc">  -6433.62652353 </i>
    <i name="XCdc">   -499.76257810 </i>
    <i name="pawpsdc">  20938.70227066 </i>
    <i name="pawaedc"> -19188.34032295 </i>
    <i name="eentropy">      0.00357301 </i>
    <i name="bandstr">     84.63831523 </i>
    <i name="atom">  24387.06772941 </i>
    <i name="e_fr_energy">   1758.08175456 </i>
    <i name="e_wo_entrp">   1758.07818155 </i>
    <i name="e_0_energy">   1758.08056356 </i>
   </energy>
  </scstep>
  <scstep>
   <time name="dav">    1.06    1.07</time>
   <time name="total">    1.06    1.27</time>
   <energy>
    <i name="e_fr_energy">   -133.97127848 </i>
    <i name="e_wo_entrp">   -133.97396873 </i>
    <i name="e_0_energy">   -133.97217523 </i>
   </energy>
  </scstep>
  <scstep>
   <time name="dav">    1.52    1.53</time>
   <time name="total">    1.52    1.61</time>
   <energy>
    <i name="e_fr_energy">   -366.63050201 </i>
    <i name="e_wo_entrp">   -366.63742352 </i>
    <i name="e_0_energy">   -366.63280918 </i>
   </energy>
  </scstep>
  <scstep>
   <time name="dav">    1.49    1.49</time>
   <time name="total">    1.49    1.54</time>
   <energy>
    <i name="e_fr_energy">   -392.50068131 </i>
    <i name="e_wo_entrp">   -392.51137797 </i>
    <i name="e_0_energy">   -392.50424687 </i>
   </energy>
  </scstep>
  <scstep>
   <time name="dav">    1.37    1.38</time>
   <time name="total">    1.40    1.45</time>
   <energy>
    <i name="e_fr_energy">   -394.84855043 </i>
    <i name="e_wo_entrp">   -394.86045719 </i>
    <i name="e_0_energy">   -394.85251935 </i>
   </energy>
  </scstep>
  <scstep>
   <time name="diag">    0.07    0.07</time>
   <time name="diis">    0.71    0.72</time>
   <time name="orth">    0.01    0.01</time>
   <time name="total">    0.90    0.95</time>
   <energy>
    <i name="e_fr_energy">   -383.86006017 </i>
    <i name="e_wo_entrp">   -383.87228958 </i>
    <i name="e_0_energy">   -383.86413664 </i>
   </energy>
  </scstep>
  <scstep>
   <time name="diag">    0.11    0.11</time>
   <time name="diis">    0.80    0.81</time>
   <time name="orth">    0.01    0.01</time>
   <time name="total">    1.04    1.11</time>
   <energy>
    <i name="e_fr_energy">   -385.32935797 </i>
    <i name="e_wo_entrp">   -385.32595897 </i>
    <i name="e_0_energy">   -385.32822497 </i>
   </energy>
  </scstep>
  <scstep>
   <time name="diag">    0.10    0.11</time>
   <time name="diis">    0.77    0.80</time>
   <time name="orth">    0.02    0.02</time>
   <time name="total">    0.98    1.09</time>
   <energy>
    <i name="e_fr_energy">   -379.54840755 </i>
    <i name="e_wo_entrp">   -379.56221884 </i>
    <i name="e_0_energy">   -379.55301131 </i>
   </energy>
  </scstep>
  <scstep>
   <time name="diag">    0.08    0.08</time>
   <time name="diis">    0.79    0.80</time>
   <time name="orth">    0.01    0.01</time>
   <time name="total">    0.95    1.00</time>
   <energy>
    <i name="e_fr_energy">   -379.51099889 </i>
    <i name="e_wo_entrp">   -379.52913874 </i>
    <i name="e_0_energy">   -379.51704550 </i>
   </energy>
  </scstep>
  <scstep>
   <time name="diag">    0.08    0.08</time>
   <time name="diis">    0.80    0.81</time>
   <time name="orth">    0.01    0.01</time>
   <time name="total">    0.95    1.00</time>
   <energy>
    <i name="e_fr_energy">   -379.45662375 </i>
    <i name="e_wo_entrp">   -379.47238640 </i>
    <i name="e_0_energy">   -379.46187796 </i>
   </energy>
  </scstep>
  <scstep>
   <time name="diag">    0.08    0.08</time>
   <time name="diis">    0.80    0.80</time>
   <time name="orth">    0.02    0.02</time>
   <time name="total">    1.07    1.12</time>
   <energy>
    <i name="e_fr_energy">   -379.41878380 </i>
    <i name="e_wo_entrp">   -379.43531966 </i>
    <i name="e_0_energy">   -379.42429575 </i>
   </energy>
  </scstep>
  <scstep>
   <time name="diag">    0.08    0.08</time>
   <time name="diis">    0.89    0.90</time>
   <time name="orth">    0.01    0.01</time>
   <time name="total">    1.05    1.13</time>
   <energy>
    <i name="e_fr_energy">   -379.41486916 </i>
    <i name="e_wo_entrp">   -379.43092328 </i>
    <i name="e_0_energy">   -379.42022054 </i>
   </energy>
  </scstep>
  <scstep>
   <time name="diag">    0.12    0.13</time>
   <time name="diis">    0.90    0.91</time>
   <time name="orth">    0.01    0.01</time>
   <time name="total">    1.10    1.19</time>
   <energy>
    <i name="e_fr_energy">   -379.41351631 </i>
    <i name="e_wo_entrp">   -379.42931717 </i>
    <i name="e_0_energy">   -379.41878326 </i>
   </energy>
  </scstep>
  <scstep>
   <time name="diag">    0.08    0.08</time>
   <time name="diis">    0.82    0.82</time>
   <time name="orth">    0.01    0.01</time>
   <time name="total">    0.97    1.03</time>
   <energy>
    <i name="e_fr_energy">   -379.41346133 </i>
    <i name="e_wo_entrp">   -379.42942352 </i>
    <i name="e_0_energy">   -379.41878206 </i>
   </energy>
  </scstep>
  <scstep>
   <time name="diag">    0.08    0.08</time>
   <time name="diis">    0.83    0.84</time>
   <time name="orth">    0.01    0.01</time>
   <time name="total">    0.99    1.04</time>
   <energy>
    <i name="e_fr_energy">   -379.41347098 </i>
    <i name="e_wo_entrp">   -379.42945271 </i>
    <i name="e_0_energy">   -379.41879822 </i>
   </energy>
  </scstep>
  <scstep>
   <time name="diag">    0.15    0.16</time>
   <time name="diis">    0.64    0.77</time>
   <time name="orth">    0.01    0.01</time>
   <time name="total">    0.87    1.06</time>
   <energy>
    <i name="e_fr_energy">   -379.41348127 </i>
    <i name="e_wo_entrp">   -379.42950984 </i>
    <i name="e_0_energy">   -379.41882412 </i>
   </energy>
  </scstep>
  <scstep>
   <time name="diag">    0.09    0.09</time>
   <time name="diis">    0.71    0.72</time>
   <time name="orth">    0.01    0.01</time>
   <time name="total">    0.88    0.93</time>
   <energy>
    <i name="e_fr_energy">   -379.41348018 </i>
    <i name="e_wo_entrp">   -379.42947360 </i>
    <i name="e_0_energy">   -379.41881132 </i>
   </energy>
  </scstep>
  <scstep>
   <time name="diag">    0.07    0.08</time>
   <time name="diis">    0.55    0.56</time>
   <time name="orth">    0.01    0.01</time>
   <time name="total">    0.71    0.77</time>
   <energy>
    <i name="e_fr_energy">   -379.41348181 </i>
    <i name="e_wo_entrp">   -379.42947581 </i>
    <i name="e_0_energy">   -379.41881314 </i>
   </energy>
  </scstep>
  <scstep>
   <time name="diag">    0.08    0.08</time>
   <time name="diis">    0.45    0.46</time>
   <time name="orth">    0.01    0.01</time>
   <time name="total">    0.73    0.83</time>
   <energy>
    <i name="alphaZ">   1605.06565609 </i>
    <i name="ewald"> -19135.66636526 </i>
    <i name="hartreedc">  -6209.97467127 </i>
    <i name="XCdc">   -497.42200962 </i>
    <i name="pawpsdc">  33499.07881595 </i>
    <i name="pawaedc"> -31731.92598384 </i>
    <i name="eentropy">      0.01599841 </i>
    <i name="bandstr">  -2295.65265452 </i>
    <i name="atom">  24387.06772941 </i>
    <i name="e_fr_energy">   -379.41348465 </i>
    <i name="e_wo_entrp">   -379.42948307 </i>
    <i name="e_0_energy">   -379.41881746 </i>
   </energy>
  </scstep>
  <structure>
   <crystal>
    <varray name="basis" >
     <v>       6.77042365      -0.01758379      -0.01039564 </v>
     <v>      -0.02515106      10.09185994      -0.00881933 </v>
     <v>      -0.01529915      -0.00910865      10.16965263 </v>
    </varray>
    <i name="volume">    694.84673522 </i>
    <varray name="rec_basis" >
     <v>       0.14770254       0.00036830       0.00022253 </v>
     <v>       0.00025749       0.09909048       0.00008914 </v>
     <v>       0.00015121       0.00008631       0.09833208 </v>
    </varray>
   </crystal>
   <varray name="positions" >
    <v>       0.98590100       0.66998000       0.00272100 </v>
    <v>       0.49827900       0.66475400       0.34365400 </v>
    <v>       0.75712100       0.84022500       0.83012300 </v>
    <v>       0.24595200       0.50443200       0.48887100 </v>
    <v>       0.50867200       0.00032700       0.33850800 </v>
    <v>       0.99434700       0.99794600       0.33539500 </v>
    <v>       0.99903700       0.00456700       0.65948200 </v>
    <v>       0.99536500       0.66639000       0.65998300 </v>
    <v>       0.00281400       0.33201200       0.34442700 </v>
    <v>       0.21898400       0.52488600       0.83141100 </v>
    <v>       0.52135600       0.99562900       0.00488400 </v>
    <v>       0.24503500       0.83775700       0.49631800 </v>
    <v>       0.75696500       0.83600200       0.49678100 </v>
    <v>       0.24476200       0.50823400       0.17947000 </v>
    <v>       0.75312400       0.50111800       0.49182800 </v>
    <v>       0.75032200       0.83671900       0.17364500 </v>
    <v>       0.98042000       0.99638900       0.00685600 </v>
    <v>       0.77207500       0.50162300       0.82521000 </v>
    <v>       0.99829400       0.66778100       0.33897700 </v>
    <v>       0.25357000       0.15821800       0.49307400 </v>
    <v>       0.25815500       0.14268000       0.83089400 </v>
    <v>       0.50409100       0.99506500       0.65751400 </v>
    <v>       0.49909700       0.33021500       0.34661900 </v>
    <v>       0.74849600       0.16347000       0.17284600 </v>
    <v>       0.75006700       0.16118500       0.49754400 </v>
    <v>       0.24303100       0.84134300       0.83232300 </v>
    <v>       0.75122800       0.49058200       0.17733200 </v>
    <v>       0.02010600       0.33400200       0.99357800 </v>
    <v>       0.50794300       0.66252300       0.99359100 </v>
    <v>       0.25383500       0.16225100       0.17384700 </v>
    <v>       0.25103700       0.82937700       0.17168300 </v>
    <v>       0.48819800       0.33925700       0.66489400 </v>
    <v>       0.01324200       0.33168800       0.66135800 </v>
    <v>       0.74402600       0.16235200       0.83194500 </v>
    <v>       0.50361600       0.66892400       0.66255400 </v>
    <v>       0.48143600       0.34011100       0.98986300 </v>
   </varray>
  </structure>
  <varray name="forces" >
   <v>       0.11473746       0.00059277      -0.05917247 </v>
   <v>       0.00144105       0.01001171      -0.02113704 </v>
   <v>       0.00866158      -0.02449898      -0.00659368 </v>
   <v>       0.00269200      -0.02518680       0.00565865 </v>
   <v>       0.01061267      -0.01329105      -0.00260227 </v>
   <v>      -0.00935649      -0.02263276      -0.01193797 </v>
   <v>      -0.00558933      -0.01054089       0.01028806 </v>
   <v>      -0.00057606       0.01371592      -0.06598147 </v>
   <v>       0.00624915       0.01851030      -0.00446358 </v>
   <v>      -0.01546588       0.03106726       0.07785399 </v>
   <v>       0.00900200      -0.03353883       0.00204782 </v>
   <v>       0.01225135       0.01660173      -0.00966079 </v>
   <v>      -0.00934248       0.00716424       0.00105855 </v>
   <v>       0.01514246      -0.02159759      -0.00616192 </v>
   <v>       0.00045612      -0.02177433       0.00330599 </v>
   <v>       0.00045819       0.00469391       0.01002405 </v>
   <v>      -0.00936801       0.12398207       0.00315347 </v>
   <v>      -0.03939788       0.01163176       0.00344782 </v>
   <v>      -0.00011435      -0.00457233       0.08347892 </v>
   <v>       0.01124040      -0.01028981      -0.01324785 </v>
   <v>       0.00454718       0.02021279       0.00475374 </v>
   <v>      -0.00192706      -0.01214221       0.01607292 </v>
   <v>      -0.00073361       0.02655606      -0.00472093 </v>
   <v>      -0.01156954      -0.00529641       0.00385216 </v>
   <v>      -0.01875835      -0.00098108      -0.00627243 </v>
   <v>      -0.01758312      -0.03264424       0.01707089 </v>
   <v>       0.01554585       0.01837631      -0.03062654 </v>
   <v>      -0.00004258      -0.09363129      -0.01265730 </v>
   <v>      -0.04719416       0.01451150       0.00212744 </v>
   <v>       0.00436429      -0.00143862       0.00699081 </v>
   <v>      -0.02893077      -0.03455436      -0.03647772 </v>
   <v>       0.00781627       0.00960451       0.00753919 </v>
   <v>      -0.00835310       0.02267485       0.01271975 </v>
   <v>      -0.00538069      -0.01210835      -0.00200897 </v>
   <v>       0.00151712      -0.00042014       0.03070033 </v>
   <v>       0.00294832       0.03123236      -0.00842161 </v>
  </varray>
  <varray name="stress" >
   <v>      -0.13286630      -0.06830462       0.17209660 </v>
   <v>      -0.06830460      -0.26102959      -0.13948863 </v>
   <v>       0.17209657      -0.13948865      -0.65538385 </v>
  </varray>
  <energy>
   <i name="e_fr_energy">   -379.41348465 </i>
   <i name="e_wo_entrp">   -379.41881746 </i>
   <i name="e_0_energy">      0.01599841 </i>
  </energy>
  <time name="totalsc">   21.41   23.52</time>
 </calculation>
 <calculation>
  <scstep>
   <time name="dav">    1.13    1.14</time>
   <time name="total">    1.20    1.42</time>
   <energy>
    <i name="alphaZ">   1605.35933629 </i>
    <i name="ewald"> -19136.62129940 </i>
    <i name="hartreedc">  -6210.56426374 </i>
    <i name="XCdc">   -497.37313938 </i>
    <i name="pawpsdc">  33499.16341437 </i>
    <i name="pawaedc"> -31732.00400958 </i>
    <i name="eentropy">      0.01594752 </i>
    <i name="bandstr">  -2294.45817165 </i>
    <i name="atom">  24387.06772941 </i>
    <i name="e_fr_energy">   -379.41445616 </i>
    <i name="e_wo_entrp">   -379.43040368 </i>
    <i name="e_0_energy">   -379.41977200 </i>
   </energy>
  </scstep>
  <scstep>
   <time name="diag">    0.13    0.13</time>
   <time name="diis">    0.85    0.85</time>
   <time name="orth">    0.01    0.01</time>
   <time name="total">    1.06    1.11</time>
   <energy>
    <i name="e_fr_energy">   -379.41470065 </i>
    <i name="e_wo_entrp">   -379.43059286 </i>
    <i name="e_0_energy">   -379.41999805 </i>
   </energy>
  </scstep>
  <scstep>
   <time name="diag">    0.07    0.07</time>
   <time name="diis">    0.76    0.76</time>
   <time name="orth">    0.01    0.01</time>
   <time name="total">    0.91    0.95</time>
   <energy>
    <i name="e_fr_energy">   -379.41467217 </i>
    <i name="e_wo_entrp">   -379.43063198 </i>
    <i name="e_0_energy">   -379.41999211 </i>
   </energy>
  </scstep>
  <scstep>
   <time name="diag">    0.08    0.08</time>
   <time name="diis">    0.59    0.59</time>
   <time name="orth">    0.01    0.01</time>
   <time name="total">    0.74    0.79</time>
   <energy>
    <i name="e_fr_energy">   -379.41466099 </i>
    <i name="e_wo_entrp">   -379.43057226 </i>
    <i name="e_0_energy">   -379.41996475 </i>
   </energy>
  </scstep>
  <scstep>
   <time name="diag">    0.08    0.08</time>
   <time name="diis">    0.37    0.37</time>
   <time name="orth">    0.01    0.01</time>
   <time name="total">    0.49    0.56</time>
   <energy>
    <i name="alphaZ">   1605.35933629 </i>
    <i name="ewald"> -19136.62129940 </i>
    <i name="hartreedc">  -6209.83461433 </i>
    <i name="XCdc">   -497.40343775 </i>
    <i name="pawpsdc">  33506.63905868 </i>
    <i name="pawaedc"> -31739.49975753 </i>
    <i name="eentropy">      0.01592850 </i>
    <i name="bandstr">  -2295.13760315 </i>
    <i name="atom">  24387.06772941 </i>
    <i name="e_fr_energy">   -379.41465929 </i>
    <i name="e_wo_entrp">   -379.43058779 </i>
    <i name="e_0_energy">   -379.41996879 </i>
   </energy>
  </scstep>
  <structure>
   <crystal>
    <varray name="basis" >
     <v>       6.77026671      -0.01766337      -0.01019087 </v>
     <v>      -0.02527093      10.09140116      -0.00906452 </v>
     <v>      -0.01499354      -0.00935539      10.16849033 </v>
    </varray>
    <i name="volume">    694.71962179 </i>
    <varray name="rec_basis" >
     <v>       0.14770596       0.00037008       0.00021813 </v>
     <v>       0.00025867       0.09909500       0.00009155 </v>
     <v>       0.00014826       0.00008871       0.09834332 </v>
    </varray>
   </crystal>
   <varray name="positions" >
    <v>       0.98614608       0.66998120       0.00263704 </v>
    <v>       0.49828207       0.66476834       0.34362393 </v>
    <v>       0.75713936       0.84018989       0.83011360 </v>
    <v>       0.24595764       0.50439590       0.48887903 </v>
    <v>       0.50869461       0.00030798       0.33850430 </v>
    <v>       0.99432684       0.99791349       0.33537796 </v>
    <v>       0.99902503       0.00455188       0.65949662 </v>
    <v>       0.99536363       0.66640958       0.65988911 </v>
    <v>       0.00282744       0.33203856       0.34442068 </v>
    <v>       0.21895136       0.52493060       0.83152180 </v>
    <v>       0.52137507       0.99558094       0.00488689 </v>
    <v>       0.24506125       0.83778084       0.49630430 </v>
    <v>       0.75694507       0.83601224       0.49678249 </v>
    <v>       0.24479423       0.50820308       0.17946124 </v>
    <v>       0.75312487       0.50108678       0.49183268 </v>
    <v>       0.75032304       0.83672575       0.17365927 </v>
    <v>       0.98040065       0.99656677       0.00686062 </v>
    <v>       0.77199085       0.50163954       0.82521484 </v>
    <v>       0.99829400       0.66777455       0.33909580 </v>
    <v>       0.25359393       0.15820327       0.49305516 </v>
    <v>       0.25816484       0.14270901       0.83090080 </v>
    <v>       0.50408687       0.99504760       0.65753685 </v>
    <v>       0.49909556       0.33025308       0.34661231 </v>
    <v>       0.74847125       0.16346237       0.17285145 </v>
    <v>       0.75002688       0.16118352       0.49753503 </v>
    <v>       0.24299329       0.84129614       0.83234722 </v>
    <v>       0.75126123       0.49060837       0.17728847 </v>
    <v>       0.02010537       0.33386771       0.99355987 </v>
    <v>       0.50784220       0.66254364       0.99359394 </v>
    <v>       0.25384434       0.16224896       0.17385696 </v>
    <v>       0.25097485       0.82932729       0.17163098 </v>
    <v>       0.48821478       0.33927081       0.66490476 </v>
    <v>       0.01322431       0.33172050       0.66137611 </v>
    <v>       0.74401443       0.16233461       0.83194211 </v>
    <v>       0.50361934       0.66892344       0.66259769 </v>
    <v>       0.48144244       0.34015579       0.98985106 </v>
   </varray>
  </structure>
  <varray name="forces" >
   <v>       0.10203891      -0.00310548      -0.05468959 </v>
   <v>       0.00275482       0.00749645      -0.02240910 </v>
   <v>       0.00986168      -0.02196761      -0.00633190 </v>
   <v>       0.00205184      -0.02242707       0.00562882 </v>
   <v>       0.00812593      -0.01389328      -0.00478397 </v>
   <v>      -0.00862444      -0.02006871      -0.01282687 </v>
   <v>      -0.00481997      -0.01034594       0.01021988 </v>
   <v>      -0.00057356       0.01161354      -0.05538497 </v>
   <v>       0.00595662       0.01673770      -0.00608667 </v>
   <v>      -0.01269100       0.02797898       0.07114716 </v>
   <v>       0.00911883      -0.03369062       0.00131940 </v>
   <v>       0.01175663       0.01533563      -0.00717016 </v>
   <v>      -0.00970797       0.00751432       0.00149515 </v>
   <v>       0.01354816      -0.02016978      -0.00648257 </v>
   <v>      -0.00040772      -0.02045606       0.00431552 </v>
   <v>       0.00356378       0.00316997       0.00712886 </v>
   <v>      -0.00849647       0.11412333       0.00360594 </v>
   <v>      -0.03359505       0.01321149       0.00409918 </v>
   <v>       0.00054843      -0.00501803       0.07406400 </v>
   <v>       0.00975042      -0.00853509      -0.01068800 </v>
   <v>       0.00403111       0.01622366       0.00310510 </v>
   <v>      -0.00153274      -0.01219515       0.01576965 </v>
   <v>      -0.00088219       0.02378856      -0.00588651 </v>
   <v>      -0.01134272      -0.00305734       0.00485102 </v>
   <v>      -0.01579203       0.00085854      -0.00423140 </v>
   <v>      -0.01663542      -0.02759124       0.01475169 </v>
   <v>       0.01620792       0.01938233      -0.03052143 </v>
   <v>      -0.00271196      -0.08699956      -0.00994981 </v>
   <v>      -0.04192179       0.01310814       0.00315286 </v>
   <v>       0.00447383       0.00072876       0.00780535 </v>
   <v>      -0.02730072      -0.03054112      -0.03276476 </v>
   <v>       0.00530676       0.00953737       0.00826500 </v>
   <v>      -0.00723678       0.02065736       0.01239738 </v>
   <v>      -0.00797995      -0.00982625      -0.00438205 </v>
   <v>      -0.00022431      -0.00188624       0.02873953 </v>
   <v>       0.00338115       0.03030843      -0.00727172 </v>
  </varray>
  <varray name="stress" >
   <v>       0.17536194      -0.06332719       0.17293872 </v>
   <v>      -0.06332714       0.04762116      -0.11309229 </v>
   <v>       0.17293874      -0.11309230      -0.31052503 </v>
  </varray>
  <energy>
   <i name="e_fr_energy">   -379.41465929 </i>
   <i name="e_wo_entrp">   -379.41996879 </i>
   <i name="e_0_energy">      0.01592850 </i>
  </energy>
  <time name="totalsc">    6.04    6.66</time>
 </calculation>
 <calculation>
  <scstep>
   <time name="dav">    1.45    1.52</time>
   <time name="total">    1.53    1.80</time>
   <energy>
    <i name="alphaZ">   1606.24088188 </i>
    <i name="ewald"> -19139.45331751 </i>
    <i name="hartreedc">  -6211.66698807 </i>
    <i name="XCdc">   -497.25364617 </i>
    <i name="pawpsdc">  33506.59978049 </i>
    <i name="pawaedc"> -31739.45995124 </i>
    <i name="eentropy">      0.01575867 </i>
    <i name="bandstr">  -2291.50607991 </i>
    <i name="atom">  24387.06772941 </i>
    <i name="e_fr_energy">   -379.41583245 </i>
    <i name="e_wo_entrp">   -379.43159112 </i>
    <i name="e_0_energy">   -379.42108534 </i>
   </energy>
  </scstep>
  <scstep>
   <time name="diag">    0.08    0.08</time>
   <time name="diis">    0.75    0.77</time>
   <time name="orth">    0.01    0.01</time>
   <time name="total">    0.90    0.96</time>
   <energy>
    <i name="e_fr_energy">   -379.41778374 </i>
    <i name="e_wo_entrp">   -379.43336331 </i>
    <i name="e_0_energy">   -379.42297693 </i>
   </energy>
  </scstep>
  <scstep>
   <time name="diag">    0.07    0.07</time>
   <time name="diis">    0.67    0.82</time>
   <time name="orth">    0.01    0.01</time>
   <time name="total">    0.83    1.02</time>
   <energy>
    <i name="e_fr_energy">   -379.41751797 </i>
    <i name="e_wo_entrp">   -379.43332661 </i>
    <i name="e_0_energy">   -379.42278752 </i>
   </energy>
  </scstep>
  <scstep>
   <time name="diag">    0.13    0.13</time>
   <time name="diis">    0.89    0.89</time>
   <time name="orth">    0.01    0.01</time>
   <time name="total">    1.12    1.17</time>
   <energy>
    <i name="e_fr_energy">   -379.41742255 </i>
    <i name="e_wo_entrp">   -379.43307098 </i>
    <i name="e_0_energy">   -379.42263870 </i>
   </energy>
  </scstep>
  <scstep>
   <time name="diag">    0.12    0.12</time>
   <time name="diis">    0.89    0.90</time>
   <time name="orth">    0.01    0.01</time>
   <time name="total">    1.08    1.13</time>
   <energy>
    <i name="e_fr_energy">   -379.41740876 </i>
    <i name="e_wo_entrp">   -379.43311942 </i>
    <i name="e_0_energy">   -379.42264565 </i>
   </energy>
  </scstep>
  <scstep>
   <time name="diag">    0.08    0.08</time>
   <time name="diis">    0.73    0.73</time>
   <time name="orth">    0.01    0.01</time>
   <time name="total">    0.88    0.93</time>
   <energy>
    <i name="e_fr_energy">   -379.41741225 </i>
    <i name="e_wo_entrp">   -379.43311275 </i>
    <i name="e_0_energy">   -379.42264575 </i>
   </energy>
  </scstep>
  <scstep>
   <time name="diag">    0.08    0.08</time>
   <time name="diis">    0.40    0.41</time>
   <time name="orth">    0.01    0.01</time>
   <time name="total">    0.53    0.58</time>
   <energy>
    <i name="alphaZ">   1606.24088188 </i>
    <i name="ewald"> -19139.45331751 </i>
    <i name="hartreedc">  -6209.57261473 </i>
    <i name="XCdc">   -497.33916017 </i>
    <i name="pawpsdc">  33530.15461671 </i>
    <i name="pawaedc"> -31763.05334134 </i>
    <i name="eentropy">      0.01568762 </i>
    <i name="bandstr">  -2293.47789448 </i>
    <i name="atom">  24387.06772941 </i>
    <i name="e_fr_energy">   -379.41741262 </i>
    <i name="e_wo_entrp">   -379.43310023 </i>
    <i name="e_0_energy">   -379.42264182 </i>
   </energy>
  </scstep>
  <structure>
   <crystal>
    <varray name="basis" >
     <v>       6.76979588      -0.01790210      -0.00957658 </v>
     <v>      -0.02563053      10.09002482      -0.00980006 </v>
     <v>      -0.01407671      -0.01009558      10.16500342 </v>
    </varray>
    <i name="volume">    694.33834211 </i>
    <varray name="rec_basis" >
     <v>       0.14771622       0.00037543       0.00020493 </v>
     <v>       0.00026222       0.09910855       0.00009879 </v>
     <v>       0.00013942       0.00009590       0.09837704 </v>
    </varray>
   </crystal>
   <varray name="positions" >
    <v>       0.98688136       0.66998481       0.00238512 </v>
    <v>       0.49829127       0.66481134       0.34353373 </v>
    <v>       0.75719446       0.84008455       0.83008541 </v>
    <v>       0.24597455       0.50428758       0.48890311 </v>
    <v>       0.50876243       0.00025090       0.33849321 </v>
    <v>       0.99426636       0.99781596       0.33532684 </v>
    <v>       0.99898911       0.00450650       0.65954047 </v>
    <v>       0.99535953       0.66646833       0.65960743 </v>
    <v>       0.00286777       0.33211826       0.34440174 </v>
    <v>       0.21885341       0.52506440       0.83185425 </v>
    <v>       0.52143228       0.99543674       0.00489556 </v>
    <v>       0.24513999       0.83785237       0.49626319 </v>
    <v>       0.75688528       0.83604296       0.49678698 </v>
    <v>       0.24489094       0.50811030       0.17943494 </v>
    <v>       0.75312748       0.50099311       0.49184671 </v>
    <v>       0.75032615       0.83674599       0.17370210 </v>
    <v>       0.98034259       0.99710012       0.00687450 </v>
    <v>       0.77173841       0.50168916       0.82522935 </v>
    <v>       0.99829398       0.66775521       0.33945223 </v>
    <v>       0.25366573       0.15815907       0.49299862 </v>
    <v>       0.25819438       0.14279605       0.83092121 </v>
    <v>       0.50407447       0.99499540       0.65760543 </v>
    <v>       0.49909124       0.33036731       0.34659225 </v>
    <v>       0.74839701       0.16343946       0.17286780 </v>
    <v>       0.74990650       0.16117906       0.49750812 </v>
    <v>       0.24288017       0.84115556       0.83241987 </v>
    <v>       0.75136093       0.49068749       0.17715787 </v>
    <v>       0.02010347       0.33346480       0.99350546 </v>
    <v>       0.50753979       0.66260555       0.99360278 </v>
    <v>       0.25387238       0.16224285       0.17388683 </v>
    <v>       0.25078842       0.82917815       0.17147490 </v>
    <v>       0.48826514       0.33931225       0.66493704 </v>
    <v>       0.01317122       0.33181802       0.66143046 </v>
    <v>       0.74397971       0.16228245       0.83193345 </v>
    <v>       0.50362935       0.66892177       0.66272879 </v>
    <v>       0.48146177       0.34029017       0.98981524 </v>
   </varray>
  </structure>
  <varray name="forces" >
   <v>       0.06095352      -0.01259221      -0.03899691 </v>
   <v>       0.00580005       0.00218584      -0.02338414 </v>
   <v>       0.01340942      -0.01233979      -0.00365430 </v>
   <v>       0.00135510      -0.01495737       0.00493395 </v>
   <v>      -0.00000606      -0.01570142      -0.00917061 </v>
   <v>      -0.00534284      -0.01447465      -0.01316366 </v>
   <v>      -0.00229688      -0.00781857       0.00656872 </v>
   <v>      -0.00031550       0.00455462      -0.02901615 </v>
   <v>       0.00399307       0.01069479      -0.00742670 </v>
   <v>      -0.00711110       0.01684292       0.04897017 </v>
   <v>       0.00916037      -0.03377392       0.00025697 </v>
   <v>       0.01187387       0.01137591      -0.00146773 </v>
   <v>      -0.01184208       0.00878308       0.00173177 </v>
   <v>       0.00898518      -0.01521546      -0.00645397 </v>
   <v>      -0.00379573      -0.01680153       0.00666954 </v>
   <v>       0.01269705      -0.00001216      -0.00118203 </v>
   <v>      -0.00505667       0.08799036       0.00698757 </v>
   <v>      -0.01701540       0.01636996       0.00642106 </v>
   <v>       0.00246358      -0.00468177       0.04823695 </v>
   <v>       0.00667895      -0.00454381      -0.00349731 </v>
   <v>       0.00372945       0.00453440      -0.00168615 </v>
   <v>      -0.00032951      -0.01155979       0.01351022 </v>
   <v>      -0.00122215       0.01570198      -0.00815344 </v>
   <v>      -0.01100692       0.00105893       0.00611142 </v>
   <v>      -0.00866501       0.00558664       0.00197051 </v>
   <v>      -0.01425963      -0.00905376       0.00750145 </v>
   <v>       0.01839402       0.02398116      -0.03029583 </v>
   <v>      -0.01126167      -0.07291393      -0.00381708 </v>
   <v>      -0.02463534       0.01158007       0.00939923 </v>
   <v>       0.00713249       0.00427763       0.00979158 </v>
   <v>      -0.02346877      -0.01809172      -0.02186863 </v>
   <v>       0.00022444       0.00809918       0.00969596 </v>
   <v>      -0.00608363       0.01494131       0.01123468 </v>
   <v>      -0.01629561      -0.00420272      -0.01098188 </v>
   <v>      -0.00338049      -0.00616468       0.01968622 </v>
   <v>       0.00654042       0.02634047      -0.00546142 </v>
  </varray>
  <varray name="stress" >
   <v>       0.85963802      -0.03514607       0.10996756 </v>
   <v>      -0.03514596       0.73599804      -0.03958437 </v>
   <v>       0.10996752      -0.03958441       0.60284788 </v>
  </varray>
  <energy>
   <i name="e_fr_energy">   -379.41741262 </i>
   <i name="e_wo_entrp">   -379.42264182 </i>
   <i name="e_0_energy">      0.01568762 </i>
  </energy>
  <time name="totalsc">    8.49    9.42</time>
 </calculation>
 <calculation>
  <scstep>
   <time name="dav">    0.97    0.97</time>
   <time name="total">    1.04    1.34</time>
   <energy>
    <i name="alphaZ">   1608.00624851 </i>
    <i name="ewald"> -19144.96866841 </i>
    <i name="hartreedc">  -6213.37325441 </i>
    <i name="XCdc">   -497.03744709 </i>
    <i name="pawpsdc">  33530.00397361 </i>
    <i name="pawaedc"> -31762.88388856 </i>
    <i name="eentropy">      0.01527899 </i>
    <i name="bandstr">  -2286.24324758 </i>
    <i name="atom">  24387.06772941 </i>
    <i name="e_fr_energy">   -379.41327553 </i>
    <i name="e_wo_entrp">   -379.42855452 </i>
    <i name="e_0_energy">   -379.41836853 </i>
   </energy>
  </scstep>
  <scstep>
   <time name="diag">    0.08    0.08</time>
   <time name="diis">    0.75    0.75</time>
   <time name="orth">    0.01    0.01</time>
   <time name="total">    0.90    0.95</time>
   <energy>
    <i name="e_fr_energy">   -379.42087530 </i>
    <i name="e_wo_entrp">   -379.43582278 </i>
    <i name="e_0_energy">   -379.42585779 </i>
   </energy>
  </scstep>
  <scstep>
   <time name="diag">    0.07    0.08</time>
   <time name="diis">    0.72    0.77</time>
   <time name="orth">    0.01    0.01</time>
   <time name="total">    0.87    0.97</time>
   <energy>
    <i name="e_fr_energy">   -379.41978390 </i>
    <i name="e_wo_entrp">   -379.43519088 </i>
    <i name="e_0_energy">   -379.42491956 </i>
   </energy>
  </scstep>
  <scstep>
   <time name="diag">    0.07    0.07</time>
   <time name="diis">    0.91    0.92</time>
   <time name="orth">    0.01    0.01</time>
   <time name="total">    1.06    1.12</time>
   <energy>
    <i name="e_fr_energy">   -379.41938727 </i>
    <i name="e_wo_entrp">   -379.43447204 </i>
    <i name="e_0_energy">   -379.42441552 </i>
   </energy>
  </scstep>
  <scstep>
   <time name="diag">    0.14    0.14</time>
   <time name="diis">    0.90    0.90</time>
   <time name="orth">    0.01    0.01</time>
   <time name="total">    1.14    1.24</time>
   <energy>
    <i name="e_fr_energy">   -379.41933177 </i>
    <i name="e_wo_entrp">   -379.43453352 </i>
    <i name="e_0_energy">   -379.42439902 </i>
   </energy>
  </scstep>
  <scstep>
   <time name="diag">    0.08    0.08</time>
   <time name="diis">    0.94    0.94</time>
   <time name="orth">    0.01    0.01</time>
   <time name="total">    1.11    1.16</time>
   <energy>
    <i name="e_fr_energy">   -379.41934137 </i>
    <i name="e_wo_entrp">   -379.43453248 </i>
    <i name="e_0_energy">   -379.42440508 </i>
   </energy>
  </scstep>
  <scstep>
   <time name="diag">    0.08    0.08</time>
   <time name="diis">    0.73    0.73</time>
   <time name="orth">    0.02    0.02</time>
   <time name="total">    0.89    0.95</time>
   <energy>
    <i name="e_fr_energy">   -379.41934093 </i>
    <i name="e_wo_entrp">   -379.43450136 </i>
    <i name="e_0_energy">   -379.42439441 </i>
   </energy>
  </scstep>
  <scstep>
   <time name="diag">    0.08    0.08</time>
   <time name="diis">    0.54    0.54</time>
   <time name="orth">    0.01    0.01</time>
   <time name="total">    0.66    0.71</time>
   <energy>
    <i name="alphaZ">   1608.00624851 </i>
    <i name="ewald"> -19144.96866841 </i>
    <i name="hartreedc">  -6209.26031791 </i>
    <i name="XCdc">   -497.20561544 </i>
    <i name="pawpsdc">  33578.08111019 </i>
    <i name="pawaedc"> -31810.97738071 </i>
    <i name="eentropy">      0.01518832 </i>
    <i name="bandstr">  -2290.17764466 </i>
    <i name="atom">  24387.06772941 </i>
    <i name="e_fr_energy">   -379.41935069 </i>
    <i name="e_wo_entrp">   -379.43453901 </i>
    <i name="e_0_energy">   -379.42441346 </i>
   </energy>
  </scstep>
  <structure>
   <crystal>
    <varray name="basis" >
     <v>       6.76885422      -0.01837956      -0.00834798 </v>
     <v>      -0.02634973      10.08727215      -0.01127116 </v>
     <v>      -0.01224306      -0.01157597      10.15802961 </v>
    </varray>
    <i name="volume">    693.57605543 </i>
    <varray name="rec_basis" >
     <v>       0.14773676       0.00038611       0.00017850 </v>
     <v>       0.00026932       0.09913566       0.00011330 </v>
     <v>       0.00012171       0.00011032       0.09844456 </v>
    </varray>
   </crystal>
   <varray name="positions" >
    <v>       0.98835209       0.66999201       0.00188102 </v>
    <v>       0.49830970       0.66489736       0.34335326 </v>
    <v>       0.75730464       0.83987385       0.83002898 </v>
    <v>       0.24600836       0.50407093       0.48895127 </v>
    <v>       0.50889808       0.00013673       0.33847100 </v>
    <v>       0.99414539       0.99762086       0.33522456 </v>
    <v>       0.99891726       0.00441574       0.65962820 </v>
    <v>       0.99535141       0.66658579       0.65904387 </v>
    <v>       0.00294846       0.33227767       0.34436384 </v>
    <v>       0.21865742       0.52533209       0.83251941 </v>
    <v>       0.52154670       0.99514832       0.00491289 </v>
    <v>       0.24529751       0.83799545       0.49618095 </v>
    <v>       0.75676570       0.83610442       0.49679597 </v>
    <v>       0.24508436       0.50792471       0.17938230 </v>
    <v>       0.75313268       0.50080576       0.49187478 </v>
    <v>       0.75033235       0.83678648       0.17378777 </v>
    <v>       0.98022652       0.99816696       0.00690236 </v>
    <v>       0.77123348       0.50178839       0.82525842 </v>
    <v>       0.99829385       0.66771657       0.34016532 </v>
    <v>       0.25380934       0.15807065       0.49288550 </v>
    <v>       0.25825345       0.14297015       0.83096204 </v>
    <v>       0.50404964       0.99489099       0.65774261 </v>
    <v>       0.49908261       0.33059580       0.34655214 </v>
    <v>       0.74824850       0.16339365       0.17290053 </v>
    <v>       0.74966574       0.16117013       0.49745430 </v>
    <v>       0.24265387       0.84087436       0.83256521 </v>
    <v>       0.75156040       0.49084573       0.17689658 </v>
    <v>       0.02009965       0.33265888       0.99339656 </v>
    <v>       0.50693493       0.66272939       0.99362050 </v>
    <v>       0.25392844       0.16223063       0.17394659 </v>
    <v>       0.25041554       0.82887979       0.17116265 </v>
    <v>       0.48836584       0.33939516       0.66500162 </v>
    <v>       0.01306504       0.33201308       0.66153921 </v>
    <v>       0.74391026       0.16217810       0.83191613 </v>
    <v>       0.50364935       0.66891846       0.66299107 </v>
    <v>       0.48150046       0.34055896       0.98974359 </v>
   </varray>
  </structure>
  <varray name="forces" >
   <v>      -0.02038156      -0.03185197      -0.00809793 </v>
   <v>       0.01172045      -0.01079407      -0.02226581 </v>
   <v>       0.01897637       0.00666425       0.00038625 </v>
   <v>      -0.00051848       0.00084580       0.00203129 </v>
   <v>      -0.01662345      -0.01875242      -0.01713587 </v>
   <v>       0.00112351      -0.00266328      -0.01273666 </v>
   <v>       0.00251276      -0.00500276      -0.00158601 </v>
   <v>      -0.00013204      -0.00911110       0.02445171 </v>
   <v>      -0.00011589      -0.00156062      -0.01087798 </v>
   <v>       0.00611919      -0.00540784       0.00650856 </v>
   <v>       0.00865918      -0.03308554      -0.00225797 </v>
   <v>       0.01168697       0.00620645       0.01145987 </v>
   <v>      -0.01543478       0.01410156       0.00368675 </v>
   <v>       0.00015304      -0.00950313      -0.00912617 </v>
   <v>      -0.01003739      -0.01219403       0.01134462 </v>
   <v>       0.03057288      -0.00444903      -0.01933816 </v>
   <v>       0.00314022       0.03626779       0.01265098 </v>
   <v>       0.01663505       0.02318795       0.01183941 </v>
   <v>       0.00672065      -0.00383450      -0.00367535 </v>
   <v>      -0.00010571       0.00439819       0.01132897 </v>
   <v>       0.00253970      -0.01813518      -0.01049537 </v>
   <v>       0.00233781      -0.01050108       0.00959407 </v>
   <v>      -0.00255126      -0.00235195      -0.01480145 </v>
   <v>      -0.01034884       0.01006404       0.00937746 </v>
   <v>       0.00635629       0.01519334       0.01421817 </v>
   <v>      -0.00794613       0.02530467      -0.00813310 </v>
   <v>       0.02212946       0.03186136      -0.02974229 </v>
   <v>      -0.02762743      -0.03852566       0.01054023 </v>
   <v>       0.00833808       0.00559626       0.01916571 </v>
   <v>       0.01231241       0.01323785       0.01414556 </v>
   <v>      -0.01569230       0.00928981      -0.00179335 </v>
   <v>      -0.01188618       0.00409153       0.01237238 </v>
   <v>      -0.00184034       0.00123996       0.00816495 </v>
   <v>      -0.03228494       0.00597561      -0.02402729 </v>
   <v>      -0.01062674      -0.01334590       0.00309687 </v>
   <v>       0.01211944       0.01754368      -0.00027304 </v>
  </varray>
  <varray name="stress" >
   <v>       2.35222548      -0.00022949       0.00854565 </v>
   <v>      -0.00022951       2.21483006       0.12683038 </v>
   <v>       0.00854568       0.12683038       2.51610227 </v>
  </varray>
  <energy>
   <i name="e_fr_energy">   -379.41935069 </i>
   <i name="e_wo_entrp">   -379.42441346 </i>
   <i name="e_0_energy">      0.01518832 </i>
  </energy>
  <time name="totalsc">    9.55   10.54</time>
 </calculation>
 <calculation>
  <scstep>
   <time name="dav">    0.99    1.01</time>
   <time name="total">    1.07    1.29</time>
   <energy>
    <i name="alphaZ">   1606.46447166 </i>
    <i name="ewald"> -19138.43742222 </i>
    <i name="hartreedc">  -6207.74201695 </i>
    <i name="XCdc">   -497.46405507 </i>
    <i name="pawpsdc">  33578.37340368 </i>
    <i name="pawaedc"> -31811.21526517 </i>
    <i name="eentropy">      0.01519279 </i>
    <i name="bandstr">  -2296.48389356 </i>
    <i name="atom">  24387.06772941 </i>
    <i name="e_fr_energy">   -379.42185542 </i>
    <i name="e_wo_entrp">   -379.43704821 </i>
    <i name="e_0_energy">   -379.42691969 </i>
   </energy>
  </scstep>
  <scstep>
   <time name="diag">    0.07    0.08</time>
   <time name="diis">    0.77    0.78</time>
   <time name="orth">    0.01    0.01</time>
   <time name="total">    0.92    0.97</time>
   <energy>
    <i name="e_fr_energy">   -379.42149766 </i>
    <i name="e_wo_entrp">   -379.43657665 </i>
    <i name="e_0_energy">   -379.42652399 </i>
   </energy>
  </scstep>
  <scstep>
   <time name="diag">    0.07    0.08</time>
   <time name="diis">    0.79    0.80</time>
   <time name="orth">    0.01    0.01</time>
   <time name="total">    0.96    1.01</time>
   <energy>
    <i name="e_fr_energy">   -379.42082649 </i>
    <i name="e_wo_entrp">   -379.43593171 </i>
    <i name="e_0_energy">   -379.42586156 </i>
   </energy>
  </scstep>
  <scstep>
   <time name="diag">    0.07    0.08</time>
   <time name="diis">    0.92    0.92</time>
   <time name="orth">    0.01    0.01</time>
   <time name="total">    1.07    1.11</time>
   <energy>
    <i name="e_fr_energy">   -379.42055793 </i>
    <i name="e_wo_entrp">   -379.43579005 </i>
    <i name="e_0_energy">   -379.42563530 </i>
   </energy>
  </scstep>
  <scstep>
   <time name="diag">    0.07    0.07</time>
   <time name="diis">    0.88    0.88</time>
   <time name="orth">    0.01    0.01</time>
   <time name="total">    1.03    1.08</time>
   <energy>
    <i name="e_fr_energy">   -379.42047451 </i>
    <i name="e_wo_entrp">   -379.43561554 </i>
    <i name="e_0_energy">   -379.42552152 </i>
   </energy>
  </scstep>
  <scstep>
   <time name="diag">    0.14    0.14</time>
   <time name="diis">    0.71    0.72</time>
   <time name="orth">    0.01    0.01</time>
   <time name="total">    0.93    0.97</time>
   <energy>
    <i name="e_fr_energy">   -379.42046914 </i>
    <i name="e_wo_entrp">   -379.43561027 </i>
    <i name="e_0_energy">   -379.42551618 </i>
   </energy>
  </scstep>
  <scstep>
   <time name="diag">    0.07    0.07</time>
   <time name="diis">    0.42    0.42</time>
   <time name="orth">    0.01    0.01</time>
   <time name="total">    0.57    0.63</time>
   <energy>
    <i name="e_fr_energy">   -379.42045905 </i>
    <i name="e_wo_entrp">   -379.43562050 </i>
    <i name="e_0_energy">   -379.42551287 </i>
   </energy>
  </scstep>
  <scstep>
   <time name="diag">    0.08    0.08</time>
   <time name="diis">    0.37    0.37</time>
   <time name="orth">    0.01    0.01</time>
   <time name="total">    0.49    0.55</time>
   <energy>
    <i name="alphaZ">   1606.46447166 </i>
    <i name="ewald"> -19138.43742222 </i>
    <i name="hartreedc">  -6211.62509423 </i>
    <i name="XCdc">   -497.30585631 </i>
    <i name="pawpsdc">  33538.25265409 </i>
    <i name="pawaedc"> -31770.90957110 </i>
    <i name="eentropy">      0.01514902 </i>
    <i name="bandstr">  -2292.94251593 </i>
    <i name="atom">  24387.06772941 </i>
    <i name="e_fr_energy">   -379.42045560 </i>
    <i name="e_wo_entrp">   -379.43560462 </i>
    <i name="e_0_energy">   -379.42550528 </i>
   </energy>
  </scstep>
  <structure>
   <crystal>
    <varray name="basis" >
     <v>       6.77133942      -0.01848964      -0.00807804 </v>
     <v>      -0.02651540      10.09045124      -0.01137621 </v>
     <v>      -0.01183908      -0.01168100      10.16084467 </v>
    </varray>
    <i name="volume">    694.24170321 </i>
    <varray name="rec_basis" >
     <v>       0.14768254       0.00038827       0.00017252 </v>
     <v>       0.00027075       0.09910444       0.00011425 </v>
     <v>       0.00011771       0.00011127       0.09841728 </v>
    </varray>
   </crystal>
   <varray name="positions" >
    <v>       0.98862628       0.66994914       0.00176112 </v>
    <v>       0.49833788       0.66490086       0.34328362 </v>
    <v>       0.75736776       0.83983783       0.83001740 </v>
    <v>       0.24601457       0.50402546       0.48896445 </v>
    <v>       0.50889266       0.00008596       0.33844247 </v>
    <v>       0.99412163       0.99757513       0.33518492 </v>
    <v>       0.99890696       0.00438925       0.65964490 </v>
    <v>       0.99534944       0.66659842       0.65895627 </v>
    <v>       0.00296556       0.33230980       0.34434064 </v>
    <v>       0.21862787       0.52538225       0.83267170 </v>
    <v>       0.52158909       0.99504021       0.00491345 </v>
    <v>       0.24535573       0.83803495       0.49617910 </v>
    <v>       0.75670803       0.83613722       0.49680300 </v>
    <v>       0.24512624       0.50787152       0.17935833 </v>
    <v>       0.75311293       0.50074843       0.49189646 </v>
    <v>       0.75039702       0.83678910       0.17377955 </v>
    <v>       0.98020830       0.99844716       0.00692595 </v>
    <v>       0.77115944       0.50184211       0.82528113 </v>
    <v>       0.99830769       0.66770296       0.34031385 </v>
    <v>       0.25384009       0.15805775       0.49287679 </v>
    <v>       0.25827131       0.14298239       0.83095631 </v>
    <v>       0.50404910       0.99485393       0.65778540 </v>
    <v>       0.49907542       0.33064169       0.34652304 </v>
    <v>       0.74819514       0.16339777       0.17292054 </v>
    <v>       0.74962721       0.16118940       0.49746240 </v>
    <v>       0.24258877       0.84084899       0.83258531 </v>
    <v>       0.75164935       0.49092418       0.17679928 </v>
    <v>       0.02004133       0.33243164       0.99338753 </v>
    <v>       0.50682209       0.66276389       0.99365085 </v>
    <v>       0.25396614       0.16224649       0.17397905 </v>
    <v>       0.25030278       0.82882841       0.17109290 </v>
    <v>       0.48836293       0.33941868       0.66503261 </v>
    <v>       0.01303839       0.33205682       0.66157392 </v>
    <v>       0.74382832       0.16216379       0.83187914 </v>
    <v>       0.50363153       0.66889914       0.66305180 </v>
    <v>       0.48153403       0.34064129       0.98972784 </v>
   </varray>
  </structure>
  <varray name="forces" >
   <v>      -0.03387156      -0.03384450      -0.00392683 </v>
   <v>       0.01119723      -0.01271461      -0.01718013 </v>
   <v>       0.01902917       0.01131604       0.00286671 </v>
   <v>      -0.00116560       0.00285352      -0.00313914 </v>
   <v>      -0.01474005      -0.01513230      -0.01400737 </v>
   <v>      -0.00026376      -0.00065824      -0.00813890 </v>
   <v>       0.00262917      -0.00165171      -0.00695110 </v>
   <v>      -0.00099807      -0.01149534       0.03053401 </v>
   <v>      -0.00148372      -0.00272505      -0.00575547 </v>
   <v>       0.00231574      -0.00842908      -0.00105695 </v>
   <v>       0.01251632      -0.03089540      -0.00233847 </v>
   <v>       0.00941483       0.00390550       0.00994731 </v>
   <v>      -0.01350363       0.01302572       0.00114854 </v>
   <v>      -0.00270599      -0.00614110      -0.00490244 </v>
   <v>      -0.00934182      -0.00842194       0.00606041 </v>
   <v>       0.03381028      -0.00385447      -0.01989960 </v>
   <v>      -0.00007955       0.02512117       0.01319993 </v>
   <v>       0.02573036       0.02396251       0.01249992 </v>
   <v>       0.00721935      -0.00295423      -0.00991566 </v>
   <v>      -0.00200650       0.00327489       0.01024526 </v>
   <v>       0.00362804      -0.02326971      -0.01057051 </v>
   <v>       0.00263316      -0.01024535       0.00483674 </v>
   <v>      -0.00118957      -0.00443270      -0.00990388 </v>
   <v>      -0.01078009       0.00605127       0.01115183 </v>
   <v>       0.00761151       0.01258432       0.01201805 </v>
   <v>      -0.00728278       0.03107874      -0.00954174 </v>
   <v>       0.02180111       0.03137537      -0.02277898 </v>
   <v>      -0.02684677      -0.02795639       0.01039831 </v>
   <v>       0.01618100       0.00581008       0.01808011 </v>
   <v>       0.01444274       0.01290710       0.01593888 </v>
   <v>      -0.01509434       0.01259709       0.00407808 </v>
   <v>      -0.01457973       0.00428353       0.01035994 </v>
   <v>      -0.00024019      -0.00006220       0.00635103 </v>
   <v>      -0.03477748       0.00308424      -0.02538059 </v>
   <v>      -0.00934779      -0.01360554      -0.00267742 </v>
   <v>       0.01013898       0.01525878      -0.00164987 </v>
  </varray>
  <varray name="stress" >
   <v>       1.02878671       0.00151283      -0.00632588 </v>
   <v>       0.00151286       0.91004976       0.12723856 </v>
   <v>      -0.00632581       0.12723856       1.23486235 </v>
  </varray>
  <energy>
   <i name="e_fr_energy">   -379.42045560 </i>
   <i name="e_wo_entrp">   -379.42550528 </i>
   <i name="e_0_energy">      0.01514902 </i>
  </energy>
  <time name="totalsc">    8.66    9.42</time>
 </calculation>
 <calculation>
  <scstep>
   <time name="dav">    1.02    1.05</time>
   <time name="total">    1.11    1.35</time>
   <energy>
    <i name="alphaZ">   1604.89811577 </i>
    <i name="ewald"> -19131.78891253 </i>
    <i name="hartreedc">  -6209.99894601 </i>
    <i name="XCdc">   -497.57233703 </i>
    <i name="pawpsdc">  33538.59979275 </i>
    <i name="pawaedc"> -31771.28469188 </i>
    <i name="eentropy">      0.01516574 </i>
    <i name="bandstr">  -2299.35804739 </i>
    <i name="atom">  24387.06772941 </i>
    <i name="e_fr_energy">   -379.42213118 </i>
    <i name="e_wo_entrp">   -379.43729692 </i>
    <i name="e_0_energy">   -379.42718643 </i>
   </energy>
  </scstep>
  <scstep>
   <time name="diag">    0.08    0.08</time>
   <time name="diis">    0.75    0.75</time>
   <time name="orth">    0.01    0.01</time>
   <time name="total">    0.90    0.94</time>
   <energy>
    <i name="e_fr_energy">   -379.42175682 </i>
    <i name="e_wo_entrp">   -379.43679235 </i>
    <i name="e_0_energy">   -379.42676866 </i>
   </energy>
  </scstep>
  <scstep>
   <time name="diag">    0.07    0.07</time>
   <time name="diis">    0.78    0.79</time>
   <time name="orth">    0.01    0.01</time>
   <time name="total">    0.93    0.98</time>
   <energy>
    <i name="e_fr_energy">   -379.42105442 </i>
    <i name="e_wo_entrp">   -379.43612818 </i>
    <i name="e_0_energy">   -379.42607900 </i>
   </energy>
  </scstep>
  <scstep>
   <time name="diag">    0.07    0.07</time>
   <time name="diis">    0.88    0.88</time>
   <time name="orth">    0.01    0.01</time>
   <time name="total">    1.03    1.08</time>
   <energy>
    <i name="e_fr_energy">   -379.42079899 </i>
    <i name="e_wo_entrp">   -379.43599432 </i>
    <i name="e_0_energy">   -379.42586410 </i>
   </energy>
  </scstep>
  <scstep>
   <time name="diag">    0.07    0.07</time>
   <time name="diis">    0.85    0.85</time>
   <time name="orth">    0.01    0.01</time>
   <time name="total">    1.00    1.05</time>
   <energy>
    <i name="e_fr_energy">   -379.42072542 </i>
    <i name="e_wo_entrp">   -379.43583260 </i>
    <i name="e_0_energy">   -379.42576115 </i>
   </energy>
  </scstep>
  <scstep>
   <time name="diag">    0.13    0.13</time>
   <time name="diis">    0.79    0.79</time>
   <time name="orth">    0.01    0.01</time>
   <time name="total">    1.02    1.07</time>
   <energy>
    <i name="e_fr_energy">   -379.42072327 </i>
    <i name="e_wo_entrp">   -379.43583051 </i>
    <i name="e_0_energy">   -379.42575901 </i>
   </energy>
  </scstep>
  <scstep>
   <time name="diag">    0.12    0.12</time>
   <time name="diis">    0.43    0.44</time>
   <time name="orth">    0.02    0.02</time>
   <time name="total">    0.61    0.65</time>
   <energy>
    <i name="alphaZ">   1604.89811577 </i>
    <i name="ewald"> -19131.78891253 </i>
    <i name="hartreedc">  -6213.82394361 </i>
    <i name="XCdc">   -497.41634579 </i>
    <i name="pawpsdc">  33494.55514793 </i>
    <i name="pawaedc"> -31727.21508743 </i>
    <i name="eentropy">      0.01512562 </i>
    <i name="bandstr">  -2295.71254575 </i>
    <i name="atom">  24387.06772941 </i>
    <i name="e_fr_energy">   -379.42071640 </i>
    <i name="e_wo_entrp">   -379.43584202 </i>
    <i name="e_0_energy">   -379.42575827 </i>
   </energy>
  </scstep>
  <structure>
   <crystal>
    <varray name="basis" >
     <v>       6.77386752      -0.01860162      -0.00780343 </v>
     <v>      -0.02668392      10.09368520      -0.01148308 </v>
     <v>      -0.01142812      -0.01178785      10.16370833 </v>
    </varray>
    <i name="volume">    694.91927244 </i>
    <varray name="rec_basis" >
     <v>       0.14762742       0.00039046       0.00016645 </v>
     <v>       0.00027219       0.09907269       0.00011521 </v>
     <v>       0.00011365       0.00011223       0.09838954 </v>
    </varray>
   </crystal>
   <varray name="positions" >
    <v>       0.98890510       0.66990555       0.00163918 </v>
    <v>       0.49836653       0.66490442       0.34321280 </v>
    <v>       0.75743194       0.83980120       0.83000561 </v>
    <v>       0.24602088       0.50397922       0.48897784 </v>
    <v>       0.50888715       0.00003433       0.33841345 </v>
    <v>       0.99409748       0.99752862       0.33514460 </v>
    <v>       0.99889649       0.00436231       0.65966189 </v>
    <v>       0.99534744       0.66661127       0.65886717 </v>
    <v>       0.00298295       0.33234248       0.34431705 </v>
    <v>       0.21859782       0.52543327       0.83282657 </v>
    <v>       0.52163220       0.99493026       0.00491402 </v>
    <v>       0.24541494       0.83807513       0.49617722 </v>
    <v>       0.75664938       0.83617058       0.49681016 </v>
    <v>       0.24516883       0.50781742       0.17933394 </v>
    <v>       0.75309286       0.50069013       0.49191851 </v>
    <v>       0.75046278       0.83679175       0.17377118 </v>
    <v>       0.98018977       0.99873212       0.00694993 </v>
    <v>       0.77108414       0.50189674       0.82530422 </v>
    <v>       0.99832175       0.66768912       0.34046490 </v>
    <v>       0.25387137       0.15804464       0.49286793 </v>
    <v>       0.25828947       0.14299484       0.83095048 </v>
    <v>       0.50404855       0.99481624       0.65782892 </v>
    <v>       0.49906811       0.33068835       0.34649345 </v>
    <v>       0.74814088       0.16340196       0.17294089 </v>
    <v>       0.74958803       0.16120899       0.49747064 </v>
    <v>       0.24252257       0.84082319       0.83260574 </v>
    <v>       0.75173982       0.49100395       0.17670032 </v>
    <v>       0.01998202       0.33220056       0.99337835 </v>
    <v>       0.50670734       0.66279899       0.99368172 </v>
    <v>       0.25400449       0.16226262       0.17401206 </v>
    <v>       0.25018811       0.82877615       0.17102196 </v>
    <v>       0.48835995       0.33944260       0.66506413 </v>
    <v>       0.01301129       0.33210129       0.66160923 </v>
    <v>       0.74374500       0.16214923       0.83184153 </v>
    <v>       0.50361341       0.66887950       0.66311357 </v>
    <v>       0.48156817       0.34072502       0.98971181 </v>
   </varray>
  </structure>
  <varray name="forces" >
   <v>      -0.04698987      -0.03643371      -0.00030332 </v>
   <v>       0.01105912      -0.01496775      -0.01226999 </v>
   <v>       0.01941949       0.01578509       0.00498777 </v>
   <v>      -0.00202104       0.00501799      -0.00835211 </v>
   <v>      -0.01279754      -0.01250335      -0.01098217 </v>
   <v>      -0.00157666       0.00091592      -0.00372097 </v>
   <v>       0.00233064       0.00123116      -0.01224314 </v>
   <v>      -0.00205145      -0.01417582       0.03745260 </v>
   <v>      -0.00317023      -0.00326154      -0.00139238 </v>
   <v>       0.00025489      -0.01225940      -0.00862476 </v>
   <v>       0.01716613      -0.02845045      -0.00280097 </v>
   <v>       0.00702539       0.00251013       0.01006054 </v>
   <v>      -0.01147035       0.01264178      -0.00014599 </v>
   <v>      -0.00555059      -0.00470925      -0.00214599 </v>
   <v>      -0.00878248      -0.00668231       0.00145869 </v>
   <v>       0.03776398      -0.00278418      -0.02214343 </v>
   <v>      -0.00382790       0.01395331       0.01341156 </v>
   <v>       0.03412532       0.02509325       0.01328095 </v>
   <v>       0.00817401      -0.00277186      -0.01602201 </v>
   <v>      -0.00332729       0.00384175       0.01004017 </v>
   <v>       0.00519392      -0.02841779      -0.01084382 </v>
   <v>       0.00307565      -0.00955585      -0.00017604 </v>
   <v>       0.00055165      -0.00717273      -0.00603884 </v>
   <v>      -0.01124363       0.00348027       0.01329601 </v>
   <v>       0.00853690       0.01129779       0.01051451 </v>
   <v>      -0.00633479       0.03658685      -0.01072545 </v>
   <v>       0.02141180       0.03057681      -0.01566495 </v>
   <v>      -0.02699796      -0.01721598       0.01016022 </v>
   <v>       0.02307966       0.00560413       0.01654458 </v>
   <v>       0.01631428       0.01257379       0.01780420 </v>
   <v>      -0.01460869       0.01586051       0.00840715 </v>
   <v>      -0.01740597       0.00475587       0.00854546 </v>
   <v>       0.00118883      -0.00089429       0.00521617 </v>
   <v>      -0.03793213       0.00078119      -0.02697064 </v>
   <v>      -0.00862740      -0.01426014      -0.00705617 </v>
   <v>       0.00804432       0.01400881      -0.00255745 </v>
  </varray>
  <varray name="stress" >
   <v>      -0.53640198      -0.00804109      -0.01526191 </v>
   <v>      -0.00804118      -0.62589274       0.14183141 </v>
   <v>      -0.01526183       0.14183137      -0.28884490 </v>
  </varray>
  <energy>
   <i name="e_fr_energy">   -379.42071640 </i>
   <i name="e_wo_entrp">   -379.42575827 </i>
   <i name="e_0_energy">      0.01512562 </i>
  </energy>
  <time name="totalsc">    8.29    8.98</time>
 </calculation>
 <calculation>
  <scstep>
   <time name="dav">    0.94    0.94</time>
   <time name="total">    1.00    1.26</time>
   <energy>
    <i name="alphaZ">   1604.93970799 </i>
    <i name="ewald"> -19131.72613977 </i>
    <i name="hartreedc">  -6214.03316991 </i>
    <i name="XCdc">   -497.41150114 </i>
    <i name="pawpsdc">  33495.69638610 </i>
    <i name="pawaedc"> -31728.39501852 </i>
    <i name="eentropy">      0.01510560 </i>
    <i name="bandstr">  -2295.57417001 </i>
    <i name="atom">  24387.06772941 </i>
    <i name="e_fr_energy">   -379.42107027 </i>
    <i name="e_wo_entrp">   -379.43617587 </i>
    <i name="e_0_energy">   -379.42610547 </i>
[...]
       <r>    6.9327    1.0000 </r>
       <r>    6.9766    1.0000 </r>
       <r>    7.0157    1.0000 </r>
       <r>    7.0626    1.0000 </r>
       <r>    7.1055    1.0000 </r>
       <r>    7.1803    1.0004 </r>
       <r>    7.2200    1.0014 </r>
       <r>    7.2355    1.0021 </r>
       <r>    7.2819    1.0068 </r>
       <r>    7.2965    1.0093 </r>
       <r>    7.3382    1.0197 </r>
       <r>    7.3479    1.0226 </r>
       <r>    7.3789    1.0317 </r>
       <r>    7.3946    1.0347 </r>
       <r>    7.4234    1.0329 </r>
       <r>    7.4452    1.0206 </r>
       <r>    7.4914    0.9424 </r>
       <r>    7.4970    0.9269 </r>
       <r>    7.5380    0.7721 </r>
       <r>    7.5609    0.6573 </r>
       <r>    7.5787    0.5601 </r>
       <r>    7.6463    0.2030 </r>
       <r>    7.6948    0.0391 </r>
       <r>    7.7192   -0.0049 </r>
       <r>    7.7878   -0.0342 </r>
       <r>    7.8079   -0.0295 </r>
       <r>    7.8454   -0.0183 </r>
       <r>    7.8966   -0.0068 </r>
       <r>    7.9074   -0.0053 </r>
       <r>    7.9703   -0.0010 </r>
       <r>    8.0067   -0.0003 </r>
       <r>    8.0482   -0.0001 </r>
       <r>    8.0900   -0.0000 </r>
       <r>    8.1398   -0.0000 </r>
       <r>    8.1662   -0.0000 </r>
       <r>    8.3373   -0.0000 </r>
       <r>    8.4161   -0.0000 </r>
       <r>    8.6190   -0.0000 </r>
       <r>    8.7276   -0.0000 </r>
       <r>    8.8057   -0.0000 </r>
       <r>    9.5526   -0.0000 </r>
       <r>    9.5856   -0.0000 </r>
       <r>    9.6257   -0.0000 </r>
       <r>    9.6814   -0.0000 </r>
       <r>    9.7384   -0.0000 </r>
       <r>    9.7923   -0.0000 </r>
       <r>    9.8310   -0.0000 </r>
       <r>    9.9591   -0.0000 </r>
       <r>   10.0694   -0.0000 </r>
      </set>
     </set>
    </set>
   </array>
  </eigenvalues>
  <separator name="orbital magnetization" >
   <v name="MAGDIPOLOUT">      0.00000000      0.00000000      0.00000000</v>
  </separator>
  <dos>
   <i name="efermi">      7.58938217 </i>
   <total>
    <array>
     <dimension dim="1">gridpoints</dimension>
     <dimension dim="2">spin</dimension>
     <field>energy</field>
     <field>total</field>
     <field>integrated</field>
     <set>
      <set comment="spin 1">
       <r>   -49.4658     0.0000     0.0000 </r>
       <r>   -49.2579     0.0000     0.0000 </r>
       <r>   -49.0500     0.0000     0.0000 </r>
       <r>   -48.8421     0.0000     0.0000 </r>
       <r>   -48.6342     0.0000     0.0000 </r>
       <r>   -48.4262     0.0000     0.0000 </r>
       <r>   -48.2183     0.0000     0.0000 </r>
       <r>   -48.0104    -0.0000    -0.0000 </r>
       <r>   -47.8025    -0.0000    -0.0000 </r>
       <r>   -47.5946    -0.0000    -0.0000 </r>
       <r>   -47.3867    -0.0000    -0.0000 </r>
       <r>   -47.1788    -0.0000    -0.0000 </r>
       <r>   -46.9709    -0.0460    -0.0096 </r>
       <r>   -46.7630    -1.8702    -0.3984 </r>
       <r>   -46.5551    37.5285     7.4038 </r>
       <r>   -46.3472    62.6884    20.4368 </r>
       <r>   -46.1393    -1.9667    20.0279 </r>
       <r>   -45.9314    -0.1341    20.0000 </r>
       <r>   -45.7235    -0.0001    20.0000 </r>
       <r>   -45.5156    -0.0000    20.0000 </r>
       <r>   -45.3077     0.0000    20.0000 </r>
       <r>   -45.0998     0.0000    20.0000 </r>
       <r>   -44.8919     0.0000    20.0000 </r>
       <r>   -44.6840     0.0000    20.0000 </r>
       <r>   -44.4761     0.0000    20.0000 </r>
       <r>   -44.2682     0.0000    20.0000 </r>
       <r>   -44.0603     0.0000    20.0000 </r>
       <r>   -43.8524     0.0000    20.0000 </r>
       <r>   -43.6445     0.0000    20.0000 </r>
       <r>   -43.4366     0.0000    20.0000 </r>
       <r>   -43.2287     0.0000    20.0000 </r>
       <r>   -43.0208     0.0000    20.0000 </r>
       <r>   -42.8129     0.0000    20.0000 </r>
       <r>   -42.6050     0.0000    20.0000 </r>
       <r>   -42.3971     0.0000    20.0000 </r>
       <r>   -42.1892     0.0000    20.0000 </r>
       <r>   -41.9813     0.0000    20.0000 </r>
       <r>   -41.7734    -0.0000    20.0000 </r>
       <r>   -41.5655    -0.0000    20.0000 </r>
       <r>   -41.3576    -0.0000    20.0000 </r>
       <r>   -41.1497    -0.0000    20.0000 </r>
       <r>   -40.9418    -0.0018    19.9996 </r>
       <r>   -40.7339    -0.5497    19.8853 </r>
       <r>   -40.5260     6.8777    21.3152 </r>
       <r>   -40.3181    40.4489    29.7246 </r>
       <r>   -40.1102     1.5676    30.0505 </r>
       <r>   -39.9023    -0.2426    30.0001 </r>
       <r>   -39.6944    -0.0003    30.0000 </r>
       <r>   -39.4865    -0.0000    30.0000 </r>
       <r>   -39.2786    -0.0000    30.0000 </r>
       <r>   -39.0707     0.0000    30.0000 </r>
       <r>   -38.8628     0.0000    30.0000 </r>
       <r>   -38.6549     0.0000    30.0000 </r>
       <r>   -38.4470     0.0000    30.0000 </r>
       <r>   -38.2391     0.0000    30.0000 </r>
       <r>   -38.0312     0.0000    30.0000 </r>
       <r>   -37.8233     0.0000    30.0000 </r>
       <r>   -37.6154     0.0000    30.0000 </r>
       <r>   -37.4075     0.0000    30.0000 </r>
       <r>   -37.1996     0.0000    30.0000 </r>
       <r>   -36.9917     0.0000    30.0000 </r>
       <r>   -36.7838     0.0000    30.0000 </r>
       <r>   -36.5759     0.0000    30.0000 </r>
       <r>   -36.3680     0.0000    30.0000 </r>
       <r>   -36.1601     0.0000    30.0000 </r>
       <r>   -35.9522     0.0000    30.0000 </r>
       <r>   -35.7443     0.0000    30.0000 </r>
       <r>   -35.5364     0.0000    30.0000 </r>
       <r>   -35.3285     0.0000    30.0000 </r>
       <r>   -35.1206     0.0000    30.0000 </r>
       <r>   -34.9127     0.0000    30.0000 </r>
       <r>   -34.7048     0.0000    30.0000 </r>
       <r>   -34.4969     0.0000    30.0000 </r>
       <r>   -34.2890     0.0000    30.0000 </r>
       <r>   -34.0811     0.0000    30.0000 </r>
       <r>   -33.8732     0.0000    30.0000 </r>
       <r>   -33.6653     0.0000    30.0000 </r>
       <r>   -33.4574     0.0000    30.0000 </r>
       <r>   -33.2495     0.0000    30.0000 </r>
       <r>   -33.0416     0.0000    30.0000 </r>
       <r>   -32.8337     0.0000    30.0000 </r>
       <r>   -32.6258     0.0000    30.0000 </r>
       <r>   -32.4179     0.0000    30.0000 </r>
       <r>   -32.2100     0.0000    30.0000 </r>
       <r>   -32.0021     0.0000    30.0000 </r>
       <r>   -31.7942     0.0000    30.0000 </r>
       <r>   -31.5863     0.0000    30.0000 </r>
       <r>   -31.3784     0.0000    30.0000 </r>
       <r>   -31.1705     0.0000    30.0000 </r>
       <r>   -30.9626     0.0000    30.0000 </r>
       <r>   -30.7547     0.0000    30.0000 </r>
       <r>   -30.5468     0.0000    30.0000 </r>
       <r>   -30.3389     0.0000    30.0000 </r>
       <r>   -30.1310     0.0000    30.0000 </r>
       <r>   -29.9231     0.0000    30.0000 </r>
       <r>   -29.7152     0.0000    30.0000 </r>
       <r>   -29.5073     0.0000    30.0000 </r>
       <r>   -29.2994     0.0000    30.0000 </r>
       <r>   -29.0915     0.0000    30.0000 </r>
       <r>   -28.8836     0.0000    30.0000 </r>
       <r>   -28.6757     0.0000    30.0000 </r>
       <r>   -28.4678     0.0000    30.0000 </r>
       <r>   -28.2599     0.0000    30.0000 </r>
       <r>   -28.0520     0.0000    30.0000 </r>
       <r>   -27.8441     0.0000    30.0000 </r>
       <r>   -27.6362     0.0000    30.0000 </r>
       <r>   -27.4283     0.0000    30.0000 </r>
       <r>   -27.2204     0.0000    30.0000 </r>
       <r>   -27.0125     0.0000    30.0000 </r>
       <r>   -26.8046     0.0000    30.0000 </r>
       <r>   -26.5967     0.0000    30.0000 </r>
       <r>   -26.3888     0.0000    30.0000 </r>
       <r>   -26.1809     0.0000    30.0000 </r>
       <r>   -25.9730     0.0000    30.0000 </r>
       <r>   -25.7651     0.0000    30.0000 </r>
       <r>   -25.5572     0.0000    30.0000 </r>
       <r>   -25.3493     0.0000    30.0000 </r>
       <r>   -25.1414     0.0000    30.0000 </r>
       <r>   -24.9335     0.0000    30.0000 </r>
       <r>   -24.7256     0.0000    30.0000 </r>
       <r>   -24.5177     0.0000    30.0000 </r>
       <r>   -24.3098    -0.0000    30.0000 </r>
       <r>   -24.1019    -0.0000    30.0000 </r>
       <r>   -23.8940    -0.0000    30.0000 </r>
       <r>   -23.6861    -0.0000    30.0000 </r>
       <r>   -23.4782    -0.0074    29.9985 </r>
       <r>   -23.2703    -0.7391    29.8448 </r>
       <r>   -23.0624    10.4896    32.0256 </r>
       <r>   -22.8545    39.3706    40.2108 </r>
       <r>   -22.6466   104.2586    61.8862 </r>
       <r>   -22.4387    95.6003    81.7615 </r>
       <r>   -22.2308    39.4938    89.9723 </r>
       <r>   -22.0229     0.3223    90.0393 </r>
       <r>   -21.8150    -0.1889    90.0000 </r>
       <r>   -21.6071    -0.0002    90.0000 </r>
       <r>   -21.3992    -0.0000    90.0000 </r>
       <r>   -21.1913     0.0000    90.0000 </r>
       <r>   -20.9834     0.0000    90.0000 </r>
       <r>   -20.7755     0.0000    90.0000 </r>
       <r>   -20.5676     0.0000    90.0000 </r>
       <r>   -20.3597     0.0000    90.0000 </r>
       <r>   -20.1518    -0.0000    90.0000 </r>
       <r>   -19.9439    -0.0000    90.0000 </r>
       <r>   -19.7360    -0.0000    90.0000 </r>
       <r>   -19.5281    -0.0000    90.0000 </r>
       <r>   -19.3202    -0.0013    89.9997 </r>
       <r>   -19.1123    -0.3538    89.9262 </r>
       <r>   -18.9044     4.2452    90.8087 </r>
       <r>   -18.6965    24.0095    95.8003 </r>
       <r>   -18.4886    71.9085   110.7501 </r>
       <r>   -18.2807    37.9143   118.6325 </r>
       <r>   -18.0728     7.1460   120.1182 </r>
       <r>   -17.8649    -0.5647   120.0008 </r>
       <r>   -17.6570    -0.0039   120.0000 </r>
       <r>   -17.4491    -0.0000   120.0000 </r>
       <r>   -17.2412    -0.0000   120.0000 </r>
       <r>   -17.0333     0.0000   120.0000 </r>
       <r>   -16.8254     0.0000   120.0000 </r>
       <r>   -16.6175     0.0000   120.0000 </r>
       <r>   -16.4096     0.0000   120.0000 </r>
       <r>   -16.2017     0.0000   120.0000 </r>
       <r>   -15.9938     0.0000   120.0000 </r>
       <r>   -15.7859     0.0000   120.0000 </r>
       <r>   -15.5780     0.0000   120.0000 </r>
       <r>   -15.3701     0.0000   120.0000 </r>
       <r>   -15.1622     0.0000   120.0000 </r>
       <r>   -14.9543     0.0000   120.0000 </r>
       <r>   -14.7464     0.0000   120.0000 </r>
       <r>   -14.5385     0.0000   120.0000 </r>
       <r>   -14.3306     0.0000   120.0000 </r>
       <r>   -14.1227     0.0000   120.0000 </r>
       <r>   -13.9148     0.0000   120.0000 </r>
       <r>   -13.7069     0.0000   120.0000 </r>
       <r>   -13.4990     0.0000   120.0000 </r>
       <r>   -13.2911     0.0000   120.0000 </r>
       <r>   -13.0832     0.0000   120.0000 </r>
       <r>   -12.8753     0.0000   120.0000 </r>
       <r>   -12.6674     0.0000   120.0000 </r>
       <r>   -12.4595     0.0000   120.0000 </r>
       <r>   -12.2516     0.0000   120.0000 </r>
       <r>   -12.0437     0.0000   120.0000 </r>
       <r>   -11.8358     0.0000   120.0000 </r>
       <r>   -11.6279     0.0000   120.0000 </r>
       <r>   -11.4200     0.0000   120.0000 </r>
       <r>   -11.2121     0.0000   120.0000 </r>
       <r>   -11.0042     0.0000   120.0000 </r>
       <r>   -10.7963     0.0000   120.0000 </r>
       <r>   -10.5884     0.0000   120.0000 </r>
       <r>   -10.3805     0.0000   120.0000 </r>
       <r>   -10.1726     0.0000   120.0000 </r>
       <r>    -9.9647     0.0000   120.0000 </r>
       <r>    -9.7568     0.0000   120.0000 </r>
       <r>    -9.5489     0.0000   120.0000 </r>
       <r>    -9.3410     0.0000   120.0000 </r>
       <r>    -9.1331     0.0000   120.0000 </r>
       <r>    -8.9252     0.0000   120.0000 </r>
       <r>    -8.7173     0.0000   120.0000 </r>
       <r>    -8.5094     0.0000   120.0000 </r>
       <r>    -8.3015     0.0000   120.0000 </r>
       <r>    -8.0936     0.0000   120.0000 </r>
       <r>    -7.8857     0.0000   120.0000 </r>
       <r>    -7.6778     0.0000   120.0000 </r>
       <r>    -7.4699     0.0000   120.0000 </r>
       <r>    -7.2620     0.0000   120.0000 </r>
       <r>    -7.0541     0.0000   120.0000 </r>
       <r>    -6.8462     0.0000   120.0000 </r>
       <r>    -6.6383     0.0000   120.0000 </r>
       <r>    -6.4304     0.0000   120.0000 </r>
       <r>    -6.2224     0.0000   120.0000 </r>
       <r>    -6.0145     0.0000   120.0000 </r>
       <r>    -5.8066     0.0000   120.0000 </r>
       <r>    -5.5987     0.0000   120.0000 </r>
       <r>    -5.3908     0.0000   120.0000 </r>
       <r>    -5.1829     0.0000   120.0000 </r>
       <r>    -4.9750     0.0000   120.0000 </r>
       <r>    -4.7671     0.0000   120.0000 </r>
       <r>    -4.5592     0.0000   120.0000 </r>
       <r>    -4.3513     0.0000   120.0000 </r>
       <r>    -4.1434     0.0000   120.0000 </r>
       <r>    -3.9355     0.0000   120.0000 </r>
       <r>    -3.7276     0.0000   120.0000 </r>
       <r>    -3.5197     0.0000   120.0000 </r>
       <r>    -3.3118     0.0000   120.0000 </r>
       <r>    -3.1039     0.0000   120.0000 </r>
       <r>    -2.8960     0.0000   120.0000 </r>
       <r>    -2.6881     0.0000   120.0000 </r>
       <r>    -2.4802     0.0000   120.0000 </r>
       <r>    -2.2723     0.0000   120.0000 </r>
       <r>    -2.0644     0.0000   120.0000 </r>
       <r>    -1.8565     0.0000   120.0000 </r>
       <r>    -1.6486     0.0000   120.0000 </r>
       <r>    -1.4407     0.0000   120.0000 </r>
       <r>    -1.2328     0.0000   120.0000 </r>
       <r>    -1.0249     0.0000   120.0000 </r>
       <r>    -0.8170     0.0000   120.0000 </r>
       <r>    -0.6091    -0.0000   120.0000 </r>
       <r>    -0.4012    -0.0000   120.0000 </r>
       <r>    -0.1933    -0.0000   120.0000 </r>
       <r>     0.0146    -0.0000   120.0000 </r>
       <r>     0.2225    -0.0003   119.9999 </r>
       <r>     0.4304    -0.0128   119.9973 </r>
       <r>     0.6383     0.2011   120.0391 </r>
       <r>     0.8462     0.8513   120.2161 </r>
       <r>     1.0541     1.4110   120.5094 </r>
       <r>     1.2620     1.6649   120.8556 </r>
       <r>     1.4699     2.8512   121.4483 </r>
       <r>     1.6778     4.7166   122.4289 </r>
       <r>     1.8857     1.6324   122.7683 </r>
       <r>     2.0936     4.4679   123.6972 </r>
       <r>     2.3015     3.4766   124.4200 </r>
       <r>     2.5094     3.3375   125.1139 </r>
       <r>     2.7173     5.5084   126.2591 </r>
       <r>     2.9252     8.7109   128.0701 </r>
       <r>     3.1331     8.5443   129.8464 </r>
       <r>     3.3410     7.6379   131.4344 </r>
       <r>     3.5489     8.5913   133.2205 </r>
       <r>     3.7568    14.9682   136.3324 </r>
       <r>     3.9647    20.3893   140.5713 </r>
       <r>     4.1726    21.8765   145.1195 </r>
       <r>     4.3805    26.7105   150.6726 </r>
       <r>     4.5884    32.4642   157.4219 </r>
       <r>     4.7963    35.8823   164.8818 </r>
       <r>     5.0042    38.2435   172.8327 </r>
       <r>     5.2121    37.9540   180.7233 </r>
       <r>     5.4200    33.9635   187.7844 </r>
       <r>     5.6279    34.7023   194.9990 </r>
       <r>     5.8358    23.4035   199.8646 </r>
       <r>     6.0437    13.2013   202.6092 </r>
       <r>     6.2516    56.3385   214.3219 </r>
       <r>     6.4595    68.9565   228.6580 </r>
       <r>     6.6674    56.1641   240.3346 </r>
       <r>     6.8753    48.6000   250.4386 </r>
       <r>     7.0832    48.1821   260.4556 </r>
       <r>     7.2911    57.7272   272.4572 </r>
       <r>     7.4990    57.8727   284.4889 </r>
       <r>     7.7069    49.1915   294.7159 </r>
       <r>     7.9148    47.1017   304.5083 </r>
       <r>     8.1227    42.3877   313.3208 </r>
       <r>     8.3306    31.3005   319.8282 </r>
       <r>     8.5385    23.5372   324.7216 </r>
       <r>     8.7464    16.1034   328.0695 </r>
       <r>     8.9543    13.7907   330.9365 </r>
       <r>     9.1622     9.7284   332.9591 </r>
       <r>     9.3701    21.1631   337.3589 </r>
       <r>     9.5780    27.8107   343.1408 </r>
       <r>     9.7859    24.0724   348.1454 </r>
       <r>     9.9938    14.7136   351.2044 </r>
       <r>    10.2017     4.0642   352.0493 </r>
       <r>    10.4096    -0.2315   352.0012 </r>
       <r>    10.6175    -0.0058   352.0000 </r>
       <r>    10.8254    -0.0000   352.0000 </r>
       <r>    11.0333    -0.0000   352.0000 </r>
       <r>    11.2412     0.0000   352.0000 </r>
       <r>    11.4491     0.0000   352.0000 </r>
       <r>    11.6570     0.0000   352.0000 </r>
       <r>    11.8649     0.0000   352.0000 </r>
       <r>    12.0728     0.0000   352.0000 </r>
       <r>    12.2807     0.0000   352.0000 </r>
       <r>    12.4886     0.0000   352.0000 </r>
       <r>    12.6965     0.0000   352.0000 </r>
       <r>    12.9044     0.0000   352.0000 </r>
      </set>
     </set>
    </array>
   </total>
  </dos>
 </calculation>
 <structure name="finalpos" >
  <crystal>
   <varray name="basis" >
    <v>       6.77268356      -0.02152925      -0.00643784 </v>
    <v>      -0.03105449      10.08813940      -0.00764823 </v>
    <v>      -0.00935768      -0.00790578      10.16751994 </v>
   </varray>
   <i name="volume">    694.67553564 </i>
   <varray name="rec_basis" >
    <v>       0.14765353       0.00045463       0.00013625 </v>
    <v>       0.00031518       0.09912734       0.00007737 </v>
    <v>       0.00009373       0.00007485       0.09835255 </v>
   </varray>
  </crystal>
  <varray name="positions" >
   <v>       0.98872435       0.66920514       0.00123504 </v>
   <v>       0.49870949       0.66478801       0.34280640 </v>
   <v>       0.75830556       0.83965943       0.83003572 </v>
   <v>       0.24600473       0.50414389       0.48888368 </v>
   <v>       0.50893580      -0.00038553       0.33825967 </v>
   <v>       0.99435181       0.99755167       0.33523596 </v>
   <v>       0.99866134       0.00446384       0.65926476 </v>
   <v>       0.99548691       0.66656701       0.65935018 </v>
   <v>       0.00286499       0.33239967       0.34433163 </v>
   <v>       0.21855045       0.52477542       0.83326083 </v>
   <v>       0.52225387       0.99372746       0.00506599 </v>
   <v>       0.24583030       0.83793565       0.49608552 </v>
   <v>       0.75643043       0.83610307       0.49664091 </v>
   <v>       0.24477311       0.50726892       0.17910380 </v>
   <v>       0.75303414       0.50046046       0.49183203 </v>
   <v>       0.75267159       0.83669632       0.17342183 </v>
   <v>       0.98057026       0.00059809       0.00720502 </v>
   <v>       0.77155744       0.50273106       0.82607752 </v>
   <v>       0.99875100       0.66757418       0.34051094 </v>
   <v>       0.25346184       0.15810718       0.49304323 </v>
   <v>       0.25914793       0.14281117       0.83079313 </v>
   <v>       0.50386590       0.99398255       0.65735857 </v>
   <v>       0.49919162       0.33082126       0.34634563 </v>
   <v>       0.74718189       0.16330514       0.17377589 </v>
   <v>       0.74937064       0.16169959       0.49767054 </v>
   <v>       0.24233293       0.84130501       0.83267807 </v>
   <v>       0.75248679       0.49187185       0.17637834 </v>
   <v>       0.01831740       0.33089539       0.99367658 </v>
   <v>       0.50713963       0.66381369       0.99410781 </v>
   <v>       0.25575001       0.16259349       0.17440345 </v>
   <v>       0.24916529       0.82911376       0.17082142 </v>
   <v>       0.48729184       0.34001270       0.66533076 </v>
   <v>       0.01277170       0.33206913       0.66196518 </v>
   <v>       0.74092503       0.16155225       0.83045892 </v>
   <v>       0.50335805       0.66849884       0.66288612 </v>
   <v>       0.48177294       0.34129725       0.98970189 </v>
  </varray>
 </structure>
</modeling>
