       N       E                     dE             d eps       ncg     rms          rms(c)
DAV:   1     0.169411193438E+04    0.16941E+04   -0.10495E+05  5320   0.103E+03
DAV:   2    -0.124339965733E+03   -0.18185E+04   -0.17548E+04  5612   0.376E+02
DAV:   3    -0.352012454591E+03   -0.22767E+03   -0.21590E+03  8184   0.920E+01
DAV:   4    -0.378276794739E+03   -0.26264E+02   -0.25034E+02  8152   0.290E+01
DAV:   5    -0.380809959736E+03   -0.25332E+01   -0.24848E+01  7784   0.922E+00    0.635E+01
RMM:   6    -0.370293294819E+03    0.10517E+02   -0.20709E+01  6605   0.964E+00    0.306E+01
RMM:   7    -0.369783156187E+03    0.51014E+00   -0.23110E+01  7005   0.893E+00    0.925E+00
RMM:   8    -0.366179034145E+03    0.36041E+01   -0.46373E+00  7515   0.346E+00    0.422E+00
RMM:   9    -0.366015057578E+03    0.16398E+00   -0.19774E+00  7364   0.195E+00    0.285E+00
RMM:  10    -0.365950867318E+03    0.64190E-01   -0.39414E-01  7445   0.117E+00    0.139E+00
RMM:  11    -0.365922035588E+03    0.28832E-01   -0.12715E-01  7342   0.574E-01    0.719E-01
RMM:  12    -0.365917965150E+03    0.40704E-02   -0.49038E-02  7468   0.352E-01    0.473E-01
RMM:  13    -0.365915834537E+03    0.21306E-02   -0.16455E-02  7468   0.187E-01    0.264E-01
RMM:  14    -0.365915742804E+03    0.91733E-04   -0.62149E-03  7545   0.107E-01    0.149E-01
RMM:  15    -0.365915762211E+03   -0.19406E-04   -0.29415E-03  7447   0.673E-02    0.699E-02
RMM:  16    -0.365915799522E+03   -0.37311E-04   -0.12491E-03  6913   0.386E-02    0.340E-02
RMM:  17    -0.365915805278E+03   -0.57558E-05   -0.49697E-04  6187   0.251E-02    0.182E-02
RMM:  18    -0.365915810988E+03   -0.57100E-05   -0.19496E-04  5182   0.166E-02    0.105E-02
RMM:  19    -0.365915815958E+03   -0.49702E-05   -0.10162E-04  4447   0.131E-02    0.597E-03
RMM:  20    -0.365915816187E+03   -0.22876E-06   -0.38439E-05  3792   0.103E-02
   1 F= -.36591582E+03 E0= -.36592611E+03  d E =-.365916E+03
       N       E                     dE             d eps       ncg     rms          rms(c)
DAV:   1    -0.365917333366E+03   -0.15174E-02   -0.52496E-02  5548   0.671E-01    0.187E-01
RMM:   2    -0.365917215003E+03    0.11836E-03   -0.37797E-03  7243   0.159E-01    0.775E-02
RMM:   3    -0.365917029120E+03    0.18588E-03   -0.73037E-04  7353   0.517E-02    0.542E-02
RMM:   4    -0.365916968500E+03    0.60620E-04   -0.19826E-04  7047   0.286E-02    0.288E-02
RMM:   5    -0.365916958285E+03    0.10215E-04   -0.69380E-05  5268   0.176E-02    0.196E-02
RMM:   6    -0.365916962081E+03   -0.37965E-05   -0.19570E-05  3070   0.111E-02
   2 F= -.36591696E+03 E0= -.36592725E+03  d E =-.114589E-02
       N       E                     dE             d eps       ncg     rms          rms(c)
DAV:   1    -0.365922157360E+03   -0.51991E-02   -0.47072E-01  5264   0.202E+00    0.554E-01
RMM:   2    -0.365921195734E+03    0.96163E-03   -0.33270E-02  7238   0.482E-01    0.230E-01
RMM:   3    -0.365919479996E+03    0.17157E-02   -0.62377E-03  7425   0.152E-01    0.163E-01
RMM:   4    -0.365918929671E+03    0.55033E-03   -0.17075E-03  7504   0.828E-02    0.875E-02
RMM:   5    -0.365918822143E+03    0.10753E-03   -0.59342E-04  7545   0.485E-02    0.609E-02
RMM:   6    -0.365918838578E+03   -0.16435E-04   -0.23306E-04  6926   0.261E-02    0.423E-02
RMM:   7    -0.365918855395E+03   -0.16817E-04   -0.10339E-04  5967   0.179E-02    0.234E-02
RMM:   8    -0.365918869195E+03   -0.13801E-04   -0.62029E-05  4265   0.141E-02    0.149E-02
RMM:   9    -0.365918879609E+03   -0.10413E-04   -0.34248E-05  3881   0.119E-02    0.946E-03
RMM:  10    -0.365918885026E+03   -0.54175E-05   -0.10208E-05  3019   0.102E-02
   3 F= -.36591889E+03 E0= -.36592911E+03  d E =-.306884E-02
       N       E                     dE             d eps       ncg     rms          rms(c)
DAV:   1    -0.365919350674E+03   -0.47106E-03   -0.51651E-02  5280   0.667E-01    0.183E-01
RMM:   2    -0.365919241364E+03    0.10931E-03   -0.35806E-03  7196   0.158E-01    0.755E-02
RMM:   3    -0.365919057962E+03    0.18340E-03   -0.67153E-04  7280   0.503E-02    0.517E-02
RMM:   4    -0.365919003068E+03    0.54894E-04   -0.18434E-04  6876   0.272E-02    0.275E-02
RMM:   5    -0.365918993999E+03    0.90696E-05   -0.60400E-05  4991   0.175E-02
   4 F= -.36591899E+03 E0= -.36592919E+03  d E =-.317781E-02
       N       E                     dE             d eps       ncg     rms          rms(c)
DAV:   1    -0.365920288285E+03   -0.12852E-02   -0.63151E-02  5360   0.724E-01    0.196E-01
RMM:   2    -0.365920298119E+03   -0.98341E-05   -0.42059E-03  7189   0.167E-01    0.861E-02
RMM:   3    -0.365920093699E+03    0.20442E-03   -0.84791E-04  7402   0.549E-02    0.611E-02
RMM:   4    -0.365920012924E+03    0.80775E-04   -0.24293E-04  7114   0.306E-02    0.295E-02
RMM:   5    -0.365919995974E+03    0.16950E-04   -0.78179E-05  5710   0.186E-02    0.181E-02
RMM:   6    -0.365919992300E+03    0.36744E-05   -0.21136E-05  3053   0.111E-02
   5 F= -.36591999E+03 E0= -.36593022E+03  d E =-.998301E-03
       N       E                     dE             d eps       ncg     rms          rms(c)
DAV:   1    -0.365923777449E+03   -0.37815E-02   -0.56341E-01  5048   0.217E+00    0.549E-01
RMM:   2    -0.365923757261E+03    0.20188E-04   -0.35822E-02  7042   0.504E-01    0.238E-01
RMM:   3    -0.365922002416E+03    0.17548E-02   -0.63620E-03  7392   0.160E-01    0.168E-01
RMM:   4    -0.365921363037E+03    0.63938E-03   -0.18223E-03  7469   0.853E-02    0.851E-02
RMM:   5    -0.365921248163E+03    0.11487E-03   -0.62325E-04  7526   0.501E-02    0.586E-02
RMM:   6    -0.365921242692E+03    0.54716E-05   -0.23204E-04  6810   0.257E-02    0.412E-02
RMM:   7    -0.365921235335E+03    0.73565E-05   -0.11033E-04  6015   0.179E-02    0.237E-02
RMM:   8    -0.365921232252E+03    0.30835E-05   -0.61387E-05  4251   0.146E-02
   6 F= -.36592123E+03 E0= -.36593153E+03  d E =-.223825E-02
       N       E                     dE             d eps       ncg     rms          rms(c)
DAV:   1    -0.365921234501E+03    0.83435E-06   -0.18054E-03  5388   0.123E-01    0.301E-02
RMM:   2    -0.365921235399E+03   -0.89762E-06   -0.12167E-04  6448   0.278E-02    0.136E-02
RMM:   3    -0.365921228415E+03    0.69835E-05   -0.17279E-05  3020   0.993E-03
   7 F= -.36592123E+03 E0= -.36593153E+03  d E =-.223442E-02
       N       E                     dE             d eps       ncg     rms          rms(c)
DAV:   1    -0.365921387150E+03   -0.15175E-03   -0.98990E-03  5032   0.286E-01    0.286E-02
RMM:   2    -0.365921411435E+03   -0.24286E-04   -0.40424E-04  6825   0.593E-02    0.153E-02
RMM:   3    -0.365921407242E+03    0.41929E-05   -0.45963E-05  3964   0.158E-02
   8 F= -.36592141E+03 E0= -.36593171E+03  d E =-.178827E-03
       N       E                     dE             d eps       ncg     rms          rms(c)
DAV:   1    -0.365921674043E+03   -0.26261E-03   -0.88959E-02  4920   0.857E-01    0.874E-02
RMM:   2    -0.365921893176E+03   -0.21913E-03   -0.36328E-03  7110   0.177E-01    0.480E-02
RMM:   3    -0.365921871580E+03    0.21596E-04   -0.50933E-04  7031   0.450E-02    0.376E-02
RMM:   4    -0.365921848910E+03    0.22670E-04   -0.13951E-04  6327   0.205E-02    0.184E-02
RMM:   5    -0.365921847093E+03    0.18170E-05   -0.50413E-05  3975   0.119E-02
   9 F= -.36592185E+03 E0= -.36593217E+03  d E =-.618678E-03
       N       E                     dE             d eps       ncg     rms          rms(c)
DAV:   1    -0.365921538940E+03    0.30997E-03   -0.35555E-01  4872   0.172E+00    0.170E-01
RMM:   2    -0.365922451838E+03   -0.91290E-03   -0.14330E-02  7122   0.354E-01    0.933E-02
RMM:   3    -0.365922364409E+03    0.87429E-04   -0.19287E-03  7333   0.891E-02    0.727E-02
RMM:   4    -0.365922278492E+03    0.85917E-04   -0.48659E-04  7592   0.384E-02    0.359E-02
RMM:   5    -0.365922276695E+03    0.17971E-05   -0.19567E-04  6365   0.245E-02    0.191E-02
RMM:   6    -0.365922274311E+03    0.23835E-05   -0.82786E-05  4744   0.152E-02
  10 F= -.36592227E+03 E0= -.36593264E+03  d E =-.104590E-02
       N       E                     dE             d eps       ncg     rms          rms(c)
DAV:   1    -0.365923204267E+03   -0.92757E-03   -0.61415E-02  5416   0.832E-01    0.267E-01
RMM:   2    -0.365922925016E+03    0.27925E-03   -0.68548E-03  7248   0.224E-01    0.105E-01
RMM:   3    -0.365922580353E+03    0.34466E-03   -0.12932E-03  7414   0.666E-02    0.747E-02
RMM:   4    -0.365922449449E+03    0.13090E-03   -0.36692E-04  7333   0.395E-02    0.385E-02
RMM:   5    -0.365922430079E+03    0.19370E-04   -0.11710E-04  6138   0.237E-02    0.261E-02
RMM:   6    -0.365922435934E+03   -0.58551E-05   -0.42207E-05  3723   0.139E-02
  11 F= -.36592244E+03 E0= -.36593279E+03  d E =-.161623E-03
       N       E                     dE             d eps       ncg     rms          rms(c)
DAV:   1    -0.365922446895E+03   -0.16816E-04   -0.68836E-04  6024   0.912E-02    0.233E-02
RMM:   2    -0.365922449179E+03   -0.22847E-05   -0.76399E-05  4573   0.240E-02
  12 F= -.36592245E+03 E0= -.36593280E+03  d E =-.174868E-03
       N       E                     dE             d eps       ncg     rms          rms(c)
DAV:   1    -0.365922582876E+03   -0.13598E-03   -0.32650E-02  4928   0.518E-01    0.597E-02
RMM:   2    -0.365922650303E+03   -0.67427E-04   -0.13902E-03  7224   0.108E-01    0.345E-02
RMM:   3    -0.365922642025E+03    0.82781E-05   -0.19872E-04  6605   0.279E-02    0.254E-02
RMM:   4    -0.365922634974E+03    0.70518E-05   -0.62729E-05  4995   0.144E-02
  13 F= -.36592263E+03 E0= -.36593300E+03  d E =-.185794E-03
       N       E                     dE             d eps       ncg     rms          rms(c)
DAV:   1    -0.365922416583E+03    0.22544E-03   -0.29194E-01  4824   0.155E+00    0.176E-01
RMM:   2    -0.365922991647E+03   -0.57506E-03   -0.12301E-02  7231   0.321E-01    0.977E-02
RMM:   3    -0.365922905591E+03    0.86056E-04   -0.17434E-03  7335   0.814E-02    0.726E-02
RMM:   4    -0.365922816827E+03    0.88763E-04   -0.51669E-04  7378   0.394E-02    0.358E-02
RMM:   5    -0.365922811523E+03    0.53041E-05   -0.22381E-04  6680   0.254E-02    0.201E-02
RMM:   6    -0.365922807296E+03    0.42269E-05   -0.79667E-05  4765   0.150E-02
  14 F= -.36592281E+03 E0= -.36593321E+03  d E =-.358117E-03
       N       E                     dE             d eps       ncg     rms          rms(c)
DAV:   1    -0.365922807531E+03    0.39921E-05   -0.13076E-02  4920   0.328E-01    0.384E-02
RMM:   2    -0.365922829760E+03   -0.22229E-04   -0.53172E-04  6590   0.676E-02    0.198E-02
RMM:   3    -0.365922820910E+03    0.88496E-05   -0.49875E-05  4496   0.184E-02
  15 F= -.36592282E+03 E0= -.36593322E+03  d E =-.371731E-03
       N       E                     dE             d eps       ncg     rms          rms(c)
DAV:   1    -0.365922776126E+03    0.53634E-04   -0.62653E-02  4880   0.735E-01    0.681E-02
RMM:   2    -0.365922959689E+03   -0.18356E-03   -0.26653E-03  6849   0.152E-01    0.364E-02
RMM:   3    -0.365922939778E+03    0.19910E-04   -0.26296E-04  6859   0.388E-02    0.277E-02
RMM:   4    -0.365922929095E+03    0.10683E-04   -0.65554E-05  5146   0.143E-02    0.157E-02
RMM:   5    -0.365922926855E+03    0.22397E-05   -0.23784E-05  3143   0.100E-02
  16 F= -.36592293E+03 E0= -.36593335E+03  d E =-.105945E-03
       N       E                     dE             d eps       ncg     rms          rms(c)
DAV:   1    -0.365922888817E+03    0.40278E-04   -0.29102E-02  4896   0.499E-01    0.453E-02
RMM:   2    -0.365922980953E+03   -0.92136E-04   -0.12784E-03  7011   0.103E-01    0.259E-02
RMM:   3    -0.365922972314E+03    0.86391E-05   -0.13568E-04  5752   0.265E-02    0.201E-02
RMM:   4    -0.365922969719E+03    0.25953E-05   -0.50080E-05  4279   0.123E-02
  17 F= -.36592297E+03 E0= -.36593341E+03  d E =-.148809E-03
       N       E                     dE             d eps       ncg     rms          rms(c)
DAV:   1    -0.365922661474E+03    0.31084E-03   -0.11639E-01  4824   0.997E-01    0.910E-02
RMM:   2    -0.365923017251E+03   -0.35578E-03   -0.50065E-03  7045   0.206E-01    0.522E-02
RMM:   3    -0.365922991791E+03    0.25460E-04   -0.57420E-04  7011   0.514E-02    0.403E-02
RMM:   4    -0.365922974380E+03    0.17411E-04   -0.14564E-04  6279   0.205E-02    0.235E-02
RMM:   5    -0.365922971279E+03    0.31008E-05   -0.57878E-05  4618   0.137E-02
  18 F= -.36592297E+03 E0= -.36593345E+03  d E =-.150369E-03
       N       E                     dE             d eps       ncg     rms          rms(c)
DAV:   1    -0.365922889441E+03    0.84939E-04   -0.40348E-02  4856   0.588E-01    0.542E-02
RMM:   2    -0.365923005019E+03   -0.11558E-03   -0.17093E-03  6502   0.121E-01    0.276E-02
RMM:   3    -0.365922988511E+03    0.16508E-04   -0.14796E-04  6466   0.322E-02    0.223E-02
RMM:   4    -0.365922980580E+03    0.79313E-05   -0.30558E-05  3500   0.114E-02
  19 F= -.36592298E+03 E0= -.36593344E+03  d E =-.159669E-03
       N       E                     dE             d eps       ncg     rms          rms(c)
DAV:   1    -0.365923174136E+03   -0.18562E-03   -0.45086E-02  5020   0.674E-01    0.152E-01
RMM:   2    -0.365923189999E+03   -0.15863E-04   -0.34091E-03  6194   0.162E-01    0.636E-02
RMM:   3    -0.365923081834E+03    0.10816E-03   -0.46416E-04  7150   0.503E-02    0.437E-02
RMM:   4    -0.365923039481E+03    0.42353E-04   -0.12118E-04  6654   0.222E-02    0.234E-02
RMM:   5    -0.365923033085E+03    0.63964E-05   -0.30790E-05  3170   0.142E-02
  20 F= -.36592303E+03 E0= -.36593348E+03  d E =-.525053E-04
