<?xml version="1.0" encoding="ISO-8859-1"?>
<modeling>
 <generator>
  <i name="program" type="string">vasp </i>
  <i name="version" type="string">5.4.1  </i>
  <i name="subversion" type="string">05Feb16 (build Jan 29 2020 16:04:39) complex                          parallel </i>
  <i name="platform" type="string">IFC91_ompi </i>
  <i name="date" type="string">2020 06 15 </i>
  <i name="time" type="string">05:23:43 </i>
 </generator>
 <incar>
  <i type="string" name="SYSTEM"> automatically generated by mexm</i>
  <i type="int" name="ISTART">     0</i>
  <i type="string" name="PREC">accurate               ! avoid wrap aro</i>
  <i type="string" name="ALGO"> Fast                   ! blocked Davids</i>
  <i type="int" name="ISPIN">     1</i>
  <i type="int" name="ICHARG">     2</i>
  <i type="int" name="NELM">    70</i>
  <i type="int" name="IBRION">     2</i>
  <i name="EDIFF">      0.00001000</i>
  <i name="EDIFFG">     -0.01000000</i>
  <i type="int" name="NSW">   300</i>
  <i type="int" name="ISIF">     3</i>
  <i type="int" name="ISYM">     1</i>
  <i name="ENCUT">    300.00000000</i>
  <i name="POTIM">      0.15000000</i>
  <i type="string" name="LREAL"> Auto                  ! unpublished met</i>
  <i type="int" name="ISMEAR">     1</i>
  <i name="SIGMA">      0.15000000</i>
  <i type="logical" name="LWAVE"> F  </i>
  <i type="logical" name="LCHARG"> F  </i>
  <i type="logical" name="LVTOT"> F  </i>
  <v type="int" name="KPOINT_BSE">    -1     0     0     0</v>
  <i type="int" name="NELM">    70</i>
 </incar>
 <kpoints>
  <generation param="Gamma">
   <v type="int" name="divisions">       3        3        3 </v>
   <v name="usershift">      0.00000000       0.00000000       0.00000000 </v>
   <v name="genvec1">      0.33333333      -0.00000000       0.00000000 </v>
   <v name="genvec2">      0.00000000       0.33333333      -0.00000000 </v>
   <v name="genvec3">     -0.00000000       0.00000000       0.33333333 </v>
   <v name="shift">      0.00000000       0.00000000       0.00000000 </v>
  </generation>
  <varray name="kpointlist" >
   <v>       0.00000000       0.00000000       0.00000000 </v>
   <v>       0.33333333      -0.00000000       0.00000000 </v>
   <v>      -0.00000000       0.33333333       0.00000000 </v>
   <v>       0.33333333       0.33333333      -0.00000000 </v>
   <v>      -0.33333333       0.33333333      -0.00000000 </v>
   <v>       0.00000000       0.00000000       0.33333333 </v>
   <v>       0.33333333       0.00000000       0.33333333 </v>
   <v>      -0.33333333       0.00000000       0.33333333 </v>
   <v>       0.00000000       0.33333333       0.33333333 </v>
   <v>       0.33333333       0.33333333       0.33333333 </v>
   <v>      -0.33333333       0.33333333       0.33333333 </v>
   <v>       0.00000000      -0.33333333       0.33333333 </v>
   <v>       0.33333333      -0.33333333       0.33333333 </v>
   <v>      -0.33333333      -0.33333333       0.33333333 </v>
  </varray>
  <varray name="weights" >
   <v>       0.03703704 </v>
   <v>       0.07407407 </v>
   <v>       0.07407407 </v>
   <v>       0.07407407 </v>
   <v>       0.07407407 </v>
   <v>       0.07407407 </v>
   <v>       0.07407407 </v>
   <v>       0.07407407 </v>
   <v>       0.07407407 </v>
   <v>       0.07407407 </v>
   <v>       0.07407407 </v>
   <v>       0.07407407 </v>
   <v>       0.07407407 </v>
   <v>       0.07407407 </v>
  </varray>
 </kpoints>
 <parameters>
  <separator name="general" >
   <i type="string" name="SYSTEM">automatically generated by mexm</i>
   <i type="logical" name="LCOMPAT"> F  </i>
  </separator>
  <separator name="electronic" >
   <i type="string" name="PREC">accura</i>
   <i name="ENMAX">    300.00000000</i>
   <i name="ENAUG">    461.25700000</i>
   <i name="EDIFF">      0.00001000</i>
   <i type="int" name="IALGO">    68</i>
   <i type="int" name="IWAVPR">    11</i>
   <i type="int" name="NBANDS">   184</i>
   <i name="NELECT">    307.00000000</i>
   <i type="int" name="TURBO">     0</i>
   <i type="int" name="IRESTART">     0</i>
   <i type="int" name="NREBOOT">     0</i>
   <i type="int" name="NMIN">     0</i>
   <i name="EREF">      0.00000000</i>
   <separator name="electronic smearing" >
    <i type="int" name="ISMEAR">     1</i>
    <i name="SIGMA">      0.15000000</i>
    <i name="KSPACING">      0.50000000</i>
    <i type="logical" name="KGAMMA"> T  </i>
   </separator>
   <separator name="electronic projectors" >
    <i type="logical" name="LREAL"> T  </i>
    <v name="ROPT">     -0.00025000     -0.00025000     -0.00025000     -0.00025000</v>
    <i type="int" name="LMAXPAW">  -100</i>
    <i type="int" name="LMAXMIX">     2</i>
    <i type="logical" name="NLSPLINE"> F  </i>
   </separator>
   <separator name="electronic startup" >
    <i type="int" name="ISTART">     0</i>
    <i type="int" name="ICHARG">     2</i>
    <i type="int" name="INIWAV">     1</i>
   </separator>
   <separator name="electronic spin" >
    <i type="int" name="ISPIN">     1</i>
    <i type="logical" name="LNONCOLLINEAR"> F  </i>
    <v name="MAGMOM">      1.00000000      1.00000000      1.00000000      1.00000000      1.00000000      1.00000000      1.00000000      1.00000000      1.00000000      1.00000000      1.00000000      1.00000000      1.00000000      1.00000000      1.00000000      1.00000000      1.00000000      1.00000000      1.00000000      1.00000000
      1.00000000      1.00000000      1.00000000      1.00000000      1.00000000      1.00000000      1.00000000      1.00000000      1.00000000      1.00000000      1.00000000      1.00000000      1.00000000      1.00000000      1.00000000      1.00000000</v>
    <i name="NUPDOWN">     -1.00000000</i>
    <i type="logical" name="LSORBIT"> F  </i>
    <v name="SAXIS">      0.00000000      0.00000000      1.00000000</v>
    <i type="logical" name="LSPIRAL"> F  </i>
    <v name="QSPIRAL">      0.00000000      0.00000000      0.00000000</v>
    <i type="logical" name="LZEROZ"> F  </i>
   </separator>
   <separator name="electronic exchange-correlation" >
    <i type="logical" name="LASPH"> F  </i>
    <i type="logical" name="LMETAGGA"> F  </i>
   </separator>
   <separator name="electronic convergence" >
    <i type="int" name="NELM">    70</i>
    <i type="int" name="NELMDL">    -5</i>
    <i type="int" name="NELMIN">     2</i>
    <i name="ENINI">    300.00000000</i>
    <separator name="electronic convergence detail" >
     <i type="logical" name="LDIAG"> T  </i>
     <i type="logical" name="LSUBROT"> F  </i>
     <i name="WEIMIN">      0.00100000</i>
     <i name="EBREAK">      0.00000001</i>
     <i name="DEPER">      0.30000000</i>
     <i type="int" name="NRMM">     4</i>
     <i name="TIME">      0.40000000</i>
    </separator>
   </separator>
   <separator name="electronic mixer" >
    <i name="AMIX">      0.40000000</i>
    <i name="BMIX">      1.00000000</i>
    <i name="AMIN">      0.10000000</i>
    <i name="AMIX_MAG">      1.60000000</i>
    <i name="BMIX_MAG">      1.00000000</i>
    <separator name="electronic mixer details" >
     <i type="int" name="IMIX">     4</i>
     <i type="logical" name="MIXFIRST"> F  </i>
     <i type="int" name="MAXMIX">   -45</i>
     <i name="WC">    100.00000000</i>
     <i type="int" name="INIMIX">     1</i>
     <i type="int" name="MIXPRE">     1</i>
     <i type="int" name="MREMOVE">     5</i>
    </separator>
   </separator>
   <separator name="electronic dipolcorrection" >
    <i type="logical" name="LDIPOL"> F  </i>
    <i type="logical" name="LMONO"> F  </i>
    <i type="int" name="IDIPOL">     0</i>
    <i name="EPSILON">      1.00000000</i>
    <v name="DIPOL">   -100.00000000   -100.00000000   -100.00000000</v>
    <i name="EFIELD">      0.00000000</i>
   </separator>
  </separator>
  <separator name="grids" >
   <i type="int" name="NGX">    40</i>
   <i type="int" name="NGY">    60</i>
   <i type="int" name="NGZ">    60</i>
   <i type="int" name="NGXF">    80</i>
   <i type="int" name="NGYF">   120</i>
   <i type="int" name="NGZF">   120</i>
   <i type="logical" name="ADDGRID"> F  </i>
  </separator>
  <separator name="ionic" >
   <i type="int" name="NSW">   300</i>
   <i type="int" name="IBRION">     2</i>
   <i type="int" name="ISIF">     3</i>
   <i name="PSTRESS">      0.00000000</i>
   <i name="EDIFFG">     -0.01000000</i>
   <i type="int" name="NFREE">     1</i>
   <i name="POTIM">      0.15000000</i>
   <i name="SMASS">     -3.00000000</i>
   <i name="SCALEE">      1.00000000</i>
  </separator>
  <separator name="ionic md" >
   <i name="TEBEG">      0.00010000</i>
   <i name="TEEND">      0.00010000</i>
   <i type="int" name="NBLOCK">     1</i>
   <i type="int" name="KBLOCK">   300</i>
   <i type="int" name="NPACO">   256</i>
   <i name="APACO">     16.00000000</i>
  </separator>
  <separator name="symmetry" >
   <i type="int" name="ISYM">     1</i>
   <i name="SYMPREC">      0.00001000</i>
  </separator>
  <separator name="dos" >
   <i type="logical" name="LORBIT"> F  </i>
   <v name="RWIGS">     -1.00000000     -1.00000000     -1.00000000     -1.00000000</v>
   <i type="int" name="NEDOS">   301</i>
   <i name="EMIN">     10.00000000</i>
   <i name="EMAX">    -10.00000000</i>
   <i name="EFERMI">      0.00000000</i>
  </separator>
  <separator name="writing" >
   <i type="int" name="NWRITE">     2</i>
   <i type="logical" name="LWAVE"> F  </i>
   <i type="logical" name="LCHARG"> F  </i>
   <i type="logical" name="LPARD"> F  </i>
   <i type="logical" name="LVTOT"> F  </i>
   <i type="logical" name="LVHAR"> F  </i>
   <i type="logical" name="LELF"> F  </i>
   <i type="logical" name="LOPTICS"> F  </i>
   <v name="STM">      0.00000000      0.00000000      0.00000000      0.00000000      0.00000000      0.00000000      0.00000000</v>
  </separator>
  <separator name="performance" >
   <i type="int" name="NPAR">     4</i>
   <i type="int" name="NSIM">     4</i>
   <i type="int" name="NBLK">    -1</i>
   <i type="logical" name="LPLANE"> T  </i>
   <i type="logical" name="LSCALAPACK"> T  </i>
   <i type="logical" name="LSCAAWARE"> F  </i>
   <i type="logical" name="LSCALU"> F  </i>
   <i type="logical" name="LASYNC"> F  </i>
   <i type="logical" name="LORBITALREAL"> F  </i>
  </separator>
  <separator name="miscellaneous" >
   <i type="int" name="IDIOT">     3</i>
   <i type="logical" name="LMUSIC"> F  </i>
   <v name="POMASS">     91.22400000     92.91000000    180.94800000    178.49000000</v>
   <v name="DARWINR">      0.00000000      0.00000000      0.00000000      0.00000000</v>
   <v name="DARWINV">      1.00000000      1.00000000      1.00000000      1.00000000</v>
   <i type="logical" name="LCORR"> T  </i>
  </separator>
  <i type="logical" name="GGA_COMPAT"> T  </i>
  <i type="logical" name="LBERRY"> F  </i>
  <i type="int" name="ICORELEVEL">     0</i>
  <i type="logical" name="LDAU"> F  </i>
  <i type="int" name="I_CONSTRAINED_M">     0</i>
  <separator name="electronic exchange-correlation" >
   <i type="string" name="GGA">--</i>
   <i type="int" name="VOSKOWN">     0</i>
   <i type="logical" name="LHFCALC"> F  </i>
   <i type="string" name="PRECFOCK"></i>
   <i type="logical" name="LSYMGRAD"> F  </i>
   <i type="logical" name="LHFONE"> F  </i>
   <i type="logical" name="LRHFCALC"> F  </i>
   <i type="logical" name="LTHOMAS"> F  </i>
   <i type="logical" name="LMODELHF"> F  </i>
   <i name="ENCUT4O">     -1.00000000</i>
   <i type="int" name="EXXOEP">     0</i>
   <i type="int" name="FOURORBIT">     0</i>
   <i name="AEXX">      0.00000000</i>
   <i name="HFALPHA">      0.00000000</i>
   <i name="MCALPHA">      0.00000000</i>
   <i name="ALDAX">      1.00000000</i>
   <i name="AGGAX">      1.00000000</i>
   <i name="ALDAC">      1.00000000</i>
   <i name="AGGAC">      1.00000000</i>
   <i type="int" name="NKREDX">     1</i>
   <i type="int" name="NKREDY">     1</i>
   <i type="int" name="NKREDZ">     1</i>
   <i type="logical" name="SHIFTRED"> F  </i>
   <i type="logical" name="ODDONLY"> F  </i>
   <i type="logical" name="EVENONLY"> F  </i>
   <i type="int" name="LMAXFOCK">     0</i>
   <i type="int" name="NMAXFOCKAE">     0</i>
   <i type="logical" name="LFOCKAEDFT"> F  </i>
   <i name="HFSCREEN">      0.00000000</i>
   <i name="HFSCREENC">      0.00000000</i>
   <i type="int" name="NBANDSGWLOW">     0</i>
  </separator>
  <separator name="vdW DFT" >
   <i type="logical" name="LUSE_VDW"> F  </i>
   <i name="Zab_VDW">     -0.84910000</i>
   <i name="PARAM1">      0.12340000</i>
   <i name="PARAM2">      1.00000000</i>
   <i name="PARAM3">      0.00000000</i>
  </separator>
  <separator name="model GW" >
   <i type="int" name="MODEL_GW">     0</i>
   <i name="MODEL_EPS0">     11.96042962</i>
   <i name="MODEL_ALPHA">      1.00000000</i>
  </separator>
  <separator name="linear response parameters" >
   <i type="logical" name="LEPSILON"> F  </i>
   <i type="logical" name="LRPA"> F  </i>
   <i type="logical" name="LNABLA"> F  </i>
   <i type="logical" name="LVEL"> F  </i>
   <i type="int" name="KINTER">     0</i>
   <i name="CSHIFT">      0.10000000</i>
   <i name="OMEGAMAX">     -1.00000000</i>
   <i name="DEG_THRESHOLD">      0.00200000</i>
  </separator>
  <separator name="orbital magnetization" >
   <i type="logical" name="NUCIND"> F  </i>
   <v name="MAGPOS">      0.00000000      0.00000000      0.00000000</v>
   <i type="logical" name="LNICSALL"> T  </i>
   <i type="logical" name="ORBITALMAG"> F  </i>
   <i type="logical" name="LMAGBLOCH"> F  </i>
   <i type="logical" name="LCHIMAG"> F  </i>
   <i type="logical" name="LGAUGE"> T  </i>
   <i type="int" name="MAGATOM">     0</i>
   <v name="MAGDIPOL">      0.00000000      0.00000000      0.00000000</v>
   <v name="AVECCONST">      0.00000000      0.00000000      0.00000000</v>
  </separator>
  <separator name="response functions" >
   <i type="logical" name="LADDER"> F  </i>
   <i type="logical" name="LFXC"> F  </i>
   <i type="logical" name="LHARTREE"> T  </i>
   <i type="int" name="IBSE">     0</i>
   <v type="int" name="KPOINT">    -1     0     0     0</v>
   <i type="logical" name="LTCTE"> F  </i>
   <i type="logical" name="LTETE"> F  </i>
   <i type="logical" name="LTRIPLET"> F  </i>
   <i type="logical" name="LFXCEPS"> F  </i>
   <i type="logical" name="LFXHEG"> F  </i>
   <i type="int" name="NATURALO">     0</i>
   <i type="logical" name="L2ORDER"> F  </i>
   <i type="logical" name="LUSEW"> F  </i>
   <i name="ENCUTGW">     -2.00000000</i>
   <i name="ENCUTGWSOFT">     -2.00000000</i>
   <i name="ENCUTLF">     -1.00000000</i>
   <i type="int" name="LMAXMP2">    -1</i>
   <i name="SCISSOR">      0.00000000</i>
   <i type="int" name="NOMEGA">     0</i>
   <i type="int" name="NOMEGAR">     0</i>
   <i type="int" name="NBANDSGW">    -1</i>
   <i type="int" name="NBANDSO">    -1</i>
   <i type="int" name="NBANDSV">    -1</i>
   <i type="int" name="NELM">    70</i>
   <i type="int" name="NELMHF">     1</i>
   <i type="int" name="DIM">     3</i>
   <i type="int" name="ANTIRES">     0</i>
   <i name="OMEGAMAX">    -30.00000000</i>
   <i name="OMEGAMIN">    -30.00000000</i>
   <i name="OMEGATL">   -200.00000000</i>
   <i type="int" name="OMEGAGRID">     0</i>
   <i name="CSHIFT">     -0.10000000</i>
   <i type="logical" name="SELFENERGY"> F  </i>
   <i type="logical" name="LSPECTRAL"> F  </i>
   <i type="logical" name="LSPECTRALGW"> F  </i>
   <i type="logical" name="LSINGLES"> F  </i>
   <i type="logical" name="LFERMIGW"> F  </i>
   <i type="logical" name="ODDONLYGW"> F  </i>
   <i type="logical" name="EVENONLYGW"> F  </i>
   <i type="int" name="NKREDLFX">     1</i>
   <i type="int" name="NKREDLFY">     1</i>
   <i type="int" name="NKREDLFZ">     1</i>
   <i type="int" name="MAXMEM">  1800</i>
   <i type="int" name="TELESCOPE">     0</i>
   <i type="int" name="TAUPAR">     1</i>
   <i type="int" name="OMEGAPAR">    -1</i>
   <i name="LAMBDA">      1.00000000</i>
  </separator>
  <separator name="External order field" >
   <i name="OFIELD_KAPPA">      0.00000000</i>
   <v name="OFIELD_K">      0.00000000      0.00000000      0.00000000</v>
   <i name="OFIELD_Q6_NEAR">      0.00000000</i>
   <i name="OFIELD_Q6_FAR">      0.00000000</i>
   <i name="OFIELD_A">      0.00000000</i>
  </separator>
 </parameters>
 <atominfo>
  <atoms>      36 </atoms>
  <types>       4 </types>
  <array name="atoms" >
   <dimension dim="1">ion</dimension>
   <field type="string">element</field>
   <field type="int">atomtype</field>
   <set>
    <rc><c>Zr</c><c>   1</c></rc>
    <rc><c>Zr</c><c>   1</c></rc>
    <rc><c>Zr</c><c>   1</c></rc>
    <rc><c>Zr</c><c>   1</c></rc>
    <rc><c>Zr</c><c>   1</c></rc>
    <rc><c>Zr</c><c>   1</c></rc>
    <rc><c>Zr</c><c>   1</c></rc>
    <rc><c>Zr</c><c>   1</c></rc>
    <rc><c>Zr</c><c>   1</c></rc>
    <rc><c>Nb</c><c>   2</c></rc>
    <rc><c>Nb</c><c>   2</c></rc>
    <rc><c>Nb</c><c>   2</c></rc>
    <rc><c>Nb</c><c>   2</c></rc>
    <rc><c>Nb</c><c>   2</c></rc>
    <rc><c>Nb</c><c>   2</c></rc>
    <rc><c>Nb</c><c>   2</c></rc>
    <rc><c>Nb</c><c>   2</c></rc>
    <rc><c>Nb</c><c>   2</c></rc>
    <rc><c>Ta</c><c>   3</c></rc>
    <rc><c>Ta</c><c>   3</c></rc>
    <rc><c>Ta</c><c>   3</c></rc>
    <rc><c>Ta</c><c>   3</c></rc>
    <rc><c>Ta</c><c>   3</c></rc>
    <rc><c>Ta</c><c>   3</c></rc>
    <rc><c>Ta</c><c>   3</c></rc>
    <rc><c>Ta</c><c>   3</c></rc>
    <rc><c>Ta</c><c>   3</c></rc>
    <rc><c>Ta</c><c>   3</c></rc>
    <rc><c>Hf</c><c>   4</c></rc>
    <rc><c>Hf</c><c>   4</c></rc>
    <rc><c>Hf</c><c>   4</c></rc>
    <rc><c>Hf</c><c>   4</c></rc>
    <rc><c>Hf</c><c>   4</c></rc>
    <rc><c>Hf</c><c>   4</c></rc>
    <rc><c>Hf</c><c>   4</c></rc>
    <rc><c>Hf</c><c>   4</c></rc>
   </set>
  </array>
  <array name="atomtypes" >
   <dimension dim="1">type</dimension>
   <field type="int">atomspertype</field>
   <field type="string">element</field>
   <field>mass</field>
   <field>valence</field>
   <field type="string">pseudopotential</field>
   <set>
    <rc><c>   9</c><c>Zr</c><c>     91.22400000</c><c>     12.00000000</c><c>  PAW_PBE Zr_sv 04Jan2005               </c></rc>
    <rc><c>   9</c><c>Nb</c><c>     92.91000000</c><c>     13.00000000</c><c>  PAW_PBE Nb_sv 25May2007               </c></rc>
    <rc><c>  10</c><c>Ta</c><c>    180.94800000</c><c>      5.00000000</c><c>  PAW_PBE Ta 17Jan2003                  </c></rc>
    <rc><c>   8</c><c>Hf</c><c>    178.49000000</c><c>      4.00000000</c><c>  PAW_PBE Hf 20Jan2003                  </c></rc>
   </set>
  </array>
 </atominfo>
 <structure name="initialpos" >
  <crystal>
   <varray name="basis" >
    <v>       6.87893436      -0.00884926       0.01627686 </v>
    <v>      -0.01272019      10.14705060       0.00863476 </v>
    <v>       0.02431801       0.00877943      10.28112141 </v>
   </varray>
   <i name="volume">    717.62577734 </i>
   <varray name="rec_basis" >
    <v>       0.14537240       0.00018253      -0.00034401 </v>
    <v>       0.00012698       0.09855104      -0.00008446 </v>
    <v>      -0.00023026      -0.00008306       0.09726627 </v>
   </varray>
  </crystal>
  <varray name="positions" >
   <v>       0.75447500       0.16846900       0.18260700 </v>
   <v>       0.24367200       0.83434900       0.83065100 </v>
   <v>       0.75533700       0.48759100       0.17588800 </v>
   <v>       0.50094400       0.66763800       0.33512600 </v>
   <v>       0.25752000       0.14223200       0.82930300 </v>
   <v>       0.99933700       0.33234900       0.98907600 </v>
   <v>       0.51393700       0.99505700       0.02186100 </v>
   <v>       0.49303500       0.34811200       0.67384800 </v>
   <v>       0.49643800       0.66363400       0.00371100 </v>
   <v>       0.23769000       0.50329300       0.49349600 </v>
   <v>       0.50441200       0.99461100       0.32485900 </v>
   <v>       0.99587000       0.99896900       0.32912500 </v>
   <v>       0.25317900       0.16176100       0.49023200 </v>
   <v>       0.00198700       0.01441000       0.65265600 </v>
   <v>       0.99797100       0.65723400       0.65833500 </v>
   <v>       0.50645200       0.97866900       0.64871800 </v>
   <v>       0.00677700       0.33812100       0.34458800 </v>
   <v>       0.48823300       0.33843500       0.34416600 </v>
   <v>       0.76973100       0.83922900       0.49895700 </v>
   <v>       0.24007800       0.49178600       0.17447500 </v>
   <v>       0.22636200       0.52263500       0.83535600 </v>
   <v>       0.00472900       0.66751700       0.01124900 </v>
   <v>       0.22962700       0.83802400       0.17474600 </v>
   <v>       0.76017300       0.49595400       0.49298600 </v>
   <v>       0.77213400       0.83491700       0.17278600 </v>
   <v>       0.98492300       0.99949900       0.01604000 </v>
   <v>       0.77319500       0.52089600       0.83288600 </v>
   <v>       0.99788400       0.66615900       0.33114500 </v>
   <v>       0.74184400       0.16607300       0.49286500 </v>
   <v>       0.76758200       0.83345600       0.82683400 </v>
   <v>       0.49660000       0.34216200       0.99010000 </v>
   <v>       0.24349300       0.17307600       0.17686000 </v>
   <v>       0.00545600       0.33406100       0.66545600 </v>
   <v>       0.23402400       0.83902200       0.49611700 </v>
   <v>       0.73926200       0.14508700       0.82184100 </v>
   <v>       0.50563100       0.66551400       0.66104900 </v>
  </varray>
 </structure>
 <calculation>
  <scstep>
   <time name="dav">    1.09    1.09</time>
   <time name="total">    1.16    1.56</time>
   <energy>
    <i name="alphaZ">   1624.70695939 </i>
    <i name="ewald"> -21364.73065408 </i>
    <i name="hartreedc">  -6984.84555271 </i>
    <i name="XCdc">   -129.32910786 </i>
    <i name="pawpsdc">  23021.89882882 </i>
    <i name="pawaedc"> -21469.33078835 </i>
    <i name="eentropy">      0.00967672 </i>
    <i name="bandstr">   -131.93285429 </i>
    <i name="atom">  27467.23167136 </i>
    <i name="e_fr_energy">   2033.67817901 </i>
    <i name="e_wo_entrp">   2033.66850230 </i>
    <i name="e_0_energy">   2033.67495344 </i>
   </energy>
  </scstep>
  <scstep>
   <time name="dav">    1.04    1.05</time>
   <time name="total">    1.04    1.28</time>
   <energy>
    <i name="e_fr_energy">    -70.94183785 </i>
    <i name="e_wo_entrp">    -70.94052740 </i>
    <i name="e_0_energy">    -70.94140103 </i>
   </energy>
  </scstep>
  <scstep>
   <time name="dav">    1.44    1.45</time>
   <time name="total">    1.44    1.49</time>
   <energy>
    <i name="e_fr_energy">   -342.38957402 </i>
    <i name="e_wo_entrp">   -342.40373146 </i>
    <i name="e_0_energy">   -342.39429316 </i>
   </energy>
  </scstep>
  <scstep>
   <time name="dav">    1.51    1.52</time>
   <time name="total">    1.51    1.56</time>
   <energy>
    <i name="e_fr_energy">   -374.91398515 </i>
    <i name="e_wo_entrp">   -374.92241512 </i>
    <i name="e_0_energy">   -374.91679514 </i>
   </energy>
  </scstep>
  <scstep>
   <time name="dav">    1.43    1.44</time>
   <time name="total">    1.48    1.53</time>
   <energy>
    <i name="e_fr_energy">   -378.24713153 </i>
    <i name="e_wo_entrp">   -378.25959409 </i>
    <i name="e_0_energy">   -378.25128572 </i>
   </energy>
  </scstep>
  <scstep>
   <time name="diag">    0.08    0.08</time>
   <time name="diis">    0.87    0.87</time>
   <time name="orth">    0.01    0.01</time>
   <time name="total">    1.06    1.10</time>
   <energy>
    <i name="e_fr_energy">   -368.05353123 </i>
    <i name="e_wo_entrp">   -368.06261319 </i>
    <i name="e_0_energy">   -368.05655855 </i>
   </energy>
  </scstep>
  <scstep>
   <time name="diag">    0.13    0.13</time>
   <time name="diis">    0.84    0.86</time>
   <time name="orth">    0.01    0.01</time>
   <time name="total">    1.07    1.17</time>
   <energy>
    <i name="e_fr_energy">   -371.24774440 </i>
    <i name="e_wo_entrp">   -371.25000369 </i>
    <i name="e_0_energy">   -371.24849750 </i>
   </energy>
  </scstep>
  <scstep>
   <time name="diag">    0.09    0.09</time>
   <time name="diis">    0.82    0.83</time>
   <time name="orth">    0.01    0.01</time>
   <time name="total">    1.00    1.08</time>
   <energy>
    <i name="e_fr_energy">   -363.88996243 </i>
    <i name="e_wo_entrp">   -363.90384398 </i>
    <i name="e_0_energy">   -363.89458961 </i>
   </energy>
  </scstep>
  <scstep>
   <time name="diag">    0.08    0.08</time>
   <time name="diis">    0.80    0.83</time>
   <time name="orth">    0.01    0.01</time>
   <time name="total">    1.02    1.10</time>
   <energy>
    <i name="e_fr_energy">   -363.44679351 </i>
    <i name="e_wo_entrp">   -363.45690674 </i>
    <i name="e_0_energy">   -363.45016459 </i>
   </energy>
  </scstep>
  <scstep>
   <time name="diag">    0.13    0.13</time>
   <time name="diis">    0.85    0.88</time>
   <time name="orth">    0.01    0.01</time>
   <time name="total">    1.05    1.14</time>
   <energy>
    <i name="e_fr_energy">   -363.42089031 </i>
    <i name="e_wo_entrp">   -363.43164804 </i>
    <i name="e_0_energy">   -363.42447622 </i>
   </energy>
  </scstep>
  <scstep>
   <time name="diag">    0.08    0.12</time>
   <time name="diis">    0.73    0.82</time>
   <time name="orth">    0.01    0.01</time>
   <time name="total">    0.89    1.08</time>
   <energy>
    <i name="e_fr_energy">   -363.38632294 </i>
    <i name="e_wo_entrp">   -363.39736552 </i>
    <i name="e_0_energy">   -363.39000380 </i>
   </energy>
  </scstep>
  <scstep>
   <time name="diag">    0.08    0.08</time>
   <time name="diis">    0.82    0.82</time>
   <time name="orth">    0.01    0.01</time>
   <time name="total">    0.98    1.03</time>
   <energy>
    <i name="e_fr_energy">   -363.37649451 </i>
    <i name="e_wo_entrp">   -363.38613500 </i>
    <i name="e_0_energy">   -363.37970800 </i>
   </energy>
  </scstep>
  <scstep>
   <time name="diag">    0.08    0.08</time>
   <time name="diis">    0.81    0.82</time>
   <time name="orth">    0.01    0.01</time>
   <time name="total">    0.97    1.02</time>
   <energy>
    <i name="e_fr_energy">   -363.37467816 </i>
    <i name="e_wo_entrp">   -363.38503282 </i>
    <i name="e_0_energy">   -363.37812971 </i>
   </energy>
  </scstep>
  <scstep>
   <time name="diag">    0.08    0.08</time>
   <time name="diis">    0.82    0.83</time>
   <time name="orth">    0.01    0.01</time>
   <time name="total">    1.02    1.07</time>
   <energy>
    <i name="e_fr_energy">   -363.37446883 </i>
    <i name="e_wo_entrp">   -363.38475564 </i>
    <i name="e_0_energy">   -363.37789777 </i>
   </energy>
  </scstep>
  <scstep>
   <time name="diag">    0.12    0.12</time>
   <time name="diis">    0.88    0.88</time>
   <time name="orth">    0.01    0.01</time>
   <time name="total">    1.08    1.13</time>
   <energy>
    <i name="e_fr_energy">   -363.37475268 </i>
    <i name="e_wo_entrp">   -363.38504863 </i>
    <i name="e_0_energy">   -363.37818466 </i>
   </energy>
  </scstep>
  <scstep>
   <time name="diag">    0.14    0.14</time>
   <time name="diis">    0.78    0.79</time>
   <time name="orth">    0.01    0.01</time>
   <time name="total">    1.01    1.07</time>
   <energy>
    <i name="e_fr_energy">   -363.37476197 </i>
    <i name="e_wo_entrp">   -363.38506831 </i>
    <i name="e_0_energy">   -363.37819742 </i>
   </energy>
  </scstep>
  <scstep>
   <time name="diag">    0.14    0.14</time>
   <time name="diis">    0.75    0.75</time>
   <time name="orth">    0.01    0.01</time>
   <time name="total">    0.96    1.01</time>
   <energy>
    <i name="e_fr_energy">   -363.37475439 </i>
    <i name="e_wo_entrp">   -363.38503160 </i>
    <i name="e_0_energy">   -363.37818013 </i>
   </energy>
  </scstep>
  <scstep>
   <time name="diag">    0.08    0.09</time>
   <time name="diis">    0.62    0.63</time>
   <time name="orth">    0.01    0.01</time>
   <time name="total">    0.94    1.00</time>
   <energy>
    <i name="e_fr_energy">   -363.37477833 </i>
    <i name="e_wo_entrp">   -363.38507154 </i>
    <i name="e_0_energy">   -363.37820940 </i>
   </energy>
  </scstep>
  <scstep>
   <time name="diag">    0.08    0.08</time>
   <time name="diis">    0.65    0.66</time>
   <time name="orth">    0.01    0.02</time>
   <time name="total">    0.81    0.87</time>
   <energy>
    <i name="e_fr_energy">   -363.37478805 </i>
    <i name="e_wo_entrp">   -363.38507951 </i>
    <i name="e_0_energy">   -363.37821854 </i>
   </energy>
  </scstep>
  <scstep>
   <time name="diag">    0.08    0.08</time>
   <time name="diis">    0.45    0.46</time>
   <time name="orth">    0.01    0.01</time>
   <time name="total">    0.58    0.63</time>
   <energy>
    <i name="alphaZ">   1624.70695939 </i>
    <i name="ewald"> -21364.73065408 </i>
    <i name="hartreedc">  -6736.14244600 </i>
    <i name="XCdc">   -131.08305381 </i>
    <i name="pawpsdc">  36153.02569380 </i>
    <i name="pawaedc"> -34577.38815587 </i>
    <i name="eentropy">      0.01029315 </i>
    <i name="bandstr">  -2799.00509758 </i>
    <i name="atom">  27467.23167136 </i>
    <i name="e_fr_energy">   -363.37478964 </i>
    <i name="e_wo_entrp">   -363.38508279 </i>
    <i name="e_0_energy">   -363.37822069 </i>
   </energy>
  </scstep>
  <structure>
   <crystal>
    <varray name="basis" >
     <v>       6.87893436      -0.00884926       0.01627686 </v>
     <v>      -0.01272019      10.14705060       0.00863476 </v>
     <v>       0.02431801       0.00877943      10.28112141 </v>
    </varray>
    <i name="volume">    717.62577734 </i>
    <varray name="rec_basis" >
     <v>       0.14537240       0.00018253      -0.00034401 </v>
     <v>       0.00012698       0.09855104      -0.00008446 </v>
     <v>      -0.00023026      -0.00008306       0.09726627 </v>
    </varray>
   </crystal>
   <varray name="positions" >
    <v>       0.75447500       0.16846900       0.18260700 </v>
    <v>       0.24367200       0.83434900       0.83065100 </v>
    <v>       0.75533700       0.48759100       0.17588800 </v>
    <v>       0.50094400       0.66763800       0.33512600 </v>
    <v>       0.25752000       0.14223200       0.82930300 </v>
    <v>       0.99933700       0.33234900       0.98907600 </v>
    <v>       0.51393700       0.99505700       0.02186100 </v>
    <v>       0.49303500       0.34811200       0.67384800 </v>
    <v>       0.49643800       0.66363400       0.00371100 </v>
    <v>       0.23769000       0.50329300       0.49349600 </v>
    <v>       0.50441200       0.99461100       0.32485900 </v>
    <v>       0.99587000       0.99896900       0.32912500 </v>
    <v>       0.25317900       0.16176100       0.49023200 </v>
    <v>       0.00198700       0.01441000       0.65265600 </v>
    <v>       0.99797100       0.65723400       0.65833500 </v>
    <v>       0.50645200       0.97866900       0.64871800 </v>
    <v>       0.00677700       0.33812100       0.34458800 </v>
    <v>       0.48823300       0.33843500       0.34416600 </v>
    <v>       0.76973100       0.83922900       0.49895700 </v>
    <v>       0.24007800       0.49178600       0.17447500 </v>
    <v>       0.22636200       0.52263500       0.83535600 </v>
    <v>       0.00472900       0.66751700       0.01124900 </v>
    <v>       0.22962700       0.83802400       0.17474600 </v>
    <v>       0.76017300       0.49595400       0.49298600 </v>
    <v>       0.77213400       0.83491700       0.17278600 </v>
    <v>       0.98492300       0.99949900       0.01604000 </v>
    <v>       0.77319500       0.52089600       0.83288600 </v>
    <v>       0.99788400       0.66615900       0.33114500 </v>
    <v>       0.74184400       0.16607300       0.49286500 </v>
    <v>       0.76758200       0.83345600       0.82683400 </v>
    <v>       0.49660000       0.34216200       0.99010000 </v>
    <v>       0.24349300       0.17307600       0.17686000 </v>
    <v>       0.00545600       0.33406100       0.66545600 </v>
    <v>       0.23402400       0.83902200       0.49611700 </v>
    <v>       0.73926200       0.14508700       0.82184100 </v>
    <v>       0.50563100       0.66551400       0.66104900 </v>
   </varray>
  </structure>
  <varray name="forces" >
   <v>      -0.15504122       0.36720475      -0.12942770 </v>
   <v>      -0.01677987       0.01589693       0.01289966 </v>
   <v>       0.00084324       0.17861768      -0.01083791 </v>
   <v>      -0.00578938      -0.00319098       0.00468755 </v>
   <v>       0.00687565       0.01124382       0.05085323 </v>
   <v>       0.15953617       0.19139021      -0.26548104 </v>
   <v>      -0.19709551      -0.25176573      -0.12453332 </v>
   <v>      -0.00392032      -0.00073190      -0.01488370 </v>
   <v>      -0.00893863       0.02663526       0.00301977 </v>
   <v>      -0.01561413      -0.07069470      -0.04646958 </v>
   <v>      -0.30788949      -0.41885037       0.18681094 </v>
   <v>       0.28157138      -0.37146049       0.22696083 </v>
   <v>      -0.00558230       0.01187074      -0.04112650 </v>
   <v>       0.01051041       0.01419913      -0.01297782 </v>
   <v>      -0.01454308       0.00522690       0.00050189 </v>
   <v>      -0.00483500      -0.03046716       0.00912257 </v>
   <v>       0.33622563       0.33546360       0.34214457 </v>
   <v>      -0.30864162       0.28149877       0.27178758 </v>
   <v>       0.00004832       0.03015700      -0.00685751 </v>
   <v>      -0.00728542      -0.04857893      -0.02606857 </v>
   <v>      -0.00448267      -0.04434177       0.01727733 </v>
   <v>       0.01098960      -0.01770674      -0.00539178 </v>
   <v>       0.00792274       0.01973363       0.00657406 </v>
   <v>       0.00998344      -0.03562463      -0.03077353 </v>
   <v>      -0.02518601      -0.08316360       0.04482237 </v>
   <v>       0.32833198      -0.36248237      -0.33447083 </v>
   <v>      -0.00833269      -0.02150373       0.00841599 </v>
   <v>       0.01724454      -0.02970842       0.00855666 </v>
   <v>       0.01223337      -0.01461449       0.20722443 </v>
   <v>       0.00752312       0.01915619       0.01014826 </v>
   <v>      -0.16837373       0.20967384      -0.25396847 </v>
   <v>       0.03442057       0.01478521      -0.01229061 </v>
   <v>       0.00850940      -0.00049246      -0.01644167 </v>
   <v>       0.00776621       0.02634991      -0.00736636 </v>
   <v>       0.01794822       0.02009457      -0.07542434 </v>
   <v>      -0.00015291       0.02618034       0.00298358 </v>
  </varray>
  <varray name="stress" >
   <v>       9.06337359      -0.74261105      -0.42154407 </v>
   <v>      -0.74261110       9.01786584      -0.34664269 </v>
   <v>      -0.42154407      -0.34664266       8.60739116 </v>
  </varray>
  <energy>
   <i name="e_fr_energy">   -363.37478964 </i>
   <i name="e_wo_entrp">   -363.37822069 </i>
   <i name="e_0_energy">      0.01029315 </i>
  </energy>
  <time name="totalsc">   22.71   24.66</time>
 </calculation>
 <calculation>
  <scstep>
   <time name="dav">    1.17    1.19</time>
   <time name="total">    1.25    1.46</time>
   <energy>
    <i name="alphaZ">   1616.92397545 </i>
    <i name="ewald"> -21335.00225818 </i>
    <i name="hartreedc">  -6721.08643771 </i>
    <i name="XCdc">   -132.59764734 </i>
    <i name="pawpsdc">  36153.12708245 </i>
    <i name="pawaedc"> -34577.48842548 </i>
    <i name="eentropy">      0.01027978 </i>
    <i name="bandstr">  -2834.57968139 </i>
    <i name="atom">  27467.23167136 </i>
    <i name="e_fr_energy">   -363.46144106 </i>
    <i name="e_wo_entrp">   -363.47172084 </i>
    <i name="e_0_energy">   -363.46486765 </i>
   </energy>
  </scstep>
  <scstep>
   <time name="diag">    0.08    0.08</time>
   <time name="diis">    0.79    0.80</time>
   <time name="orth">    0.01    0.01</time>
   <time name="total">    0.99    1.03</time>
   <energy>
    <i name="e_fr_energy">   -363.43644702 </i>
    <i name="e_wo_entrp">   -363.44607375 </i>
    <i name="e_0_energy">   -363.43965593 </i>
   </energy>
  </scstep>
  <scstep>
   <time name="diag">    0.13    0.13</time>
   <time name="diis">    0.80    0.85</time>
   <time name="orth">    0.01    0.02</time>
   <time name="total">    1.00    1.11</time>
   <energy>
    <i name="e_fr_energy">   -363.42833644 </i>
    <i name="e_wo_entrp">   -363.43837061 </i>
    <i name="e_0_energy">   -363.43168116 </i>
   </energy>
  </scstep>
  <scstep>
   <time name="diag">    0.08    0.08</time>
   <time name="diis">    0.83    0.84</time>
   <time name="orth">    0.01    0.01</time>
   <time name="total">    0.99    1.05</time>
   <energy>
    <i name="e_fr_energy">   -363.41740187 </i>
    <i name="e_wo_entrp">   -363.42786428 </i>
    <i name="e_0_energy">   -363.42088934 </i>
   </energy>
  </scstep>
  <scstep>
   <time name="diag">    0.08    0.14</time>
   <time name="diis">    0.80    0.87</time>
   <time name="orth">    0.02    0.02</time>
   <time name="total">    0.99    1.16</time>
   <energy>
    <i name="e_fr_energy">   -363.41634544 </i>
    <i name="e_wo_entrp">   -363.42650238 </i>
    <i name="e_0_energy">   -363.41973109 </i>
   </energy>
  </scstep>
  <scstep>
   <time name="diag">    0.08    0.08</time>
   <time name="diis">    0.84    0.85</time>
   <time name="orth">    0.01    0.01</time>
   <time name="total">    1.00    1.06</time>
   <energy>
    <i name="e_fr_energy">   -363.41641998 </i>
    <i name="e_wo_entrp">   -363.42653382 </i>
    <i name="e_0_energy">   -363.41979126 </i>
   </energy>
  </scstep>
  <scstep>
   <time name="diag">    0.08    0.08</time>
   <time name="diis">    0.90    0.91</time>
   <time name="orth">    0.01    0.01</time>
   <time name="total">    1.06    1.12</time>
   <energy>
    <i name="e_fr_energy">   -363.41643922 </i>
    <i name="e_wo_entrp">   -363.42672321 </i>
    <i name="e_0_energy">   -363.41986721 </i>
   </energy>
  </scstep>
  <scstep>
   <time name="diag">    0.08    0.08</time>
   <time name="diis">    0.77    0.77</time>
   <time name="orth">    0.01    0.01</time>
   <time name="total">    0.92    0.99</time>
   <energy>
    <i name="e_fr_energy">   -363.41648586 </i>
    <i name="e_wo_entrp">   -363.42670660 </i>
    <i name="e_0_energy">   -363.41989278 </i>
   </energy>
  </scstep>
  <scstep>
   <time name="diag">    0.09    0.09</time>
   <time name="diis">    0.66    0.67</time>
   <time name="orth">    0.01    0.01</time>
   <time name="total">    0.85    0.99</time>
   <energy>
    <i name="e_fr_energy">   -363.41652027 </i>
    <i name="e_wo_entrp">   -363.42673076 </i>
    <i name="e_0_energy">   -363.41992377 </i>
   </energy>
  </scstep>
  <scstep>
   <time name="diag">    0.08    0.08</time>
   <time name="diis">    0.61    0.62</time>
   <time name="orth">    0.01    0.01</time>
   <time name="total">    0.77    0.84</time>
   <energy>
    <i name="e_fr_energy">   -363.41653866 </i>
    <i name="e_wo_entrp">   -363.42676384 </i>
    <i name="e_0_energy">   -363.41994705 </i>
   </energy>
  </scstep>
  <scstep>
   <time name="diag">    0.11    0.11</time>
   <time name="diis">    0.51    0.52</time>
   <time name="orth">    0.01    0.02</time>
   <time name="total">    0.69    0.75</time>
   <energy>
    <i name="alphaZ">   1616.92397545 </i>
    <i name="ewald"> -21335.00225818 </i>
    <i name="hartreedc">  -6741.95275203 </i>
    <i name="XCdc">   -131.67510885 </i>
    <i name="pawpsdc">  35920.35044603 </i>
    <i name="pawaedc"> -34344.92182307 </i>
    <i name="eentropy">      0.01022898 </i>
    <i name="bandstr">  -2814.38092397 </i>
    <i name="atom">  27467.23167136 </i>
    <i name="e_fr_energy">   -363.41654429 </i>
    <i name="e_wo_entrp">   -363.42677327 </i>
    <i name="e_0_energy">   -363.41995395 </i>
   </energy>
  </scstep>
  <structure>
   <crystal>
    <varray name="basis" >
     <v>       6.89016091      -0.00978450       0.01578048 </v>
     <v>      -0.01409848      10.16352887       0.00801574 </v>
     <v>       0.02357612       0.00814869      10.29705392 </v>
    </varray>
    <i name="volume">    721.08003369 </i>
    <varray name="rec_basis" >
     <v>       0.14513554       0.00020159      -0.00033246 </v>
     <v>       0.00013990       0.09839128      -0.00007818 </v>
     <v>      -0.00022253      -0.00007690       0.09711573 </v>
    </varray>
   </crystal>
   <varray name="positions" >
    <v>       0.75415042       0.16899262       0.18242488 </v>
    <v>       0.24363667       0.83437163       0.83066920 </v>
    <v>       0.75533930       0.48784578       0.17587253 </v>
    <v>       0.50093179       0.66763343       0.33513262 </v>
    <v>       0.25753424       0.14224799       0.82937455 </v>
    <v>       0.99967448       0.33262260       0.98870152 </v>
    <v>       0.51352228       0.99469769       0.02168665 </v>
    <v>       0.49302682       0.34811097       0.67382706 </v>
    <v>       0.49641925       0.66367197       0.00371525 </v>
    <v>       0.23765719       0.50319220       0.49343072 </v>
    <v>       0.50376218       0.99401280       0.32512351 </v>
    <v>       0.99646030       0.99843942       0.32944400 </v>
    <v>       0.25316749       0.16177797       0.49017411 </v>
    <v>       0.00200922       0.01443029       0.65263768 </v>
    <v>       0.99794041       0.65724143       0.65833575 </v>
    <v>       0.50644170       0.97862552       0.64873089 </v>
    <v>       0.00748358       0.33859967       0.34506812 </v>
    <v>       0.48758303       0.33883560       0.34454929 </v>
    <v>       0.76973122       0.83927202       0.49894731 </v>
    <v>       0.24006267       0.49171673       0.17443839 </v>
    <v>       0.22635237       0.52257173       0.83538039 </v>
    <v>       0.00475210       0.66749177       0.01124139 </v>
    <v>       0.22964369       0.83805215       0.17475520 </v>
    <v>       0.76019406       0.49590324       0.49294269 </v>
    <v>       0.77208057       0.83479828       0.17284928 </v>
    <v>       0.98561450       0.99898300       0.01556850 </v>
    <v>       0.77317737       0.52086530       0.83289790 </v>
    <v>       0.99792016       0.66611665       0.33115702 </v>
    <v>       0.74186867       0.16605192       0.49315669 </v>
    <v>       0.76759783       0.83348332       0.82684824 </v>
    <v>       0.49624757       0.34246106       0.98974279 </v>
    <v>       0.24356552       0.17309717       0.17684257 </v>
    <v>       0.00547398       0.33406033       0.66543283 </v>
    <v>       0.23404045       0.83905961       0.49610657 </v>
    <v>       0.73930019       0.14511579       0.82173474 </v>
    <v>       0.50563073       0.66555134       0.66105317 </v>
   </varray>
  </structure>
  <varray name="forces" >
   <v>      -0.12792316       0.29212361      -0.10941716 </v>
   <v>      -0.02127765       0.00306631      -0.00434209 </v>
   <v>       0.00558115       0.15256275      -0.00354651 </v>
   <v>      -0.00081532      -0.00524147       0.00373116 </v>
   <v>       0.01001499       0.00738992       0.03438910 </v>
   <v>       0.14914139       0.18405728      -0.23772390 </v>
   <v>      -0.16401477      -0.23073573      -0.08680523 </v>
   <v>       0.00164750      -0.00199523      -0.01542825 </v>
   <v>      -0.00916603       0.01992142      -0.00011022 </v>
   <v>      -0.02185792      -0.05957983      -0.04444631 </v>
   <v>      -0.25390925      -0.36144707       0.14733884 </v>
   <v>       0.22600337      -0.31839336       0.17056500 </v>
   <v>      -0.00695513       0.00101278      -0.03463189 </v>
   <v>       0.01217906       0.01789487      -0.01549428 </v>
   <v>      -0.02968222      -0.01241301       0.00837367 </v>
   <v>       0.00382132      -0.02791993       0.00456157 </v>
   <v>       0.30232234       0.31028513       0.31236416 </v>
   <v>      -0.27887433       0.27302254       0.25917933 </v>
   <v>       0.00532650       0.02639911      -0.00222927 </v>
   <v>      -0.01252609      -0.04270126      -0.02034951 </v>
   <v>      -0.02154275      -0.01019741       0.00620243 </v>
   <v>       0.00941800      -0.01591149      -0.00094882 </v>
   <v>      -0.02107875       0.01352096       0.01691155 </v>
   <v>       0.01766460      -0.03582453      -0.02892422 </v>
   <v>       0.01439621      -0.06184557       0.04366097 </v>
   <v>       0.27337051      -0.33691649      -0.26075351 </v>
   <v>       0.00715154       0.00466525      -0.00101432 </v>
   <v>       0.00995075      -0.02067423      -0.00002019 </v>
   <v>       0.00732135      -0.02394378       0.16754606 </v>
   <v>       0.01266843       0.01119247      -0.00095110 </v>
   <v>      -0.15528882       0.20100911      -0.23528735 </v>
   <v>       0.02587467       0.00064158       0.00068751 </v>
   <v>       0.00450838      -0.00163802      -0.02184274 </v>
   <v>      -0.00085827       0.01804741       0.00650541 </v>
   <v>       0.01849879       0.00918924      -0.06536619 </v>
   <v>       0.00890960       0.02137667       0.00761631 </v>
  </varray>
  <varray name="stress" >
   <v>       2.51804081      -0.60688511      -0.34264773 </v>
   <v>      -0.60688514       2.43293999      -0.28480461 </v>
   <v>      -0.34264773      -0.28480463       2.01245024 </v>
  </varray>
  <energy>
   <i name="e_fr_energy">   -363.41654429 </i>
   <i name="e_wo_entrp">   -363.41995395 </i>
   <i name="e_0_energy">      0.01022898 </i>
  </energy>
  <time name="totalsc">   12.30   13.55</time>
 </calculation>
 <calculation>
  <scstep>
   <time name="dav">    1.14    1.15</time>
   <time name="total">    1.26    1.47</time>
   <energy>
    <i name="alphaZ">   1597.97548822 </i>
    <i name="ewald"> -21260.88641953 </i>
    <i name="hartreedc">  -6706.08101738 </i>
    <i name="XCdc">   -135.38703589 </i>
    <i name="pawpsdc">  35920.06101271 </i>
    <i name="pawaedc"> -34344.77955791 </i>
    <i name="eentropy">      0.00981188 </i>
    <i name="bandstr">  -2901.86180075 </i>
    <i name="atom">  27467.23167136 </i>
    <i name="e_fr_energy">   -363.71784728 </i>
    <i name="e_wo_entrp">   -363.72765916 </i>
    <i name="e_0_energy">   -363.72111790 </i>
   </energy>
  </scstep>
  <scstep>
   <time name="diag">    0.12    0.14</time>
   <time name="diis">    0.78    0.79</time>
   <time name="orth">    0.01    0.01</time>
   <time name="total">    0.99    1.15</time>
   <energy>
    <i name="e_fr_energy">   -363.56485645 </i>
    <i name="e_wo_entrp">   -363.57361404 </i>
    <i name="e_0_energy">   -363.56777565 </i>
   </energy>
  </scstep>
  <scstep>
   <time name="diag">    0.08    0.08</time>
   <time name="diis">    0.85    0.86</time>
   <time name="orth">    0.01    0.01</time>
   <time name="total">    1.03    1.08</time>
   <energy>
    <i name="e_fr_energy">   -363.51021018 </i>
    <i name="e_wo_entrp">   -363.52057891 </i>
    <i name="e_0_energy">   -363.51366642 </i>
   </energy>
  </scstep>
  <scstep>
   <time name="diag">    0.11    0.11</time>
   <time name="diis">    0.82    0.83</time>
   <time name="orth">    0.01    0.01</time>
   <time name="total">    1.01    1.08</time>
   <energy>
    <i name="e_fr_energy">   -363.44593712 </i>
    <i name="e_wo_entrp">   -363.45663522 </i>
    <i name="e_0_energy">   -363.44950315 </i>
   </energy>
  </scstep>
  <scstep>
   <time name="diag">    0.09    0.09</time>
   <time name="diis">    0.82    0.83</time>
   <time name="orth">    0.01    0.01</time>
   <time name="total">    0.99    1.04</time>
   <energy>
    <i name="e_fr_energy">   -363.43884511 </i>
    <i name="e_wo_entrp">   -363.44888805 </i>
    <i name="e_0_energy">   -363.44219276 </i>
   </energy>
  </scstep>
  <scstep>
   <time name="diag">    0.08    0.08</time>
   <time name="diis">    0.85    0.86</time>
   <time name="orth">    0.01    0.01</time>
   <time name="total">    1.01    1.06</time>
   <energy>
    <i name="e_fr_energy">   -363.43941976 </i>
    <i name="e_wo_entrp">   -363.44939181 </i>
    <i name="e_0_energy">   -363.44274377 </i>
   </energy>
  </scstep>
  <scstep>
   <time name="diag">    0.08    0.08</time>
   <time name="diis">    0.88    0.89</time>
   <time name="orth">    0.01    0.01</time>
   <time name="total">    1.03    1.09</time>
   <energy>
    <i name="e_fr_energy">   -363.43967189 </i>
    <i name="e_wo_entrp">   -363.44998648 </i>
    <i name="e_0_energy">   -363.44311009 </i>
   </energy>
  </scstep>
  <scstep>
   <time name="diag">    0.08    0.08</time>
   <time name="diis">    0.95    0.96</time>
   <time name="orth">    0.01    0.01</time>
   <time name="total">    1.13    1.18</time>
   <energy>
    <i name="e_fr_energy">   -363.44004567 </i>
    <i name="e_wo_entrp">   -363.45022912 </i>
    <i name="e_0_energy">   -363.44344015 </i>
   </energy>
  </scstep>
  <scstep>
   <time name="diag">    0.08    0.08</time>
   <time name="diis">    0.93    0.94</time>
   <time name="orth">    0.01    0.01</time>
   <time name="total">    1.10    1.15</time>
   <energy>
    <i name="e_fr_energy">   -363.44030306 </i>
    <i name="e_wo_entrp">   -363.45046395 </i>
    <i name="e_0_energy">   -363.44369002 </i>
   </energy>
  </scstep>
  <scstep>
   <time name="diag">    0.08    0.08</time>
   <time name="diis">    0.80    0.81</time>
   <time name="orth">    0.01    0.01</time>
   <time name="total">    0.96    1.02</time>
   <energy>
    <i name="e_fr_energy">   -363.44046570 </i>
    <i name="e_wo_entrp">   -363.45066835 </i>
    <i name="e_0_energy">   -363.44386659 </i>
   </energy>
  </scstep>
  <scstep>
   <time name="diag">    0.13    0.13</time>
   <time name="diis">    0.80    0.81</time>
   <time name="orth">    0.01    0.01</time>
   <time name="total">    1.01    1.06</time>
   <energy>
    <i name="e_fr_energy">   -363.44057467 </i>
    <i name="e_wo_entrp">   -363.45078231 </i>
    <i name="e_0_energy">   -363.44397722 </i>
   </energy>
  </scstep>
  <scstep>
   <time name="diag">    0.08    0.08</time>
   <time name="diis">    0.65    0.71</time>
   <time name="orth">    0.01    0.01</time>
   <time name="total">    0.81    0.92</time>
   <energy>
    <i name="e_fr_energy">   -363.44059405 </i>
    <i name="e_wo_entrp">   -363.45081602 </i>
    <i name="e_0_energy">   -363.44400138 </i>
   </energy>
  </scstep>
  <scstep>
   <time name="diag">    0.08    0.08</time>
   <time name="diis">    0.68    0.69</time>
   <time name="orth">    0.01    0.01</time>
   <time name="total">    0.84    0.89</time>
   <energy>
    <i name="e_fr_energy">   -363.44059210 </i>
    <i name="e_wo_entrp">   -363.45081447 </i>
    <i name="e_0_energy">   -363.44399956 </i>
   </energy>
  </scstep>
  <scstep>
   <time name="diag">    0.08    0.08</time>
   <time name="diis">    0.48    0.48</time>
   <time name="orth">    0.01    0.01</time>
   <time name="total">    0.62    0.68</time>
   <energy>
    <i name="alphaZ">   1597.97548822 </i>
    <i name="ewald"> -21260.88641953 </i>
    <i name="hartreedc">  -6756.91976006 </i>
    <i name="XCdc">   -133.13939360 </i>
    <i name="pawpsdc">  35364.31069218 </i>
    <i name="pawaedc"> -33790.21127858 </i>
    <i name="eentropy">      0.01021806 </i>
    <i name="bandstr">  -2851.81180981 </i>
    <i name="atom">  27467.23167136 </i>
    <i name="e_fr_energy">   -363.44059176 </i>
    <i name="e_wo_entrp">   -363.45080982 </i>
    <i name="e_0_energy">   -363.44399778 </i>
   </energy>
  </scstep>
  <structure>
   <crystal>
    <varray name="basis" >
     <v>       6.91779757      -0.01208681       0.01455854 </v>
     <v>      -0.01749144      10.20409379       0.00649188 </v>
     <v>       0.02174978       0.00659599      10.33627533 </v>
    </varray>
    <i name="volume">    729.63046260 </i>
    <varray name="rec_basis" >
     <v>       0.14455575       0.00024799      -0.00030434 </v>
     <v>       0.00017136       0.09800022      -0.00006290 </v>
     <v>      -0.00020371      -0.00006190       0.09674712 </v>
    </varray>
   </crystal>
   <varray name="positions" >
    <v>       0.75335289       0.17027944       0.18197728 </v>
    <v>       0.24354987       0.83442723       0.83071392 </v>
    <v>       0.75534507       0.48847195       0.17583453 </v>
    <v>       0.50090177       0.66762220       0.33514890 </v>
    <v>       0.25756927       0.14228730       0.82955042 </v>
    <v>       0.00050395       0.33329505       0.98778115 </v>
    <v>       0.51250278       0.99381450       0.02125801 </v>
    <v>       0.49300672       0.34810842       0.67377560 </v>
    <v>       0.49637318       0.66376529       0.00372570 </v>
    <v>       0.23757650       0.50294443       0.49327025 </v>
    <v>       0.50216490       0.99254247       0.32577347 </v>
    <v>       0.99791092       0.99713804       0.33022808 </v>
    <v>       0.25313920       0.16181967       0.49003182 </v>
    <v>       0.00206382       0.01448015       0.65259265 </v>
    <v>       0.99786524       0.65725968       0.65833759 </v>
    <v>       0.50641637       0.97851867       0.64876258 </v>
    <v>       0.00922053       0.33977636       0.34624837 </v>
    <v>       0.48598588       0.33982010       0.34549136 </v>
    <v>       0.76973176       0.83937776       0.49892350 </v>
    <v>       0.24002496       0.49154647       0.17434838 </v>
    <v>       0.22632866       0.52241622       0.83544033 </v>
    <v>       0.00480886       0.66742977       0.01122270 </v>
    <v>       0.22968472       0.83812135       0.17477783 </v>
    <v>       0.76024580       0.49577850       0.49283623 </v>
    <v>       0.77194920       0.83450650       0.17300480 </v>
    <v>       0.98731363       0.99771489       0.01440961 </v>
    <v>       0.77313403       0.52078986       0.83292715 </v>
    <v>       0.99800902       0.66601257       0.33118657 </v>
    <v>       0.74192937       0.16600018       0.49387364 </v>
    <v>       0.76763675       0.83355049       0.82688324 </v>
    <v>       0.49538144       0.34319594       0.98886481 </v>
    <v>       0.24374376       0.17314920       0.17679973 </v>
    <v>       0.00551818       0.33405870       0.66537587 </v>
    <v>       0.23408088       0.83915203       0.49608095 </v>
    <v>       0.73939404       0.14518653       0.82147357 </v>
    <v>       0.50563009       0.66564310       0.66106342 </v>
   </varray>
  </structure>
  <varray name="forces" >
   <v>      -0.06808910       0.11505518      -0.06190747 </v>
   <v>      -0.03235694      -0.02844560      -0.04687341 </v>
   <v>       0.01809524       0.09377551       0.01268006 </v>
   <v>       0.01055563      -0.00841030       0.00259216 </v>
   <v>       0.01495628      -0.00164953      -0.00865734 </v>
   <v>       0.12389380       0.16912152      -0.17143847 </v>
   <v>      -0.08850357      -0.18427973       0.00233722 </v>
   <v>       0.01435768      -0.00209421      -0.01766279 </v>
   <v>      -0.00962287       0.00508203      -0.00808144 </v>
   <v>      -0.03427018      -0.03224376      -0.03553501 </v>
   <v>      -0.12444687      -0.22818912       0.05650057 </v>
   <v>       0.09570629      -0.19654414       0.03996956 </v>
   <v>      -0.01288996      -0.02647059      -0.01799437 </v>
   <v>       0.01564011       0.02713049      -0.02361445 </v>
   <v>      -0.06474898      -0.05353420       0.02843693 </v>
   <v>       0.02444002      -0.02270179      -0.00736031 </v>
   <v>       0.22345985       0.25101779       0.24392633 </v>
   <v>      -0.21318843       0.25517876       0.22908950 </v>
   <v>       0.01739155       0.01882045       0.00593457 </v>
   <v>      -0.02659479      -0.02448458      -0.00771392 </v>
   <v>      -0.05998380       0.07205384      -0.02070831 </v>
   <v>       0.00616721      -0.01197873       0.00692031 </v>
   <v>      -0.08891872       0.00009695       0.04245244 </v>
   <v>       0.03515657      -0.03514437      -0.02230445 </v>
   <v>       0.10457477      -0.01678081       0.04088542 </v>
   <v>       0.15179556      -0.28291511      -0.09006523 </v>
   <v>       0.04238227       0.06766120      -0.02497614 </v>
   <v>      -0.00631395       0.00109864      -0.01989641 </v>
   <v>      -0.00573367      -0.04709075       0.08204968 </v>
   <v>       0.02382160      -0.00784986      -0.02728079 </v>
   <v>      -0.12410013       0.18225955      -0.19201457 </v>
   <v>       0.00963480      -0.03443663       0.03074770 </v>
   <v>      -0.00334783      -0.00256442      -0.03599398 </v>
   <v>      -0.01946694      -0.00066507       0.03891096 </v>
   <v>       0.02014360      -0.01724064      -0.04421445 </v>
   <v>       0.03040390       0.00736202       0.02085990 </v>
  </varray>
  <varray name="stress" >
   <v>     -13.77693177      -0.26168837      -0.13106323 </v>
   <v>      -0.26168837     -13.92568523      -0.12859662 </v>
   <v>      -0.13106325      -0.12859662     -14.40614715 </v>
  </varray>
  <energy>
   <i name="e_fr_energy">   -363.44059176 </i>
   <i name="e_wo_entrp">   -363.44399778 </i>
   <i name="e_0_energy">      0.01021806 </i>
  </energy>
  <time name="totalsc">   15.44   16.69</time>
 </calculation>
 <calculation>
  <scstep>
   <time name="dav">    1.11    1.12</time>
   <time name="total">    1.18    1.43</time>
   <energy>
    <i name="alphaZ">   1603.18377715 </i>
    <i name="ewald"> -21281.51390533 </i>
    <i name="hartreedc">  -6766.61576475 </i>
    <i name="XCdc">   -132.11636375 </i>
    <i name="pawpsdc">  35363.74035334 </i>
    <i name="pawaedc"> -33789.68259654 </i>
    <i name="eentropy">      0.01022246 </i>
    <i name="bandstr">  -2827.70356867 </i>
    <i name="atom">  27467.23167136 </i>
    <i name="e_fr_energy">   -363.46617473 </i>
    <i name="e_wo_entrp">   -363.47639719 </i>
    <i name="e_0_energy">   -363.46958222 </i>
   </energy>
  </scstep>
  <scstep>
   <time name="diag">    0.08    0.08</time>
   <time name="diis">    0.85    0.86</time>
   <time name="orth">    0.01    0.01</time>
   <time name="total">    1.01    1.06</time>
   <energy>
    <i name="e_fr_energy">   -363.45383966 </i>
    <i name="e_wo_entrp">   -363.46452172 </i>
    <i name="e_0_energy">   -363.45740035 </i>
   </energy>
  </scstep>
  <scstep>
   <time name="diag">    0.08    0.08</time>
   <time name="diis">    0.77    0.87</time>
   <time name="orth">    0.01    0.01</time>
   <time name="total">    0.93    1.07</time>
   <energy>
    <i name="e_fr_energy">   -363.44999406 </i>
    <i name="e_wo_entrp">   -363.46031016 </i>
    <i name="e_0_energy">   -363.45343276 </i>
   </energy>
  </scstep>
  <scstep>
   <time name="diag">    0.08    0.08</time>
   <time name="diis">    0.78    0.85</time>
   <time name="orth">    0.01    0.02</time>
   <time name="total">    0.95    1.10</time>
   <energy>
    <i name="e_fr_energy">   -363.44507809 </i>
    <i name="e_wo_entrp">   -363.45515745 </i>
    <i name="e_0_energy">   -363.44843788 </i>
   </energy>
  </scstep>
  <scstep>
   <time name="diag">    0.08    0.15</time>
   <time name="diis">    0.85    0.86</time>
   <time name="orth">    0.01    0.01</time>
   <time name="total">    1.02    1.14</time>
   <energy>
    <i name="e_fr_energy">   -363.44465869 </i>
    <i name="e_wo_entrp">   -363.45492333 </i>
    <i name="e_0_energy">   -363.44808024 </i>
   </energy>
  </scstep>
  <scstep>
   <time name="diag">    0.08    0.08</time>
   <time name="diis">    0.82    0.84</time>
   <time name="orth">    0.01    0.01</time>
   <time name="total">    1.01    1.10</time>
   <energy>
    <i name="e_fr_energy">   -363.44476229 </i>
    <i name="e_wo_entrp">   -363.45503584 </i>
    <i name="e_0_energy">   -363.44818681 </i>
   </energy>
  </scstep>
  <scstep>
   <time name="diag">    0.13    0.13</time>
   <time name="diis">    0.77    0.78</time>
   <time name="orth">    0.01    0.01</time>
   <time name="total">    0.98    1.03</time>
   <energy>
    <i name="e_fr_energy">   -363.44482476 </i>
    <i name="e_wo_entrp">   -363.45499995 </i>
    <i name="e_0_energy">   -363.44821649 </i>
   </energy>
  </scstep>
  <scstep>
   <time name="diag">    0.08    0.08</time>
   <time name="diis">    0.69    0.70</time>
   <time name="orth">    0.01    0.01</time>
   <time name="total">    0.85    0.90</time>
   <energy>
    <i name="e_fr_energy">   -363.44487483 </i>
    <i name="e_wo_entrp">   -363.45509327 </i>
    <i name="e_0_energy">   -363.44828098 </i>
   </energy>
  </scstep>
  <scstep>
   <time name="diag">    0.08    0.08</time>
   <time name="diis">    0.53    0.53</time>
   <time name="orth">    0.01    0.01</time>
   <time name="total">    0.69    0.74</time>
   <energy>
    <i name="e_fr_energy">   -363.44491325 </i>
    <i name="e_wo_entrp">   -363.45513385 </i>
    <i name="e_0_energy">   -363.44832011 </i>
   </energy>
  </scstep>
  <scstep>
   <time name="diag">    0.08    0.08</time>
   <time name="diis">    0.48    0.48</time>
   <time name="orth">    0.01    0.01</time>
   <time name="total">    0.66    0.71</time>
   <energy>
    <i name="e_fr_energy">   -363.44493810 </i>
    <i name="e_wo_entrp">   -363.45515003 </i>
    <i name="e_0_energy">   -363.44834208 </i>
   </energy>
  </scstep>
  <scstep>
   <time name="diag">    0.08    0.08</time>
   <time name="diis">    0.43    0.43</time>
   <time name="orth">    0.01    0.01</time>
   <time name="total">    0.59    0.64</time>
   <energy>
    <i name="e_fr_energy">   -363.44495598 </i>
    <i name="e_wo_entrp">   -363.45516604 </i>
    <i name="e_0_energy">   -363.44835933 </i>
   </energy>
  </scstep>
  <scstep>
   <time name="diag">    0.09    0.09</time>
   <time name="diis">    0.42    0.43</time>
   <time name="orth">    0.01    0.01</time>
   <time name="total">    0.59    0.66</time>
   <energy>
    <i name="e_fr_energy">   -363.44496828 </i>
    <i name="e_wo_entrp">   -363.45517193 </i>
    <i name="e_0_energy">   -363.44836950 </i>
   </energy>
  </scstep>
  <scstep>
   <time name="diag">    0.08    0.08</time>
   <time name="diis">    0.38    0.38</time>
   <time name="orth">    0.01    0.01</time>
   <time name="total">    0.51    0.55</time>
   <energy>
    <i name="alphaZ">   1603.18377715 </i>
    <i name="ewald"> -21281.51390533 </i>
    <i name="hartreedc">  -6752.38429796 </i>
    <i name="XCdc">   -132.74526816 </i>
    <i name="pawpsdc">  35512.08985883 </i>
    <i name="pawaedc"> -33937.84343458 </i>
    <i name="eentropy">      0.01020439 </i>
    <i name="bandstr">  -2841.47357615 </i>
    <i name="atom">  27467.23167136 </i>
    <i name="e_fr_energy">   -363.44497044 </i>
    <i name="e_wo_entrp">   -363.45517483 </i>
    <i name="e_0_energy">   -363.44837190 </i>
   </energy>
  </scstep>
  <structure>
   <crystal>
    <varray name="basis" >
     <v>       6.91015774      -0.01145036       0.01489633 </v>
     <v>      -0.01655349      10.19288009       0.00691313 </v>
     <v>       0.02225465       0.00702522      10.32543303 </v>
    </varray>
    <i name="volume">    727.26010037 </i>
    <varray name="rec_basis" >
     <v>       0.14471556       0.00023523      -0.00031207 </v>
     <v>       0.00016271       0.09810801      -0.00006710 </v>
     <v>      -0.00020889      -0.00006603       0.09684873 </v>
    </varray>
   </crystal>
   <varray name="positions" >
    <v>       0.75357234       0.16992520       0.18210052 </v>
    <v>       0.24357376       0.83441193       0.83070160 </v>
    <v>       0.75534340       0.48829955       0.17584497 </v>
    <v>       0.50091004       0.66762530       0.33514442 </v>
    <v>       0.25755961       0.14227646       0.82950198 </v>
    <v>       0.00027555       0.33310989       0.98803455 </v>
    <v>       0.51278364       0.99405776       0.02137613 </v>
    <v>       0.49301226       0.34810913       0.67378977 </v>
    <v>       0.49638585       0.66373960       0.00372282 </v>
    <v>       0.23759876       0.50301266       0.49331446 </v>
    <v>       0.50260483       0.99294738       0.32559459 </v>
    <v>       0.99751163       0.99749624       0.33001216 </v>
    <v>       0.25314699       0.16180820       0.49007101 </v>
    <v>       0.00204878       0.01446642       0.65260505 </v>
    <v>       0.99788594       0.65725466       0.65833708 </v>
    <v>       0.50642336       0.97854809       0.64875386 </v>
    <v>       0.00874204       0.33945222       0.34592323 </v>
    <v>       0.48642542       0.33954909       0.34523194 </v>
    <v>       0.76973160       0.83934864       0.49893005 </v>
    <v>       0.24003537       0.49159336       0.17437317 </v>
    <v>       0.22633521       0.52245903       0.83542383 </v>
    <v>       0.00479325       0.66744684       0.01122785 </v>
    <v>       0.22967341       0.83810229       0.17477160 </v>
    <v>       0.76023158       0.49581285       0.49286555 </v>
    <v>       0.77198540       0.83458684       0.17296199 </v>
    <v>       0.98684606       0.99806400       0.01472875 </v>
    <v>       0.77314597       0.52081063       0.83291910 </v>
    <v>       0.99798456       0.66604122       0.33117844 </v>
    <v>       0.74191261       0.16601439       0.49367620 </v>
    <v>       0.76762602       0.83353199       0.82687360 </v>
    <v>       0.49561989       0.34299369       0.98910660 </v>
    <v>       0.24369468       0.17313487       0.17681152 </v>
    <v>       0.00550601       0.33405915       0.66539156 </v>
    <v>       0.23406974       0.83912658       0.49608800 </v>
    <v>       0.73936821       0.14516705       0.82154549 </v>
    <v>       0.50563026       0.66561784       0.66106059 </v>
   </varray>
  </structure>
  <varray name="forces" >
   <v>      -0.08360937       0.16271842      -0.07422596 </v>
   <v>      -0.02922291      -0.02016024      -0.03565523 </v>
   <v>       0.01482432       0.10872188       0.00887887 </v>
   <v>       0.00740395      -0.00809655       0.00303312 </v>
   <v>       0.01405780       0.00074177       0.00313223 </v>
   <v>       0.13066684       0.17298592      -0.18924211 </v>
   <v>      -0.10801311      -0.19639099      -0.02140900 </v>
   <v>       0.01069137      -0.00214456      -0.01691613 </v>
   <v>      -0.00960480       0.00884188      -0.00617015 </v>
   <v>      -0.03137923      -0.03985950      -0.03847801 </v>
   <v>      -0.15952646      -0.26350437       0.08064036 </v>
   <v>       0.13056311      -0.22919104       0.07459640 </v>
   <v>      -0.01105704      -0.01915709      -0.02351582 </v>
   <v>       0.01496587       0.02428350      -0.02126910 </v>
   <v>      -0.05513705      -0.04251719       0.02275202 </v>
   <v>       0.01851245      -0.02404124      -0.00359026 </v>
   <v>       0.24546633       0.26758961       0.26317527 </v>
   <v>      -0.23143644       0.26070412       0.23826116 </v>
   <v>       0.01417836       0.02095305       0.00399941 </v>
   <v>      -0.02283946      -0.02991030      -0.01130308 </v>
   <v>      -0.04952795       0.04938513      -0.01342102 </v>
   <v>       0.00723493      -0.01328861       0.00464706 </v>
   <v>      -0.07055701       0.00387711       0.03520634 </v>
   <v>       0.03044602      -0.03535592      -0.02437478 </v>
   <v>       0.08042429      -0.02777639       0.04182164 </v>
   <v>       0.18424893      -0.29770267      -0.13614694 </v>
   <v>       0.03282298       0.05069153      -0.01810467 </v>
   <v>      -0.00201009      -0.00464079      -0.01441197 </v>
   <v>      -0.00233418      -0.04085955       0.10426715 </v>
   <v>       0.02064250      -0.00249227      -0.01990209 </v>
   <v>      -0.13277114       0.18730363      -0.20431338 </v>
   <v>       0.01391240      -0.02475293       0.02270611 </v>
   <v>      -0.00129696      -0.00225234      -0.03228459 </v>
   <v>      -0.01460833       0.00452823       0.02962127 </v>
   <v>       0.01933039      -0.01030459      -0.04965381 </v>
   <v>       0.02453868       0.01107332       0.01764968 </v>
  </varray>
  <varray name="stress" >
   <v>      -9.53544337      -0.35595213      -0.18946539 </v>
   <v>      -0.35595208      -9.66870216      -0.16856235 </v>
   <v>      -0.18946538      -0.16856239     -10.12750380 </v>
  </varray>
  <energy>
   <i name="e_fr_energy">   -363.44497044 </i>
   <i name="e_wo_entrp">   -363.44837190 </i>
   <i name="e_0_energy">      0.01020439 </i>
  </energy>
  <time name="totalsc">   12.70   14.04</time>
 </calculation>
 <calculation>
  <scstep>
   <time name="dav">    1.02    1.08</time>
   <time name="total">    1.15    1.44</time>
   <energy>
    <i name="alphaZ">   1605.86138297 </i>
    <i name="ewald"> -21298.27815762 </i>
    <i name="hartreedc">  -6751.24904941 </i>
    <i name="XCdc">   -132.21915914 </i>
    <i name="pawpsdc">  35512.25312721 </i>
    <i name="pawaedc"> -33938.00342478 </i>
    <i name="eentropy">      0.00923008 </i>
    <i name="bandstr">  -2829.07650159 </i>
    <i name="atom">  27467.23167136 </i>
    <i name="e_fr_energy">   -363.47088092 </i>
    <i name="e_wo_entrp">   -363.48011100 </i>
    <i name="e_0_energy">   -363.47395761 </i>
   </energy>
  </scstep>
  <scstep>
   <time name="diag">    0.09    0.09</time>
   <time name="diis">    0.93    0.95</time>
   <time name="orth">    0.01    0.01</time>
   <time name="total">    1.12    1.20</time>
   <energy>
    <i name="e_fr_energy">   -363.48702080 </i>
    <i name="e_wo_entrp">   -363.49646004 </i>
    <i name="e_0_energy">   -363.49016721 </i>
   </energy>
  </scstep>
  <scstep>
   <time name="diag">    0.08    0.09</time>
   <time name="diis">    0.83    0.85</time>
   <time name="orth">    0.01    0.01</time>
   <time name="total">    1.00    1.07</time>
   <energy>
    <i name="e_fr_energy">   -363.48008254 </i>
    <i name="e_wo_entrp">   -363.48942870 </i>
    <i name="e_0_energy">   -363.48319792 </i>
   </energy>
  </scstep>
  <scstep>
   <time name="diag">    0.10    0.11</time>
   <time name="diis">    0.79    0.91</time>
   <time name="orth">    0.01    0.02</time>
   <time name="total">    0.99    1.20</time>
   <energy>
    <i name="e_fr_energy">   -363.47895596 </i>
    <i name="e_wo_entrp">   -363.48816364 </i>
    <i name="e_0_energy">   -363.48202518 </i>
   </energy>
  </scstep>
  <scstep>
   <time name="diag">    0.08    0.09</time>
   <time name="diis">    0.84    0.92</time>
   <time name="orth">    0.01    0.01</time>
   <time name="total">    0.99    1.18</time>
   <energy>
    <i name="e_fr_energy">   -363.47885199 </i>
    <i name="e_wo_entrp">   -363.48808998 </i>
    <i name="e_0_energy">   -363.48193132 </i>
   </energy>
  </scstep>
  <scstep>
   <time name="diag">    0.08    0.09</time>
   <time name="diis">    0.86    0.89</time>
   <time name="orth">    0.01    0.01</time>
   <time name="total">    1.02    1.10</time>
   <energy>
    <i name="e_fr_energy">   -363.47886987 </i>
    <i name="e_wo_entrp">   -363.48816153 </i>
    <i name="e_0_energy">   -363.48196709 </i>
   </energy>
  </scstep>
  <scstep>
   <time name="diag">    0.11    0.12</time>
   <time name="diis">    0.80    0.88</time>
   <time name="orth">    0.01    0.01</time>
   <time name="total">    1.00    1.15</time>
   <energy>
    <i name="e_fr_energy">   -363.47886606 </i>
    <i name="e_wo_entrp">   -363.48810795 </i>
    <i name="e_0_energy">   -363.48194669 </i>
   </energy>
  </scstep>
  <scstep>
   <time name="diag">    0.11    0.11</time>
   <time name="diis">    0.70    0.70</time>
   <time name="orth">    0.01    0.01</time>
   <time name="total">    0.91    0.96</time>
   <energy>
    <i name="e_fr_energy">   -363.47888749 </i>
    <i name="e_wo_entrp">   -363.48810526 </i>
    <i name="e_0_energy">   -363.48196008 </i>
   </energy>
  </scstep>
  <scstep>
   <time name="diag">    0.09    0.09</time>
   <time name="diis">    0.56    0.60</time>
   <time name="orth">    0.01    0.01</time>
   <time name="total">    0.73    0.83</time>
   <energy>
    <i name="e_fr_energy">   -363.47890621 </i>
    <i name="e_wo_entrp">   -363.48815591 </i>
    <i name="e_0_energy">   -363.48198945 </i>
   </energy>
  </scstep>
  <scstep>
   <time name="diag">    0.11    0.11</time>
   <time name="diis">    0.46    0.47</time>
   <time name="orth">    0.01    0.02</time>
   <time name="total">    0.64    0.70</time>
   <energy>
    <i name="alphaZ">   1605.86138297 </i>
    <i name="ewald"> -21298.27815762 </i>
    <i name="hartreedc">  -6743.74539443 </i>
    <i name="XCdc">   -132.53997470 </i>
    <i name="pawpsdc">  35579.04473100 </i>
    <i name="pawaedc"> -34004.68447190 </i>
    <i name="eentropy">      0.00924113 </i>
    <i name="bandstr">  -2836.37794075 </i>
    <i name="atom">  27467.23167136 </i>
    <i name="e_fr_energy">   -363.47891294 </i>
    <i name="e_wo_entrp">   -363.48815407 </i>
    <i name="e_0_energy">   -363.48199331 </i>
   </energy>
  </scstep>
  <structure>
   <crystal>
    <varray name="basis" >
     <v>       6.90678707      -0.01262249       0.01423542 </v>
     <v>      -0.01828202      10.18759321       0.00609526 </v>
     <v>       0.02126841       0.00619232      10.31860009 </v>
    </varray>
    <i name="volume">    726.04747026 </i>
    <varray name="rec_basis" >
     <v>       0.14478621       0.00026000      -0.00029859 </v>
     <v>       0.00017951       0.09815897      -0.00005928 </v>
     <v>      -0.00019985      -0.00005834       0.09691282 </v>
    </varray>
   </crystal>
   <varray name="positions" >
    <v>       0.75314349       0.17056642       0.18185352 </v>
    <v>       0.24348437       0.83440048       0.83066523 </v>
    <v>       0.75537709       0.48865419       0.17584542 </v>
    <v>       0.50091621       0.66761011       0.33515386 </v>
    <v>       0.25760054       0.14229001       0.82956206 </v>
    <v>       0.00081686       0.33357212       0.98747391 </v>
    <v>       0.51223102       0.99349535       0.02121049 </v>
    <v>       0.49302866       0.34810528       0.67374942 </v>
    <v>       0.49635096       0.66378183       0.00371738 </v>
    <v>       0.23750663       0.50287684       0.49320913 </v>
    <v>       0.50175932       0.99210236       0.32591552 </v>
    <v>       0.99824662       0.99675493       0.33036613 </v>
    <v>       0.25311461       0.16179382       0.48999262 </v>
    <v>       0.00209801       0.01451720       0.65256052 </v>
    <v>       0.99774488       0.65719910       0.65837019 </v>
    <v>       0.50645455       0.97847973       0.64875875 </v>
    <v>       0.00981266       0.34021010       0.34666971 </v>
    <v>       0.48542873       0.34023494       0.34586900 </v>
    <v>       0.76976193       0.83941229       0.49892814 </v>
    <v>       0.23997489       0.49149639       0.17432872 </v>
    <v>       0.22622281       0.52248076       0.83542384 </v>
    <v>       0.00482649       0.66740811       0.01122852 </v>
    <v>       0.22953652       0.83812957       0.17482898 </v>
    <v>       0.76031253       0.49572259       0.49279717 </v>
    <v>       0.77211419       0.83445468       0.17307038 </v>
    <v>       0.98777425       0.99723493       0.01416826 </v>
    <v>       0.77320216       0.52085978       0.83290249 </v>
    <v>       0.99800846       0.66600161       0.33116733 </v>
    <v>       0.74192629       0.16593915       0.49405129 </v>
    <v>       0.76768224       0.83354973       0.82685635 </v>
    <v>       0.49506558       0.34349558       0.98853871 </v>
    <v>       0.24378043       0.17311574       0.17683019 </v>
    <v>       0.00551738       0.33405542       0.66532768 </v>
    <v>       0.23405142       0.83916229       0.49612201 </v>
    <v>       0.73943912       0.14517471       0.82139225 </v>
    <v>       0.50568210       0.66566285       0.66108882 </v>
   </varray>
  </structure>
  <varray name="forces" >
   <v>      -0.06436622       0.09262671      -0.06807374 </v>
   <v>      -0.02079907      -0.02968565      -0.05139740 </v>
   <v>       0.00544592       0.07520716      -0.00163855 </v>
   <v>       0.01177515      -0.00669332      -0.00053200 </v>
   <v>       0.01890577       0.00680016      -0.01118314 </v>
   <v>       0.11082035       0.14512704      -0.15188278 </v>
   <v>      -0.08205552      -0.15988332      -0.00075972 </v>
   <v>       0.01932707      -0.01852343      -0.01276891 </v>
   <v>       0.00003373       0.01386679      -0.00533074 </v>
   <v>      -0.01102189      -0.01831849      -0.01154489 </v>
   <v>      -0.09534533      -0.18646300       0.04668509 </v>
   <v>       0.06846008      -0.13734165       0.02475010 </v>
   <v>      -0.00643051      -0.02371345       0.00324825 </v>
   <v>       0.01959841       0.02050175      -0.00912524 </v>
   <v>      -0.06021248      -0.03023020       0.02362143 </v>
   <v>       0.01633520      -0.00351638       0.00185684 </v>
   <v>       0.17948670       0.20211127       0.20371778 </v>
   <v>      -0.17517561       0.22478046       0.20262828 </v>
   <v>       0.00259858      -0.00056043       0.00535922 </v>
   <v>      -0.01309788      -0.00804423      -0.02178121 </v>
   <v>      -0.02861337       0.06311798      -0.02672056 </v>
   <v>      -0.00598379      -0.00392336       0.00616153 </v>
   <v>      -0.05709451      -0.01627245       0.03289914 </v>
   <v>       0.01347880      -0.02463120      -0.00076936 </v>
   <v>       0.07251899      -0.02943985       0.03141806 </v>
   <v>       0.13937347      -0.24026582      -0.07540405 </v>
   <v>       0.00970604       0.05121039      -0.02518744 </v>
   <v>      -0.00926744      -0.00041573      -0.01491978 </v>
   <v>      -0.01008264      -0.03900314       0.06645966 </v>
   <v>       0.01339237      -0.01168134      -0.02563199 </v>
   <v>      -0.10944360       0.15824874      -0.17358505 </v>
   <v>       0.01394237      -0.03538974       0.01628677 </v>
   <v>      -0.00674642      -0.01674132      -0.02609744 </v>
   <v>      -0.00536277      -0.01848517       0.05170450 </v>
   <v>       0.01950977       0.00139379      -0.02247241 </v>
   <v>       0.02639032       0.00423041       0.02000978 </v>
  </varray>
  <varray name="stress" >
   <v>      -6.95104562      -0.16443297      -0.10076912 </v>
   <v>      -0.16443295      -6.97100075      -0.10689599 </v>
   <v>      -0.10076912      -0.10689608      -7.55415446 </v>
  </varray>
  <energy>
   <i name="e_fr_energy">   -363.47891294 </i>
   <i name="e_wo_entrp">   -363.48199331 </i>
   <i name="e_0_energy">      0.00924113 </i>
  </energy>
  <time name="totalsc">   11.23   12.69</time>
 </calculation>
 <calculation>
  <scstep>
   <time name="dav">    0.99    1.00</time>
   <time name="total">    1.08    1.34</time>
   <energy>
    <i name="alphaZ">   1613.52600598 </i>
    <i name="ewald"> -21342.68345751 </i>
    <i name="hartreedc">  -6743.69986078 </i>
    <i name="XCdc">   -131.01725534 </i>
    <i name="pawpsdc">  35579.56339405 </i>
    <i name="pawaedc"> -34005.16673128 </i>
    <i name="eentropy">      0.00686016 </i>
    <i name="bandstr">  -2801.21517672 </i>
    <i name="atom">  27467.23167136 </i>
    <i name="e_fr_energy">   -363.45455008 </i>
    <i name="e_wo_entrp">   -363.46141024 </i>
    <i name="e_0_energy">   -363.45683680 </i>
   </energy>
  </scstep>
  <scstep>
   <time name="diag">    0.09    0.09</time>
   <time name="diis">    0.77    0.78</time>
   <time name="orth">    0.01    0.01</time>
   <time name="total">    0.94    0.99</time>
   <energy>
    <i name="e_fr_energy">   -363.58751948 </i>
    <i name="e_wo_entrp">   -363.59492765 </i>
    <i name="e_0_energy">   -363.58998887 </i>
   </energy>
  </scstep>
  <scstep>
   <time name="diag">    0.08    0.08</time>
   <time name="diis">    0.79    0.79</time>
   <time name="orth">    0.01    0.01</time>
   <time name="total">    0.95    0.99</time>
   <energy>
    <i name="e_fr_energy">   -363.52852720 </i>
    <i name="e_wo_entrp">   -363.53528002 </i>
    <i name="e_0_energy">   -363.53077814 </i>
   </energy>
  </scstep>
  <scstep>
   <time name="diag">    0.08    0.09</time>
   <time name="diis">    0.84    0.85</time>
   <time name="orth">    0.01    0.01</time>
   <time name="total">    1.00    1.06</time>
   <energy>
    <i name="e_fr_energy">   -363.52017878 </i>
    <i name="e_wo_entrp">   -363.52666565 </i>
    <i name="e_0_energy">   -363.52234107 </i>
   </energy>
  </scstep>
  <scstep>
[...]
       <r>    7.0094    1.0000 </r>
       <r>    7.0737    1.0000 </r>
       <r>    7.1100    1.0000 </r>
       <r>    7.1474    1.0000 </r>
       <r>    7.1979    1.0000 </r>
       <r>    7.2176    1.0000 </r>
       <r>    7.2834    1.0001 </r>
       <r>    7.3197    1.0003 </r>
       <r>    7.3418    1.0006 </r>
       <r>    7.3764    1.0018 </r>
       <r>    7.4406    1.0087 </r>
       <r>    7.4655    1.0142 </r>
       <r>    7.5101    1.0273 </r>
       <r>    7.5189    1.0298 </r>
       <r>    7.5470    1.0352 </r>
       <r>    7.5867    1.0249 </r>
       <r>    7.6096    1.0008 </r>
       <r>    7.6678    0.8459 </r>
       <r>    7.7001    0.6986 </r>
       <r>    7.7116    0.6382 </r>
       <r>    7.7629    0.3534 </r>
       <r>    7.8308    0.0675 </r>
       <r>    7.8472    0.0274 </r>
       <r>    7.8832   -0.0227 </r>
       <r>    7.9008   -0.0324 </r>
       <r>    7.9449   -0.0322 </r>
       <r>    7.9631   -0.0271 </r>
       <r>    7.9903   -0.0189 </r>
       <r>    8.0497   -0.0059 </r>
       <r>    8.0791   -0.0029 </r>
       <r>    8.1046   -0.0014 </r>
       <r>    8.1443   -0.0004 </r>
       <r>    8.2011   -0.0001 </r>
       <r>    8.2509   -0.0000 </r>
       <r>    8.2721   -0.0000 </r>
       <r>    8.3032   -0.0000 </r>
       <r>    8.4259   -0.0000 </r>
       <r>    8.4784   -0.0000 </r>
       <r>    8.5024   -0.0000 </r>
       <r>    8.5409   -0.0000 </r>
       <r>    8.6116   -0.0000 </r>
       <r>    8.8987   -0.0000 </r>
       <r>    8.9970   -0.0000 </r>
       <r>    9.0285   -0.0000 </r>
       <r>    9.6160   -0.0000 </r>
       <r>    9.6812   -0.0000 </r>
       <r>    9.7162   -0.0000 </r>
       <r>    9.7700   -0.0000 </r>
       <r>    9.8274   -0.0000 </r>
      </set>
     </set>
    </set>
   </array>
  </eigenvalues>
  <separator name="orbital magnetization" >
   <v name="MAGDIPOLOUT">      0.00000000      0.00000000      0.00000000</v>
  </separator>
  <dos>
   <i name="efermi">      7.73646156 </i>
   <total>
    <array>
     <dimension dim="1">gridpoints</dimension>
     <dimension dim="2">spin</dimension>
     <field>energy</field>
     <field>total</field>
     <field>integrated</field>
     <set>
      <set comment="spin 1">
       <r>   -49.4038     0.0000     0.0000 </r>
       <r>   -49.1969     0.0000     0.0000 </r>
       <r>   -48.9901     0.0000     0.0000 </r>
       <r>   -48.7832     0.0000     0.0000 </r>
       <r>   -48.5764     0.0000     0.0000 </r>
       <r>   -48.3695     0.0000     0.0000 </r>
       <r>   -48.1626     0.0000     0.0000 </r>
       <r>   -47.9558    -0.0000    -0.0000 </r>
       <r>   -47.7489    -0.0000    -0.0000 </r>
       <r>   -47.5421    -0.0000    -0.0000 </r>
       <r>   -47.3352    -0.0000    -0.0000 </r>
       <r>   -47.1283    -0.0000    -0.0000 </r>
       <r>   -46.9215    -0.0405    -0.0084 </r>
       <r>   -46.7146    -0.7598    -0.1656 </r>
       <r>   -46.5078    18.2137     3.6022 </r>
       <r>   -46.3009    59.0617    15.8197 </r>
       <r>   -46.0940    11.4424    18.1867 </r>
       <r>   -45.8872    -0.8988    18.0008 </r>
       <r>   -45.6803    -0.0038    18.0000 </r>
       <r>   -45.4734    -0.0000    18.0000 </r>
       <r>   -45.2666    -0.0000    18.0000 </r>
       <r>   -45.0597     0.0000    18.0000 </r>
       <r>   -44.8529     0.0000    18.0000 </r>
       <r>   -44.6460     0.0000    18.0000 </r>
       <r>   -44.4391     0.0000    18.0000 </r>
       <r>   -44.2323     0.0000    18.0000 </r>
       <r>   -44.0254     0.0000    18.0000 </r>
       <r>   -43.8186     0.0000    18.0000 </r>
       <r>   -43.6117     0.0000    18.0000 </r>
       <r>   -43.4048     0.0000    18.0000 </r>
       <r>   -43.1980     0.0000    18.0000 </r>
       <r>   -42.9911     0.0000    18.0000 </r>
       <r>   -42.7843     0.0000    18.0000 </r>
       <r>   -42.5774     0.0000    18.0000 </r>
       <r>   -42.3705     0.0000    18.0000 </r>
       <r>   -42.1637     0.0000    18.0000 </r>
       <r>   -41.9568     0.0000    18.0000 </r>
       <r>   -41.7499    -0.0000    18.0000 </r>
       <r>   -41.5431    -0.0000    18.0000 </r>
       <r>   -41.3362    -0.0000    18.0000 </r>
       <r>   -41.1294    -0.0000    18.0000 </r>
       <r>   -40.9225    -0.0066    17.9986 </r>
       <r>   -40.7156    -1.1928    17.7519 </r>
       <r>   -40.5088    15.9827    21.0581 </r>
       <r>   -40.3019    69.2738    35.3881 </r>
       <r>   -40.0951     3.4299    36.0977 </r>
       <r>   -39.8882    -0.4713    36.0002 </r>
       <r>   -39.6813    -0.0008    36.0000 </r>
       <r>   -39.4745    -0.0000    36.0000 </r>
       <r>   -39.2676    -0.0000    36.0000 </r>
       <r>   -39.0608     0.0000    36.0000 </r>
       <r>   -38.8539     0.0000    36.0000 </r>
       <r>   -38.6470     0.0000    36.0000 </r>
       <r>   -38.4402     0.0000    36.0000 </r>
       <r>   -38.2333     0.0000    36.0000 </r>
       <r>   -38.0265     0.0000    36.0000 </r>
       <r>   -37.8196     0.0000    36.0000 </r>
       <r>   -37.6127     0.0000    36.0000 </r>
       <r>   -37.4059     0.0000    36.0000 </r>
       <r>   -37.1990     0.0000    36.0000 </r>
       <r>   -36.9921     0.0000    36.0000 </r>
       <r>   -36.7853     0.0000    36.0000 </r>
       <r>   -36.5784     0.0000    36.0000 </r>
       <r>   -36.3716     0.0000    36.0000 </r>
       <r>   -36.1647     0.0000    36.0000 </r>
       <r>   -35.9578     0.0000    36.0000 </r>
       <r>   -35.7510     0.0000    36.0000 </r>
       <r>   -35.5441     0.0000    36.0000 </r>
       <r>   -35.3373     0.0000    36.0000 </r>
       <r>   -35.1304     0.0000    36.0000 </r>
       <r>   -34.9235     0.0000    36.0000 </r>
       <r>   -34.7167     0.0000    36.0000 </r>
       <r>   -34.5098     0.0000    36.0000 </r>
       <r>   -34.3030     0.0000    36.0000 </r>
       <r>   -34.0961     0.0000    36.0000 </r>
       <r>   -33.8892     0.0000    36.0000 </r>
       <r>   -33.6824     0.0000    36.0000 </r>
       <r>   -33.4755     0.0000    36.0000 </r>
       <r>   -33.2686     0.0000    36.0000 </r>
       <r>   -33.0618     0.0000    36.0000 </r>
       <r>   -32.8549     0.0000    36.0000 </r>
       <r>   -32.6481     0.0000    36.0000 </r>
       <r>   -32.4412     0.0000    36.0000 </r>
       <r>   -32.2343     0.0000    36.0000 </r>
       <r>   -32.0275     0.0000    36.0000 </r>
       <r>   -31.8206     0.0000    36.0000 </r>
       <r>   -31.6138     0.0000    36.0000 </r>
       <r>   -31.4069     0.0000    36.0000 </r>
       <r>   -31.2000     0.0000    36.0000 </r>
       <r>   -30.9932     0.0000    36.0000 </r>
       <r>   -30.7863     0.0000    36.0000 </r>
       <r>   -30.5795     0.0000    36.0000 </r>
       <r>   -30.3726     0.0000    36.0000 </r>
       <r>   -30.1657     0.0000    36.0000 </r>
       <r>   -29.9589     0.0000    36.0000 </r>
       <r>   -29.7520     0.0000    36.0000 </r>
       <r>   -29.5451     0.0000    36.0000 </r>
       <r>   -29.3383     0.0000    36.0000 </r>
       <r>   -29.1314     0.0000    36.0000 </r>
       <r>   -28.9246     0.0000    36.0000 </r>
       <r>   -28.7177     0.0000    36.0000 </r>
       <r>   -28.5108     0.0000    36.0000 </r>
       <r>   -28.3040     0.0000    36.0000 </r>
       <r>   -28.0971     0.0000    36.0000 </r>
       <r>   -27.8903     0.0000    36.0000 </r>
       <r>   -27.6834     0.0000    36.0000 </r>
       <r>   -27.4765     0.0000    36.0000 </r>
       <r>   -27.2697     0.0000    36.0000 </r>
       <r>   -27.0628     0.0000    36.0000 </r>
       <r>   -26.8560     0.0000    36.0000 </r>
       <r>   -26.6491     0.0000    36.0000 </r>
       <r>   -26.4422     0.0000    36.0000 </r>
       <r>   -26.2354     0.0000    36.0000 </r>
       <r>   -26.0285     0.0000    36.0000 </r>
       <r>   -25.8216     0.0000    36.0000 </r>
       <r>   -25.6148     0.0000    36.0000 </r>
       <r>   -25.4079     0.0000    36.0000 </r>
       <r>   -25.2011     0.0000    36.0000 </r>
       <r>   -24.9942     0.0000    36.0000 </r>
       <r>   -24.7873     0.0000    36.0000 </r>
       <r>   -24.5805     0.0000    36.0000 </r>
       <r>   -24.3736    -0.0000    36.0000 </r>
       <r>   -24.1668    -0.0000    36.0000 </r>
       <r>   -23.9599    -0.0000    36.0000 </r>
       <r>   -23.7530    -0.0000    36.0000 </r>
       <r>   -23.5462    -0.0000    36.0000 </r>
       <r>   -23.3393    -0.0545    35.9887 </r>
       <r>   -23.1325    -0.3293    35.9206 </r>
       <r>   -22.9256    16.8568    39.4076 </r>
       <r>   -22.7187    36.3566    46.9284 </r>
       <r>   -22.5119    92.5304    66.0693 </r>
       <r>   -22.3050    85.9762    83.8545 </r>
       <r>   -22.0982    27.0764    89.4555 </r>
       <r>   -21.8913     2.9347    90.0626 </r>
       <r>   -21.6844    -0.3014    90.0002 </r>
       <r>   -21.4776    -0.0012    90.0000 </r>
       <r>   -21.2707    -0.0000    90.0000 </r>
       <r>   -21.0638    -0.0000    90.0000 </r>
       <r>   -20.8570     0.0000    90.0000 </r>
       <r>   -20.6501     0.0000    90.0000 </r>
       <r>   -20.4433     0.0000    90.0000 </r>
       <r>   -20.2364    -0.0000    90.0000 </r>
       <r>   -20.0295    -0.0000    90.0000 </r>
       <r>   -19.8227    -0.0000    90.0000 </r>
       <r>   -19.6158    -0.0000    90.0000 </r>
       <r>   -19.4090    -0.0005    89.9999 </r>
       <r>   -19.2021    -0.2185    89.9547 </r>
       <r>   -18.9952     1.6944    90.3052 </r>
       <r>   -18.7884    26.0553    95.6950 </r>
       <r>   -18.5815    72.6547   110.7244 </r>
       <r>   -18.3747   112.4653   133.9891 </r>
       <r>   -18.1678    45.7497   143.4529 </r>
       <r>   -17.9609     3.0267   144.0790 </r>
       <r>   -17.7541    -0.3812   144.0002 </r>
       <r>   -17.5472    -0.0010   144.0000 </r>
       <r>   -17.3403    -0.0000   144.0000 </r>
       <r>   -17.1335    -0.0000   144.0000 </r>
       <r>   -16.9266     0.0000   144.0000 </r>
       <r>   -16.7198     0.0000   144.0000 </r>
       <r>   -16.5129     0.0000   144.0000 </r>
       <r>   -16.3060     0.0000   144.0000 </r>
       <r>   -16.0992     0.0000   144.0000 </r>
       <r>   -15.8923     0.0000   144.0000 </r>
       <r>   -15.6855     0.0000   144.0000 </r>
       <r>   -15.4786     0.0000   144.0000 </r>
       <r>   -15.2717     0.0000   144.0000 </r>
       <r>   -15.0649     0.0000   144.0000 </r>
       <r>   -14.8580     0.0000   144.0000 </r>
       <r>   -14.6512     0.0000   144.0000 </r>
       <r>   -14.4443     0.0000   144.0000 </r>
       <r>   -14.2374     0.0000   144.0000 </r>
       <r>   -14.0306     0.0000   144.0000 </r>
       <r>   -13.8237     0.0000   144.0000 </r>
       <r>   -13.6168     0.0000   144.0000 </r>
       <r>   -13.4100     0.0000   144.0000 </r>
       <r>   -13.2031     0.0000   144.0000 </r>
       <r>   -12.9963     0.0000   144.0000 </r>
       <r>   -12.7894     0.0000   144.0000 </r>
       <r>   -12.5825     0.0000   144.0000 </r>
       <r>   -12.3757     0.0000   144.0000 </r>
       <r>   -12.1688     0.0000   144.0000 </r>
       <r>   -11.9620     0.0000   144.0000 </r>
       <r>   -11.7551     0.0000   144.0000 </r>
       <r>   -11.5482     0.0000   144.0000 </r>
       <r>   -11.3414     0.0000   144.0000 </r>
       <r>   -11.1345     0.0000   144.0000 </r>
       <r>   -10.9277     0.0000   144.0000 </r>
       <r>   -10.7208     0.0000   144.0000 </r>
       <r>   -10.5139     0.0000   144.0000 </r>
       <r>   -10.3071     0.0000   144.0000 </r>
       <r>   -10.1002     0.0000   144.0000 </r>
       <r>    -9.8933     0.0000   144.0000 </r>
       <r>    -9.6865     0.0000   144.0000 </r>
       <r>    -9.4796     0.0000   144.0000 </r>
       <r>    -9.2728     0.0000   144.0000 </r>
       <r>    -9.0659     0.0000   144.0000 </r>
       <r>    -8.8590     0.0000   144.0000 </r>
       <r>    -8.6522     0.0000   144.0000 </r>
       <r>    -8.4453     0.0000   144.0000 </r>
       <r>    -8.2385     0.0000   144.0000 </r>
       <r>    -8.0316     0.0000   144.0000 </r>
       <r>    -7.8247     0.0000   144.0000 </r>
       <r>    -7.6179     0.0000   144.0000 </r>
       <r>    -7.4110     0.0000   144.0000 </r>
       <r>    -7.2042     0.0000   144.0000 </r>
       <r>    -6.9973     0.0000   144.0000 </r>
       <r>    -6.7904     0.0000   144.0000 </r>
       <r>    -6.5836     0.0000   144.0000 </r>
       <r>    -6.3767     0.0000   144.0000 </r>
       <r>    -6.1699     0.0000   144.0000 </r>
       <r>    -5.9630     0.0000   144.0000 </r>
       <r>    -5.7561     0.0000   144.0000 </r>
       <r>    -5.5493     0.0000   144.0000 </r>
       <r>    -5.3424     0.0000   144.0000 </r>
       <r>    -5.1355     0.0000   144.0000 </r>
       <r>    -4.9287     0.0000   144.0000 </r>
       <r>    -4.7218     0.0000   144.0000 </r>
       <r>    -4.5150     0.0000   144.0000 </r>
       <r>    -4.3081     0.0000   144.0000 </r>
       <r>    -4.1012     0.0000   144.0000 </r>
       <r>    -3.8944     0.0000   144.0000 </r>
       <r>    -3.6875     0.0000   144.0000 </r>
       <r>    -3.4807     0.0000   144.0000 </r>
       <r>    -3.2738     0.0000   144.0000 </r>
       <r>    -3.0669     0.0000   144.0000 </r>
       <r>    -2.8601     0.0000   144.0000 </r>
       <r>    -2.6532     0.0000   144.0000 </r>
       <r>    -2.4464     0.0000   144.0000 </r>
       <r>    -2.2395     0.0000   144.0000 </r>
       <r>    -2.0326     0.0000   144.0000 </r>
       <r>    -1.8258     0.0000   144.0000 </r>
       <r>    -1.6189     0.0000   144.0000 </r>
       <r>    -1.4120     0.0000   144.0000 </r>
       <r>    -1.2052     0.0000   144.0000 </r>
       <r>    -0.9983     0.0000   144.0000 </r>
       <r>    -0.7915     0.0000   144.0000 </r>
       <r>    -0.5846     0.0000   144.0000 </r>
       <r>    -0.3777    -0.0000   144.0000 </r>
       <r>    -0.1709    -0.0000   144.0000 </r>
       <r>     0.0360    -0.0000   144.0000 </r>
       <r>     0.2428    -0.0000   144.0000 </r>
       <r>     0.4497    -0.0000   144.0000 </r>
       <r>     0.6566    -0.0007   143.9999 </r>
       <r>     0.8634    -0.0099   143.9978 </r>
       <r>     1.0703     0.2511   144.0497 </r>
       <r>     1.2771     1.0952   144.2763 </r>
       <r>     1.4840     1.6708   144.6219 </r>
       <r>     1.6909     2.0720   145.0505 </r>
       <r>     1.8977     3.5810   145.7913 </r>
       <r>     2.1046     3.5387   146.5233 </r>
       <r>     2.3115     2.2392   146.9865 </r>
       <r>     2.5183     4.8687   147.9937 </r>
       <r>     2.7252     3.1845   148.6524 </r>
       <r>     2.9320     3.6435   149.4061 </r>
       <r>     3.1389     7.5753   150.9731 </r>
       <r>     3.3458     8.3165   152.6935 </r>
       <r>     3.5526     8.2037   154.3905 </r>
       <r>     3.7595     8.1068   156.0675 </r>
       <r>     3.9663    13.1743   158.7927 </r>
       <r>     4.1732    16.6335   162.2336 </r>
       <r>     4.3801    23.1923   167.0311 </r>
       <r>     4.5869    23.2661   171.8440 </r>
       <r>     4.7938    30.0890   178.0682 </r>
       <r>     5.0006    34.9292   185.2937 </r>
       <r>     5.2075    38.8794   193.3364 </r>
       <r>     5.4144    37.6675   201.1283 </r>
       <r>     5.6212    39.1629   209.2296 </r>
       <r>     5.8281    34.0561   216.2744 </r>
       <r>     6.0350    31.1402   222.7161 </r>
       <r>     6.2418    14.2942   225.6731 </r>
       <r>     6.4487    48.9819   235.8055 </r>
       <r>     6.6555    65.4953   249.3539 </r>
       <r>     6.8624    55.8905   260.9155 </r>
       <r>     7.0693    51.5604   271.5813 </r>
       <r>     7.2761    51.7519   282.2868 </r>
       <r>     7.4830    57.7223   294.2273 </r>
       <r>     7.6898    51.1280   304.8037 </r>
       <r>     7.8967    46.9187   314.5093 </r>
       <r>     8.1036    49.3247   324.7127 </r>
       <r>     8.3104    48.7840   334.8042 </r>
       <r>     8.5173    31.7006   341.3618 </r>
       <r>     8.7241    27.4072   347.0313 </r>
       <r>     8.9310    21.1857   351.4138 </r>
       <r>     9.1379    16.8464   354.8987 </r>
       <r>     9.3447    12.8387   357.5545 </r>
       <r>     9.5516    23.2849   362.3712 </r>
       <r>     9.7584    21.2229   366.7614 </r>
       <r>     9.9653     6.3345   368.0718 </r>
       <r>    10.1722    -0.3368   368.0021 </r>
       <r>    10.3790    -0.0102   368.0000 </r>
       <r>    10.5859    -0.0000   368.0000 </r>
       <r>    10.7928    -0.0000   368.0000 </r>
       <r>    10.9996     0.0000   368.0000 </r>
       <r>    11.2065     0.0000   368.0000 </r>
       <r>    11.4133     0.0000   368.0000 </r>
       <r>    11.6202     0.0000   368.0000 </r>
       <r>    11.8271     0.0000   368.0000 </r>
       <r>    12.0339     0.0000   368.0000 </r>
       <r>    12.2408     0.0000   368.0000 </r>
       <r>    12.4476     0.0000   368.0000 </r>
       <r>    12.6545     0.0000   368.0000 </r>
      </set>
     </set>
    </array>
   </total>
  </dos>
 </calculation>
 <structure name="finalpos" >
  <crystal>
   <varray name="basis" >
    <v>       6.89910697      -0.00708260       0.00710684 </v>
    <v>      -0.01005317      10.19122887      -0.01574089 </v>
    <v>       0.01063485      -0.01589130      10.28911554 </v>
   </varray>
   <i name="volume">    723.42837712 </i>
   <varray name="rec_basis" >
    <v>       0.14494660       0.00014275      -0.00014960 </v>
    <v>       0.00010058       0.09812393       0.00015145 </v>
    <v>      -0.00009996       0.00015002       0.09719042 </v>
   </varray>
  </crystal>
  <varray name="positions" >
   <v>       0.75280760       0.16985239       0.17284602 </v>
   <v>       0.24219326       0.83280347       0.82645401 </v>
   <v>       0.75454724       0.48761832       0.17301044 </v>
   <v>       0.50132183       0.66544920       0.33729650 </v>
   <v>       0.26428880       0.14228280       0.83111406 </v>
   <v>       0.01475270       0.34192385       0.98317059 </v>
   <v>       0.50337152       0.98352591       0.02492696 </v>
   <v>       0.49563933       0.34492310       0.67214016 </v>
   <v>       0.49746028       0.66510918       0.00328913 </v>
   <v>       0.23825606       0.50302421       0.49479543 </v>
   <v>       0.50132893       0.99029048       0.32899354 </v>
   <v>      -0.00201158       0.99541493       0.33045474 </v>
   <v>       0.25493660       0.16091297       0.49116945 </v>
   <v>       0.00276335       0.01779772       0.65550850 </v>
   <v>       0.98907159       0.65832135       0.65758992 </v>
   <v>       0.50737088       0.98827601       0.64809978 </v>
   <v>       0.01435134       0.34179876       0.34717848 </v>
   <v>       0.48112239       0.34413081       0.34738499 </v>
   <v>       0.76618327       0.84186954       0.50058207 </v>
   <v>       0.23858689       0.49489022       0.17420490 </v>
   <v>       0.22534386       0.52868256       0.82891986 </v>
   <v>      -0.00038811       0.66876266       0.01041706 </v>
   <v>       0.22750959       0.83366894       0.18051682 </v>
   <v>       0.75849698       0.49191870       0.49242827 </v>
   <v>       0.77183073       0.83097671       0.17601675 </v>
   <v>       0.99875174       0.98427219       0.01440566 </v>
   <v>       0.77052212       0.51895910       0.83274583 </v>
   <v>       0.99523067       0.66490893       0.33294754 </v>
   <v>       0.74389091       0.16638060       0.49157548 </v>
   <v>       0.76462109       0.83627342       0.82512993 </v>
   <v>       0.48567036       0.34929528       0.98330554 </v>
   <v>       0.24463432       0.17159977       0.17542410 </v>
   <v>       0.00658251       0.33197131       0.66505401 </v>
   <v>       0.23489609       0.83952066       0.49871010 </v>
   <v>       0.74463396       0.14870500       0.83217001 </v>
   <v>       0.50942491       0.66388996       0.66001738 </v>
  </varray>
 </structure>
</modeling>
