 vasp.5.4.1 05Feb16 (build Jan 29 2020 16:04:39) complex                        
  
 executed on           IFC91_ompi date 2020.06.15  06:59:11
 running on  160 total cores
 distrk:  each k-point on   20 cores,    8 groups
 distr:  one band on NCORES_PER_BAND=   5 cores,    4 groups


--------------------------------------------------------------------------------------------------------


 INCAR:
 POTCAR:    PAW_PBE Ta 17Jan2003                  
 POTCAR:    PAW_PBE Hf 20Jan2003                  
 POTCAR:    PAW_PBE Nb_sv 25May2007               
 POTCAR:    PAW_PBE Zr_sv 04Jan2005               

 ----------------------------------------------------------------------------- 
|                                                                             |
|           W    W    AA    RRRRR   N    N  II  N    N   GGGG   !!!           |
|           W    W   A  A   R    R  NN   N  II  NN   N  G    G  !!!           |
|           W    W  A    A  R    R  N N  N  II  N N  N  G       !!!           |
|           W WW W  AAAAAA  RRRRR   N  N N  II  N  N N  G  GGG   !            |
|           WW  WW  A    A  R   R   N   NN  II  N   NN  G    G                |
|           W    W  A    A  R    R  N    N  II  N    N   GGGG   !!!           |
|                                                                             |
|      For optimal performance we recommend to set                            |
|        NCORE= 4 - approx SQRT( number of cores)                             |
|      NCORE specifies how many cores store one orbital (NPAR=cpu/NCORE).     |
|      This setting can  greatly improve the performance of VASP for DFT.     |
|      The default, NPAR=number of cores might be grossly inefficient         |
|      on modern multi-core architectures or massively parallel machines.     |
|      Do your own testing !!!!                                               |
|      Unfortunately you need to use the default for GW and RPA calculations. |
|      (for HF NCORE is supported but not extensively tested yet)             |
|                                                                             |
 ----------------------------------------------------------------------------- 


 ----------------------------------------------------------------------------- 
|                                                                             |
|           W    W    AA    RRRRR   N    N  II  N    N   GGGG   !!!           |
|           W    W   A  A   R    R  NN   N  II  NN   N  G    G  !!!           |
|           W    W  A    A  R    R  N N  N  II  N N  N  G       !!!           |
|           W WW W  AAAAAA  RRRRR   N  N N  II  N  N N  G  GGG   !            |
|           WW  WW  A    A  R   R   N   NN  II  N   NN  G    G                |
|           W    W  A    A  R    R  N    N  II  N    N   GGGG   !!!           |
|                                                                             |
|      You have enabled k-point parallelism (KPAR>1).                         |
|      This developmental code was originally  written by Paul Kent at ORNL,  |
|      and carefully double checked in Vienna.                                |
|      GW as well as linear response parallelism added by Martijn Marsman     |
|      and Georg Kresse.                                                      |
|      Carefully verify results versus KPAR=1.                                |
|      Report problems to Paul Kent and Vienna.                               |
|                                                                             |
 ----------------------------------------------------------------------------- 

 POTCAR:    PAW_PBE Ta 17Jan2003                  
   VRHFIN =Ta:  6s5d                                                            
   LEXCH  = PE                                                                  
   EATOM  =   130.6506 eV,    9.6025 Ry                                         
                                                                                
   TITEL  = PAW_PBE Ta 17Jan2003                                                
   LULTRA =        F    use ultrasoft PP ?                                      
   IUNSCR =        1    unscreen: 0-lin 1-nonlin 2-no                           
   RPACOR =    2.330    partial core radius                                     
   POMASS =  180.948; ZVAL   =    5.000    mass and valenz                      
   RCORE  =    2.900    outmost cutoff radius                                   
   RWIGS  =    2.840; RWIGS  =    1.503    wigner-seitz radius (au A)           
   ENMAX  =  223.667; ENMIN  =  167.750 eV                                      
   RCLOC  =    2.205    cutoff for local pot                                    
   LCOR   =        T    correct aug charges                                     
   LPAW   =        T    paw PP                                                  
   EAUG   =  332.075                                                            
   DEXC   =    0.000                                                            
   RMAX   =    2.970    core radius for proj-oper                               
   RAUG   =    1.300    factor for augmentation sphere                          
   RDEP   =    3.060    radius for radial grids                                 
   RDEPT  =    2.354    core radius for aug-charge                              
                                                                                
   Atomic configuration                                                         
   16 entries                                                                   
     n  l   j            E        occ.                                          
     1  0  0.50    -67341.2807   2.0000                                         
     2  0  0.50    -11566.9376   2.0000                                         
     2  1  1.50    -10134.1182   6.0000                                         
     3  0  0.50     -2648.5620   2.0000                                         
     3  1  1.50     -2222.6012   6.0000                                         
     3  2  2.50     -1726.3120  10.0000                                         
     4  0  0.50      -538.6961   2.0000                                         
     4  1  1.50      -399.0129   6.0000                                         
     4  2  2.50      -220.3959  10.0000                                         
     4  3  3.50       -23.0374  14.0000                                         
     5  0  0.50       -71.2901   2.0000                                         
     5  1  1.50       -37.8225   6.0000                                         
     5  2  2.50        -2.6455   4.0000                                         
     6  0  0.50        -4.9623   1.0000                                         
     6  1  1.50        -1.3606   0.0000                                         
     5  3  2.50        -1.3606   0.0000                                         
   Description                                                                  
     l       E           TYP  RCUT    TYP  RCUT                                 
     2     -2.6455043     23  2.500                                             
     2     -0.6258895     23  2.500                                             
     0     -4.9622780     23  2.500                                             
     0      4.7531321     23  2.500                                             
     1     -1.3605826     23  2.900                                             
     1     27.2116520     23  2.900                                             
  local pseudopotential read in
  partial core-charges read in
  partial kinetic energy density read in
  atomic valenz-charges read in
  non local Contribution for L=           2  read in
    real space projection operators read in
  non local Contribution for L=           2  read in
    real space projection operators read in
  non local Contribution for L=           0  read in
    real space projection operators read in
  non local Contribution for L=           0  read in
    real space projection operators read in
  non local Contribution for L=           1  read in
    real space projection operators read in
  non local Contribution for L=           1  read in
    real space projection operators read in
    PAW grid and wavefunctions read in
 
   number of l-projection  operators is LMAX  =           6
   number of lm-projection operators is LMMAX =          18
 
 POTCAR:    PAW_PBE Hf 20Jan2003                  
   VRHFIN =Hf: 6s5d                                                             
   LEXCH  = PE                                                                  
   EATOM  =    75.9011 eV,    5.5786 Ry                                         
                                                                                
   TITEL  = PAW_PBE Hf 20Jan2003                                                
   LULTRA =        F    use ultrasoft PP ?                                      
   IUNSCR =        1    unscreen: 0-lin 1-nonlin 2-no                           
   RPACOR =    2.500    partial core radius                                     
   POMASS =  178.490; ZVAL   =    4.000    mass and valenz                      
   RCORE  =    3.000    outmost cutoff radius                                   
   RWIGS  =    3.050; RWIGS  =    1.614    wigner-seitz radius (au A)           
   ENMAX  =  220.334; ENMIN  =  165.250 eV                                      
   RCLOC  =    2.212    cutoff for local pot                                    
   LCOR   =        T    correct aug charges                                     
   LPAW   =        T    paw PP                                                  
   EAUG   =  335.116                                                            
   DEXC   =    0.000                                                            
   RMAX   =    3.077    core radius for proj-oper                               
   RAUG   =    1.300    factor for augmentation sphere                          
   RDEP   =    3.047    radius for radial grids                                 
   RDEPT  =    2.344    core radius for aug-charge                              
                                                                                
   Atomic configuration                                                         
   16 entries                                                                   
     n  l   j            E        occ.                                          
     1  0  0.50    -65259.4397   2.0000                                         
     2  0  0.50    -11157.9882   2.0000                                         
     2  1  1.50     -9795.2113   6.0000                                         
     3  0  0.50     -2541.4058   2.0000                                         
     3  1  1.50     -2134.4770   6.0000                                         
     3  2  2.50     -1653.5418  10.0000                                         
     4  0  0.50      -510.9575   2.0000                                         
     4  1  1.50      -377.5023   6.0000                                         
     4  2  2.50      -205.2085  10.0000                                         
     4  3  3.50       -15.4905  14.0000                                         
     5  0  0.50       -65.6020   2.0000                                         
     5  1  1.50       -34.2798   6.0000                                         
     5  2  2.50        -1.9877   3.0000                                         
     6  0  0.50        -4.7357   1.0000                                         
     6  1  1.50        -1.3606   0.0000                                         
     5  3  2.50        -1.3606   0.0000                                         
   Description                                                                  
     l       E           TYP  RCUT    TYP  RCUT                                 
     2     -1.9876627     23  2.500                                             
     2      0.0744703     23  2.500                                             
     0     -4.7356889     23  2.600                                             
     0      3.2364747     23  2.600                                             
     1     -1.3605826     23  3.000                                             
     1     27.2116520     23  3.000                                             
  local pseudopotential read in
  partial core-charges read in
  partial kinetic energy density read in
  atomic valenz-charges read in
  non local Contribution for L=           2  read in
    real space projection operators read in
  non local Contribution for L=           2  read in
    real space projection operators read in
  non local Contribution for L=           0  read in
    real space projection operators read in
  non local Contribution for L=           0  read in
    real space projection operators read in
  non local Contribution for L=           1  read in
    real space projection operators read in
  non local Contribution for L=           1  read in
    real space projection operators read in
    PAW grid and wavefunctions read in
 
   number of l-projection  operators is LMAX  =           6
   number of lm-projection operators is LMMAX =          18
 
 POTCAR:    PAW_PBE Nb_sv 25May2007               
   VRHFIN =Nb: 4p5s4d                                                           
   LEXCH  = PE                                                                  
   EATOM  =  1555.1913 eV,  114.3033 Ry                                         
                                                                                
   TITEL  = PAW_PBE Nb_sv 25May2007                                             
   LULTRA =        F    use ultrasoft PP ?                                      
   IUNSCR =        1    unscreen: 0-lin 1-nonlin 2-no                           
   RPACOR =    1.800    partial core radius                                     
   POMASS =   92.910; ZVAL   =   13.000    mass and valenz                      
   RCORE  =    2.400    outmost cutoff radius                                   
   RWIGS  =    2.400; RWIGS  =    1.270    wigner-seitz radius (au A)           
   ENMAX  =  293.235; ENMIN  =  219.927 eV                                      
   ICORE  =        3    local potential                                         
   LCOR   =        T    correct aug charges                                     
   LPAW   =        T    paw PP                                                  
   EAUG   =  455.659                                                            
   DEXC   =    0.000                                                            
   RMAX   =    2.456    core radius for proj-oper                               
   RAUG   =    1.300    factor for augmentation sphere                          
   RDEP   =    2.451    radius for radial grids                                 
   RDEPT  =    1.956    core radius for aug-charge                              
                                                                                
   Atomic configuration                                                         
   11 entries                                                                   
     n  l   j            E        occ.                                          
     1  0  0.50    -18805.2457   2.0000                                         
     2  0  0.50     -2630.2869   2.0000                                         
     2  1  1.50     -2348.4046   6.0000                                         
     3  0  0.50      -438.8757   2.0000                                         
     3  1  1.50      -346.7588   6.0000                                         
     3  2  2.50      -196.2560  10.0000                                         
     4  0  0.50       -58.3859   2.0000                                         
     5  0  0.50        -3.9816   1.0000                                         
     4  1  1.50       -34.5141   6.0000                                         
     4  2  2.50        -3.0408   4.0000                                         
     4  3  2.50        -1.3606   0.0000                                         
   Description                                                                  
     l       E           TYP  RCUT    TYP  RCUT                                 
     0    -58.3859094     23  2.200                                             
     0     -3.9816262     23  2.200                                             
     1    -34.5140738     23  2.200                                             
     1     13.6058260     23  2.200                                             
     2     -3.0408010     23  2.200                                             
     2     -0.1283038     23  2.200                                             
     3     -1.3605826     23  2.400                                             
  local pseudopotential read in
  partial core-charges read in
  partial kinetic energy density read in
  atomic valenz-charges read in
  non local Contribution for L=           0  read in
    real space projection operators read in
  non local Contribution for L=           0  read in
    real space projection operators read in
  non local Contribution for L=           1  read in
    real space projection operators read in
  non local Contribution for L=           1  read in
    real space projection operators read in
  non local Contribution for L=           2  read in
    real space projection operators read in
  non local Contribution for L=           2  read in
    real space projection operators read in
    PAW grid and wavefunctions read in
 
   number of l-projection  operators is LMAX  =           6
   number of lm-projection operators is LMMAX =          18
 
 POTCAR:    PAW_PBE Zr_sv 04Jan2005               
   VRHFIN =Zr: 4s4p5s4d                                                         
   LEXCH  = PE                                                                  
   EATOM  =  1284.2219 eV,   94.3876 Ry                                         
                                                                                
   TITEL  = PAW_PBE Zr_sv 04Jan2005                                             
   LULTRA =        F    use ultrasoft PP ?                                      
   IUNSCR =        1    unscreen: 0-lin 1-nonlin 2-no                           
   RPACOR =    2.200    partial core radius                                     
   POMASS =   91.224; ZVAL   =   12.000    mass and valenz                      
   RCORE  =    2.500    outmost cutoff radius                                   
   RWIGS  =    3.070; RWIGS  =    1.625    wigner-seitz radius (au A)           
   ENMAX  =  229.898; ENMIN  =  172.424 eV                                      
   ICORE  =        3    local potential                                         
   LCOR   =        T    correct aug charges                                     
   LPAW   =        T    paw PP                                                  
   EAUG   =  461.257                                                            
   DEXC   =    0.000                                                            
   RMAX   =    2.561    core radius for proj-oper                               
   RAUG   =    1.300    factor for augmentation sphere                          
   RDEP   =    2.597    radius for radial grids                                 
   RDEPT  =    2.007    core radius for aug-charge                              
                                                                                
   Atomic configuration                                                         
   11 entries                                                                   
     n  l   j            E        occ.                                          
     1  0  0.50    -17820.0161   2.0000                                         
     2  0  0.50     -2467.0882   2.0000                                         
     2  1  1.50     -2199.6095   6.0000                                         
     3  0  0.50      -402.4863   2.0000                                         
     3  1  1.50      -315.3675   6.0000                                         
     3  2  2.50      -172.4472  10.0000                                         
     4  0  0.50       -52.4146   2.0000                                         
     5  0  0.50        -3.8421   1.0000                                         
     4  1  1.50       -30.5054   6.0000                                         
     4  2  2.50        -2.3341   3.0000                                         
     4  3  2.50        -1.3606   0.0000                                         
   Description                                                                  
     l       E           TYP  RCUT    TYP  RCUT                                 
     0    -52.4145962     23  2.200                                             
     0     -3.8421270     23  2.500                                             
     1    -30.5053914     23  2.200                                             
     1     20.4087390     23  2.200                                             
     2     -2.3340816     23  2.500                                             
     2     -0.6120942     23  2.500                                             
     3     -4.0817478     23  2.500                                             
  local pseudopotential read in
  partial core-charges read in
  partial kinetic energy density read in
  atomic valenz-charges read in
  non local Contribution for L=           0  read in
    real space projection operators read in
  non local Contribution for L=           0  read in
    real space projection operators read in
  non local Contribution for L=           1  read in
    real space projection operators read in
  non local Contribution for L=           1  read in
    real space projection operators read in
  non local Contribution for L=           2  read in
    real space projection operators read in
  non local Contribution for L=           2  read in
    real space projection operators read in
    PAW grid and wavefunctions read in
 
   number of l-projection  operators is LMAX  =           6
   number of lm-projection operators is LMMAX =          18
 
 Optimization of the real space projectors (new method)

 maximal supplied QI-value         = 12.85
 optimisation between [QCUT,QGAM] = [  8.87, 17.73] = [ 22.01, 88.06] Ry 
 Optimized for a Real-space Cutoff    1.90 Angstroem

   l    n(q)    QCUT    max X(q) W(low)/X(q) W(high)/X(q)  e(spline) 
   2      9     8.867    62.315    0.23E-03    0.62E-04    0.11E-05
   2      9     8.867    52.185    0.23E-03    0.62E-04    0.11E-05
   0     10     8.867   103.837    0.15E-04    0.23E-04    0.98E-07
   0     10     8.867    59.728    0.12E-04    0.21E-04    0.89E-07
   1     10     8.867    13.958    0.50E-04    0.22E-04    0.14E-06
   1     10     8.867     8.441    0.36E-04    0.19E-04    0.98E-07
 Optimization of the real space projectors (new method)

 maximal supplied QI-value         = 12.47
 optimisation between [QCUT,QGAM] = [  8.86, 17.71] = [ 21.96, 87.83] Ry 
 Optimized for a Real-space Cutoff    1.90 Angstroem

   l    n(q)    QCUT    max X(q) W(low)/X(q) W(high)/X(q)  e(spline) 
   2      9     8.855    48.111    0.22E-03    0.80E-04    0.10E-05
   2      9     8.855    40.545    0.21E-03    0.76E-04    0.95E-06
   0     10     8.855   121.658    0.27E-04    0.12E-04    0.11E-06
   0     10     8.855    71.177    0.22E-04    0.11E-04    0.99E-07
   1     10     8.855    14.183    0.65E-04    0.10E-03    0.98E-07
   1     10     8.855     8.257    0.43E-04    0.73E-04    0.72E-07
 Optimization of the real space projectors (new method)

 maximal supplied QI-value         = 15.68
 optimisation between [QCUT,QGAM] = [  8.78, 17.72] = [ 21.60, 87.97] Ry 
 Optimized for a Real-space Cutoff    1.96 Angstroem

   l    n(q)    QCUT    max X(q) W(low)/X(q) W(high)/X(q)  e(spline) 
   0     10     8.783    10.201    0.29E-04    0.25E-05    0.69E-07
   0     10     8.783     8.174    0.45E-04    0.57E-05    0.14E-06
   1     10     8.783     3.488    0.76E-05    0.24E-04    0.95E-07
   1     10     8.783     4.917    0.78E-04    0.14E-03    0.46E-06
   2      9     8.783   153.744    0.22E-03    0.34E-04    0.15E-05
   2      9     8.783   126.342    0.22E-03    0.35E-04    0.15E-05
 Optimization of the real space projectors (new method)

 maximal supplied QI-value         = 15.12
 optimisation between [QCUT,QGAM] = [  8.77, 17.69] = [ 21.53, 87.61] Ry 
 Optimized for a Real-space Cutoff    1.74 Angstroem

   l    n(q)    QCUT    max X(q) W(low)/X(q) W(high)/X(q)  e(spline) 
   0      9     8.768    12.107    0.28E-04    0.53E-06    0.29E-07
   0      9     8.768     9.948    0.36E-04    0.50E-05    0.64E-07
   1      9     8.768     3.563    0.14E-04    0.16E-04    0.88E-07
   1      9     8.768     4.524    0.21E-03    0.33E-03    0.19E-06
   2      8     8.768    87.261    0.19E-03    0.25E-03    0.24E-06
   2      8     8.768    70.950    0.19E-03    0.24E-03    0.24E-06
  PAW_PBE Ta 17Jan2003                  :
 energy of atom  1       EATOM= -130.6506
 kinetic energy error for atom=    0.0121 (will be added to EATOM!!)
  PAW_PBE Hf 20Jan2003                  :
 energy of atom  2       EATOM=  -75.9011
 kinetic energy error for atom=    0.0071 (will be added to EATOM!!)
  PAW_PBE Nb_sv 25May2007               :
 energy of atom  3       EATOM=-1555.1913
 kinetic energy error for atom=    0.0655 (will be added to EATOM!!)
  PAW_PBE Zr_sv 04Jan2005               :
 energy of atom  4       EATOM=-1284.2219
 kinetic energy error for atom=    0.0483 (will be added to EATOM!!)
 
 
 POSCAR: generated by pypospack                  
  positions in direct lattice
  No initial velocities read in
 exchange correlation table for  LEXCH =        8
   RHO(1)=    0.500       N(1)  =     2000
   RHO(2)=  100.500       N(2)  =     4000
 


--------------------------------------------------------------------------------------------------------


 ion  position               nearest neighbor table
   1  0.500  0.343  0.343-   5 2.85   8 2.87   9 2.94  17 3.00  12 3.03  30 3.04  35 3.05  32 3.07
                            21 3.13  29 3.32  28 3.41  28 3.55  20 3.65
   2  0.733  0.831  0.836-  11 2.79  27 2.83  10 2.87   7 2.89  13 2.89  18 2.96  15 2.99  31 3.02
                             3 3.26  24 3.29  26 3.29  33 3.34
   3  0.738  0.838  0.156-  27 2.76   4 2.85  10 2.86  20 2.93  15 2.94  31 2.96  29 3.01  19 3.04
                             2 3.26   6 3.30  17 3.38   8 3.54  33 3.59
   4  0.998  0.983  0.316-   3 2.85   6 2.90  17 2.94   9 3.00  33 3.02  35 3.04  36 3.07  30 3.07
                            19 3.23  15 3.26  20 3.48  20 3.49
   5  0.279  0.487  0.155-  25 2.74   1 2.85  10 2.89  29 2.93  28 2.95  31 3.07  19 3.09  22 3.09
                             8 3.12  35 3.27  34 3.31
   6  0.264  0.841  0.150-  27 2.75  10 2.88   4 2.90  20 2.92  15 2.96  31 2.96  29 2.97  19 3.00
                            24 3.22   3 3.30  35 3.36  36 3.72
   7  0.516  0.001  0.663-  23 2.81   2 2.89  33 2.94  14 2.94   9 2.99  36 3.01  24 3.02  30 3.03
                            18 3.22  20 3.32  21 3.41  11 3.41
   8  0.728  0.493  0.165-  25 2.71   1 2.87  10 2.89  29 2.93  28 2.95  22 2.99  31 3.06  19 3.06
                             5 3.12  17 3.34  32 3.49   3 3.54
   9  0.757  0.159  0.481-  20 2.91   1 2.94  18 2.97   7 2.99  21 2.99   4 3.00  16 3.01  28 3.05
                            17 3.09  30 3.36  33 3.42  30 3.60  32 3.70
  10  0.504  0.668  0.001-   3 2.86  26 2.87   2 2.87   6 2.88   8 2.89   5 2.89  24 2.93  34 3.01
                            11 3.25  29 3.30  27 3.30  31 3.44  31 3.52
  11  0.503  0.668  0.682-  26 2.77   2 2.79  24 2.86  34 2.90  12 2.94  36 2.96  32 3.00  33 3.02
                            10 3.25   7 3.41  13 3.45  21 3.46  13 3.51  29 3.63
  12  0.248  0.511  0.515-  11 2.94  21 2.95  28 2.99  13 3.00   1 3.03  29 3.03  19 3.05  16 3.12
                            34 3.22  36 3.23  32 3.35  30 3.60  32 3.61
  13  0.998  0.670  0.691-  26 2.85  24 2.88   2 2.89  34 2.89  32 2.92  33 2.94  36 2.94  12 3.00
                            31 3.20  11 3.45  18 3.50  11 3.51  16 3.55
  14  0.279  0.167  0.832-  27 2.91   7 2.94  25 2.98  23 3.00  21 3.03  18 3.03  16 3.08  15 3.11
                            22 3.15  34 3.37  35 3.40  24 3.40  30 3.44
  15  0.991  0.003  0.996-   3 2.94   6 2.96  23 2.98   2 2.99  24 3.04  35 3.04  17 3.06  14 3.11
                            18 3.18   4 3.26  22 3.37  27 3.40  31 3.45
  16  0.980  0.324  0.672-  32 3.00   9 3.01  26 3.04  23 3.05  34 3.06  30 3.06  14 3.08  12 3.12
                            18 3.21  21 3.21  22 3.28  28 3.49  13 3.55  21 3.75
  17  0.743  0.168  0.178-   4 2.94  25 2.96   1 3.00  20 3.00  22 3.01  15 3.06  28 3.06  27 3.07
                             9 3.09   8 3.34  35 3.38   3 3.38  23 3.43  35 3.58
  18  0.977  0.011  0.683-  23 2.91   2 2.96   9 2.97  33 2.99  14 3.03  30 3.06  24 3.07  36 3.15
                            15 3.18  16 3.21   7 3.22  13 3.50
  19  0.013  0.667  0.314-   6 3.00  32 3.02   3 3.04  12 3.05  36 3.06   8 3.06   5 3.09  33 3.12
                            31 3.14   4 3.23  28 3.25  29 3.33  29 3.63
  20  0.498  0.987  0.337-   9 2.91   6 2.92   3 2.93  17 3.00  33 3.00  30 3.01  36 3.04  35 3.04
                            29 3.29   7 3.32  27 3.46   4 3.48   4 3.49   1 3.65
  21  0.519  0.333  0.650-  23 2.93  12 2.95  32 2.97   9 2.99  14 3.03  26 3.03  30 3.06  34 3.10
                             1 3.13  16 3.21   7 3.41  11 3.46  16 3.75
  22  0.980  0.331  0.994-  26 2.95  23 2.98   8 2.99  17 3.01  34 3.05  35 3.08   5 3.09  14 3.15
                            25 3.22  16 3.28  15 3.37  31 3.44  28 3.45
  23  0.710  0.162  0.842-  27 2.78  25 2.80   7 2.81  18 2.91  21 2.93  15 2.98  22 2.98  14 3.00
                            16 3.05  17 3.43
  24  0.261  0.835  0.834-  27 2.85  11 2.86  13 2.88  10 2.93   7 3.02  15 3.04  31 3.07  18 3.07
                             6 3.22  36 3.25   2 3.29  14 3.40
  25  0.518  0.341  0.000-   8 2.71   5 2.74  23 2.80  26 2.87  34 2.95  17 2.96  14 2.98  35 3.04
                            22 3.22
  26  0.739  0.510  0.835-  11 2.77  13 2.85  10 2.87  25 2.87  22 2.95  31 2.96  21 3.03  16 3.04
                             2 3.29  32 3.36  34 3.36
  27  0.503  0.990  0.998-   6 2.75   3 2.76  23 2.78   2 2.83  24 2.85  14 2.91  35 3.04  17 3.07
                            10 3.30  15 3.40  20 3.46
  28  0.010  0.351  0.331-   8 2.95   5 2.95  12 2.99  32 3.01  30 3.02   9 3.05  17 3.06  35 3.06
                            19 3.25   1 3.41  22 3.45  16 3.49   1 3.55
  29  0.492  0.666  0.325-   5 2.93   8 2.93   6 2.97   3 3.01  12 3.03  32 3.03  36 3.09  33 3.11
                            20 3.29  10 3.30   1 3.32  19 3.33  19 3.63  11 3.63
  30  0.239  0.160  0.495-  20 3.01  28 3.02   7 3.03   1 3.04  21 3.06  18 3.06  16 3.06   4 3.07
                             9 3.36  35 3.37  36 3.43  14 3.44  12 3.60   9 3.60
  31  0.998  0.666  0.005-  26 2.96   6 2.96   3 2.96   2 3.02   8 3.06  24 3.07   5 3.07  34 3.08
                            19 3.14  13 3.20  10 3.44  22 3.44  15 3.45  10 3.52
  32  0.767  0.519  0.505-  13 2.92  21 2.97  16 3.00  11 3.00  28 3.01  19 3.02  29 3.03   1 3.07
                            33 3.15  12 3.35  26 3.36   8 3.49  12 3.61   9 3.70
  33  0.763  0.827  0.508-  13 2.94   7 2.94  18 2.99  20 3.00  11 3.02   4 3.02  29 3.11  19 3.12
                            32 3.15  36 3.33   2 3.34   9 3.42   3 3.59  36 3.63
  34  0.256  0.496  0.831-  13 2.89  11 2.90  25 2.95  10 3.01  22 3.05  16 3.06  31 3.08  21 3.10
                            12 3.22   5 3.31  26 3.36  14 3.37
  35  0.257  0.168  0.165-  27 3.04  20 3.04   4 3.04  15 3.04  25 3.04   1 3.05  28 3.06  22 3.08
                             5 3.27   6 3.36  30 3.37  17 3.38  14 3.40  17 3.58
  36  0.241  0.826  0.515-  13 2.94  11 2.96   7 3.01  20 3.04  19 3.06   4 3.07  29 3.09  18 3.15
                            12 3.23  24 3.25  33 3.33  30 3.43  33 3.63   6 3.72
 
  LATTYP: Found a triclinic cell.
 ALAT       =    20.1108582939
 B/A-ratio  =     0.3457336640
 C/A-ratio  =     0.5097044273
 COS(alpha) =     0.0017872292
 COS(beta)  =     0.5091253167
 COS(gamma) =     0.6968661693
  
  Lattice vectors:
  
 A1 = ( -13.9607283256, -10.2445022236,  10.2271628581)
 A2 = (  -6.9529309519,  -0.0061605629,   0.0305334455)
 A3 = (  -0.0093181631, -10.2505729969,  -0.0182671912)


Analysis of symmetry for initial positions (statically):
=====================================================================
 Subroutine PRICEL returns:
 Original cell was already a primitive cell.
 

 Routine SETGRP: Setting up the symmetry group for a 
 triclinic supercell.


 Subroutine GETGRP returns: Found  1 space group operations
 (whereof  1 operations were pure point group operations)
 out of a pool of  2 trial point group operations.


The static configuration has the point symmetry C_1 .


Analysis of symmetry for dynamics (positions and initial velocities):
=====================================================================
 Subroutine PRICEL returns:
 Original cell was already a primitive cell.
 

 Routine SETGRP: Setting up the symmetry group for a 
 triclinic supercell.


 Subroutine GETGRP returns: Found  1 space group operations
 (whereof  1 operations were pure point group operations)
 out of a pool of  2 trial point group operations.


The dynamic configuration has the point symmetry C_1 .


 Subroutine INISYM returns: Found  1 space group operations
 (whereof  1 operations are pure point group operations),
 and found     1 'primitive' translations

 
 
 KPOINTS: k-points                                

Automatic generation of k-mesh.
Space group operators:
 irot       det(A)        alpha          n_x          n_y          n_z        tau_x        tau_y        tau_z
    1     1.000000     0.000001     1.000000     0.000000     0.000000     0.000000     0.000000     0.000000
 
 Subroutine IBZKPT returns following result:
 ===========================================
 
 Found     14 irreducible k-points:
 
 Following reciprocal coordinates:
            Coordinates               Weight
  0.000000  0.000000  0.000000      1.000000
  0.333333  0.000000  0.000000      2.000000
  0.000000  0.333333 -0.000000      2.000000
  0.333333  0.333333  0.000000      2.000000
 -0.333333  0.333333  0.000000      2.000000
 -0.000000  0.000000  0.333333      2.000000
  0.333333  0.000000  0.333333      2.000000
 -0.333333  0.000000  0.333333      2.000000
  0.000000  0.333333  0.333333      2.000000
  0.333333  0.333333  0.333333      2.000000
 -0.333333  0.333333  0.333333      2.000000
  0.000000 -0.333333  0.333333      2.000000
  0.333333 -0.333333  0.333333      2.000000
 -0.333333 -0.333333  0.333333      2.000000
 
 Following cartesian coordinates:
            Coordinates               Weight
  0.000000  0.000000  0.000000      1.000000
  0.239152 -0.000219  0.001070      2.000000
 -0.000145  0.162213 -0.000294      2.000000
  0.239007  0.161994  0.000776      2.000000
 -0.239297  0.162432 -0.001364      2.000000
  0.000717 -0.000292  0.163271      2.000000
  0.239869 -0.000511  0.164341      2.000000
 -0.238434 -0.000072  0.162201      2.000000
  0.000572  0.161921  0.162977      2.000000
  0.239724  0.161702  0.164047      2.000000
 -0.238579  0.162141  0.161907      2.000000
  0.000862 -0.162505  0.163564      2.000000
  0.240014 -0.162724  0.164634      2.000000
 -0.238289 -0.162285  0.162494      2.000000
 


--------------------------------------------------------------------------------------------------------




 Dimension of arrays:
   k-points           NKPTS =     14   k-points in BZ     NKDIM =     14   number of bands    NBANDS=    164
   number of dos      NEDOS =    301   number of ions     NIONS =     36
   non local maximal  LDIM  =      6   non local SUM 2l+1 LMDIM =     18
   total plane-waves  NPLWV = 144000
   max r-space proj   IRMAX =   6312   max aug-charges    IRDMAX=  13703
   dimension x,y,z NGX =    40 NGY =   60 NGZ =   60
   dimension x,y,z NGXF=    80 NGYF=  120 NGZF=  120
   support grid    NGXF=    80 NGYF=  120 NGZF=  120
   ions per type =              13   9   5   9
 NGX,Y,Z   is equivalent  to a cutoff of   9.56,  9.73,  9.79 a.u.
 NGXF,Y,Z  is equivalent  to a cutoff of  19.13, 19.46, 19.59 a.u.


 I would recommend the setting:
   dimension x,y,z NGX =    39 NGY =   58 NGZ =   58
 SYSTEM =  automatically generated by mexm         
 POSCAR =  generated by pypospack                  

 Startparameter for this run:
   NWRITE =      2    write-flag & timer
   PREC   = accura    normal or accurate (medium, high low for compatibility)
   ISTART =      0    job   : 0-new  1-cont  2-samecut
   ICHARG =      2    charge: 1-file 2-atom 10-const
   ISPIN  =      1    spin polarized calculation?
   LNONCOLLINEAR =      F non collinear calculations
   LSORBIT =      F    spin-orbit coupling
   INIWAV =      1    electr: 0-lowe 1-rand  2-diag
   LASPH  =      F    aspherical Exc in radial PAW
   METAGGA=      F    non-selfconsistent MetaGGA calc.

 Electronic Relaxation 1
   ENCUT  =  300.0 eV  22.05 Ry    4.70 a.u.   9.82 14.48 14.38*2*pi/ulx,y,z
   ENINI  =  300.0     initial cutoff
   ENAUG  =  461.3 eV  augmentation charge cutoff
   NELM   =     70;   NELMIN=  2; NELMDL= -5     # of ELM steps 
   EDIFF  = 0.1E-04   stopping-criterion for ELM
   LREAL  =      T    real-space projection
   NLSPLINE    = F    spline interpolate recip. space projectors
   LCOMPAT=      F    compatible to vasp.4.4
   GGA_COMPAT  = T    GGA compatible to vasp.4.4-vasp.4.6
   LMAXPAW     = -100 max onsite density
   LMAXMIX     =    2 max onsite mixed and CHGCAR
   VOSKOWN=      0    Vosko Wilk Nusair interpolation
   ROPT   =   -0.00025  -0.00025  -0.00025  -0.00025
 Ionic relaxation
   EDIFFG = -.1E-01   stopping-criterion for IOM
   NSW    =    300    number of steps for IOM
   NBLOCK =      1;   KBLOCK =    300    inner block; outer block 
   IBRION =      2    ionic relax: 0-MD 1-quasi-New 2-CG
   NFREE  =      1    steps in history (QN), initial steepest desc. (CG)
   ISIF   =      3    stress and relaxation
   IWAVPR =     11    prediction:  0-non 1-charg 2-wave 3-comb
   ISYM   =      1    0-nonsym 1-usesym 2-fastsym
   LCORR  =      T    Harris-Foulkes like correction to forces

   POTIM  = 0.1500    time-step for ionic-motion
   TEIN   =    0.0    initial temperature
   TEBEG  =    0.0;   TEEND  =   0.0 temperature during run
   SMASS  =  -3.00    Nose mass-parameter (am)
   estimated Nose-frequenzy (Omega)   =  0.10E-29 period in steps =****** mass=  -0.110E-26a.u.
   SCALEE = 1.0000    scale energy and forces
   NPACO  =    256;   APACO  = 16.0  distance and # of slots for P.C.
   PSTRESS=    0.0 pullay stress

  Mass of Ions in am
   POMASS = 180.95178.49 92.91 91.22
  Ionic Valenz
   ZVAL   =   5.00  4.00 13.00 12.00
  Atomic Wigner-Seitz radii
   RWIGS  =  -1.00 -1.00 -1.00 -1.00
  virtual crystal weights 
   VCA    =   1.00  1.00  1.00  1.00
   NELECT =     274.0000    total number of electrons
   NUPDOWN=      -1.0000    fix difference up-down

 DOS related values:
   EMIN   =  10.00;   EMAX   =-10.00  energy-range for DOS
   EFERMI =   0.00
   ISMEAR =     1;   SIGMA  =   0.15  broadening in eV -4-tet -1-fermi 0-gaus

 Electronic relaxation 2 (details)
   IALGO  =     68    algorithm
   LDIAG  =      T    sub-space diagonalisation (order eigenvalues)
   LSUBROT=      F    optimize rotation matrix (better conditioning)
   TURBO    =      0    0=normal 1=particle mesh
   IRESTART =      0    0=no restart 2=restart with 2 vectors
   NREBOOT  =      0    no. of reboots
   NMIN     =      0    reboot dimension
   EREF     =   0.00    reference energy to select bands
   IMIX   =      4    mixing-type and parameters
     AMIX     =   0.40;   BMIX     =  1.00
     AMIX_MAG =   1.60;   BMIX_MAG =  1.00
     AMIN     =   0.10
     WC   =   100.;   INIMIX=   1;  MIXPRE=   1;  MAXMIX= -45

 Intra band minimization:
   WEIMIN = 0.0010     energy-eigenvalue tresh-hold
   EBREAK =  0.15E-07  absolut break condition
   DEPER  =   0.30     relativ break condition  

   TIME   =   0.40     timestep for ELM

  volume/ion in A,a.u.               =      20.16       136.06
  Fermi-wavevector in a.u.,A,eV,Ry     =   1.183165  2.235857 19.046500  1.399878
  Thomas-Fermi vector in A             =   2.319404
 
 Write flags
   LWAVE  =      F    write WAVECAR
   LCHARG =      F    write CHGCAR
   LVTOT  =      F    write LOCPOT, total local potential
   LVHAR  =      F    write LOCPOT, Hartree potential only
   LELF   =      F    write electronic localiz. function (ELF)
   LORBIT =      0    0 simple, 1 ext, 2 COOP (PROOUT)


 Dipole corrections
   LMONO  =      F    monopole corrections only (constant potential shift)
   LDIPOL =      F    correct potential (dipole corrections)
   IDIPOL =      0    1-x, 2-y, 3-z, 4-all directions 
   EPSILON=  1.0000000 bulk dielectric constant

 Exchange correlation treatment:
   GGA     =    --    GGA type
   LEXCH   =     8    internal setting for exchange type
   VOSKOWN=      0    Vosko Wilk Nusair interpolation
   LHFCALC =     F    Hartree Fock is set to
   LHFONE  =     F    Hartree Fock one center treatment
   AEXX    =    0.0000 exact exchange contribution

 Linear response parameters
   LEPSILON=     F    determine dielectric tensor
   LRPA    =     F    only Hartree local field effects (RPA)
   LNABLA  =     F    use nabla operator in PAW spheres
   LVEL    =     F    velocity operator in full k-point grid
   LINTERFAST=   F  fast interpolation
   KINTER  =     0    interpolate to denser k-point grid
   CSHIFT  =0.1000    complex shift for real part using Kramers Kronig
   OMEGAMAX=  -1.0    maximum frequency
   DEG_THRESHOLD= 0.2000000E-02 threshold for treating states as degnerate
   RTIME   =    0.100 relaxation time in fs

 Orbital magnetization related:
   ORBITALMAG=     F  switch on orbital magnetization
   LCHIMAG   =     F  perturbation theory with respect to B field
   DQ        =  0.001000  dq finite difference perturbation B field



--------------------------------------------------------------------------------------------------------


 conjugate gradient relaxation of ions
 charge density and potential will be updated during run
 non-spin polarized calculation
 RMM-DIIS sequential band-by-band and
  variant of blocked Davidson during initial phase
 perform sub-space diagonalisation
    before iterative eigenvector-optimisation
 modified Broyden-mixing scheme, WC =      100.0
 initial mixing is a Kerker type mixing with AMIX =  0.4000 and BMIX =      1.0000
 Hartree-type preconditioning will be used
 using additional bands           27
 real space projection scheme for non local part
 use partial core corrections
 calculate Harris-corrections to forces 
   (improved forces if not selfconsistent)
 use gradient corrections 
 use of overlap-Matrix (Vanderbilt PP)
 Methfessel and Paxton  Order N= 1 SIGMA  =   0.15


--------------------------------------------------------------------------------------------------------


  energy-cutoff  :      300.00
  volume of cell :      725.84
      direct lattice vectors                 reciprocal lattice vectors
     6.952930952  0.006160563 -0.030533446     0.143827181 -0.000131891  0.000643487
     0.009318163 10.250572997  0.018267191    -0.000087214  0.097555916 -0.000176566
    -0.045548259  0.018391899 10.184363158     0.000431361 -0.000175377  0.098191989

  length of vectors
     6.953000724 10.250593509 10.184481619     0.143828681  0.097556115  0.098193093


 
 k-points in units of 2pi/SCALE and weight: k-points                                
   0.00000000  0.00000000  0.00000000       0.037
   0.23915152 -0.00021930  0.00106997       0.074
  -0.00014502  0.16221305 -0.00029359       0.074
   0.23900651  0.16199375  0.00077638       0.074
  -0.23929654  0.16243236 -0.00136356       0.074
   0.00071725 -0.00029161  0.16327069       0.074
   0.23986878 -0.00051092  0.16434066       0.074
  -0.23843427 -0.00007231  0.16220072       0.074
   0.00057224  0.16192144  0.16297710       0.074
   0.23972376  0.16170213  0.16404708       0.074
  -0.23857929  0.16214074  0.16190713       0.074
   0.00086227 -0.16250466  0.16356428       0.074
   0.24001379 -0.16272397  0.16463425       0.074
  -0.23828925 -0.16228536  0.16249431       0.074
 
 k-points in reciprocal lattice and weights: k-points                                
   0.00000000  0.00000000  0.00000000       0.037
   0.33333333  0.00000000  0.00000000       0.074
   0.00000000  0.33333333 -0.00000000       0.074
   0.33333333  0.33333333  0.00000000       0.074
  -0.33333333  0.33333333  0.00000000       0.074
  -0.00000000  0.00000000  0.33333333       0.074
   0.33333333  0.00000000  0.33333333       0.074
  -0.33333333  0.00000000  0.33333333       0.074
   0.00000000  0.33333333  0.33333333       0.074
   0.33333333  0.33333333  0.33333333       0.074
  -0.33333333  0.33333333  0.33333333       0.074
   0.00000000 -0.33333333  0.33333333       0.074
   0.33333333 -0.33333333  0.33333333       0.074
  -0.33333333 -0.33333333  0.33333333       0.074
 
 position of ions in fractional coordinates (direct lattice) 
   0.49962200  0.34250700  0.34297500
   0.73331000  0.83121800  0.83575600
   0.73784500  0.83825100  0.15575500
   0.99848400  0.98256400  0.31566700
   0.27945500  0.48653200  0.15504300
   0.26366500  0.84066800  0.15045800
   0.51569700  0.00060100  0.66274300
   0.72831100  0.49287900  0.16500900
   0.75691300  0.15924600  0.48051300
   0.50360500  0.66768300  0.00140800
   0.50255900  0.66813000  0.68219500
   0.24784800  0.51092600  0.51475500
   0.99834300  0.67029300  0.69119400
   0.27869900  0.16676900  0.83221600
   0.99148900  0.00254600  0.99578100
   0.97994700  0.32437200  0.67179300
   0.74308800  0.16762300  0.17763400
   0.97733600  0.01125400  0.68325900
   0.01330300  0.66715500  0.31377700
   0.49824400  0.98691100  0.33727900
   0.51859800  0.33266700  0.65015200
   0.98005600  0.33106900  0.99354200
   0.71039000  0.16190300  0.84160500
   0.26075900  0.83501500  0.83426600
   0.51778300  0.34100100  0.00047900
   0.73907200  0.51039100  0.83479900
   0.50307000  0.98993600  0.99793400
   0.00954400  0.35092500  0.33073700
   0.49193900  0.66612100  0.32549900
   0.23921500  0.16036300  0.49537100
   0.99788000  0.66602900  0.00539500
   0.76659200  0.51926600  0.50549700
   0.76282200  0.82687400  0.50831600
   0.25584200  0.49554800  0.83082900
   0.25744100  0.16831900  0.16518100
   0.24121800  0.82645100  0.51518500
 
 position of ions in cartesian coordinates  (Angst):
   3.46140689  3.52027892  3.48398341
   5.06833199  8.54034953  8.50443615
   5.13090193  8.59996324  1.57904902
   6.93716792 10.08380095  3.20232889
   1.94050297  4.99180492  1.57936907
   1.83422492  8.62172023  1.53962495
   3.55542444  0.02152668  6.73388036
   5.06097295  5.05981380  1.66727725
   5.24236118  1.64586330  4.87351671
   3.50768824  6.84726172  0.01115948
   3.46941098  6.86435824  6.94458163
   1.70458473  5.24827846  5.24421739
   6.91617316  6.88975005  7.02113223
   1.90142289  1.72650078  8.47012673
   6.84842219  0.05052039 10.11116826
   6.78592738  3.34339144  6.81778809
   5.16011057  1.72607666  1.78946213
   6.76433333  0.13394732  6.92892193
   0.08441950  6.84457394  3.20739978
   3.45808986 10.12567591  3.43778681
   3.57926264  3.42517975  6.61162638
   6.77209254  3.41795777 10.09471576
   4.90246762  1.67945364  8.55247781
   1.78282076  8.57633237  8.50375942
   3.60326513  3.49865429 -0.00470226
   5.10544885  5.25170684  8.48865318
   3.46158120 10.16886433 10.16604515
   0.05456425  3.60332401  3.37446472
   3.41179901  6.83713910  3.31214759
   1.64217638  1.65439715  5.04066349
   6.94415117  6.83342561  0.03664240
   5.31187534  5.33679373  5.13424386
   5.28840073  8.48998061  5.16868782
   1.74562654  5.09650760  8.46270479
   1.78401421  1.72999017  1.67747745
   1.66140732  8.48255757  5.25456286
 


--------------------------------------------------------------------------------------------------------


 k-point  1 :   0.0000 0.0000 0.0000  plane waves:    8605
 k-point  2 :   0.3333 0.0000 0.0000  plane waves:    8574
 k-point  3 :   0.0000 0.3333-0.0000  plane waves:    8562
 k-point  4 :   0.3333 0.3333 0.0000  plane waves:    8565
 k-point  5 :  -0.3333 0.3333 0.0000  plane waves:    8566
 k-point  6 :  -0.0000 0.0000 0.3333  plane waves:    8562
 k-point  7 :   0.3333 0.0000 0.3333  plane waves:    8555
 k-point  8 :  -0.3333 0.0000 0.3333  plane waves:    8573
 k-point  9 :   0.0000 0.3333 0.3333  plane waves:    8545
 k-point 10 :   0.3333 0.3333 0.3333  plane waves:    8570
 k-point 11 :  -0.3333 0.3333 0.3333  plane waves:    8574
 k-point 12 :   0.0000-0.3333 0.3333  plane waves:    8563
 k-point 13 :   0.3333-0.3333 0.3333  plane waves:    8565
 k-point 14 :  -0.3333-0.3333 0.3333  plane waves:    8568

 maximum and minimum number of plane-waves per node :      1737     1696

 maximum number of plane-waves:      8605
 maximum index in each direction: 
   IXMAX=   10   IYMAX=   14   IZMAX=   14
   IXMIN=  -10   IYMIN=  -14   IZMIN=  -14

 WARNING: aliasing errors must be expected set NGX to  42 to avoid them
 NGY is ok and might be reduce to  58
 NGZ is ok and might be reduce to  58
 aliasing errors are usually negligible using standard VASP settings
 and one can safely disregard these warnings

 real space projection operators:
  total allocation   :      26852.48 KBytes
  max/ min on nodes  :       5430.94       5294.95


 parallel 3D FFT for wavefunctions:
    minimum data exchange during FFTs selected (reduces bandwidth)
 parallel 3D FFT for charge:
    minimum data exchange during FFTs selected (reduces bandwidth)


 total amount of memory used by VASP on root node    65968. kBytes
========================================================================

   base      :      30000. kBytes
   nonlr-proj:      10368. kBytes
   fftplans  :       2814. kBytes
   grid      :       5360. kBytes
   one-center:        124. kBytes
   wavefun   :      17302. kBytes
 
     INWAV:  cpu time    0.0000: real time    0.0000
 Broyden mixing: mesh for mixing (old mesh)
   NGX = 19   NGY = 29   NGZ = 29
  (NGX  = 80   NGY  =120   NGZ  =120)
  gives a total of  15979 points

 initial charge density was supplied:
 charge density of overlapping atoms calculated
 number of electron     274.0000000 magnetization 
 keeping initial charge density in first step


--------------------------------------------------------------------------------------------------------


 Maximum index for non-local projection operator         1222
 Maximum index for augmentation-charges          683 (set IRDMAX)


--------------------------------------------------------------------------------------------------------


 First call to EWALD:  gamma=   0.197
 Maximum number of real-space cells 3x 2x 2
 Maximum number of reciprocal cells 2x 3x 3

 FEWALD executed in parallel
    FEWALD:  cpu time    0.0522: real time    0.0544


----------------------------------------- Iteration    1(   1)  ---------------------------------------


    POTLOK:  cpu time    0.0516: real time    0.0680
    SETDIJ:  cpu time    0.0128: real time    0.0128
     EDDAV:  cpu time    0.9595: real time    0.9688
       DOS:  cpu time    0.0020: real time    0.0020
    --------------------------------------------
      LOOP:  cpu time    1.0349: real time    1.4023

 eigenvalue-minimisations  :  5000
 total energy-change (2. order) : 0.1566454E+04  (-0.9976798E+04)
 number of electron     274.0000000 magnetization 
 augmentation part      274.0000000 magnetization 

 Free energy of the ion-electron system (eV)
  ---------------------------------------------------
  alpha Z        PSCENC =      1417.29014822
  Ewald energy   TEWEN  =    -17441.62506332
  -Hartree energ DENC   =     -5353.99312364
  -exchange      EXHF   =         0.00000000
  -V(xc)+E(xc)   XCENC  =      -610.68891293
  PAW double counting   =     18778.09358723   -17020.52015235
  entropy T*S    EENTRO =         0.01347410
  eigenvalues    EBANDS =        83.34584160
  atomic energy  EATOM  =     21714.53819221
  Solvation  Ediel_sol  =         0.00000000
  ---------------------------------------------------
  free energy    TOTEN  =      1566.45399112 eV

  energy without entropy =     1566.44051702  energy(sigma->0) =     1566.44949975


--------------------------------------------------------------------------------------------------------




----------------------------------------- Iteration    1(   2)  ---------------------------------------


     EDDAV:  cpu time    0.9234: real time    0.9315
       DOS:  cpu time    0.0008: real time    0.0008
    --------------------------------------------
      LOOP:  cpu time    0.9267: real time    1.1135

 eigenvalue-minimisations  :  5088
 total energy-change (2. order) :-0.1679915E+04  (-0.1614649E+04)
 number of electron     274.0000000 magnetization 
 augmentation part      274.0000000 magnetization 

 Free energy of the ion-electron system (eV)
  ---------------------------------------------------
  alpha Z        PSCENC =      1417.29014822
  Ewald energy   TEWEN  =    -17441.62506332
  -Hartree energ DENC   =     -5353.99312364
  -exchange      EXHF   =         0.00000000
  -V(xc)+E(xc)   XCENC  =      -610.68891293
  PAW double counting   =     18778.09358723   -17020.52015235
  entropy T*S    EENTRO =        -0.00639274
  eigenvalues    EBANDS =     -1596.54955682
  atomic energy  EATOM  =     21714.53819221
  Solvation  Ediel_sol  =         0.00000000
  ---------------------------------------------------
  free energy    TOTEN  =      -113.46127415 eV

  energy without entropy =     -113.45488141  energy(sigma->0) =     -113.45914324


--------------------------------------------------------------------------------------------------------




----------------------------------------- Iteration    1(   3)  ---------------------------------------


     EDDAV:  cpu time    1.3297: real time    1.4443
       DOS:  cpu time    0.0019: real time    0.0019
    --------------------------------------------
      LOOP:  cpu time    1.3322: real time    1.4863

 eigenvalue-minimisations  :  7864
 total energy-change (2. order) :-0.2374733E+03  (-0.2253659E+03)
 number of electron     274.0000000 magnetization 
 augmentation part      274.0000000 magnetization 

 Free energy of the ion-electron system (eV)
  ---------------------------------------------------
  alpha Z        PSCENC =      1417.29014822
  Ewald energy   TEWEN  =    -17441.62506332
  -Hartree energ DENC   =     -5353.99312364
  -exchange      EXHF   =         0.00000000
  -V(xc)+E(xc)   XCENC  =      -610.68891293
  PAW double counting   =     18778.09358723   -17020.52015235
  entropy T*S    EENTRO =         0.00281795
  eigenvalues    EBANDS =     -1834.03205739
  atomic energy  EATOM  =     21714.53819221
  Solvation  Ediel_sol  =         0.00000000
  ---------------------------------------------------
  free energy    TOTEN  =      -350.93456402 eV

  energy without entropy =     -350.93738197  energy(sigma->0) =     -350.93550334


--------------------------------------------------------------------------------------------------------




----------------------------------------- Iteration    1(   4)  ---------------------------------------


     EDDAV:  cpu time    1.2562: real time    1.4144
       DOS:  cpu time    0.0009: real time    0.0009
    --------------------------------------------
      LOOP:  cpu time    1.2576: real time    1.4572

 eigenvalue-minimisations  :  7712
 total energy-change (2. order) :-0.2873602E+02  (-0.2724834E+02)
 number of electron     274.0000000 magnetization 
 augmentation part      274.0000000 magnetization 

 Free energy of the ion-electron system (eV)
  ---------------------------------------------------
  alpha Z        PSCENC =      1417.29014822
  Ewald energy   TEWEN  =    -17441.62506332
  -Hartree energ DENC   =     -5353.99312364
  -exchange      EXHF   =         0.00000000
  -V(xc)+E(xc)   XCENC  =      -610.68891293
  PAW double counting   =     18778.09358723   -17020.52015235
  entropy T*S    EENTRO =         0.01139588
  eigenvalues    EBANDS =     -1862.77665833
  atomic energy  EATOM  =     21714.53819221
  Solvation  Ediel_sol  =         0.00000000
  ---------------------------------------------------
  free energy    TOTEN  =      -379.67058704 eV

  energy without entropy =     -379.68198292  energy(sigma->0) =     -379.67438567


--------------------------------------------------------------------------------------------------------




----------------------------------------- Iteration    1(   5)  ---------------------------------------


     EDDAV:  cpu time    1.2759: real time    1.3175
       DOS:  cpu time    0.0008: real time    0.0008
    CHARGE:  cpu time    0.0539: real time    0.0541
    MIXING:  cpu time    0.0013: real time    0.0014
    --------------------------------------------
      LOOP:  cpu time    1.3324: real time    1.4135

 eigenvalue-minimisations  :  7384
 total energy-change (2. order) :-0.2985251E+01  (-0.2902346E+01)
 number of electron     273.9999998 magnetization 
 augmentation part       14.0335029 magnetization 

 Broyden mixing:
  rms(total) = 0.67507E+01    rms(broyden)= 0.67504E+01
  rms(prec ) = 0.70088E+01
  weight for this iteration     100.00

 Free energy of the ion-electron system (eV)
  ---------------------------------------------------
  alpha Z        PSCENC =      1417.29014822
  Ewald energy   TEWEN  =    -17441.62506332
  -Hartree energ DENC   =     -5353.99312364
  -exchange      EXHF   =         0.00000000
  -V(xc)+E(xc)   XCENC  =      -610.68891293
  PAW double counting   =     18778.09358723   -17020.52015235
  entropy T*S    EENTRO =         0.01647911
  eigenvalues    EBANDS =     -1865.76699240
  atomic energy  EATOM  =     21714.53819221
  Solvation  Ediel_sol  =         0.00000000
  ---------------------------------------------------
  free energy    TOTEN  =      -382.65583788 eV

  energy without entropy =     -382.67231699  energy(sigma->0) =     -382.66133092


--------------------------------------------------------------------------------------------------------




----------------------------------------- Iteration    1(   6)  ---------------------------------------


    POTLOK:  cpu time    0.0297: real time    0.0298
    SETDIJ:  cpu time    0.0037: real time    0.0038
    EDDIAG:  cpu time    0.0945: real time    0.0968
  RMM-DIIS:  cpu time    0.6781: real time    0.6805
    ORTHCH:  cpu time    0.0118: real time    0.0119
       DOS:  cpu time    0.0009: real time    0.0009
    CHARGE:  cpu time    0.0280: real time    0.0281
    MIXING:  cpu time    0.0017: real time    0.0217
    --------------------------------------------
      LOOP:  cpu time    0.8491: real time    0.9130

 eigenvalue-minimisations  :  6555
 total energy-change (2. order) : 0.1025930E+02  (-0.2203991E+01)
 number of electron     273.9999998 magnetization 
 augmentation part       14.6481491 magnetization 

 Broyden mixing:
  rms(total) = 0.32669E+01    rms(broyden)= 0.32669E+01
  rms(prec ) = 0.35118E+01
  weight for this iteration     100.00

 eigenvalues of (default mixing * dielectric matrix)
  average eigenvalue GAMMA=   1.8723
  1.8723

 Free energy of the ion-electron system (eV)
  ---------------------------------------------------
  alpha Z        PSCENC =      1417.29014822
  Ewald energy   TEWEN  =    -17441.62506332
  -Hartree energ DENC   =     -5207.07443300
  -exchange      EXHF   =         0.00000000
  -V(xc)+E(xc)   XCENC  =      -611.98063567
  PAW double counting   =     24231.61115338   -22484.24166661
  entropy T*S    EENTRO =         0.01806352
  eigenvalues    EBANDS =     -1990.93230042
  atomic energy  EATOM  =     21714.53819221
  Solvation  Ediel_sol  =         0.00000000
  ---------------------------------------------------
  free energy    TOTEN  =      -372.39654169 eV

  energy without entropy =     -372.41460521  energy(sigma->0) =     -372.40256286


--------------------------------------------------------------------------------------------------------




----------------------------------------- Iteration    1(   7)  ---------------------------------------


    POTLOK:  cpu time    0.0292: real time    0.0293
    SETDIJ:  cpu time    0.0037: real time    0.0037
    EDDIAG:  cpu time    0.1147: real time    0.1169
  RMM-DIIS:  cpu time    0.7910: real time    0.7936
    ORTHCH:  cpu time    0.0105: real time    0.0105
       DOS:  cpu time    0.0011: real time    0.0011
    CHARGE:  cpu time    0.0286: real time    0.0289
    MIXING:  cpu time    0.0013: real time    0.0013
    --------------------------------------------
      LOOP:  cpu time    0.9810: real time    1.0257

 eigenvalue-minimisations  :  6993
 total energy-change (2. order) :-0.7949508E+00  (-0.2650044E+01)
 number of electron     273.9999999 magnetization 
 augmentation part       15.0732112 magnetization 

 Broyden mixing:
  rms(total) = 0.10437E+01    rms(broyden)= 0.10434E+01
  rms(prec ) = 0.30659E+01
  weight for this iteration     100.00

 eigenvalues of (default mixing * dielectric matrix)
  average eigenvalue GAMMA=   1.1944
  1.8604  0.5284

 Free energy of the ion-electron system (eV)
  ---------------------------------------------------
  alpha Z        PSCENC =      1417.29014822
  Ewald energy   TEWEN  =    -17441.62506332
  -Hartree energ DENC   =     -5125.19144482
  -exchange      EXHF   =         0.00000000
  -V(xc)+E(xc)   XCENC  =      -609.50052982
  PAW double counting   =     29977.19281857   -28226.99784609
  entropy T*S    EENTRO =         0.01428107
  eigenvalues    EBANDS =     -2078.91204849
  atomic energy  EATOM  =     21714.53819221
  Solvation  Ediel_sol  =         0.00000000
  ---------------------------------------------------
  free energy    TOTEN  =      -373.19149248 eV

  energy without entropy =     -373.20577355  energy(sigma->0) =     -373.19625284


--------------------------------------------------------------------------------------------------------




----------------------------------------- Iteration    1(   8)  ---------------------------------------


    POTLOK:  cpu time    0.0284: real time    0.0285
    SETDIJ:  cpu time    0.0036: real time    0.0036
    EDDIAG:  cpu time    0.0713: real time    0.0716
  RMM-DIIS:  cpu time    0.7808: real time    0.7860
    ORTHCH:  cpu time    0.0105: real time    0.0105
       DOS:  cpu time    0.0020: real time    0.0020
    CHARGE:  cpu time    0.0280: real time    0.0280
    MIXING:  cpu time    0.0012: real time    0.0012
    --------------------------------------------
      LOOP:  cpu time    0.9265: real time    0.9715

 eigenvalue-minimisations  :  7108
 total energy-change (2. order) : 0.5193132E+01  (-0.6292098E+00)
 number of electron     273.9999998 magnetization 
 augmentation part       14.9289488 magnetization 

 Broyden mixing:
  rms(total) = 0.37176E+00    rms(broyden)= 0.37126E+00
  rms(prec ) = 0.61116E+00
  weight for this iteration     100.00

 eigenvalues of (default mixing * dielectric matrix)
  average eigenvalue GAMMA=   1.1305
  1.8405  1.1426  0.4083

 Free energy of the ion-electron system (eV)
  ---------------------------------------------------
  alpha Z        PSCENC =      1417.29014822
  Ewald energy   TEWEN  =    -17441.62506332
  -Hartree energ DENC   =     -5128.79843812
  -exchange      EXHF   =         0.00000000
  -V(xc)+E(xc)   XCENC  =      -608.61373603
  PAW double counting   =     30885.45454643   -29133.53517315
  entropy T*S    EENTRO =         0.02411840
  eigenvalues    EBANDS =     -2072.73295468
  atomic energy  EATOM  =     21714.53819221
  Solvation  Ediel_sol  =         0.00000000
  ---------------------------------------------------
  free energy    TOTEN  =      -367.99836005 eV

  energy without entropy =     -368.02247845  energy(sigma->0) =     -368.00639952


--------------------------------------------------------------------------------------------------------




----------------------------------------- Iteration    1(   9)  ---------------------------------------


    POTLOK:  cpu time    0.0292: real time    0.0294
    SETDIJ:  cpu time    0.0037: real time    0.0037
    EDDIAG:  cpu time    0.1090: real time    0.1097
  RMM-DIIS:  cpu time    0.7510: real time    0.7799
    ORTHCH:  cpu time    0.0119: real time    0.0119
       DOS:  cpu time    0.0012: real time    0.0012
    CHARGE:  cpu time    0.0292: real time    0.0293
    MIXING:  cpu time    0.0016: real time    0.0016
    --------------------------------------------
      LOOP:  cpu time    0.9375: real time    1.0051

 eigenvalue-minimisations  :  7163
 total energy-change (2. order) : 0.1626175E+00  (-0.2282122E+00)
 number of electron     273.9999998 magnetization 
 augmentation part       14.8178873 magnetization 

 Broyden mixing:
  rms(total) = 0.26025E+00    rms(broyden)= 0.26017E+00
  rms(prec ) = 0.34394E+00
  weight for this iteration     100.00

 eigenvalues of (default mixing * dielectric matrix)
  average eigenvalue GAMMA=   1.1402
  1.8323  1.8323  0.4871  0.4090

 Free energy of the ion-electron system (eV)
  ---------------------------------------------------
  alpha Z        PSCENC =      1417.29014822
  Ewald energy   TEWEN  =    -17441.62506332
  -Hartree energ DENC   =     -5130.73232669
  -exchange      EXHF   =         0.00000000
  -V(xc)+E(xc)   XCENC  =      -608.18720041
  PAW double counting   =     31099.13793804   -29344.02453099
  entropy T*S    EENTRO =         0.02440997
  eigenvalues    EBANDS =     -2074.25730957
  atomic energy  EATOM  =     21714.53819221
  Solvation  Ediel_sol  =         0.00000000
  ---------------------------------------------------
  free energy    TOTEN  =      -367.83574254 eV

  energy without entropy =     -367.86015251  energy(sigma->0) =     -367.84387920


--------------------------------------------------------------------------------------------------------




----------------------------------------- Iteration    1(  10)  ---------------------------------------


    POTLOK:  cpu time    0.0322: real time    0.0330
    SETDIJ:  cpu time    0.0040: real time    0.0040
    EDDIAG:  cpu time    0.0722: real time    0.0736
  RMM-DIIS:  cpu time    0.8212: real time    0.8264
    ORTHCH:  cpu time    0.0110: real time    0.0110
       DOS:  cpu time    0.0011: real time    0.0011
    CHARGE:  cpu time    0.0280: real time    0.0282
    MIXING:  cpu time    0.0017: real time    0.0017
    --------------------------------------------
      LOOP:  cpu time    0.9721: real time    1.0225

 eigenvalue-minimisations  :  7156
 total energy-change (2. order) : 0.4106982E-01  (-0.3991965E-01)
 number of electron     273.9999998 magnetization 
 augmentation part       14.7362693 magnetization 

 Broyden mixing:
  rms(total) = 0.11957E+00    rms(broyden)= 0.11953E+00
  rms(prec ) = 0.19047E+00
  weight for this iteration     100.00

 eigenvalues of (default mixing * dielectric matrix)
  average eigenvalue GAMMA=   1.1446
  2.0018  2.0018  0.8158  0.4032  0.5007

 Free energy of the ion-electron system (eV)
  ---------------------------------------------------
  alpha Z        PSCENC =      1417.29014822
  Ewald energy   TEWEN  =    -17441.62506332
  -Hartree energ DENC   =     -5139.57193403
  -exchange      EXHF   =         0.00000000
  -V(xc)+E(xc)   XCENC  =      -607.40258006
  PAW double counting   =     31344.48950133   -29583.47518136
  entropy T*S    EENTRO =         0.02554947
  eigenvalues    EBANDS =     -2072.06330519
  atomic energy  EATOM  =     21714.53819221
  Solvation  Ediel_sol  =         0.00000000
  ---------------------------------------------------
  free energy    TOTEN  =      -367.79467272 eV

  energy without entropy =     -367.82022220  energy(sigma->0) =     -367.80318921


--------------------------------------------------------------------------------------------------------




----------------------------------------- Iteration    1(  11)  ---------------------------------------


    POTLOK:  cpu time    0.0299: real time    0.0299
    SETDIJ:  cpu time    0.0038: real time    0.0038
    EDDIAG:  cpu time    0.0690: real time    0.0695
  RMM-DIIS:  cpu time    0.7540: real time    0.7587
    ORTHCH:  cpu time    0.0107: real time    0.0108
       DOS:  cpu time    0.0009: real time    0.0009
    CHARGE:  cpu time    0.0329: real time    0.0330
    MIXING:  cpu time    0.0014: real time    0.0014
    --------------------------------------------
      LOOP:  cpu time    0.9032: real time    0.9475

 eigenvalue-minimisations  :  7148
 total energy-change (2. order) : 0.1415151E-01  (-0.1302229E-01)
 number of electron     273.9999998 magnetization 
 augmentation part       14.7178402 magnetization 

 Broyden mixing:
  rms(total) = 0.63038E-01    rms(broyden)= 0.63010E-01
  rms(prec ) = 0.11607E+00
  weight for this iteration     100.00

 eigenvalues of (default mixing * dielectric matrix)
  average eigenvalue GAMMA=   1.1007
  2.1828  1.9109  1.0754  0.4011  0.5169  0.5169

 Free energy of the ion-electron system (eV)
  ---------------------------------------------------
  alpha Z        PSCENC =      1417.29014822
  Ewald energy   TEWEN  =    -17441.62506332
  -Hartree energ DENC   =     -5143.72879248
  -exchange      EXHF   =         0.00000000
  -V(xc)+E(xc)   XCENC  =      -606.99565853
  PAW double counting   =     31519.45027136   -29755.49377423
  entropy T*S    EENTRO =         0.02706874
  eigenvalues    EBANDS =     -2071.24291317
  atomic energy  EATOM  =     21714.53819221
  Solvation  Ediel_sol  =         0.00000000
  ---------------------------------------------------
  free energy    TOTEN  =      -367.78052121 eV

  energy without entropy =     -367.80758995  energy(sigma->0) =     -367.78954412


--------------------------------------------------------------------------------------------------------




----------------------------------------- Iteration    1(  12)  ---------------------------------------


    POTLOK:  cpu time    0.0295: real time    0.0297
    SETDIJ:  cpu time    0.0037: real time    0.0037
    EDDIAG:  cpu time    0.0693: real time    0.0696
  RMM-DIIS:  cpu time    0.7999: real time    0.8058
    ORTHCH:  cpu time    0.0193: real time    0.0194
       DOS:  cpu time    0.0227: real time    0.0228
    CHARGE:  cpu time    0.0281: real time    0.0282
    MIXING:  cpu time    0.0014: real time    0.0014
    --------------------------------------------
      LOOP:  cpu time    0.9746: real time    1.0191

 eigenvalue-minimisations  :  7250
 total energy-change (2. order) : 0.1841015E-02  (-0.4924052E-02)
 number of electron     273.9999998 magnetization 
 augmentation part       14.7145399 magnetization 

 Broyden mixing:
  rms(total) = 0.36549E-01    rms(broyden)= 0.36536E-01
  rms(prec ) = 0.59585E-01
  weight for this iteration     100.00

 eigenvalues of (default mixing * dielectric matrix)
  average eigenvalue GAMMA=   1.0773
  2.2524  1.8901  1.3458  0.6846  0.5665  0.4007  0.4007

 Free energy of the ion-electron system (eV)
  ---------------------------------------------------
  alpha Z        PSCENC =      1417.29014822
  Ewald energy   TEWEN  =    -17441.62506332
  -Hartree energ DENC   =     -5145.39523078
  -exchange      EXHF   =         0.00000000
  -V(xc)+E(xc)   XCENC  =      -606.85706600
  PAW double counting   =     31627.99802609   -29862.66429023
  entropy T*S    EENTRO =         0.02722340
  eigenvalues    EBANDS =     -2071.09061977
  atomic energy  EATOM  =     21714.53819221
  Solvation  Ediel_sol  =         0.00000000
  ---------------------------------------------------
  free energy    TOTEN  =      -367.77868019 eV

  energy without entropy =     -367.80590359  energy(sigma->0) =     -367.78775466


--------------------------------------------------------------------------------------------------------




----------------------------------------- Iteration    1(  13)  ---------------------------------------


    POTLOK:  cpu time    0.0295: real time    0.1190
    SETDIJ:  cpu time    0.0038: real time    0.0106
    EDDIAG:  cpu time    0.0826: real time    0.0871
  RMM-DIIS:  cpu time    0.7410: real time    0.7815
    ORTHCH:  cpu time    0.0110: real time    0.0111
       DOS:  cpu time    0.0007: real time    0.0008
    CHARGE:  cpu time    0.0279: real time    0.0281
    MIXING:  cpu time    0.0016: real time    0.0016
    --------------------------------------------
      LOOP:  cpu time    0.8990: real time    1.1213

 eigenvalue-minimisations  :  7243
 total energy-change (2. order) : 0.2043168E-03  (-0.1988931E-02)
 number of electron     273.9999998 magnetization 
 augmentation part       14.7125560 magnetization 

 Broyden mixing:
  rms(total) = 0.21877E-01    rms(broyden)= 0.21870E-01
  rms(prec ) = 0.30190E-01
  weight for this iteration     100.00

 eigenvalues of (default mixing * dielectric matrix)
  average eigenvalue GAMMA=   1.0859
  2.4227  1.9799  1.3555  1.0620  0.6007  0.4971  0.3971  0.3721

 Free energy of the ion-electron system (eV)
  ---------------------------------------------------
  alpha Z        PSCENC =      1417.29014822
  Ewald energy   TEWEN  =    -17441.62506332
  -Hartree energ DENC   =     -5145.04955441
  -exchange      EXHF   =         0.00000000
  -V(xc)+E(xc)   XCENC  =      -606.85058152
  PAW double counting   =     31688.85034254   -29922.83289826
  entropy T*S    EENTRO =         0.02724119
  eigenvalues    EBANDS =     -2072.12630253
  atomic energy  EATOM  =     21714.53819221
  Solvation  Ediel_sol  =         0.00000000
  ---------------------------------------------------
  free energy    TOTEN  =      -367.77847588 eV

  energy without entropy =     -367.80571706  energy(sigma->0) =     -367.78755627


--------------------------------------------------------------------------------------------------------




----------------------------------------- Iteration    1(  14)  ---------------------------------------


    POTLOK:  cpu time    0.0292: real time    0.0294
    SETDIJ:  cpu time    0.0040: real time    0.0041
    EDDIAG:  cpu time    0.0693: real time    0.0720
  RMM-DIIS:  cpu time    0.8378: real time    0.8410
    ORTHCH:  cpu time    0.0107: real time    0.0108
       DOS:  cpu time    0.0108: real time    0.0109
    CHARGE:  cpu time    0.0472: real time    0.0474
    MIXING:  cpu time    0.0016: real time    0.0016
    --------------------------------------------
      LOOP:  cpu time    1.0111: real time    1.0576

 eigenvalue-minimisations  :  7287
 total energy-change (2. order) :-0.3555680E-03  (-0.8442568E-03)
 number of electron     273.9999998 magnetization 
 augmentation part       14.7106709 magnetization 

 Broyden mixing:
  rms(total) = 0.10942E-01    rms(broyden)= 0.10940E-01
  rms(prec ) = 0.14929E-01
  weight for this iteration     100.00

 eigenvalues of (default mixing * dielectric matrix)
  average eigenvalue GAMMA=   1.0983
  2.5371  2.0416  1.6204  1.1671  0.6417  0.6417  0.4601  0.4075  0.3675

 Free energy of the ion-electron system (eV)
  ---------------------------------------------------
  alpha Z        PSCENC =      1417.29014822
  Ewald energy   TEWEN  =    -17441.62506332
  -Hartree energ DENC   =     -5145.38515181
  -exchange      EXHF   =         0.00000000
  -V(xc)+E(xc)   XCENC  =      -606.84015359
  PAW double counting   =     31722.58052123   -29956.04820258
  entropy T*S    EENTRO =         0.02739553
  eigenvalues    EBANDS =     -2072.31651732
  atomic energy  EATOM  =     21714.53819221
  Solvation  Ediel_sol  =         0.00000000
  ---------------------------------------------------
  free energy    TOTEN  =      -367.77883144 eV

  energy without entropy =     -367.80622697  energy(sigma->0) =     -367.78796329


--------------------------------------------------------------------------------------------------------




----------------------------------------- Iteration    1(  15)  ---------------------------------------


    POTLOK:  cpu time    0.0291: real time    0.0292
    SETDIJ:  cpu time    0.0037: real time    0.0037
    EDDIAG:  cpu time    0.0717: real time    0.0720
  RMM-DIIS:  cpu time    0.7332: real time    0.7395
    ORTHCH:  cpu time    0.0107: real time    0.0108
       DOS:  cpu time    0.0010: real time    0.0010
    CHARGE:  cpu time    0.0280: real time    0.0281
    MIXING:  cpu time    0.0016: real time    0.0016
    --------------------------------------------
      LOOP:  cpu time    0.8797: real time    0.9289

 eigenvalue-minimisations  :  7179
 total energy-change (2. order) :-0.2933676E-03  (-0.4276772E-03)
 number of electron     273.9999998 magnetization 
 augmentation part       14.7086673 magnetization 

 Broyden mixing:
  rms(total) = 0.52305E-02    rms(broyden)= 0.52286E-02
  rms(prec ) = 0.90806E-02
  weight for this iteration     100.00

 eigenvalues of (default mixing * dielectric matrix)
  average eigenvalue GAMMA=   1.0909
  2.6316  2.0679  1.6891  1.3094  0.7274  0.7274  0.4964  0.4964  0.3955  0.3673

 Free energy of the ion-electron system (eV)
  ---------------------------------------------------
  alpha Z        PSCENC =      1417.29014822
  Ewald energy   TEWEN  =    -17441.62506332
  -Hartree energ DENC   =     -5145.83889116
  -exchange      EXHF   =         0.00000000
  -V(xc)+E(xc)   XCENC  =      -606.82725856
  PAW double counting   =     31743.05727539   -29976.21206883
  entropy T*S    EENTRO =         0.02724404
  eigenvalues    EBANDS =     -2072.18870280
  atomic energy  EATOM  =     21714.53819221
  Solvation  Ediel_sol  =         0.00000000
  ---------------------------------------------------
  free energy    TOTEN  =      -367.77912481 eV

  energy without entropy =     -367.80636886  energy(sigma->0) =     -367.78820616


--------------------------------------------------------------------------------------------------------




----------------------------------------- Iteration    1(  16)  ---------------------------------------


    POTLOK:  cpu time    0.0291: real time    0.0293
    SETDIJ:  cpu time    0.0037: real time    0.0037
    EDDIAG:  cpu time    0.0708: real time    0.0734
  RMM-DIIS:  cpu time    0.6502: real time    0.6538
    ORTHCH:  cpu time    0.0105: real time    0.0106
       DOS:  cpu time    0.0049: real time    0.0049
    CHARGE:  cpu time    0.0460: real time    0.0486
    MIXING:  cpu time    0.0016: real time    0.0016
    --------------------------------------------
      LOOP:  cpu time    0.8175: real time    0.8656

 eigenvalue-minimisations  :  6182
 total energy-change (2. order) :-0.1261143E-03  (-0.1865915E-03)
 number of electron     273.9999998 magnetization 
 augmentation part       14.7079840 magnetization 

 Broyden mixing:
  rms(total) = 0.30739E-02    rms(broyden)= 0.30726E-02
  rms(prec ) = 0.64571E-02
  weight for this iteration     100.00

 eigenvalues of (default mixing * dielectric matrix)
  average eigenvalue GAMMA=   1.0623
  2.6606  2.0775  1.8276  1.1937  0.8212  0.8212  0.5391  0.5391  0.3663  0.4046
  0.4340

 Free energy of the ion-electron system (eV)
  ---------------------------------------------------
  alpha Z        PSCENC =      1417.29014822
[...]
     86       4.8969      2.00000
     87       4.9433      2.00000
     88       4.9828      2.00000
     89       5.0248      2.00000
     90       5.0699      2.00000
     91       5.1672      2.00000
     92       5.2255      2.00000
     93       5.2698      2.00000
     94       5.3097      2.00000
     95       5.3847      2.00000
     96       5.4509      2.00000
     97       5.5112      2.00000
     98       5.6728      2.00000
     99       5.7296      2.00000
    100       5.7593      2.00000
    101       5.7968      2.00000
    102       5.8198      2.00000
    103       5.8573      2.00000
    104       5.9148      2.00000
    105       5.9269      2.00000
    106       5.9540      2.00000
    107       5.9974      2.00000
    108       6.0223      2.00000
    109       6.0559      2.00000
    110       6.0964      2.00000
    111       6.1400      2.00000
    112       6.2042      2.00000
    113       6.2228      2.00000
    114       6.2665      2.00000
    115       6.2806      2.00000
    116       6.3489      2.00000
    117       6.3706      2.00000
    118       6.4225      2.00000
    119       6.4690      2.00000
    120       6.5147      2.00000
    121       6.5317      2.00000
    122       6.5883      2.00000
    123       6.6446      2.00001
    124       6.6729      2.00002
    125       6.7210      2.00014
    126       6.7441      2.00032
    127       6.8134      2.00302
    128       6.8256      2.00426
    129       6.8487      2.00783
    130       6.8659      2.01185
    131       6.8872      2.01888
    132       6.9189      2.03397
    133       6.9404      2.04680
    134       7.0156      2.06439
    135       7.0409      2.03025
    136       7.0914      1.82741
    137       7.1122      1.67980
    138       7.1603      1.21288
    139       7.1857      0.92794
    140       7.2241      0.51856
    141       7.2617      0.20853
    142       7.2905      0.05309
    143       7.3309     -0.05233
    144       7.3796     -0.06771
    145       7.4129     -0.05011
    146       7.4478     -0.02964
    147       7.4863     -0.01371
    148       7.5012     -0.00971
    149       7.5400     -0.00351
    150       7.5757     -0.00120
    151       7.6219     -0.00025
    152       7.6550     -0.00007
    153       7.7493     -0.00000
    154       7.7918     -0.00000
    155       7.8260     -0.00000
    156       7.9032     -0.00000
    157       7.9376     -0.00000
    158       8.0240     -0.00000
    159       8.0473     -0.00000
    160       8.0962     -0.00000
    161       8.3287     -0.00000
    162       8.4008     -0.00000
    163       8.4885     -0.00000
    164       9.0020     -0.00000


--------------------------------------------------------------------------------------------------------


 soft charge-density along one line, spin component           1
         0         1         2         3         4         5         6         7         8         9
 total charge-density along one line
 
 pseudopotential strength for first ion, spin component:           1
 -6.440  -0.000   0.000  -0.005   0.000  -7.652  -0.000   0.000
 -0.000  -6.441  -0.002  -0.001   0.001  -0.000  -7.653  -0.002
  0.000  -0.002  -6.447  -0.000  -0.001   0.000  -0.002  -7.660
 -0.005  -0.001  -0.000  -6.440  -0.001  -0.006  -0.002  -0.000
  0.000   0.001  -0.001  -0.001  -6.448   0.000   0.002  -0.001
 -7.652  -0.000   0.000  -0.006   0.000  -9.071  -0.001   0.000
 -0.000  -7.653  -0.002  -0.002   0.002  -0.001  -9.072  -0.002
  0.000  -0.002  -7.660  -0.000  -0.001   0.000  -0.002  -9.081
 -0.006  -0.002  -0.000  -7.652  -0.001  -0.007  -0.002  -0.000
  0.000   0.002  -0.001  -0.001  -7.662   0.000   0.002  -0.002
  0.000   0.003   0.000   0.000  -0.001   0.000   0.004   0.000
  0.000   0.006   0.001   0.001  -0.001   0.001   0.007   0.001
 -0.000  -0.007   0.002   0.003   0.005  -0.000  -0.008   0.002
  0.003  -0.006  -0.005   0.002   0.001   0.003  -0.007  -0.006
 -0.004   0.003   0.001  -0.006   0.001  -0.005   0.003   0.001
  0.000   0.010  -0.002  -0.004  -0.006   0.000   0.013  -0.002
 -0.004   0.007   0.008  -0.003  -0.001  -0.005   0.008   0.009
  0.004  -0.004  -0.001   0.009  -0.002   0.005  -0.005  -0.001
 total augmentation occupancy for first ion, spin component:           1
  4.710   0.015   0.018  -0.332   0.011  -2.381  -0.006  -0.031   0.170  -0.005  -0.085   0.021   0.064  -0.048  -0.018   0.002
  0.015   4.815  -0.108  -0.143   0.106  -0.006  -2.470   0.069   0.084  -0.089  -0.223   0.061  -0.028   0.107  -0.040   0.003
  0.018  -0.108   4.520   0.008  -0.011  -0.030   0.068  -2.437  -0.003   0.002   0.095  -0.012   0.018  -0.006  -0.032  -0.001
 -0.332  -0.143   0.008   4.720  -0.005   0.170   0.084  -0.002  -2.414  -0.001  -0.000   0.005  -0.036  -0.022  -0.052  -0.003
  0.011   0.106  -0.011  -0.005   4.297  -0.005  -0.089   0.001  -0.002  -2.300   0.008  -0.006  -0.046  -0.011  -0.022  -0.004
 -2.381  -0.006  -0.030   0.170  -0.005   1.225   0.003   0.026  -0.088   0.002   0.060  -0.012  -0.031   0.023   0.004  -0.001
 -0.006  -2.470   0.068   0.084  -0.089   0.003   1.288  -0.042  -0.047   0.063   0.134  -0.033   0.020  -0.056   0.020  -0.002
 -0.031   0.069  -2.437  -0.002   0.001   0.026  -0.042   1.327   0.000   0.002  -0.062   0.008  -0.010   0.014   0.015   0.000
  0.170   0.084  -0.003  -2.414  -0.002  -0.088  -0.047   0.000   1.256   0.003  -0.000  -0.002   0.019   0.009   0.026   0.001
 -0.005  -0.089   0.002  -0.001  -2.300   0.002   0.063   0.002   0.003   1.243  -0.000   0.002   0.022   0.003   0.008   0.002
 -0.085  -0.223   0.095  -0.000   0.008   0.060   0.134  -0.062  -0.000  -0.000   2.194  -0.234   0.017  -0.002   0.001   0.002
  0.021   0.061  -0.012   0.005  -0.006  -0.012  -0.033   0.008  -0.002   0.002  -0.234   0.027   0.001   0.004  -0.001  -0.000
  0.064  -0.028   0.018  -0.036  -0.046  -0.031   0.020  -0.010   0.019   0.022   0.017   0.001   0.284  -0.004  -0.009   0.007
 -0.048   0.107  -0.006  -0.022  -0.011   0.023  -0.056   0.014   0.009   0.003  -0.002   0.004  -0.004   0.304  -0.005   0.000
 -0.018  -0.040  -0.032  -0.052  -0.022   0.004   0.020   0.015   0.026   0.008   0.001  -0.001  -0.009  -0.005   0.291  -0.000
  0.002   0.003  -0.001  -0.003  -0.004  -0.001  -0.002   0.000   0.001   0.002   0.002  -0.000   0.007   0.000  -0.000   0.000
 -0.003   0.005   0.001  -0.001  -0.000   0.001  -0.003  -0.000   0.001   0.000   0.001  -0.000   0.000   0.008  -0.000   0.000
  0.002  -0.003  -0.001   0.002  -0.001  -0.001   0.001   0.000  -0.001   0.000  -0.000   0.000  -0.000  -0.000   0.007  -0.000


------------------------ aborting loop because EDIFF is reached ----------------------------------------


    CHARGE:  cpu time    0.0266: real time    0.0267
    FORLOC:  cpu time    0.0133: real time    0.0134
    FORNL :  cpu time    0.2886: real time    0.2926
    STRESS:  cpu time    0.8533: real time    0.8579
    FORCOR:  cpu time    0.0424: real time    0.0446
    FORHAR:  cpu time    0.0181: real time    0.0182
    MIXING:  cpu time    0.0011: real time    0.0011
    OFIELD:  cpu time    0.0000: real time    0.0000

  FORCE on cell =-STRESS in cart. coord.  units (eV):
  Direction    XX          YY          ZZ          XY          YZ          ZX
  --------------------------------------------------------------------------------------
  Alpha Z  1416.73934  1416.73934  1416.73934
  Ewald   -5899.10703 -5581.21406 -5952.94396    26.30978    15.16132  -281.33103
  Hartree  1665.18721  1915.42788  1572.17110    28.87757     5.76981  -249.73952
  E(xc)   -1188.77976 -1188.78225 -1189.26528    -0.13285     0.09823    -0.64261
  Local    -315.74233  -889.47976  -171.49354   -54.75637   -21.69615   530.55286
  n-local  -289.90480  -292.61030  -289.86849     0.80660    -0.99042    -1.77309
  augment   162.64281   163.58739   163.00063    -0.32276     0.22722     0.28876
  Kinetic  4448.88550  4456.27492  4451.62246    -0.92876     1.52975     2.59634
  Fock        0.00000     0.00000     0.00000     0.00000     0.00000     0.00000
  -------------------------------------------------------------------------------------
  Total      -0.07906    -0.05683    -0.03774    -0.14680     0.09976    -0.04828
  in kB      -0.17445    -0.12540    -0.08328    -0.32391     0.22011    -0.10652
  external pressure =       -0.13 kB  Pullay stress =        0.00 kB


 VOLUME and BASIS-vectors are now :
 -----------------------------------------------------------------------------
  energy-cutoff  :      300.00
  volume of cell :      726.12
      direct lattice vectors                 reciprocal lattice vectors
     6.954901596  0.007716138 -0.030797028     0.143786539 -0.000163784  0.000648339
     0.011603749 10.247519704  0.015300377    -0.000108922  0.097584934 -0.000148205
    -0.045922610  0.015422296 10.188468767     0.000434792 -0.000147042  0.098152358

  length of vectors
     6.954974062 10.247537696 10.188583932     0.143788094  0.097585107  0.098153431


 FORCES acting on ions
    electron-ion (+dipol)            ewald-force                    non-local-force                 convergence-correction
 -----------------------------------------------------------------------------------------------
   -.225E+02 0.315E+02 -.339E+02   0.225E+02 -.310E+02 0.342E+02   -.168E-01 -.531E+00 -.251E+00   -.388E-03 -.140E-01 0.225E-01
   -.445E+02 -.344E+02 0.189E+02   0.437E+02 0.341E+02 -.191E+02   0.833E+00 0.269E+00 0.183E+00   -.547E-02 0.185E-01 -.239E-01
   -.485E+02 -.286E+02 -.549E+02   0.481E+02 0.291E+02 0.546E+02   0.463E+00 -.534E+00 0.287E+00   -.636E-02 0.147E-01 -.349E-02
   0.357E+02 -.548E+01 0.224E+02   -.358E+02 0.499E+01 -.230E+02   0.154E+00 0.481E+00 0.585E+00   0.130E-02 0.101E-01 0.210E-01
   0.395E+02 -.220E+02 -.548E+02   -.386E+02 0.215E+02 0.542E+02   -.991E+00 0.539E+00 0.525E+00   0.353E-02 -.103E-01 -.282E-03
   0.476E+02 -.918E+01 -.726E+02   -.473E+02 0.974E+01 0.722E+02   -.375E+00 -.569E+00 0.347E+00   0.619E-02 0.152E-01 -.615E-02
   -.996E+01 -.460E+02 0.589E+02   0.107E+02 0.461E+02 -.588E+02   -.720E+00 -.781E-01 -.112E+00   -.729E-03 0.732E-02 0.424E-02
   -.378E+02 -.660E+01 -.537E+02   0.368E+02 0.612E+01 0.536E+02   0.102E+01 0.479E+00 0.959E-01   -.327E-02 -.899E-02 0.215E-02
   0.135E+02 0.151E+02 0.659E+01   -.135E+02 -.154E+02 -.711E+01   0.684E-01 0.246E+00 0.489E+00   -.311E-02 -.427E-02 0.258E-01
   -.979E+01 -.277E+02 -.718E+02   0.102E+02 0.280E+02 0.720E+02   -.418E+00 -.270E+00 -.141E+00   -.129E-02 0.899E-02 -.227E-01
   0.490E+01 -.560E+01 0.457E+02   -.474E+01 0.548E+01 -.452E+02   -.170E+00 0.105E+00 -.574E+00   0.148E-02 0.104E-01 -.303E-02
   0.206E+01 0.392E+02 0.849E+01   -.214E+01 -.389E+02 -.802E+01   0.843E-01 -.319E+00 -.478E+00   0.156E-02 -.488E-02 0.180E-01
   -.193E+01 -.105E+02 0.501E+02   0.169E+01 0.107E+02 -.492E+02   0.235E+00 -.159E+00 -.853E+00   -.180E-02 0.930E-02 -.529E-02
   0.799E+02 -.448E+01 0.538E+02   -.791E+02 0.429E+01 -.538E+02   -.834E+00 0.197E+00 0.297E-01   0.455E-02 -.911E-02 -.158E-01
   0.662E+01 -.167E+02 -.254E+02   -.693E+01 0.161E+02 0.256E+02   0.304E+00 0.527E+00 -.142E+00   -.920E-04 0.744E-02 -.216E-01
   -.252E+02 0.497E+02 0.226E+02   0.248E+02 -.498E+02 -.226E+02   0.409E+00 0.147E+00 0.187E-01   -.227E-02 -.120E-01 -.203E-02
   -.337E+02 0.312E+02 -.567E+02   0.334E+02 -.312E+02 0.570E+02   0.261E+00 0.398E-01 -.295E+00   -.354E-02 -.422E-02 -.169E-02
   -.154E+01 -.402E+02 0.118E+02   0.753E+00 0.402E+02 -.112E+02   0.782E+00 -.208E-01 -.539E+00   -.380E-03 0.451E-02 0.133E-02
   -.745E+01 -.153E+02 0.225E+02   0.764E+01 0.152E+02 -.231E+02   -.197E+00 0.596E-01 0.530E+00   -.544E-03 0.202E-02 0.178E-01
   -.299E+02 -.266E+02 0.143E+01   0.301E+02 0.262E+02 -.175E+01   -.275E+00 0.442E+00 0.312E+00   -.727E-03 0.735E-02 0.180E-01
   0.215E+02 0.381E+02 0.608E+02   -.210E+02 -.380E+02 -.610E+02   -.455E+00 -.705E-02 0.281E+00   0.125E-02 -.127E-01 0.182E-02
   -.270E+02 0.429E+02 -.221E+02   0.264E+02 -.426E+02 0.223E+02   0.611E+00 -.316E+00 -.204E+00   -.152E-02 -.144E-01 -.164E-01
   -.212E+03 0.464E+02 0.182E+03   0.211E+03 -.470E+02 -.182E+03   0.111E+01 0.575E+00 -.103E+00   -.176E-01 -.301E-01 -.485E-01
   0.920E+02 -.115E+03 0.556E+02   -.910E+02 0.114E+03 -.556E+02   -.994E+00 0.174E+00 0.805E-01   0.913E-02 0.457E-01 -.657E-01
   0.309E+02 0.495E+02 -.150E+03   -.301E+02 -.487E+02 0.150E+03   -.835E+00 -.746E+00 -.259E+00   -.618E-02 -.462E-01 -.636E-01
   -.740E+02 0.321E+02 0.924E+02   0.733E+02 -.313E+02 -.926E+02   0.652E+00 -.761E+00 0.289E+00   -.447E-02 -.130E-01 -.712E-01
   -.457E+02 0.229E+02 -.151E+03   0.461E+02 -.240E+02 0.152E+03   -.410E+00 0.102E+01 -.188E+00   -.560E-02 0.265E-01 -.791E-01
   0.467E+02 0.242E+02 0.887E-02   -.465E+02 -.233E+02 -.288E+00   -.127E+00 -.927E+00 0.223E+00   0.234E-02 -.320E-01 0.562E-01
   0.432E+02 -.858E+01 0.758E+02   -.436E+02 0.851E+01 -.769E+02   0.370E+00 0.584E-01 0.957E+00   0.394E-02 0.139E-01 0.596E-01
   -.179E+02 0.757E+01 -.733E+02   0.178E+02 -.799E+01 0.734E+02   0.852E-01 0.436E+00 -.137E+00   0.137E-01 -.164E-01 0.582E-01
   0.224E+02 -.702E+02 -.205E+03   -.228E+02 0.704E+02 0.205E+03   0.382E+00 -.239E+00 0.205E+00   0.197E-02 0.208E-01 -.579E-01
   -.196E+02 0.115E+03 0.334E+02   0.198E+02 -.115E+03 -.330E+02   -.161E+00 -.471E+00 -.414E+00   -.301E-02 -.917E-02 0.514E-01
   -.441E+02 -.165E+03 0.632E+02   0.441E+02 0.165E+03 -.626E+02   -.351E-01 0.413E-01 -.669E+00   -.138E-01 0.246E-01 0.605E-01
   0.814E+02 0.119E+03 0.119E+03   -.808E+02 -.119E+03 -.119E+03   -.613E+00 -.768E-01 0.260E+00   0.116E-01 -.170E-01 -.536E-01
   0.969E+02 0.700E+02 -.732E+02   -.966E+02 -.700E+02 0.733E+02   -.263E+00 -.608E-02 -.684E-01   0.130E-01 -.146E-01 -.704E-02
   0.483E+02 -.768E+02 0.935E+02   -.484E+02 0.766E+02 -.930E+02   0.486E-01 0.169E+00 -.593E+00   0.133E-01 0.374E-01 0.603E-01
 -----------------------------------------------------------------------------------------------
   0.107E-01 0.193E-01 0.412E+00   0.114E-12 0.171E-12 0.142E-13   -.184E-01 -.290E-01 -.323E+00   0.680E-02 0.114E-01 -.902E-01
 
 
 POSITION                                       TOTAL-FORCE (eV/Angst)
 -----------------------------------------------------------------------------------
      3.46144      3.51750      3.48399         0.003666      0.001567     -0.002003
      5.06487      8.53863      8.50566         0.006943     -0.003150      0.004013
      5.13673      8.59828      1.57744        -0.001379      0.006405      0.001629
      6.94491     10.07996      3.19984         0.002518     -0.001071      0.000036
      1.94178      4.98980      1.57568        -0.004004     -0.003443      0.001197
      1.83469      8.61811      1.53575         0.003224      0.001636     -0.000090
      3.55894      0.02652      6.73273         0.000834     -0.007224     -0.005910
      5.06771      5.06040      1.66769         0.003634     -0.003056      0.000968
      5.24735      1.64539      4.87719         0.008868     -0.000329     -0.001722
      3.51040      6.84495      0.01442        -0.003038      0.001132      0.000414
      3.47560      6.85964      6.94259        -0.005187     -0.003097      0.000595
      1.70521      5.25861      5.24918         0.001679      0.001443      0.003064
      6.91371      6.89026      7.04783        -0.003587      0.000947      0.001950
      1.89851      1.72257      8.46664        -0.004503      0.001473     -0.001971
      6.84994      0.04987     10.11745        -0.000947      0.000787     -0.003867
      6.78317      3.35930      6.82235        -0.000988      0.007516     -0.001196
      5.16646      1.72520      1.79245         0.008067      0.001136      0.003972
      6.76606      0.11452      6.93284        -0.002493     -0.006907     -0.001205
      0.08696      6.84273      3.20721        -0.000974      0.002668      0.000291
      3.45839     10.12745      3.43279        -0.002296     -0.000234      0.001245
      3.57988      3.41918      6.60751        -0.003287      0.006114     -0.005410
      6.77510      3.41292     10.09936         0.000130     -0.003130      0.000027
      4.90621      1.67657      8.55004        -0.000955      0.002720      0.003189
      1.78958      8.57419      8.50758        -0.005576     -0.004669      0.001082
      3.60811      3.49432     -0.00118        -0.003001      0.001833     -0.001960
      5.09477      5.24061      8.49595         0.006858      0.000157      0.000350
      3.46322     10.16534     10.16886         0.002230     -0.002416      0.002751
      0.05989      3.60422      3.37553         0.003298      0.001343      0.000404
      3.41381      6.83641      3.30388         0.002938      0.002977     -0.004081
      1.63694      1.65511      5.04732        -0.007162      0.001532     -0.001947
      6.94865      6.83189      0.01158        -0.002346      0.000852     -0.002247
      5.30649      5.33945      5.12591        -0.004712     -0.002801      0.000450
      5.28577      8.48434      5.16194        -0.003595      0.000684     -0.001474
      1.76072      5.08213      8.47134         0.000106     -0.003630      0.004251
      1.78408      1.73127      1.67788         0.000662      0.001212      0.000617
      1.67157      8.47355      5.25126         0.004376     -0.000977      0.002587
 -----------------------------------------------------------------------------------
    total drift:                               -0.000844      0.001673     -0.001011


--------------------------------------------------------------------------------------------------------



  FREE ENERGIE OF THE ION-ELECTRON SYSTEM (eV)
  ---------------------------------------------------
  free  energy   TOTEN  =      -367.78739154 eV

  energy  without entropy=     -367.81343648  energy(sigma->0) =     -367.79607318
 
 d Force = 0.5327724E-04[ 0.395E-04, 0.670E-04]  d Energy = 0.8229023E-04-0.290E-04
 d Force =-0.1665193E+00[-0.167E+00,-0.166E+00]  d Ewald  = 0.5399607E+00-0.706E+00


--------------------------------------------------------------------------------------------------------


    POTLOK:  cpu time    0.0365: real time    0.0366


--------------------------------------------------------------------------------------------------------


 Conjugate gradient step on ions:
 trial-energy change:   -0.000082  1 .order   -0.000100   -0.000114   -0.000085
  (g-gl).g = 0.486E-04      g.g   = 0.581E-04  gl.gl    = 0.108E-03
 g(Force)  = 0.210E-04   g(Stress)= 0.371E-04 ortho     =-0.293E-05
 gamma     =   0.44818
 trial     =   2.01463
 opt step  =   7.98398  (harmonic =   7.98398) maximal distance =0.00269868
 next E    =  -367.787536   (d E  =  -0.00023)


--------------------------------------------------------------------------------------------------------


  
 reached required accuracy - stopping structural energy minimisation
     LOOP+:  cpu time    3.8321: real time    4.4035
    4ORBIT:  cpu time    0.0000: real time    0.0000

 total amount of memory used by VASP on root node    65968. kBytes
========================================================================

   base      :      30000. kBytes
   nonlr-proj:      10368. kBytes
   fftplans  :       2814. kBytes
   grid      :       5360. kBytes
   one-center:        124. kBytes
   wavefun   :      17302. kBytes
 
  
  
 General timing and accounting informations for this job:
 ========================================================
  
                  Total CPU time used (sec):      113.959
                            User time (sec):      113.241
                          System time (sec):        0.718
                         Elapsed time (sec):      133.403
  
                   Maximum memory used (kb):      252132.
                   Average memory used (kb):           0.
  
                          Minor page faults:        99143
                          Major page faults:           35
                 Voluntary context switches:         5774
