<?xml version="1.0" encoding="ISO-8859-1"?>
<modeling>
 <generator>
  <i name="program" type="string">vasp </i>
  <i name="version" type="string">5.4.1  </i>
  <i name="subversion" type="string">05Feb16 (build Jan 29 2020 16:04:39) complex                          parallel </i>
  <i name="platform" type="string">IFC91_ompi </i>
  <i name="date" type="string">2020 06 08 </i>
  <i name="time" type="string">00:39:37 </i>
 </generator>
 <incar>
  <i type="string" name="SYSTEM"> automatically generated by mexm</i>
  <i type="int" name="ISTART">     0</i>
  <i type="string" name="PREC">accurate               ! avoid wrap aro</i>
  <i type="string" name="ALGO"> Fast                   ! blocked Davids</i>
  <i type="int" name="ISPIN">     1</i>
  <i type="int" name="ICHARG">     2</i>
  <i type="int" name="NELM">    70</i>
  <i type="int" name="IBRION">     2</i>
  <i name="EDIFF">      0.00001000</i>
  <i name="EDIFFG">     -0.01000000</i>
  <i type="int" name="NSW">   300</i>
  <i type="int" name="ISIF">     3</i>
  <i type="int" name="ISYM">     1</i>
  <i name="ENCUT">    300.00000000</i>
  <i name="POTIM">      0.15000000</i>
  <i type="string" name="LREAL"> Auto                  ! unpublished met</i>
  <i type="int" name="ISMEAR">     1</i>
  <i name="SIGMA">      0.15000000</i>
  <i type="logical" name="LWAVE"> F  </i>
  <i type="logical" name="LCHARG"> F  </i>
  <i type="logical" name="LVTOT"> F  </i>
  <v type="int" name="KPOINT_BSE">    -1     0     0     0</v>
  <i type="int" name="NELM">    70</i>
 </incar>
 <kpoints>
  <generation param="Gamma">
   <v type="int" name="divisions">       3        3        3 </v>
   <v name="usershift">      0.00000000       0.00000000       0.00000000 </v>
   <v name="genvec1">      0.33333333      -0.00000000       0.00000000 </v>
   <v name="genvec2">     -0.00000000       0.33333333      -0.00000000 </v>
   <v name="genvec3">      0.00000000      -0.00000000       0.33333333 </v>
   <v name="shift">      0.00000000       0.00000000       0.00000000 </v>
  </generation>
  <varray name="kpointlist" >
   <v>       0.00000000       0.00000000       0.00000000 </v>
   <v>       0.33333333      -0.00000000       0.00000000 </v>
   <v>      -0.00000000       0.33333333      -0.00000000 </v>
   <v>       0.33333333       0.33333333       0.00000000 </v>
   <v>      -0.33333333       0.33333333      -0.00000000 </v>
   <v>      -0.00000000      -0.00000000       0.33333333 </v>
   <v>       0.33333333      -0.00000000       0.33333333 </v>
   <v>      -0.33333333      -0.00000000       0.33333333 </v>
   <v>       0.00000000       0.33333333       0.33333333 </v>
   <v>       0.33333333       0.33333333       0.33333333 </v>
   <v>      -0.33333333       0.33333333       0.33333333 </v>
   <v>       0.00000000      -0.33333333       0.33333333 </v>
   <v>       0.33333333      -0.33333333       0.33333333 </v>
   <v>      -0.33333333      -0.33333333       0.33333333 </v>
  </varray>
  <varray name="weights" >
   <v>       0.03703704 </v>
   <v>       0.07407407 </v>
   <v>       0.07407407 </v>
   <v>       0.07407407 </v>
   <v>       0.07407407 </v>
   <v>       0.07407407 </v>
   <v>       0.07407407 </v>
   <v>       0.07407407 </v>
   <v>       0.07407407 </v>
   <v>       0.07407407 </v>
   <v>       0.07407407 </v>
   <v>       0.07407407 </v>
   <v>       0.07407407 </v>
   <v>       0.07407407 </v>
  </varray>
 </kpoints>
 <parameters>
  <separator name="general" >
   <i type="string" name="SYSTEM">automatically generated by mexm</i>
   <i type="logical" name="LCOMPAT"> F  </i>
  </separator>
  <separator name="electronic" >
   <i type="string" name="PREC">accura</i>
   <i name="ENMAX">    300.00000000</i>
   <i name="ENAUG">    461.25700000</i>
   <i name="EDIFF">      0.00001000</i>
   <i type="int" name="IALGO">    68</i>
   <i type="int" name="IWAVPR">    11</i>
   <i type="int" name="NBANDS">   184</i>
   <i name="NELECT">    306.00000000</i>
   <i type="int" name="TURBO">     0</i>
   <i type="int" name="IRESTART">     0</i>
   <i type="int" name="NREBOOT">     0</i>
   <i type="int" name="NMIN">     0</i>
   <i name="EREF">      0.00000000</i>
   <separator name="electronic smearing" >
    <i type="int" name="ISMEAR">     1</i>
    <i name="SIGMA">      0.15000000</i>
    <i name="KSPACING">      0.50000000</i>
    <i type="logical" name="KGAMMA"> T  </i>
   </separator>
   <separator name="electronic projectors" >
    <i type="logical" name="LREAL"> T  </i>
    <v name="ROPT">     -0.00025000     -0.00025000     -0.00025000     -0.00025000</v>
    <i type="int" name="LMAXPAW">  -100</i>
    <i type="int" name="LMAXMIX">     2</i>
    <i type="logical" name="NLSPLINE"> F  </i>
   </separator>
   <separator name="electronic startup" >
    <i type="int" name="ISTART">     0</i>
    <i type="int" name="ICHARG">     2</i>
    <i type="int" name="INIWAV">     1</i>
   </separator>
   <separator name="electronic spin" >
    <i type="int" name="ISPIN">     1</i>
    <i type="logical" name="LNONCOLLINEAR"> F  </i>
    <v name="MAGMOM">      1.00000000      1.00000000      1.00000000      1.00000000      1.00000000      1.00000000      1.00000000      1.00000000      1.00000000      1.00000000      1.00000000      1.00000000      1.00000000      1.00000000      1.00000000      1.00000000      1.00000000      1.00000000      1.00000000      1.00000000
      1.00000000      1.00000000      1.00000000      1.00000000      1.00000000      1.00000000      1.00000000      1.00000000      1.00000000      1.00000000      1.00000000      1.00000000      1.00000000      1.00000000      1.00000000      1.00000000</v>
    <i name="NUPDOWN">     -1.00000000</i>
    <i type="logical" name="LSORBIT"> F  </i>
    <v name="SAXIS">      0.00000000      0.00000000      1.00000000</v>
    <i type="logical" name="LSPIRAL"> F  </i>
    <v name="QSPIRAL">      0.00000000      0.00000000      0.00000000</v>
    <i type="logical" name="LZEROZ"> F  </i>
   </separator>
   <separator name="electronic exchange-correlation" >
    <i type="logical" name="LASPH"> F  </i>
    <i type="logical" name="LMETAGGA"> F  </i>
   </separator>
   <separator name="electronic convergence" >
    <i type="int" name="NELM">    70</i>
    <i type="int" name="NELMDL">    -5</i>
    <i type="int" name="NELMIN">     2</i>
    <i name="ENINI">    300.00000000</i>
    <separator name="electronic convergence detail" >
     <i type="logical" name="LDIAG"> T  </i>
     <i type="logical" name="LSUBROT"> F  </i>
     <i name="WEIMIN">      0.00100000</i>
     <i name="EBREAK">      0.00000001</i>
     <i name="DEPER">      0.30000000</i>
     <i type="int" name="NRMM">     4</i>
     <i name="TIME">      0.40000000</i>
    </separator>
   </separator>
   <separator name="electronic mixer" >
    <i name="AMIX">      0.40000000</i>
    <i name="BMIX">      1.00000000</i>
    <i name="AMIN">      0.10000000</i>
    <i name="AMIX_MAG">      1.60000000</i>
    <i name="BMIX_MAG">      1.00000000</i>
    <separator name="electronic mixer details" >
     <i type="int" name="IMIX">     4</i>
     <i type="logical" name="MIXFIRST"> F  </i>
     <i type="int" name="MAXMIX">   -45</i>
     <i name="WC">    100.00000000</i>
     <i type="int" name="INIMIX">     1</i>
     <i type="int" name="MIXPRE">     1</i>
     <i type="int" name="MREMOVE">     5</i>
    </separator>
   </separator>
   <separator name="electronic dipolcorrection" >
    <i type="logical" name="LDIPOL"> F  </i>
    <i type="logical" name="LMONO"> F  </i>
    <i type="int" name="IDIPOL">     0</i>
    <i name="EPSILON">      1.00000000</i>
    <v name="DIPOL">   -100.00000000   -100.00000000   -100.00000000</v>
    <i name="EFIELD">      0.00000000</i>
   </separator>
  </separator>
  <separator name="grids" >
   <i type="int" name="NGX">    40</i>
   <i type="int" name="NGY">    60</i>
   <i type="int" name="NGZ">    60</i>
   <i type="int" name="NGXF">    80</i>
   <i type="int" name="NGYF">   120</i>
   <i type="int" name="NGZF">   120</i>
   <i type="logical" name="ADDGRID"> F  </i>
  </separator>
  <separator name="ionic" >
   <i type="int" name="NSW">   300</i>
   <i type="int" name="IBRION">     2</i>
   <i type="int" name="ISIF">     3</i>
   <i name="PSTRESS">      0.00000000</i>
   <i name="EDIFFG">     -0.01000000</i>
   <i type="int" name="NFREE">     1</i>
   <i name="POTIM">      0.15000000</i>
   <i name="SMASS">     -3.00000000</i>
   <i name="SCALEE">      1.00000000</i>
  </separator>
  <separator name="ionic md" >
   <i name="TEBEG">      0.00010000</i>
   <i name="TEEND">      0.00010000</i>
   <i type="int" name="NBLOCK">     1</i>
   <i type="int" name="KBLOCK">   300</i>
   <i type="int" name="NPACO">   256</i>
   <i name="APACO">     16.00000000</i>
  </separator>
  <separator name="symmetry" >
   <i type="int" name="ISYM">     1</i>
   <i name="SYMPREC">      0.00001000</i>
  </separator>
  <separator name="dos" >
   <i type="logical" name="LORBIT"> F  </i>
   <v name="RWIGS">     -1.00000000     -1.00000000     -1.00000000     -1.00000000</v>
   <i type="int" name="NEDOS">   301</i>
   <i name="EMIN">     10.00000000</i>
   <i name="EMAX">    -10.00000000</i>
   <i name="EFERMI">      0.00000000</i>
  </separator>
  <separator name="writing" >
   <i type="int" name="NWRITE">     2</i>
   <i type="logical" name="LWAVE"> F  </i>
   <i type="logical" name="LCHARG"> F  </i>
   <i type="logical" name="LPARD"> F  </i>
   <i type="logical" name="LVTOT"> F  </i>
   <i type="logical" name="LVHAR"> F  </i>
   <i type="logical" name="LELF"> F  </i>
   <i type="logical" name="LOPTICS"> F  </i>
   <v name="STM">      0.00000000      0.00000000      0.00000000      0.00000000      0.00000000      0.00000000      0.00000000</v>
  </separator>
  <separator name="performance" >
   <i type="int" name="NPAR">     4</i>
   <i type="int" name="NSIM">     4</i>
   <i type="int" name="NBLK">    -1</i>
   <i type="logical" name="LPLANE"> T  </i>
   <i type="logical" name="LSCALAPACK"> T  </i>
   <i type="logical" name="LSCAAWARE"> F  </i>
   <i type="logical" name="LSCALU"> F  </i>
   <i type="logical" name="LASYNC"> F  </i>
   <i type="logical" name="LORBITALREAL"> F  </i>
  </separator>
  <separator name="miscellaneous" >
   <i type="int" name="IDIOT">     3</i>
   <i type="logical" name="LMUSIC"> F  </i>
   <v name="POMASS">    178.49000000     92.91000000    180.94800000     91.22400000</v>
   <v name="DARWINR">      0.00000000      0.00000000      0.00000000      0.00000000</v>
   <v name="DARWINV">      1.00000000      1.00000000      1.00000000      1.00000000</v>
   <i type="logical" name="LCORR"> T  </i>
  </separator>
  <i type="logical" name="GGA_COMPAT"> T  </i>
  <i type="logical" name="LBERRY"> F  </i>
  <i type="int" name="ICORELEVEL">     0</i>
  <i type="logical" name="LDAU"> F  </i>
  <i type="int" name="I_CONSTRAINED_M">     0</i>
  <separator name="electronic exchange-correlation" >
   <i type="string" name="GGA">--</i>
   <i type="int" name="VOSKOWN">     0</i>
   <i type="logical" name="LHFCALC"> F  </i>
   <i type="string" name="PRECFOCK"></i>
   <i type="logical" name="LSYMGRAD"> F  </i>
   <i type="logical" name="LHFONE"> F  </i>
   <i type="logical" name="LRHFCALC"> F  </i>
   <i type="logical" name="LTHOMAS"> F  </i>
   <i type="logical" name="LMODELHF"> F  </i>
   <i name="ENCUT4O">     -1.00000000</i>
   <i type="int" name="EXXOEP">     0</i>
   <i type="int" name="FOURORBIT">     0</i>
   <i name="AEXX">      0.00000000</i>
   <i name="HFALPHA">      0.00000000</i>
   <i name="MCALPHA">      0.00000000</i>
   <i name="ALDAX">      1.00000000</i>
   <i name="AGGAX">      1.00000000</i>
   <i name="ALDAC">      1.00000000</i>
   <i name="AGGAC">      1.00000000</i>
   <i type="int" name="NKREDX">     1</i>
   <i type="int" name="NKREDY">     1</i>
   <i type="int" name="NKREDZ">     1</i>
   <i type="logical" name="SHIFTRED"> F  </i>
   <i type="logical" name="ODDONLY"> F  </i>
   <i type="logical" name="EVENONLY"> F  </i>
   <i type="int" name="LMAXFOCK">     0</i>
   <i type="int" name="NMAXFOCKAE">     0</i>
   <i type="logical" name="LFOCKAEDFT"> F  </i>
   <i name="HFSCREEN">      0.00000000</i>
   <i name="HFSCREENC">      0.00000000</i>
   <i type="int" name="NBANDSGWLOW">     0</i>
  </separator>
  <separator name="vdW DFT" >
   <i type="logical" name="LUSE_VDW"> F  </i>
   <i name="Zab_VDW">     -0.84910000</i>
   <i name="PARAM1">      0.12340000</i>
   <i name="PARAM2">      1.00000000</i>
   <i name="PARAM3">      0.00000000</i>
  </separator>
  <separator name="model GW" >
   <i type="int" name="MODEL_GW">     0</i>
   <i name="MODEL_EPS0">     12.14933107</i>
   <i name="MODEL_ALPHA">      1.00000000</i>
  </separator>
  <separator name="linear response parameters" >
   <i type="logical" name="LEPSILON"> F  </i>
   <i type="logical" name="LRPA"> F  </i>
   <i type="logical" name="LNABLA"> F  </i>
   <i type="logical" name="LVEL"> F  </i>
   <i type="int" name="KINTER">     0</i>
   <i name="CSHIFT">      0.10000000</i>
   <i name="OMEGAMAX">     -1.00000000</i>
   <i name="DEG_THRESHOLD">      0.00200000</i>
  </separator>
  <separator name="orbital magnetization" >
   <i type="logical" name="NUCIND"> F  </i>
   <v name="MAGPOS">      0.00000000      0.00000000      0.00000000</v>
   <i type="logical" name="LNICSALL"> T  </i>
   <i type="logical" name="ORBITALMAG"> F  </i>
   <i type="logical" name="LMAGBLOCH"> F  </i>
   <i type="logical" name="LCHIMAG"> F  </i>
   <i type="logical" name="LGAUGE"> T  </i>
   <i type="int" name="MAGATOM">     0</i>
   <v name="MAGDIPOL">      0.00000000      0.00000000      0.00000000</v>
   <v name="AVECCONST">      0.00000000      0.00000000      0.00000000</v>
  </separator>
  <separator name="response functions" >
   <i type="logical" name="LADDER"> F  </i>
   <i type="logical" name="LFXC"> F  </i>
   <i type="logical" name="LHARTREE"> T  </i>
   <i type="int" name="IBSE">     0</i>
   <v type="int" name="KPOINT">    -1     0     0     0</v>
   <i type="logical" name="LTCTE"> F  </i>
   <i type="logical" name="LTETE"> F  </i>
   <i type="logical" name="LTRIPLET"> F  </i>
   <i type="logical" name="LFXCEPS"> F  </i>
   <i type="logical" name="LFXHEG"> F  </i>
   <i type="int" name="NATURALO">     0</i>
   <i type="logical" name="L2ORDER"> F  </i>
   <i type="logical" name="LUSEW"> F  </i>
   <i name="ENCUTGW">     -2.00000000</i>
   <i name="ENCUTGWSOFT">     -2.00000000</i>
   <i name="ENCUTLF">     -1.00000000</i>
   <i type="int" name="LMAXMP2">    -1</i>
   <i name="SCISSOR">      0.00000000</i>
   <i type="int" name="NOMEGA">     0</i>
   <i type="int" name="NOMEGAR">     0</i>
   <i type="int" name="NBANDSGW">    -1</i>
   <i type="int" name="NBANDSO">    -1</i>
   <i type="int" name="NBANDSV">    -1</i>
   <i type="int" name="NELM">    70</i>
   <i type="int" name="NELMHF">     1</i>
   <i type="int" name="DIM">     3</i>
   <i type="int" name="ANTIRES">     0</i>
   <i name="OMEGAMAX">    -30.00000000</i>
   <i name="OMEGAMIN">    -30.00000000</i>
   <i name="OMEGATL">   -200.00000000</i>
   <i type="int" name="OMEGAGRID">     0</i>
   <i name="CSHIFT">     -0.10000000</i>
   <i type="logical" name="SELFENERGY"> F  </i>
   <i type="logical" name="LSPECTRAL"> F  </i>
   <i type="logical" name="LSPECTRALGW"> F  </i>
   <i type="logical" name="LSINGLES"> F  </i>
   <i type="logical" name="LFERMIGW"> F  </i>
   <i type="logical" name="ODDONLYGW"> F  </i>
   <i type="logical" name="EVENONLYGW"> F  </i>
   <i type="int" name="NKREDLFX">     1</i>
   <i type="int" name="NKREDLFY">     1</i>
   <i type="int" name="NKREDLFZ">     1</i>
   <i type="int" name="MAXMEM">  1800</i>
   <i type="int" name="TELESCOPE">     0</i>
   <i type="int" name="TAUPAR">     1</i>
   <i type="int" name="OMEGAPAR">    -1</i>
   <i name="LAMBDA">      1.00000000</i>
  </separator>
  <separator name="External order field" >
   <i name="OFIELD_KAPPA">      0.00000000</i>
   <v name="OFIELD_K">      0.00000000      0.00000000      0.00000000</v>
   <i name="OFIELD_Q6_NEAR">      0.00000000</i>
   <i name="OFIELD_Q6_FAR">      0.00000000</i>
   <i name="OFIELD_A">      0.00000000</i>
  </separator>
 </parameters>
 <atominfo>
  <atoms>      36 </atoms>
  <types>       4 </types>
  <array name="atoms" >
   <dimension dim="1">ion</dimension>
   <field type="string">element</field>
   <field type="int">atomtype</field>
   <set>
    <rc><c>Hf</c><c>   1</c></rc>
    <rc><c>Hf</c><c>   1</c></rc>
    <rc><c>Hf</c><c>   1</c></rc>
    <rc><c>Hf</c><c>   1</c></rc>
    <rc><c>Hf</c><c>   1</c></rc>
    <rc><c>Hf</c><c>   1</c></rc>
    <rc><c>Hf</c><c>   1</c></rc>
    <rc><c>Hf</c><c>   1</c></rc>
    <rc><c>Hf</c><c>   1</c></rc>
    <rc><c>Nb</c><c>   2</c></rc>
    <rc><c>Nb</c><c>   2</c></rc>
    <rc><c>Nb</c><c>   2</c></rc>
    <rc><c>Nb</c><c>   2</c></rc>
    <rc><c>Nb</c><c>   2</c></rc>
    <rc><c>Nb</c><c>   2</c></rc>
    <rc><c>Nb</c><c>   2</c></rc>
    <rc><c>Nb</c><c>   2</c></rc>
    <rc><c>Nb</c><c>   2</c></rc>
    <rc><c>Ta</c><c>   3</c></rc>
    <rc><c>Ta</c><c>   3</c></rc>
    <rc><c>Ta</c><c>   3</c></rc>
    <rc><c>Ta</c><c>   3</c></rc>
    <rc><c>Ta</c><c>   3</c></rc>
    <rc><c>Ta</c><c>   3</c></rc>
    <rc><c>Ta</c><c>   3</c></rc>
    <rc><c>Ta</c><c>   3</c></rc>
    <rc><c>Ta</c><c>   3</c></rc>
    <rc><c>Zr</c><c>   4</c></rc>
    <rc><c>Zr</c><c>   4</c></rc>
    <rc><c>Zr</c><c>   4</c></rc>
    <rc><c>Zr</c><c>   4</c></rc>
    <rc><c>Zr</c><c>   4</c></rc>
    <rc><c>Zr</c><c>   4</c></rc>
    <rc><c>Zr</c><c>   4</c></rc>
    <rc><c>Zr</c><c>   4</c></rc>
    <rc><c>Zr</c><c>   4</c></rc>
   </set>
  </array>
  <array name="atomtypes" >
   <dimension dim="1">type</dimension>
   <field type="int">atomspertype</field>
   <field type="string">element</field>
   <field>mass</field>
   <field>valence</field>
   <field type="string">pseudopotential</field>
   <set>
    <rc><c>   9</c><c>Hf</c><c>    178.49000000</c><c>      4.00000000</c><c>  PAW_PBE Hf 20Jan2003                  </c></rc>
    <rc><c>   9</c><c>Nb</c><c>     92.91000000</c><c>     13.00000000</c><c>  PAW_PBE Nb_sv 25May2007               </c></rc>
    <rc><c>   9</c><c>Ta</c><c>    180.94800000</c><c>      5.00000000</c><c>  PAW_PBE Ta 17Jan2003                  </c></rc>
    <rc><c>   9</c><c>Zr</c><c>     91.22400000</c><c>     12.00000000</c><c>  PAW_PBE Zr_sv 04Jan2005               </c></rc>
   </set>
  </array>
 </atominfo>
 <structure name="initialpos" >
  <crystal>
   <varray name="basis" >
    <v>       6.87103796       0.00565638      -0.00316274 </v>
    <v>       0.00867134      10.30798331       0.02802595 </v>
    <v>      -0.00448923       0.02757538      10.29226869 </v>
   </varray>
   <i name="volume">    728.95986432 </i>
   <varray name="rec_basis" >
    <v>       0.14553855      -0.00012260       0.00006381 </v>
    <v>      -0.00007998       0.09701296      -0.00025996 </v>
    <v>       0.00004494      -0.00026420       0.09716104 </v>
   </varray>
  </crystal>
  <varray name="positions" >
   <v>       0.25552432       0.16717880       0.82163128 </v>
   <v>       0.24425972       0.49984257       0.16571464 </v>
   <v>       0.22745384       0.81541561       0.14366105 </v>
   <v>       0.00951689       0.67636493       0.35401899 </v>
   <v>       0.50926152       0.00803045       0.01064842 </v>
   <v>       0.74683719       0.16813302       0.50632968 </v>
   <v>       0.50880496       0.32444628       0.00202541 </v>
   <v>       0.74157075       0.48688346       0.50015894 </v>
   <v>       0.49730730       0.68431635       0.34261088 </v>
   <v>       0.00444012       0.00026809       0.66840857 </v>
   <v>       0.26263603       0.48286058       0.49690568 </v>
   <v>       0.99578099       0.65504294       0.97810954 </v>
   <v>       0.24612367       0.84385041       0.83297956 </v>
   <v>       0.75249894       0.18428631       0.19473403 </v>
   <v>       0.49779437       0.99718833       0.66830508 </v>
   <v>       0.74202633       0.16707388       0.81293463 </v>
   <v>       0.49329111       0.33835566       0.67003706 </v>
   <v>       0.77007512       0.81118335       0.15374049 </v>
   <v>       0.24528697       0.18269006       0.18102155 </v>
   <v>       0.25270109       0.16537611       0.50594057 </v>
   <v>       0.01712502       0.32813648       0.34173998 </v>
   <v>       0.00677612       0.33750189       0.66628278 </v>
   <v>       0.24029313       0.48223004       0.83089108 </v>
   <v>       0.25275676       0.86027879       0.51426011 </v>
   <v>       0.48267096       0.32536747       0.33327985 </v>
   <v>       0.75999625       0.49143141       0.81722899 </v>
   <v>       0.75175815       0.85160884       0.51895132 </v>
   <v>       0.98388476       0.01296303       0.00604871 </v>
   <v>       0.99949373       0.99913867       0.33033955 </v>
   <v>       0.98783264       0.32446714       0.99871472 </v>
   <v>       0.01354985       0.66334286       0.66040530 </v>
   <v>       0.50124291       0.99817773       0.32637695 </v>
   <v>       0.75433640       0.50504916       0.17415759 </v>
   <v>       0.50068343       0.65928685       0.98216595 </v>
   <v>       0.49033583       0.66615003       0.66258321 </v>
   <v>       0.75407284       0.83608240       0.82665788 </v>
  </varray>
 </structure>
 <calculation>
  <scstep>
   <time name="dav">    1.08    1.09</time>
   <time name="total">    1.16    1.80</time>
   <energy>
    <i name="alphaZ">   1582.32378299 </i>
    <i name="ewald"> -20849.14565180 </i>
    <i name="hartreedc">  -7353.43931831 </i>
    <i name="XCdc">   -117.00134034 </i>
    <i name="pawpsdc">  22956.18843697 </i>
    <i name="pawaedc"> -21419.48755377 </i>
    <i name="eentropy">     -0.00646544 </i>
    <i name="bandstr">   -202.65107765 </i>
    <i name="atom">  27412.48717566 </i>
    <i name="e_fr_energy">   2009.26798831 </i>
    <i name="e_wo_entrp">   2009.27445375 </i>
    <i name="e_0_energy">   2009.27014346 </i>
   </energy>
  </scstep>
  <scstep>
   <time name="dav">    1.03    1.04</time>
   <time name="total">    1.03    1.32</time>
   <energy>
    <i name="e_fr_energy">    -75.97280383 </i>
    <i name="e_wo_entrp">    -75.96651225 </i>
    <i name="e_0_energy">    -75.97070663 </i>
   </energy>
  </scstep>
  <scstep>
   <time name="dav">    1.54    1.55</time>
   <time name="total">    1.54    1.61</time>
   <energy>
    <i name="e_fr_energy">   -341.63331680 </i>
    <i name="e_wo_entrp">   -341.64252592 </i>
    <i name="e_0_energy">   -341.63638650 </i>
   </energy>
  </scstep>
  <scstep>
   <time name="dav">    1.48    1.51</time>
   <time name="total">    1.48    1.57</time>
   <energy>
    <i name="e_fr_energy">   -373.32580356 </i>
    <i name="e_wo_entrp">   -373.33790400 </i>
    <i name="e_0_energy">   -373.32983704 </i>
   </energy>
  </scstep>
  <scstep>
   <time name="dav">    1.37    1.38</time>
   <time name="total">    1.40    1.53</time>
   <energy>
    <i name="e_fr_energy">   -376.57697467 </i>
    <i name="e_wo_entrp">   -376.59218769 </i>
    <i name="e_0_energy">   -376.58204568 </i>
   </energy>
  </scstep>
  <scstep>
   <time name="diag">    0.09    0.09</time>
   <time name="diis">    0.84    0.85</time>
   <time name="orth">    0.01    0.01</time>
   <time name="total">    1.01    1.10</time>
   <energy>
    <i name="e_fr_energy">   -366.36917265 </i>
    <i name="e_wo_entrp">   -366.38352151 </i>
    <i name="e_0_energy">   -366.37395560 </i>
   </energy>
  </scstep>
  <scstep>
   <time name="diag">    0.08    0.08</time>
   <time name="diis">    0.87    0.88</time>
   <time name="orth">    0.01    0.01</time>
   <time name="total">    1.03    1.10</time>
   <energy>
    <i name="e_fr_energy">   -369.65014178 </i>
    <i name="e_wo_entrp">   -369.65815831 </i>
    <i name="e_0_energy">   -369.65281396 </i>
   </energy>
  </scstep>
  <scstep>
   <time name="diag">    0.08    0.08</time>
   <time name="diis">    0.80    0.80</time>
   <time name="orth">    0.01    0.01</time>
   <time name="total">    0.98    1.05</time>
   <energy>
    <i name="e_fr_energy">   -362.08921881 </i>
    <i name="e_wo_entrp">   -362.09056965 </i>
    <i name="e_0_energy">   -362.08966909 </i>
   </energy>
  </scstep>
  <scstep>
   <time name="diag">    0.08    0.08</time>
   <time name="diis">    0.85    0.86</time>
   <time name="orth">    0.01    0.01</time>
   <time name="total">    1.04    1.10</time>
   <energy>
    <i name="e_fr_energy">   -361.65646235 </i>
    <i name="e_wo_entrp">   -361.66683632 </i>
    <i name="e_0_energy">   -361.65992034 </i>
   </energy>
  </scstep>
  <scstep>
   <time name="diag">    0.09    0.09</time>
   <time name="diis">    0.83    0.83</time>
   <time name="orth">    0.01    0.01</time>
   <time name="total">    1.00    1.06</time>
   <energy>
    <i name="e_fr_energy">   -361.63804498 </i>
    <i name="e_wo_entrp">   -361.64555325 </i>
    <i name="e_0_energy">   -361.64054774 </i>
   </energy>
  </scstep>
  <scstep>
   <time name="diag">    0.08    0.08</time>
   <time name="diis">    0.80    0.80</time>
   <time name="orth">    0.01    0.01</time>
   <time name="total">    0.96    1.04</time>
   <energy>
    <i name="e_fr_energy">   -361.60104598 </i>
    <i name="e_wo_entrp">   -361.61006007 </i>
    <i name="e_0_energy">   -361.60405068 </i>
   </energy>
  </scstep>
  <scstep>
   <time name="diag">    0.09    0.09</time>
   <time name="diis">    0.88    0.88</time>
   <time name="orth">    0.03    0.04</time>
   <time name="total">    1.07    1.15</time>
   <energy>
    <i name="e_fr_energy">   -361.59091740 </i>
    <i name="e_wo_entrp">   -361.59906888 </i>
    <i name="e_0_energy">   -361.59363456 </i>
   </energy>
  </scstep>
  <scstep>
   <time name="diag">    0.08    0.10</time>
   <time name="diis">    0.75    0.96</time>
   <time name="orth">    0.01    0.02</time>
   <time name="total">    0.95    1.26</time>
   <energy>
    <i name="e_fr_energy">   -361.58890241 </i>
    <i name="e_wo_entrp">   -361.59653330 </i>
    <i name="e_0_energy">   -361.59144604 </i>
   </energy>
  </scstep>
  <scstep>
   <time name="diag">    0.10    0.13</time>
   <time name="diis">    0.77    0.85</time>
   <time name="orth">    0.01    0.01</time>
   <time name="total">    0.95    1.13</time>
   <energy>
    <i name="e_fr_energy">   -361.58913382 </i>
    <i name="e_wo_entrp">   -361.59714773 </i>
    <i name="e_0_energy">   -361.59180512 </i>
   </energy>
  </scstep>
  <scstep>
   <time name="diag">    0.08    0.10</time>
   <time name="diis">    0.81    0.82</time>
   <time name="orth">    0.01    0.01</time>
   <time name="total">    0.98    1.06</time>
   <energy>
    <i name="e_fr_energy">   -361.58924705 </i>
    <i name="e_wo_entrp">   -361.59716866 </i>
    <i name="e_0_energy">   -361.59188758 </i>
   </energy>
  </scstep>
  <scstep>
   <time name="diag">    0.08    0.08</time>
   <time name="diis">    0.79    0.80</time>
   <time name="orth">    0.01    0.01</time>
   <time name="total">    0.95    1.02</time>
   <energy>
    <i name="e_fr_energy">   -361.58931384 </i>
    <i name="e_wo_entrp">   -361.59722013 </i>
    <i name="e_0_energy">   -361.59194927 </i>
   </energy>
  </scstep>
  <scstep>
   <time name="diag">    0.08    0.08</time>
   <time name="diis">    0.67    0.67</time>
   <time name="orth">    0.01    0.01</time>
   <time name="total">    0.83    0.89</time>
   <energy>
    <i name="e_fr_energy">   -361.58933214 </i>
    <i name="e_wo_entrp">   -361.59728999 </i>
    <i name="e_0_energy">   -361.59198476 </i>
   </energy>
  </scstep>
  <scstep>
   <time name="diag">    0.08    0.08</time>
   <time name="diis">    0.65    0.65</time>
   <time name="orth">    0.01    0.01</time>
   <time name="total">    0.85    0.91</time>
   <energy>
    <i name="e_fr_energy">   -361.58935427 </i>
    <i name="e_wo_entrp">   -361.59727670 </i>
    <i name="e_0_energy">   -361.59199508 </i>
   </energy>
  </scstep>
  <scstep>
   <time name="diag">    0.08    0.08</time>
   <time name="diis">    0.56    0.56</time>
   <time name="orth">    0.01    0.01</time>
   <time name="total">    0.72    0.77</time>
   <energy>
    <i name="e_fr_energy">   -361.58936171 </i>
    <i name="e_wo_entrp">   -361.59729536 </i>
    <i name="e_0_energy">   -361.59200626 </i>
   </energy>
  </scstep>
  <scstep>
   <time name="diag">    0.08    0.08</time>
   <time name="diis">    0.48    0.49</time>
   <time name="orth">    0.01    0.01</time>
   <time name="total">    0.61    0.70</time>
   <energy>
    <i name="alphaZ">   1582.32378299 </i>
    <i name="ewald"> -20849.14565180 </i>
    <i name="hartreedc">  -7100.32588425 </i>
    <i name="XCdc">   -119.07438429 </i>
    <i name="pawpsdc">  35456.43580392 </i>
    <i name="pawaedc"> -33897.16071958 </i>
    <i name="eentropy">      0.00794221 </i>
    <i name="bandstr">  -2847.13743007 </i>
    <i name="atom">  27412.48717566 </i>
    <i name="e_fr_energy">   -361.58936521 </i>
    <i name="e_wo_entrp">   -361.59730742 </i>
    <i name="e_0_energy">   -361.59201261 </i>
   </energy>
  </scstep>
  <structure>
   <crystal>
    <varray name="basis" >
     <v>       6.87103796       0.00565638      -0.00316274 </v>
     <v>       0.00867134      10.30798331       0.02802595 </v>
     <v>      -0.00448923       0.02757538      10.29226869 </v>
    </varray>
    <i name="volume">    728.95986432 </i>
    <varray name="rec_basis" >
     <v>       0.14553855      -0.00012260       0.00006381 </v>
     <v>      -0.00007998       0.09701296      -0.00025996 </v>
     <v>       0.00004494      -0.00026420       0.09716104 </v>
    </varray>
   </crystal>
   <varray name="positions" >
    <v>       0.25552432       0.16717880       0.82163128 </v>
    <v>       0.24425972       0.49984257       0.16571464 </v>
    <v>       0.22745384       0.81541561       0.14366105 </v>
    <v>       0.00951689       0.67636493       0.35401899 </v>
    <v>       0.50926152       0.00803045       0.01064842 </v>
    <v>       0.74683719       0.16813302       0.50632968 </v>
    <v>       0.50880496       0.32444628       0.00202541 </v>
    <v>       0.74157075       0.48688346       0.50015894 </v>
    <v>       0.49730730       0.68431635       0.34261088 </v>
    <v>       0.00444012       0.00026809       0.66840857 </v>
    <v>       0.26263603       0.48286058       0.49690568 </v>
    <v>       0.99578099       0.65504294       0.97810954 </v>
    <v>       0.24612367       0.84385041       0.83297956 </v>
    <v>       0.75249894       0.18428631       0.19473403 </v>
    <v>       0.49779437       0.99718833       0.66830508 </v>
    <v>       0.74202633       0.16707388       0.81293463 </v>
    <v>       0.49329111       0.33835566       0.67003706 </v>
    <v>       0.77007512       0.81118335       0.15374049 </v>
    <v>       0.24528697       0.18269006       0.18102155 </v>
    <v>       0.25270109       0.16537611       0.50594057 </v>
    <v>       0.01712502       0.32813648       0.34173998 </v>
    <v>       0.00677612       0.33750189       0.66628278 </v>
    <v>       0.24029313       0.48223004       0.83089108 </v>
    <v>       0.25275676       0.86027879       0.51426011 </v>
    <v>       0.48267096       0.32536747       0.33327985 </v>
    <v>       0.75999625       0.49143141       0.81722899 </v>
    <v>       0.75175815       0.85160884       0.51895132 </v>
    <v>       0.98388476       0.01296303       0.00604871 </v>
    <v>       0.99949373       0.99913867       0.33033955 </v>
    <v>       0.98783264       0.32446714       0.99871472 </v>
    <v>       0.01354985       0.66334286       0.66040530 </v>
    <v>       0.50124291       0.99817773       0.32637695 </v>
    <v>       0.75433640       0.50504916       0.17415759 </v>
    <v>       0.50068343       0.65928685       0.98216595 </v>
    <v>       0.49033583       0.66615003       0.66258321 </v>
    <v>       0.75407284       0.83608240       0.82665788 </v>
   </varray>
  </structure>
  <varray name="forces" >
   <v>       0.00121264       0.01248124       0.01443924 </v>
   <v>       0.00082344       0.00075128       0.00181685 </v>
   <v>       0.01555747       0.00793549       0.00873805 </v>
   <v>       0.00528305       0.00707368      -0.00009522 </v>
   <v>      -0.00730130       0.00534285       0.00423916 </v>
   <v>       0.00070486       0.00726930       0.00209350 </v>
   <v>      -0.00960024       0.00653015      -0.00152480 </v>
   <v>       0.01146289       0.00247605      -0.00712215 </v>
   <v>      -0.00918458       0.00113538       0.01009336 </v>
   <v>      -0.01003232       0.01369544       0.00374185 </v>
   <v>      -0.00918221       0.01674146      -0.00427955 </v>
   <v>       0.00438273       0.00351040       0.01193685 </v>
   <v>       0.00809024      -0.00945554       0.01180539 </v>
   <v>      -0.00518111      -0.01343496      -0.02655861 </v>
   <v>       0.00076817       0.01594228       0.00585945 </v>
   <v>       0.00727974       0.00571571       0.01469404 </v>
   <v>       0.00543798      -0.00841930      -0.01332578 </v>
   <v>      -0.01729151       0.00908314       0.01479354 </v>
   <v>       0.01055869       0.00988863      -0.00137157 </v>
   <v>       0.00269783       0.00064079      -0.00308102 </v>
   <v>       0.00121467      -0.00951219      -0.00342994 </v>
   <v>      -0.00588045       0.00125697      -0.00363312 </v>
   <v>      -0.00362822      -0.00523110       0.00460960 </v>
   <v>      -0.00068706      -0.01006042      -0.01938216 </v>
   <v>      -0.00813602      -0.00537850      -0.00659970 </v>
   <v>       0.00054453      -0.00041260      -0.00233281 </v>
   <v>       0.00283177      -0.01063089      -0.01255740 </v>
   <v>       0.01202676      -0.00570826       0.00753142 </v>
   <v>       0.01100795      -0.01025905      -0.00564625 </v>
   <v>       0.00582246      -0.00416510      -0.00114234 </v>
   <v>      -0.00439754      -0.00419130      -0.01038582 </v>
   <v>      -0.00989383      -0.01465310      -0.00055741 </v>
   <v>      -0.00156197       0.00707919       0.00791586 </v>
   <v>      -0.00503870      -0.01188145      -0.00471464 </v>
   <v>       0.00346382      -0.00210743      -0.00370687 </v>
   <v>      -0.00417463      -0.00904829       0.00713902 </v>
  </varray>
  <varray name="stress" >
   <v>      -3.60522948      -0.07469601      -0.03432585 </v>
   <v>      -0.07469607      -3.56476630       0.02980227 </v>
   <v>      -0.03432579       0.02980224      -3.63994640 </v>
  </varray>
  <energy>
   <i name="e_fr_energy">   -361.58936521 </i>
   <i name="e_wo_entrp">   -361.59201261 </i>
   <i name="e_0_energy">      0.00794221 </i>
  </energy>
  <time name="totalsc">   22.23   25.08</time>
 </calculation>
 <calculation>
  <scstep>
   <time name="dav">    1.36    1.37</time>
   <time name="total">    1.44    1.71</time>
   <energy>
    <i name="alphaZ">   1585.45659623 </i>
    <i name="ewald"> -20863.54356671 </i>
    <i name="hartreedc">  -7104.39771169 </i>
    <i name="XCdc">   -118.45595247 </i>
    <i name="pawpsdc">  35456.52358041 </i>
    <i name="pawaedc"> -33897.24485329 </i>
    <i name="eentropy">      0.00785215 </i>
    <i name="bandstr">  -2832.43418098 </i>
    <i name="atom">  27412.48717566 </i>
    <i name="e_fr_energy">   -361.60106068 </i>
    <i name="e_wo_entrp">   -361.60891283 </i>
    <i name="e_0_energy">   -361.60367807 </i>
   </energy>
  </scstep>
  <scstep>
   <time name="diag">    0.08    0.08</time>
   <time name="diis">    0.81    0.81</time>
   <time name="orth">    0.01    0.01</time>
   <time name="total">    0.97    1.03</time>
   <energy>
    <i name="e_fr_energy">   -361.59618205 </i>
    <i name="e_wo_entrp">   -361.60375086 </i>
    <i name="e_0_energy">   -361.59870499 </i>
   </energy>
  </scstep>
  <scstep>
   <time name="diag">    0.08    0.08</time>
   <time name="diis">    0.82    0.83</time>
   <time name="orth">    0.01    0.01</time>
   <time name="total">    0.99    1.05</time>
   <energy>
    <i name="e_fr_energy">   -361.59279701 </i>
    <i name="e_wo_entrp">   -361.60066464 </i>
    <i name="e_0_energy">   -361.59541955 </i>
   </energy>
  </scstep>
  <scstep>
   <time name="diag">    0.09    0.09</time>
   <time name="diis">    0.89    0.89</time>
   <time name="orth">    0.01    0.01</time>
   <time name="total">    1.07    1.14</time>
   <energy>
    <i name="e_fr_energy">   -361.59168271 </i>
    <i name="e_wo_entrp">   -361.59917867 </i>
    <i name="e_0_energy">   -361.59418136 </i>
   </energy>
  </scstep>
  <scstep>
   <time name="diag">    0.11    0.11</time>
   <time name="diis">    0.83    0.83</time>
   <time name="orth">    0.01    0.01</time>
   <time name="total">    1.02    1.08</time>
   <energy>
    <i name="e_fr_energy">   -361.59136217 </i>
    <i name="e_wo_entrp">   -361.59903754 </i>
    <i name="e_0_energy">   -361.59392063 </i>
   </energy>
  </scstep>
  <scstep>
   <time name="diag">    0.08    0.09</time>
   <time name="diis">    0.78    0.79</time>
   <time name="orth">    0.01    0.01</time>
   <time name="total">    0.95    1.01</time>
   <energy>
    <i name="e_fr_energy">   -361.59141380 </i>
    <i name="e_wo_entrp">   -361.59901992 </i>
    <i name="e_0_energy">   -361.59394917 </i>
   </energy>
  </scstep>
  <scstep>
   <time name="diag">    0.12    0.12</time>
   <time name="diis">    0.70    0.70</time>
   <time name="orth">    0.01    0.01</time>
   <time name="total">    0.89    0.96</time>
   <energy>
    <i name="e_fr_energy">   -361.59145351 </i>
    <i name="e_wo_entrp">   -361.59913328 </i>
    <i name="e_0_energy">   -361.59401344 </i>
   </energy>
  </scstep>
  <scstep>
   <time name="diag">    0.08    0.08</time>
   <time name="diis">    0.54    0.54</time>
   <time name="orth">    0.01    0.01</time>
   <time name="total">    0.70    0.76</time>
   <energy>
    <i name="e_fr_energy">   -361.59147324 </i>
    <i name="e_wo_entrp">   -361.59911566 </i>
    <i name="e_0_energy">   -361.59402071 </i>
   </energy>
  </scstep>
  <scstep>
   <time name="diag">    0.08    0.08</time>
   <time name="diis">    0.49    0.50</time>
   <time name="orth">    0.01    0.01</time>
   <time name="total">    0.68    0.75</time>
   <energy>
    <i name="e_fr_energy">   -361.59148951 </i>
    <i name="e_wo_entrp">   -361.59912594 </i>
    <i name="e_0_energy">   -361.59403499 </i>
   </energy>
  </scstep>
  <scstep>
   <time name="diag">    0.08    0.08</time>
   <time name="diis">    0.42    0.42</time>
   <time name="orth">    0.01    0.01</time>
   <time name="total">    0.58    0.64</time>
   <energy>
    <i name="e_fr_energy">   -361.59150691 </i>
    <i name="e_wo_entrp">   -361.59914953 </i>
    <i name="e_0_energy">   -361.59405445 </i>
   </energy>
  </scstep>
  <scstep>
   <time name="diag">    0.08    0.08</time>
   <time name="diis">    0.39    0.39</time>
   <time name="orth">    0.01    0.01</time>
   <time name="total">    0.51    0.61</time>
   <energy>
    <i name="alphaZ">   1585.45659623 </i>
    <i name="ewald"> -20863.54356671 </i>
    <i name="hartreedc">  -7095.64247769 </i>
    <i name="XCdc">   -118.84045597 </i>
    <i name="pawpsdc">  35545.01328268 </i>
    <i name="pawaedc"> -33985.62194975 </i>
    <i name="eentropy">      0.00764136 </i>
    <i name="bandstr">  -2840.90776191 </i>
    <i name="atom">  27412.48717566 </i>
    <i name="e_fr_energy">   -361.59151610 </i>
    <i name="e_wo_entrp">   -361.59915746 </i>
    <i name="e_0_energy">   -361.59406322 </i>
   </energy>
  </scstep>
  <structure>
   <crystal>
    <varray name="basis" >
     <v>       6.86650686       0.00555879      -0.00320374 </v>
     <v>       0.00852461      10.30126213       0.02806343 </v>
     <v>      -0.00455127       0.02761357      10.28541637 </v>
    </varray>
    <i name="volume">    727.51946216 </i>
    <varray name="rec_basis" >
     <v>       0.14563459      -0.00012069       0.00006477 </v>
     <v>      -0.00007871       0.09707626      -0.00026066 </v>
     <v>       0.00004558      -0.00026491       0.09722577 </v>
    </varray>
   </crystal>
   <varray name="positions" >
    <v>       0.25552687       0.16719626       0.82165153 </v>
    <v>       0.24426145       0.49984362       0.16571719 </v>
    <v>       0.22748660       0.81542670       0.14367332 </v>
    <v>       0.00952801       0.67637485       0.35401883 </v>
    <v>       0.50924614       0.00803795       0.01065435 </v>
    <v>       0.74683866       0.16814322       0.50633259 </v>
    <v>       0.50878472       0.32445547       0.00202323 </v>
    <v>       0.74159489       0.48688695       0.50014893 </v>
    <v>       0.49728796       0.68431792       0.34262506 </v>
    <v>       0.00441897       0.00028732       0.66841377 </v>
    <v>       0.26261665       0.48288411       0.49689959 </v>
    <v>       0.99579023       0.65504782       0.97812631 </v>
    <v>       0.24614074       0.84383708       0.83299620 </v>
    <v>       0.75248803       0.18426755       0.19469673 </v>
    <v>       0.49779596       0.99721069       0.66831326 </v>
    <v>       0.74204167       0.16708184       0.81295527 </v>
    <v>       0.49330257       0.33834388       0.67001836 </v>
    <v>       0.77003869       0.81119607       0.15376124 </v>
    <v>       0.24530919       0.18270393       0.18101959 </v>
    <v>       0.25270677       0.16537702       0.50593624 </v>
    <v>       0.01712759       0.32812314       0.34173519 </v>
    <v>       0.00676372       0.33750367       0.66627766 </v>
    <v>       0.24028550       0.48222268       0.83089758 </v>
    <v>       0.25275531       0.86026474       0.51423290 </v>
    <v>       0.48265382       0.32535995       0.33327058 </v>
    <v>       0.75999739       0.49143084       0.81722571 </v>
    <v>       0.75176412       0.85159396       0.51893370 </v>
    <v>       0.98391011       0.01295498       0.00605933 </v>
    <v>       0.99951693       0.99912428       0.33033166 </v>
    <v>       0.98784491       0.32446129       0.99871313 </v>
    <v>       0.01354059       0.66333702       0.66039071 </v>
    <v>       0.50122210       0.99815717       0.32637621 </v>
    <v>       0.75433311       0.50505907       0.17416869 </v>
    <v>       0.50067283       0.65927019       0.98215937 </v>
    <v>       0.49034312       0.66614708       0.66257801 </v>
    <v>       0.75406407       0.83606967       0.82666795 </v>
   </varray>
  </structure>
  <varray name="forces" >
   <v>      -0.00142916       0.01004232       0.01823710 </v>
   <v>       0.00215460       0.00346089       0.00028983 </v>
   <v>       0.01938888       0.00958476       0.01089828 </v>
   <v>       0.00489423       0.00505225      -0.00182113 </v>
   <v>      -0.00725687       0.00413819       0.00351730 </v>
   <v>       0.00050767       0.00460576       0.00071894 </v>
   <v>      -0.00878138       0.00922712      -0.00080928 </v>
   <v>       0.01222177       0.00770922      -0.00956235 </v>
   <v>      -0.00838415      -0.00116146       0.00852734 </v>
   <v>      -0.01077210       0.01441505       0.00838251 </v>
   <v>      -0.01033872       0.02316599      -0.00346179 </v>
   <v>       0.00316903       0.00566079       0.01256344 </v>
   <v>       0.00752127      -0.01103943       0.01425508 </v>
   <v>      -0.00444886      -0.02021186      -0.03027596 </v>
   <v>       0.00369250       0.01646937       0.01044349 </v>
   <v>       0.00826377       0.00444935       0.01844310 </v>
   <v>       0.00754695      -0.00960982      -0.01424048 </v>
   <v>      -0.02077892       0.01175548       0.01602653 </v>
   <v>       0.00895345      -0.00053293      -0.00784941 </v>
   <v>       0.00289573      -0.00148796      -0.00378619 </v>
   <v>      -0.00652606      -0.00246809      -0.00354018 </v>
   <v>      -0.00738749      -0.00240848      -0.00640640 </v>
   <v>       0.00071627       0.00006560       0.00699907 </v>
   <v>      -0.00143679      -0.01660660      -0.02242482 </v>
   <v>       0.00037788       0.00198720      -0.00491452 </v>
   <v>      -0.00387326       0.00247679       0.00182483 </v>
   <v>       0.00312951      -0.01455973      -0.01866080 </v>
   <v>       0.01248720      -0.00669709       0.00611524 </v>
   <v>       0.00880693      -0.01004836      -0.00679321 </v>
   <v>       0.00488657      -0.00360115       0.00107181 </v>
   <v>      -0.00465809      -0.00240169      -0.01013557 </v>
   <v>      -0.00785852      -0.01534142      -0.00326136 </v>
   <v>      -0.00310007       0.00700725       0.00647165 </v>
   <v>      -0.00372406      -0.01098013      -0.00305121 </v>
   <v>       0.00415699      -0.00211644      -0.00312286 </v>
   <v>      -0.00501671      -0.01000073       0.00933196 </v>
  </varray>
  <varray name="stress" >
   <v>      -1.01511345      -0.06337834      -0.02073455 </v>
   <v>      -0.06337840      -0.92813828       0.03158456 </v>
   <v>      -0.02073459       0.03158454      -1.01662175 </v>
  </varray>
  <energy>
   <i name="e_fr_energy">   -361.59151610 </i>
   <i name="e_wo_entrp">   -361.59406322 </i>
   <i name="e_0_energy">      0.00764136 </i>
  </energy>
  <time name="totalsc">   11.55   12.74</time>
 </calculation>
 <calculation>
  <scstep>
   <time name="dav">    1.23    1.31</time>
   <time name="total">    1.30    1.64</time>
   <energy>
    <i name="alphaZ">   1586.80547034 </i>
    <i name="ewald"> -20869.73696552 </i>
    <i name="hartreedc">  -7097.39355997 </i>
    <i name="XCdc">   -118.57428954 </i>
    <i name="pawpsdc">  35544.97097651 </i>
    <i name="pawaedc"> -33985.56334332 </i>
    <i name="eentropy">      0.00760176 </i>
    <i name="bandstr">  -2834.59649816 </i>
    <i name="atom">  27412.48717566 </i>
    <i name="e_fr_energy">   -361.59343223 </i>
    <i name="e_wo_entrp">   -361.60103399 </i>
    <i name="e_0_energy">   -361.59596615 </i>
   </energy>
  </scstep>
  <scstep>
   <time name="diag">    0.08    0.08</time>
   <time name="diis">    0.81    0.81</time>
   <time name="orth">    0.01    0.01</time>
   <time name="total">    0.97    1.02</time>
   <energy>
    <i name="e_fr_energy">   -361.59252302 </i>
    <i name="e_wo_entrp">   -361.60000747 </i>
    <i name="e_0_energy">   -361.59501784 </i>
   </energy>
  </scstep>
  <scstep>
   <time name="diag">    0.08    0.08</time>
   <time name="diis">    0.78    0.84</time>
   <time name="orth">    0.03    0.04</time>
   <time name="total">    1.00    1.14</time>
   <energy>
    <i name="e_fr_energy">   -361.59189556 </i>
    <i name="e_wo_entrp">   -361.59950262 </i>
    <i name="e_0_energy">   -361.59443125 </i>
   </energy>
  </scstep>
  <scstep>
   <time name="diag">    0.10    0.10</time>
   <time name="diis">    0.82    0.84</time>
   <time name="orth">    0.03    0.05</time>
   <time name="total">    1.03    1.12</time>
   <energy>
    <i name="e_fr_energy">   -361.59170100 </i>
    <i name="e_wo_entrp">   -361.59915004 </i>
    <i name="e_0_energy">   -361.59418402 </i>
   </energy>
  </scstep>
  <scstep>
   <time name="diag">    0.08    0.11</time>
   <time name="diis">    0.69    0.72</time>
   <time name="orth">    0.01    0.01</time>
   <time name="total">    0.85    0.97</time>
   <energy>
    <i name="e_fr_energy">   -361.59164765 </i>
    <i name="e_wo_entrp">   -361.59917509 </i>
    <i name="e_0_energy">   -361.59415680 </i>
   </energy>
  </scstep>
  <scstep>
   <time name="diag">    0.08    0.08</time>
   <time name="diis">    0.51    0.58</time>
   <time name="orth">    0.01    0.02</time>
   <time name="total">    0.67    0.83</time>
   <energy>
    <i name="e_fr_energy">   -361.59166249 </i>
    <i name="e_wo_entrp">   -361.59916060 </i>
    <i name="e_0_energy">   -361.59416186 </i>
   </energy>
  </scstep>
  <scstep>
   <time name="diag">    0.08    0.08</time>
   <time name="diis">    0.40    0.40</time>
   <time name="orth">    0.01    0.01</time>
   <time name="total">    0.56    0.63</time>
   <energy>
    <i name="e_fr_energy">   -361.59167609 </i>
    <i name="e_wo_entrp">   -361.59920485 </i>
    <i name="e_0_energy">   -361.59418567 </i>
   </energy>
  </scstep>
  <scstep>
   <time name="diag">    0.08    0.08</time>
   <time name="diis">    0.42    0.42</time>
   <time name="orth">    0.01    0.01</time>
   <time name="total">    0.55    0.61</time>
   <energy>
    <i name="alphaZ">   1586.80547034 </i>
    <i name="ewald"> -20869.73696552 </i>
    <i name="hartreedc">  -7093.57344461 </i>
    <i name="XCdc">   -118.74182508 </i>
    <i name="pawpsdc">  35583.82869528 </i>
    <i name="pawaedc"> -34024.42753090 </i>
    <i name="eentropy">      0.00751447 </i>
    <i name="bandstr">  -2838.24077345 </i>
    <i name="atom">  27412.48717566 </i>
    <i name="e_fr_energy">   -361.59168380 </i>
    <i name="e_wo_entrp">   -361.59919827 </i>
    <i name="e_0_energy">   -361.59418862 </i>
   </energy>
  </scstep>
  <structure>
   <crystal>
    <varray name="basis" >
     <v>       6.86455961       0.00551686      -0.00322137 </v>
     <v>       0.00846155      10.29837369       0.02807953 </v>
     <v>      -0.00457793       0.02762998      10.28247157 </v>
    </varray>
    <i name="volume">    726.90102960 </i>
    <varray name="rec_basis" >
     <v>       0.14567590      -0.00011987       0.00006518 </v>
     <v>      -0.00007816       0.09710349      -0.00026096 </v>
     <v>       0.00004585      -0.00026521       0.09725362 </v>
    </varray>
   </crystal>
   <varray name="positions" >
    <v>       0.25552796       0.16720378       0.82166025 </v>
    <v>       0.24426220       0.49984407       0.16571829 </v>
    <v>       0.22750069       0.81543147       0.14367860 </v>
    <v>       0.00953279       0.67637912       0.35401876 </v>
    <v>       0.50923952       0.00804117       0.01065691 </v>
    <v>       0.74683929       0.16814761       0.50633385 </v>
    <v>       0.50877602       0.32445942       0.00202230 </v>
    <v>       0.74160527       0.48688845       0.50014462 </v>
    <v>       0.49727964       0.68431860       0.34263116 </v>
    <v>       0.00440987       0.00029559       0.66841601 </v>
    <v>       0.26260832       0.48289423       0.49689697 </v>
    <v>       0.99579420       0.65504992       0.97813353 </v>
    <v>       0.24614808       0.84383135       0.83300336 </v>
    <v>       0.75248334       0.18425949       0.19468069 </v>
    <v>       0.49779665       0.99722030       0.66831677 </v>
    <v>       0.74204826       0.16708527       0.81296415 </v>
    <v>       0.49330750       0.33833882       0.67001032 </v>
    <v>       0.77002303       0.81120154       0.15377017 </v>
    <v>       0.24531875       0.18270990       0.18101874 </v>
    <v>       0.25270921       0.16537741       0.50593437 </v>
    <v>       0.01712870       0.32811740       0.34173313 </v>
    <v>       0.00675840       0.33750444       0.66627546 </v>
    <v>       0.24028222       0.48221951       0.83090037 </v>
    <v>       0.25275469       0.86025870       0.51422119 </v>
    <v>       0.48264645       0.32535672       0.33326660 </v>
    <v>       0.75999789       0.49143060       0.81722430 </v>
    <v>       0.75176669       0.85158756       0.51892613 </v>
    <v>       0.98392101       0.01295151       0.00606390 </v>
    <v>       0.99952691       0.99911809       0.33032826 </v>
    <v>       0.98785019       0.32445877       0.99871245 </v>
    <v>       0.01353660       0.66333451       0.66038444 </v>
    <v>       0.50121315       0.99814833       0.32637590 </v>
    <v>       0.75433169       0.50506333       0.17417347 </v>
    <v>       0.50066827       0.65926303       0.98215653 </v>
    <v>       0.49034626       0.66614582       0.66257577 </v>
    <v>       0.75406030       0.83606420       0.82667229 </v>
   </varray>
  </structure>
  <varray name="forces" >
   <v>      -0.00258421       0.00898418       0.01922865 </v>
   <v>       0.00243452       0.00458877      -0.00035328 </v>
   <v>       0.02081715       0.01009582       0.01124204 </v>
   <v>       0.00445909       0.00379380      -0.00307916 </v>
   <v>      -0.00699847       0.00322679       0.00357860 </v>
   <v>       0.00021709       0.00337277       0.00016894 </v>
   <v>      -0.00814906       0.01046426       0.00017164 </v>
   <v>       0.01220123       0.00985226      -0.01041991 </v>
   <v>      -0.00776963      -0.00270456       0.00751968 </v>
   <v>      -0.01118693       0.01526090       0.01003108 </v>
   <v>      -0.01104179       0.02587123      -0.00247036 </v>
   <v>       0.00266206       0.00646117       0.01396730 </v>
   <v>       0.00735133      -0.01175874       0.01466213 </v>
   <v>      -0.00397800      -0.02318603      -0.03166858 </v>
   <v>       0.00487502       0.01716952       0.01184870 </v>
   <v>       0.00876088       0.00412524       0.01937496 </v>
   <v>       0.00834695      -0.01026276      -0.01511049 </v>
   <v>      -0.02233789       0.01271780       0.01703111 </v>
   <v>       0.00788562      -0.00496712      -0.01012145 </v>
   <v>       0.00317484      -0.00270377      -0.00399081 </v>
   <v>      -0.01012676       0.00054720      -0.00396863 </v>
   <v>      -0.00778510      -0.00377723      -0.00795308 </v>
   <v>       0.00260484       0.00257326       0.00785795 </v>
   <v>      -0.00159902      -0.01887203      -0.02312579 </v>
   <v>       0.00440067       0.00538299      -0.00416286 </v>
   <v>      -0.00575926       0.00400042       0.00355337 </v>
   <v>       0.00317138      -0.01599038      -0.02076251 </v>
   <v>       0.01300925      -0.00706127       0.00584587 </v>
   <v>       0.00799028      -0.00963963      -0.00754423 </v>
   <v>       0.00463427      -0.00361125       0.00255246 </v>
   <v>      -0.00473191      -0.00192891      -0.01024520 </v>
   <v>      -0.00710549      -0.01541583      -0.00434091 </v>
   <v>      -0.00373930       0.00697098       0.00588444 </v>
   <v>      -0.00322161      -0.01081641      -0.00183613 </v>
   <v>       0.00439446      -0.00238648      -0.00310053 </v>
   <v>      -0.00527649      -0.01037693       0.00973499 </v>
  </varray>
  <varray name="stress" >
   <v>       0.09813171      -0.05558347      -0.01382922 </v>
   <v>      -0.05558344       0.19724083       0.03273749 </v>
   <v>      -0.01382922       0.03273751       0.11038656 </v>
  </varray>
  <energy>
   <i name="e_fr_energy">   -361.59168380 </i>
   <i name="e_wo_entrp">   -361.59418862 </i>
   <i name="e_0_energy">      0.00751447 </i>
  </energy>
  <time name="totalsc">    8.67    9.96</time>
 </calculation>
 <calculation>
  <scstep>
   <time name="dav">    0.97    0.98</time>
   <time name="total">    1.05    1.32</time>
   <energy>
    <i name="alphaZ">   1586.84659981 </i>
    <i name="ewald"> -20870.57290165 </i>
    <i name="hartreedc">  -7093.06376780 </i>
    <i name="XCdc">   -118.73486803 </i>
    <i name="pawpsdc">  35583.49647771 </i>
    <i name="pawaedc"> -34024.06229339 </i>
    <i name="eentropy">      0.00746397 </i>
    <i name="bandstr">  -2837.99571007 </i>
    <i name="atom">  27412.48717566 </i>
    <i name="e_fr_energy">   -361.59182380 </i>
    <i name="e_wo_entrp">   -361.59928776 </i>
    <i name="e_0_energy">   -361.59431179 </i>
   </energy>
  </scstep>
  <scstep>
   <time name="diag">    0.13    0.13</time>
   <time name="diis">    0.65    0.65</time>
   <time name="orth">    0.01    0.01</time>
   <time name="total">    0.86    0.91</time>
   <energy>
    <i name="e_fr_energy">   -361.59187250 </i>
    <i name="e_wo_entrp">   -361.59932798 </i>
    <i name="e_0_energy">   -361.59435766 </i>
   </energy>
  </scstep>
  <scstep>
   <time name="diag">    0.08    0.08</time>
   <time name="diis">    0.43    0.43</time>
   <time name="orth">    0.01    0.01</time>
   <time name="total">    0.56    0.62</time>
   <energy>
    <i name="alphaZ">   1586.84659981 </i>
    <i name="ewald"> -20870.57290165 </i>
    <i name="hartreedc">  -7092.96220380 </i>
    <i name="XCdc">   -118.73870287 </i>
    <i name="pawpsdc">  35583.77293722 </i>
    <i name="pawaedc"> -34024.30188398 </i>
    <i name="eentropy">      0.00745201 </i>
    <i name="bandstr">  -2838.13033700 </i>
    <i name="atom">  27412.48717566 </i>
    <i name="e_fr_energy">   -361.59186459 </i>
    <i name="e_wo_entrp">   -361.59931660 </i>
    <i name="e_0_energy">   -361.59434860 </i>
   </energy>
  </scstep>
  <structure>
   <crystal>
    <varray name="basis" >
     <v>       6.86444964       0.00543624      -0.00324240 </v>
     <v>       0.00834039      10.29841515       0.02814891 </v>
     <v>      -0.00460982       0.02769983      10.28232858 </v>
    </varray>
    <i name="volume">    726.88218905 </i>
    <varray name="rec_basis" >
     <v>       0.14567823      -0.00011816       0.00006563 </v>
     <v>      -0.00007702       0.09710310      -0.00026162 </v>
     <v>       0.00004615      -0.00026587       0.09725497 </v>
    </varray>
   </crystal>
   <varray name="positions" >
    <v>       0.25552219       0.16721835       0.82169069 </v>
    <v>       0.24426786       0.49985113       0.16571787 </v>
    <v>       0.22755011       0.81544740       0.14369641 </v>
    <v>       0.00954359       0.67638545       0.35401404 </v>
    <v>       0.50922267       0.00804649       0.01066268 </v>
    <v>       0.74683986       0.16815330       0.50633425 </v>
    <v>       0.50875626       0.32447589       0.00202239 </v>
    <v>       0.74163447       0.48690371       0.50012812 </v>
    <v>       0.49726083       0.68431453       0.34264342 </v>
    <v>       0.00438310       0.00031988       0.66843155 </v>
    <v>       0.26258195       0.48293501       0.49689275 </v>
    <v>       0.99580080       0.65505998       0.97815575 </v>
    <v>       0.24616587       0.84381261       0.83302672 </v>
    <v>       0.75247365       0.18422323       0.19463037 </v>
    <v>       0.49780788       0.99724766       0.66833526 </v>
    <v>       0.74206916       0.16709190       0.81299487 </v>
    <v>       0.49332723       0.33832258       0.66998626 </v>
    <v>       0.76996992       0.81122159       0.15379725 </v>
    <v>       0.24533800       0.18270310       0.18100319 </v>
    <v>       0.25271679       0.16537334       0.50592805 </v>
    <v>       0.01710564       0.32811755       0.34172680 </v>
    <v>       0.00673990       0.33749881       0.66626304 </v>
    <v>       0.24028777       0.48222301       0.83091272 </v>
    <v>       0.25275096       0.86022924       0.51418446 </v>
    <v>       0.48265559       0.32536454       0.33325972 </v>
    <v>       0.75998476       0.49143666       0.81722953 </v>
    <v>       0.75177428       0.85156244       0.51889351 </v>
    <v>       0.98395218       0.01294026       0.00607345 </v>
    <v>       0.99954646       0.99910262       0.33031635 </v>
    <v>       0.98786147       0.32445293       0.99871628 </v>
    <v>       0.01352526       0.66333130       0.66036800 </v>
    <v>       0.50119578       0.99812372       0.32636928 </v>
    <v>       0.75432295       0.50507449       0.17418303 </v>
    <v>       0.50066034       0.65924564       0.98215342 </v>
    <v>       0.49035672       0.66614202       0.66257076 </v>
    <v>       0.75404777       0.83604764       0.82668775 </v>
   </varray>
  </structure>
  <varray name="forces" >
   <v>      -0.00277103       0.00881230       0.01623622 </v>
   <v>       0.00180352       0.00380870       0.00021427 </v>
   <v>       0.01903905       0.00840029       0.01030393 </v>
   <v>       0.00378336       0.00414427      -0.00430782 </v>
   <v>      -0.00559439       0.00297093       0.00374408 </v>
   <v>      -0.00008893       0.00216850      -0.00103202 </v>
   <v>      -0.00673937       0.01079332       0.00163542 </v>
   <v>       0.01062745       0.00857500      -0.01031456 </v>
   <v>      -0.00703095      -0.00252418       0.00703471 </v>
   <v>      -0.00731215       0.00993989       0.00761444 </v>
   <v>      -0.00922552       0.01759814      -0.00252899 </v>
   <v>       0.00223309       0.00602484       0.01029864 </v>
   <v>       0.00472544      -0.00868958       0.01243379 </v>
   <v>      -0.00403958      -0.01843661      -0.02431609 </v>
   <v>       0.00362880       0.01146423       0.00908586 </v>
   <v>       0.00650343       0.00255209       0.01367972 </v>
   <v>       0.00581165      -0.00700957      -0.01113898 </v>
   <v>      -0.01821101       0.01085956       0.01350113 </v>
   <v>       0.00688074      -0.00419907      -0.00757722 </v>
   <v>       0.00271831      -0.00196007      -0.00297239 </v>
   <v>      -0.00791155      -0.00009193      -0.00524846 </v>
   <v>      -0.00584623      -0.00258039      -0.00640995 </v>
   <v>       0.00156461       0.00152185       0.00630434 </v>
   <v>      -0.00182735      -0.01442879      -0.01763905 </v>
   <v>       0.00393058       0.00466877      -0.00481832 </v>
   <v>      -0.00426572       0.00331951       0.00280987 </v>
   <v>       0.00274274      -0.01237494      -0.01724508 </v>
   <v>       0.01105390      -0.00744868       0.00492223 </v>
   <v>       0.00604040      -0.00742282      -0.00602418 </v>
   <v>       0.00324188      -0.00207124       0.00295513 </v>
   <v>      -0.00330398      -0.00133342      -0.00689287 </v>
   <v>      -0.00534459      -0.01258997      -0.00353800 </v>
   <v>      -0.00311448       0.00550126       0.00525714 </v>
   <v>      -0.00257028      -0.00960356      -0.00293992 </v>
   <v>       0.00312995      -0.00199680      -0.00138408 </v>
   <v>      -0.00426178      -0.00836181       0.00829706 </v>
  </varray>
  <varray name="stress" >
   <v>       0.09964273      -0.08046864      -0.01306183 </v>
   <v>      -0.08046864       0.20128899       0.02195605 </v>
   <v>      -0.01306188       0.02195602       0.04946931 </v>
  </varray>
  <energy>
   <i name="e_fr_energy">   -361.59186459 </i>
   <i name="e_wo_entrp">   -361.59434860 </i>
   <i name="e_0_energy">      0.00745201 </i>
  </energy>
  <time name="totalsc">    4.12    4.70</time>
 </calculation>
 <calculation>
  <scstep>
   <time name="dav">    0.95    0.96</time>
   <time name="total">    1.03    1.30</time>
   <energy>
    <i name="alphaZ">   1586.97000274 </i>
    <i name="ewald"> -20873.07503926 </i>
    <i name="hartreedc">  -7091.31946495 </i>
    <i name="XCdc">   -118.72257799 </i>
    <i name="pawpsdc">  35584.15028654 </i>
    <i name="pawaedc"> -34024.66288034 </i>
    <i name="eentropy">      0.00731273 </i>
    <i name="bandstr">  -2837.42673441 </i>
    <i name="atom">  27412.48717566 </i>
    <i name="e_fr_energy">   -361.59191928 </i>
    <i name="e_wo_entrp">   -361.59923201 </i>
    <i name="e_0_energy">   -361.59435685 </i>
   </energy>
  </scstep>
  <scstep>
   <time name="diag">    0.08    0.08</time>
   <time name="diis">    0.61    0.73</time>
   <time name="orth">    0.01    0.01</time>
   <time name="total">    0.77    0.95</time>
   <energy>
    <i name="e_fr_energy">   -361.59233234 </i>
    <i name="e_wo_entrp">   -361.59959822 </i>
    <i name="e_0_energy">   -361.59475430 </i>
   </energy>
  </scstep>
  <scstep>
   <time name="diag">    0.08    0.08</time>
   <time name="diis">    0.75    0.75</time>
   <time name="orth">    0.01    0.01</time>
   <time name="total">    0.91    0.97</time>
   <energy>
    <i name="e_fr_energy">   -361.59225889 </i>
    <i name="e_wo_entrp">   -361.59952912 </i>
    <i name="e_0_energy">   -361.59468230 </i>
   </energy>
  </scstep>
  <scstep>
   <time name="diag">    0.08    0.08</time>
   <time name="diis">    0.67    0.68</time>
   <time name="orth">    0.01    0.01</time>
   <time name="total">    0.88    0.94</time>
   <energy>
    <i name="e_fr_energy">   -361.59225312 </i>
    <i name="e_wo_entrp">   -361.59954083 </i>
    <i name="e_0_energy">   -361.59468235 </i>
   </energy>
  </scstep>
  <scstep>
   <time name="diag">    0.10    0.10</time>
   <time name="diis">    0.43    0.44</time>
   <time name="orth">    0.01    0.01</time>
   <time name="total">    0.58    0.63</time>
   <energy>
    <i name="alphaZ">   1586.97000274 </i>
    <i name="ewald"> -20873.07503926 </i>
    <i name="hartreedc">  -7090.85880866 </i>
    <i name="XCdc">   -118.74020818 </i>
    <i name="pawpsdc">  35585.53116545 </i>
    <i name="pawaedc"> -34026.02158050 </i>
    <i name="eentropy">      0.00726950 </i>
    <i name="bandstr">  -2837.89222838 </i>
    <i name="atom">  27412.48717566 </i>
    <i name="e_fr_energy">   -361.59225164 </i>
    <i name="e_wo_entrp">   -361.59952113 </i>
    <i name="e_0_energy">   -361.59467480 </i>
   </energy>
  </scstep>
  <structure>
   <crystal>
    <varray name="basis" >
     <v>       6.86411975       0.00519439      -0.00330552 </v>
     <v>       0.00797689      10.29853954       0.02835705 </v>
     <v>      -0.00470548       0.02790939      10.28189963 </v>
    </varray>
    <i name="volume">    726.82566663 </i>
    <varray name="rec_basis" >
     <v>       0.14568522      -0.00011303       0.00006698 </v>
     <v>      -0.00007361       0.09710193      -0.00026361 </v>
     <v>       0.00004704      -0.00026784       0.09725904 </v>
    </varray>
   </crystal>
   <varray name="positions" >
    <v>       0.25550486       0.16726208       0.82178201 </v>
    <v>       0.24428483       0.49987230       0.16571661 </v>
    <v>       0.22769837       0.81549520       0.14374986 </v>
    <v>       0.00957598       0.67640445       0.35399985 </v>
    <v>       0.50917211       0.00806246       0.01067999 </v>
    <v>       0.74684157       0.16817039       0.50633545 </v>
    <v>       0.50869696       0.32452531       0.00202268 </v>
    <v>       0.74172209       0.48694946       0.50007862 </v>
    <v>       0.49720438       0.68430234       0.34268021 </v>
    <v>       0.00430279       0.00039277       0.66847817 </v>
    <v>       0.26250282       0.48305732       0.49688009 </v>
    <v>       0.99582058       0.65509017       0.97822244 </v>
    <v>       0.24621923       0.84375642       0.83309681 </v>
    <v>       0.75244460       0.18411445       0.19447941 </v>
    <v>       0.49784156       0.99732971       0.66839071 </v>
    <v>       0.74213185       0.16711180       0.81308701 </v>
    <v>       0.49338642       0.33827384       0.66991410 </v>
    <v>       0.76981059       0.81128174       0.15387849 </v>
    <v>       0.24539575       0.18268269       0.18095654 </v>
    <v>       0.25273952       0.16536115       0.50590910 </v>
    <v>       0.01703648       0.32811798       0.34170780 </v>
    <v>       0.00668443       0.33748194       0.66622578 </v>
    <v>       0.24030444       0.48223350       0.83094978 </v>
    <v>       0.25273978       0.86014086       0.51407425 </v>
    <v>       0.48268301       0.32538801       0.33323907 </v>
    <v>       0.75994537       0.49145486       0.81724523 </v>
    <v>       0.75179705       0.85148707       0.51879567 </v>
    <v>       0.98404568       0.01290651       0.00610208 </v>
    <v>       0.99960512       0.99905623       0.33028062 </v>
    <v>       0.98789531       0.32443541       0.99872779 </v>
    <v>       0.01349125       0.66332167       0.66031867 </v>
    <v>       0.50114369       0.99804990       0.32634943 </v>
    <v>       0.75429671       0.50510794       0.17421171 </v>
    <v>       0.50063656       0.65919346       0.98214406 </v>
    <v>       0.49038808       0.66613064       0.66255575 </v>
    <v>       0.75401020       0.83599798       0.82673413 </v>
   </varray>
  </structure>
  <varray name="forces" >
   <v>      -0.00335839       0.00839264       0.00664591 </v>
   <v>      -0.00041528       0.00180173       0.00035167 </v>
   <v>       0.01537335       0.00308878       0.00530723 </v>
   <v>       0.00290830       0.00452813      -0.00726320 </v>
   <v>      -0.00171344       0.00185888       0.00157069 </v>
   <v>      -0.00092065      -0.00058835      -0.00370789 </v>
   <v>      -0.00235075       0.01231160       0.00311388 </v>
   <v>       0.00722205       0.00398684      -0.00938842 </v>
   <v>      -0.00598871      -0.00299529       0.00670038 </v>
   <v>      -0.00307995       0.00184165       0.00416247 </v>
   <v>      -0.00917336       0.00940979      -0.00393877 </v>
   <v>       0.00251706       0.00850191       0.01185463 </v>
   <v>       0.00153946      -0.00625487       0.01088592 </v>
   <v>      -0.00475733      -0.01650510      -0.01835207 </v>
   <v>       0.00316187       0.00325504       0.00565706 </v>
   <v>       0.00543330       0.00185634       0.01043865 </v>
   <v>       0.00332209      -0.00302295      -0.00939630 </v>
   <v>      -0.01617454       0.00886563       0.01219579 </v>
   <v>       0.00457818      -0.00092796      -0.00147428 </v>
   <v>       0.00218949      -0.00022332      -0.00016702 </v>
   <v>      -0.00370901      -0.00259455      -0.00849809 </v>
   <v>      -0.00119951       0.00024521      -0.00396999 </v>
   <v>      -0.00041091      -0.00097407       0.00058520 </v>
   <v>      -0.00234077      -0.00328292      -0.00301760 </v>
   <v>       0.00385935       0.00246023      -0.00648300 </v>
   <v>      -0.00114892       0.00219340      -0.00031735 </v>
   <v>       0.00189030      -0.00319847      -0.00772300 </v>
   <v>       0.00863420      -0.01055636       0.00463629 </v>
   <v>       0.00213792      -0.00420056      -0.00487706 </v>
   <v>      -0.00033631       0.00070280       0.00406089 </v>
   <v>      -0.00063859       0.00008250      -0.00178472 </v>
   <v>      -0.00154219      -0.00825268      -0.00347166 </v>
   <v>      -0.00201705       0.00415003       0.00408001 </v>
   <v>      -0.00185651      -0.00888094      -0.00358060 </v>
   <v>       0.00087032      -0.00125371      -0.00070656 </v>
   <v>      -0.00250505      -0.00582102       0.00587091 </v>
  </varray>
  <varray name="stress" >
   <v>       0.22030545      -0.03331290       0.01885066 </v>
   <v>      -0.03331293       0.20995184      -0.05489491 </v>
   <v>       0.01885071      -0.05489489       0.10139979 </v>
  </varray>
  <energy>
   <i name="e_fr_energy">   -361.59225164 </i>
   <i name="e_wo_entrp">   -361.59467480 </i>
   <i name="e_0_energy">      0.00726950 </i>
  </energy>
  <time name="totalsc">    5.76    6.66</time>
 </calculation>
 <calculation>
  <scstep>
   <time name="dav">    0.95    0.96</time>
   <time name="total">    1.04    1.40</time>
   <energy>
    <i name="alphaZ">   1587.21687394 </i>
    <i name="ewald"> -20878.05379490 </i>
    <i name="hartreedc">  -7087.57344708 </i>
    <i name="XCdc">   -118.70891182 </i>
    <i name="pawpsdc">  35585.59391968 </i>
    <i name="pawaedc"> -34026.07519857 </i>
    <i name="eentropy">      0.00697827 </i>
    <i name="bandstr">  -2836.48467221 </i>
    <i name="atom">  27412.48717566 </i>
    <i name="e_fr_energy">   -361.59107704 </i>
    <i name="e_wo_entrp">   -361.59805531 </i>
    <i name="e_0_energy">   -361.59340313 </i>
   </energy>
  </scstep>
  <scstep>
   <time name="diag">    0.08    0.08</time>
   <time name="diis">    0.67    0.67</time>
   <time name="orth">    0.01    0.01</time>
   <time name="total">    0.83    0.88</time>
   <energy>
    <i name="e_fr_energy">   -361.59272762 </i>
    <i name="e_wo_entrp">   -361.59962121 </i>
    <i name="e_0_energy">   -361.59502548 </i>
   </energy>
  </scstep>
  <scstep>
   <time name="diag">    0.08    0.08</time>
   <time name="diis">    0.79    0.79</time>
   <time name="orth">    0.01    0.01</time>
   <time name="total">    0.94    1.00</time>
   <energy>
    <i name="e_fr_energy">   -361.59244446 </i>
    <i name="e_wo_entrp">   -361.59934728 </i>
    <i name="e_0_energy">   -361.59474540 </i>
   </energy>
  </scstep>
  <scstep>
   <time name="diag">    0.08    0.08</time>
   <time name="diis">    0.78    0.78</time>
   <time name="orth">    0.01    0.01</time>
   <time name="total">    0.94    1.03</time>
   <energy>
    <i name="e_fr_energy">   -361.59241595 </i>
    <i name="e_wo_entrp">   -361.59934426 </i>
    <i name="e_0_energy">   -361.59472538 </i>
   </energy>
  </scstep>
  <scstep>
   <time name="diag">    0.08    0.08</time>
   <time name="diis">    0.68    0.71</time>
   <time name="orth">    0.01    0.02</time>
   <time name="total">    0.84    1.00</time>
   <energy>
    <i name="e_fr_energy">   -361.59241090 </i>
    <i name="e_wo_entrp">   -361.59930987 </i>
    <i name="e_0_energy">   -361.59471056 </i>
   </energy>
  </scstep>
  <scstep>
   <time name="diag">    0.08    0.08</time>
   <time name="diis">    0.62    0.63</time>
   <time name="orth">    0.01    0.01</time>
   <time name="total">    0.75    0.85</time>
   <energy>
    <i name="alphaZ">   1587.21687394 </i>
    <i name="ewald"> -20878.05379490 </i>
    <i name="hartreedc">  -7086.58348635 </i>
    <i name="XCdc">   -118.74742848 </i>
    <i name="pawpsdc">  35587.69484533 </i>
    <i name="pawaedc"> -34028.21540185 </i>
    <i name="eentropy">      0.00692639 </i>
    <i name="bandstr">  -2837.39812079 </i>
    <i name="atom">  27412.48717566 </i>
    <i name="e_fr_energy">   -361.59241106 </i>
    <i name="e_wo_entrp">   -361.59933745 </i>
    <i name="e_0_energy">   -361.59471986 </i>
   </energy>
  </scstep>
  <structure>
   <crystal>
    <varray name="basis" >
     <v>       6.86345996       0.00471069      -0.00343175 </v>
     <v>       0.00724989      10.29878833       0.02877333 </v>
     <v>      -0.00489681       0.02832851      10.28104173 </v>
    </varray>
    <i name="volume">    726.71261823 </i>
    <varray name="rec_basis" >
     <v>       0.14569921      -0.00010276       0.00006968 </v>
     <v>      -0.00006678       0.09709960      -0.00026758 </v>
     <v>       0.00004882      -0.00027178       0.09726718 </v>
    </varray>
   </crystal>
   <varray name="positions" >
    <v>       0.25547020       0.16734952       0.82196467 </v>
    <v>       0.24431879       0.49991465       0.16571409 </v>
    <v>       0.22799490       0.81559080       0.14385677 </v>
    <v>       0.00964077       0.67644243       0.35397149 </v>
    <v>       0.50907098       0.00809438       0.01071462 </v>
    <v>       0.74684500       0.16820456       0.50633786 </v>
    <v>       0.50857836       0.32462415       0.00202325 </v>
    <v>       0.74189733       0.48704098       0.49997963 </v>
    <v>       0.49709147       0.68427794       0.34275379 </v>
    <v>       0.00414218       0.00053855       0.66857141 </v>
    <v>       0.26234458       0.48330196       0.49685477 </v>
    <v>       0.99586015       0.65515054       0.97835580 </v>
    <v>       0.24632595       0.84364403       0.83323698 </v>
    <v>       0.75238647       0.18389690       0.19417749 </v>
    <v>       0.49790894       0.99749382       0.66850161 </v>
    <v>       0.74225724       0.16715160       0.81327131 </v>
    <v>       0.49350480       0.33817639       0.66976977 </v>
    <v>       0.76949192       0.81140203       0.15404097 </v>
    <v>       0.24551124       0.18264189       0.18086324 </v>
    <v>       0.25278497       0.16533676       0.50587118 </v>
    <v>       0.01689816       0.32811886       0.34166980 </v>
    <v>       0.00657346       0.33744818       0.66615124 </v>
    <v>       0.24033779       0.48225447       0.83102389 </v>
    <v>       0.25271740       0.85996410       0.51385383 </v>
    <v>       0.48273785       0.32543495       0.33319778 </v>
    <v>       0.75986660       0.49149126       0.81727664 </v>
    <v>       0.75184259       0.85133634       0.51859998 </v>
    <v>       0.98423270       0.01283902       0.00615936 </v>
    <v>       0.99972243       0.99896345       0.33020916 </v>
    <v>       0.98796299       0.32440035       0.99875080 </v>
    <v>       0.01342320       0.66330241       0.66022003 </v>
    <v>       0.50103949       0.99790226       0.32630974 </v>
    <v>       0.75424424       0.50517485       0.17426907 </v>
    <v>       0.50058898       0.65908911       0.98212535 </v>
    <v>       0.49045081       0.66610789       0.66252571 </v>
    <v>       0.75393505       0.83589864       0.82682691 </v>
   </varray>
  </structure>
  <varray name="forces" >
   <v>      -0.00494638       0.00777579      -0.01186735 </v>
   <v>      -0.00495777      -0.00408688       0.00233081 </v>
   <v>       0.00702386      -0.00469406      -0.00165663 </v>
   <v>       0.00019729       0.00636484      -0.01195893 </v>
   <v>       0.00653784       0.00147386      -0.00182349 </v>
   <v>      -0.00267919      -0.00694744      -0.00860996 </v>
   <v>       0.00625146       0.01399421       0.00669535 </v>
   <v>       0.00006092      -0.00434872      -0.00716733 </v>
   <v>      -0.00276355      -0.00312054       0.00690841 </v>
   <v>       0.00771087      -0.01579310      -0.00436787 </v>
   <v>      -0.00731914      -0.01235157      -0.00492819 </v>
   <v>       0.00006036       0.01110561       0.00819402 </v>
   <v>      -0.00800156       0.00233673       0.00291897 </v>
   <v>      -0.00527669      -0.00806950       0.00052208 </v>
   <v>       0.00059266      -0.01475705      -0.00340667 </v>
   <v>       0.00163256      -0.00136724      -0.00137125 </v>
   <v>      -0.00343857       0.00525943      -0.00352375 </v>
   <v>      -0.00773297       0.00386502       0.00633341 </v>
   <v>      -0.00060319       0.00416073       0.01062154 </v>
   <v>       0.00123512       0.00290509       0.00648499 </v>
   <v>       0.00685966      -0.00808629      -0.01517108 </v>
   <v>       0.00833809       0.00506446       0.00181923 </v>
   <v>      -0.00508818      -0.00763179      -0.01127933 </v>
   <v>      -0.00345213       0.01924069       0.02628751 </v>
   <v>       0.00195883      -0.00269195      -0.00997271 </v>
   <v>       0.00559702      -0.00210876      -0.00734820 </v>
   <v>       0.00025132       0.01589241       0.01124804 </v>
   <v>       0.00360326      -0.01474454       0.00224472 </v>
   <v>      -0.00568041       0.00337144       0.00007593 </v>
   <v>      -0.00735011       0.00778433       0.00698495 </v>
   <v>       0.00471822       0.00387741       0.00974728 </v>
   <v>       0.00608154       0.00277686      -0.00052786 </v>
   <v>       0.00108912      -0.00053198       0.00158279 </v>
   <v>       0.00123155      -0.00786112      -0.00681241 </v>
   <v>      -0.00380010       0.00070342       0.00162323 </v>
   <v>       0.00205839       0.00124023      -0.00083026 </v>
  </varray>
  <varray name="stress" >
   <v>       0.39784771       0.05880914       0.06922743 </v>
   <v>       0.05880919       0.11734468      -0.22952883 </v>
   <v>       0.06922737      -0.22952878       0.06733812 </v>
  </varray>
  <energy>
   <i name="e_fr_energy">   -361.59241106 </i>
   <i name="e_wo_entrp">   -361.59471986 </i>
   <i name="e_0_energy">      0.00692639 </i>
  </energy>
  <time name="totalsc">    7.06    8.10</time>
 </calculation>
 <calculation>
  <scstep>
   <time name="dav">    0.99    1.07</time>
   <time name="total">    1.08    1.53</time>
   <energy>
    <i name="alphaZ">   1587.14151662 </i>
    <i name="ewald"> -20876.53774290 </i>
    <i name="hartreedc">  -7087.60361847 </i>
    <i name="XCdc">   -118.75621403 </i>
    <i name="pawpsdc">  35587.51418514 </i>
    <i name="pawaedc"> -34028.02964525 </i>
    <i name="eentropy">      0.00701149 </i>
    <i name="bandstr">  -2837.81500431 </i>
    <i name="atom">  27412.48717566 </i>
    <i name="e_fr_energy">   -361.59233606 </i>
    <i name="e_wo_entrp">   -361.59934755 </i>
    <i name="e_0_energy">   -361.59467323 </i>
   </energy>
  </scstep>
  <scstep>
   <time name="diag">    0.08    0.08</time>
   <time name="diis">    0.69    0.69</time>
   <time name="orth">    0.01    0.01</time>
   <time name="total">    0.86    0.96</time>
   <energy>
    <i name="e_fr_energy">   -361.59249021 </i>
    <i name="e_wo_entrp">   -361.59953594 </i>
    <i name="e_0_energy">   -361.59483879 </i>
[...]
       <r>    7.0356    1.0000 </r>
       <r>    7.0777    1.0000 </r>
       <r>    7.1164    1.0000 </r>
       <r>    7.1418    1.0000 </r>
       <r>    7.1684    1.0000 </r>
       <r>    7.1963    1.0000 </r>
       <r>    7.2448    1.0001 </r>
       <r>    7.2808    1.0004 </r>
       <r>    7.3112    1.0009 </r>
       <r>    7.3571    1.0034 </r>
       <r>    7.3957    1.0085 </r>
       <r>    7.4384    1.0187 </r>
       <r>    7.4931    1.0339 </r>
       <r>    7.5262    1.0332 </r>
       <r>    7.5503    1.0192 </r>
       <r>    7.5799    0.9770 </r>
       <r>    7.6027    0.9203 </r>
       <r>    7.6386    0.7851 </r>
       <r>    7.6559    0.7015 </r>
       <r>    7.7071    0.4198 </r>
       <r>    7.7388    0.2536 </r>
       <r>    7.7778    0.0956 </r>
       <r>    7.8339   -0.0178 </r>
       <r>    7.8665   -0.0347 </r>
       <r>    7.8994   -0.0326 </r>
       <r>    7.9317   -0.0234 </r>
       <r>    7.9536   -0.0169 </r>
       <r>    7.9816   -0.0101 </r>
       <r>    8.0337   -0.0030 </r>
       <r>    8.0897   -0.0006 </r>
       <r>    8.1205   -0.0002 </r>
       <r>    8.1582   -0.0001 </r>
       <r>    8.1938   -0.0000 </r>
       <r>    8.2480   -0.0000 </r>
       <r>    8.2904   -0.0000 </r>
       <r>    8.3449   -0.0000 </r>
       <r>    8.3945   -0.0000 </r>
       <r>    8.4614   -0.0000 </r>
       <r>    8.5048   -0.0000 </r>
       <r>    8.5773   -0.0000 </r>
       <r>    8.6102   -0.0000 </r>
       <r>    8.7800   -0.0000 </r>
       <r>    9.0207   -0.0000 </r>
       <r>    9.0862   -0.0000 </r>
       <r>    9.4875   -0.0000 </r>
       <r>    9.5755   -0.0000 </r>
       <r>    9.6979   -0.0000 </r>
       <r>    9.7207   -0.0000 </r>
       <r>    9.7536   -0.0000 </r>
      </set>
     </set>
    </set>
   </array>
  </eigenvalues>
  <separator name="orbital magnetization" >
   <v name="MAGDIPOLOUT">      0.00000000      0.00000000      0.00000000</v>
  </separator>
  <dos>
   <i name="efermi">      7.69284018 </i>
   <total>
    <array>
     <dimension dim="1">gridpoints</dimension>
     <dimension dim="2">spin</dimension>
     <field>energy</field>
     <field>total</field>
     <field>integrated</field>
     <set>
      <set comment="spin 1">
       <r>   -49.4773     0.0000     0.0000 </r>
       <r>   -49.2702     0.0000     0.0000 </r>
       <r>   -49.0632     0.0000     0.0000 </r>
       <r>   -48.8562     0.0000     0.0000 </r>
       <r>   -48.6492     0.0000     0.0000 </r>
       <r>   -48.4421     0.0000     0.0000 </r>
       <r>   -48.2351     0.0000     0.0000 </r>
       <r>   -48.0281    -0.0000    -0.0000 </r>
       <r>   -47.8210    -0.0000    -0.0000 </r>
       <r>   -47.6140    -0.0000    -0.0000 </r>
       <r>   -47.4070    -0.0000    -0.0000 </r>
       <r>   -47.2000    -0.0000    -0.0000 </r>
       <r>   -46.9929    -0.0392    -0.0081 </r>
       <r>   -46.7859    -0.7680    -0.1671 </r>
       <r>   -46.5789    18.9461     3.7552 </r>
       <r>   -46.3719    41.6656    12.3811 </r>
       <r>   -46.1648    27.9809    18.1739 </r>
       <r>   -45.9578    -0.7674    18.0150 </r>
       <r>   -45.7508    -0.0725    18.0000 </r>
       <r>   -45.5438    -0.0000    18.0000 </r>
       <r>   -45.3367    -0.0000    18.0000 </r>
       <r>   -45.1297     0.0000    18.0000 </r>
       <r>   -44.9227     0.0000    18.0000 </r>
       <r>   -44.7157     0.0000    18.0000 </r>
       <r>   -44.5086     0.0000    18.0000 </r>
       <r>   -44.3016     0.0000    18.0000 </r>
       <r>   -44.0946     0.0000    18.0000 </r>
       <r>   -43.8875     0.0000    18.0000 </r>
       <r>   -43.6805     0.0000    18.0000 </r>
       <r>   -43.4735     0.0000    18.0000 </r>
       <r>   -43.2665     0.0000    18.0000 </r>
       <r>   -43.0594     0.0000    18.0000 </r>
       <r>   -42.8524     0.0000    18.0000 </r>
       <r>   -42.6454     0.0000    18.0000 </r>
       <r>   -42.4384     0.0000    18.0000 </r>
       <r>   -42.2313     0.0000    18.0000 </r>
       <r>   -42.0243     0.0000    18.0000 </r>
       <r>   -41.8173    -0.0000    18.0000 </r>
       <r>   -41.6103    -0.0000    18.0000 </r>
       <r>   -41.4032    -0.0000    18.0000 </r>
       <r>   -41.1962    -0.0000    18.0000 </r>
       <r>   -40.9892    -0.0033    17.9993 </r>
       <r>   -40.7822    -0.6490    17.8650 </r>
       <r>   -40.5751     6.9016    19.2938 </r>
       <r>   -40.3681    62.4116    32.2146 </r>
       <r>   -40.1611    19.6328    36.2791 </r>
       <r>   -39.9540    -1.3370    36.0023 </r>
       <r>   -39.7470    -0.0113    36.0000 </r>
       <r>   -39.5400    -0.0000    36.0000 </r>
       <r>   -39.3330    -0.0000    36.0000 </r>
       <r>   -39.1259     0.0000    36.0000 </r>
       <r>   -38.9189     0.0000    36.0000 </r>
       <r>   -38.7119     0.0000    36.0000 </r>
       <r>   -38.5049     0.0000    36.0000 </r>
       <r>   -38.2978     0.0000    36.0000 </r>
       <r>   -38.0908     0.0000    36.0000 </r>
       <r>   -37.8838     0.0000    36.0000 </r>
       <r>   -37.6768     0.0000    36.0000 </r>
       <r>   -37.4697     0.0000    36.0000 </r>
       <r>   -37.2627     0.0000    36.0000 </r>
       <r>   -37.0557     0.0000    36.0000 </r>
       <r>   -36.8487     0.0000    36.0000 </r>
       <r>   -36.6416     0.0000    36.0000 </r>
       <r>   -36.4346     0.0000    36.0000 </r>
       <r>   -36.2276     0.0000    36.0000 </r>
       <r>   -36.0205     0.0000    36.0000 </r>
       <r>   -35.8135     0.0000    36.0000 </r>
       <r>   -35.6065     0.0000    36.0000 </r>
       <r>   -35.3995     0.0000    36.0000 </r>
       <r>   -35.1924     0.0000    36.0000 </r>
       <r>   -34.9854     0.0000    36.0000 </r>
       <r>   -34.7784     0.0000    36.0000 </r>
       <r>   -34.5714     0.0000    36.0000 </r>
       <r>   -34.3643     0.0000    36.0000 </r>
       <r>   -34.1573     0.0000    36.0000 </r>
       <r>   -33.9503     0.0000    36.0000 </r>
       <r>   -33.7433     0.0000    36.0000 </r>
       <r>   -33.5362     0.0000    36.0000 </r>
       <r>   -33.3292     0.0000    36.0000 </r>
       <r>   -33.1222     0.0000    36.0000 </r>
       <r>   -32.9152     0.0000    36.0000 </r>
       <r>   -32.7081     0.0000    36.0000 </r>
       <r>   -32.5011     0.0000    36.0000 </r>
       <r>   -32.2941     0.0000    36.0000 </r>
       <r>   -32.0870     0.0000    36.0000 </r>
       <r>   -31.8800     0.0000    36.0000 </r>
       <r>   -31.6730     0.0000    36.0000 </r>
       <r>   -31.4660     0.0000    36.0000 </r>
       <r>   -31.2589     0.0000    36.0000 </r>
       <r>   -31.0519     0.0000    36.0000 </r>
       <r>   -30.8449     0.0000    36.0000 </r>
       <r>   -30.6379     0.0000    36.0000 </r>
       <r>   -30.4308     0.0000    36.0000 </r>
       <r>   -30.2238     0.0000    36.0000 </r>
       <r>   -30.0168     0.0000    36.0000 </r>
       <r>   -29.8098     0.0000    36.0000 </r>
       <r>   -29.6027     0.0000    36.0000 </r>
       <r>   -29.3957     0.0000    36.0000 </r>
       <r>   -29.1887     0.0000    36.0000 </r>
       <r>   -28.9817     0.0000    36.0000 </r>
       <r>   -28.7746     0.0000    36.0000 </r>
       <r>   -28.5676     0.0000    36.0000 </r>
       <r>   -28.3606     0.0000    36.0000 </r>
       <r>   -28.1535     0.0000    36.0000 </r>
       <r>   -27.9465     0.0000    36.0000 </r>
       <r>   -27.7395     0.0000    36.0000 </r>
       <r>   -27.5325     0.0000    36.0000 </r>
       <r>   -27.3254     0.0000    36.0000 </r>
       <r>   -27.1184     0.0000    36.0000 </r>
       <r>   -26.9114     0.0000    36.0000 </r>
       <r>   -26.7044     0.0000    36.0000 </r>
       <r>   -26.4973     0.0000    36.0000 </r>
       <r>   -26.2903     0.0000    36.0000 </r>
       <r>   -26.0833     0.0000    36.0000 </r>
       <r>   -25.8763     0.0000    36.0000 </r>
       <r>   -25.6692     0.0000    36.0000 </r>
       <r>   -25.4622     0.0000    36.0000 </r>
       <r>   -25.2552     0.0000    36.0000 </r>
       <r>   -25.0481     0.0000    36.0000 </r>
       <r>   -24.8411     0.0000    36.0000 </r>
       <r>   -24.6341     0.0000    36.0000 </r>
       <r>   -24.4271     0.0000    36.0000 </r>
       <r>   -24.2200    -0.0000    36.0000 </r>
       <r>   -24.0130    -0.0000    36.0000 </r>
       <r>   -23.8060    -0.0000    36.0000 </r>
       <r>   -23.5990    -0.0000    36.0000 </r>
       <r>   -23.3919    -0.0015    35.9997 </r>
       <r>   -23.1849    -0.4852    35.8992 </r>
       <r>   -22.9779     4.4622    36.8230 </r>
       <r>   -22.7709    52.5327    47.6987 </r>
       <r>   -22.5638    81.1653    64.5020 </r>
       <r>   -22.3568    85.1750    82.1355 </r>
       <r>   -22.1498    36.4803    89.6879 </r>
       <r>   -21.9428     1.7731    90.0550 </r>
       <r>   -21.7357    -0.2650    90.0001 </r>
       <r>   -21.5287    -0.0006    90.0000 </r>
       <r>   -21.3217    -0.0000    90.0000 </r>
       <r>   -21.1146    -0.0000    90.0000 </r>
       <r>   -20.9076     0.0000    90.0000 </r>
       <r>   -20.7006     0.0000    90.0000 </r>
       <r>   -20.4936     0.0000    90.0000 </r>
       <r>   -20.2865    -0.0000    90.0000 </r>
       <r>   -20.0795    -0.0000    90.0000 </r>
       <r>   -19.8725    -0.0000    90.0000 </r>
       <r>   -19.6655    -0.0000    90.0000 </r>
       <r>   -19.4584    -0.0000    90.0000 </r>
       <r>   -19.2514    -0.0336    89.9930 </r>
       <r>   -19.0444    -0.6808    89.8521 </r>
       <r>   -18.8374    14.4163    92.8366 </r>
       <r>   -18.6303    68.8962   107.1000 </r>
       <r>   -18.4233   117.3066   131.3855 </r>
       <r>   -18.2163    57.4066   143.2702 </r>
       <r>   -18.0093     4.0125   144.1009 </r>
       <r>   -17.8022    -0.4854   144.0004 </r>
       <r>   -17.5952    -0.0020   144.0000 </r>
       <r>   -17.3882    -0.0000   144.0000 </r>
       <r>   -17.1811    -0.0000   144.0000 </r>
       <r>   -16.9741     0.0000   144.0000 </r>
       <r>   -16.7671     0.0000   144.0000 </r>
       <r>   -16.5601     0.0000   144.0000 </r>
       <r>   -16.3530     0.0000   144.0000 </r>
       <r>   -16.1460     0.0000   144.0000 </r>
       <r>   -15.9390     0.0000   144.0000 </r>
       <r>   -15.7320     0.0000   144.0000 </r>
       <r>   -15.5249     0.0000   144.0000 </r>
       <r>   -15.3179     0.0000   144.0000 </r>
       <r>   -15.1109     0.0000   144.0000 </r>
       <r>   -14.9039     0.0000   144.0000 </r>
       <r>   -14.6968     0.0000   144.0000 </r>
       <r>   -14.4898     0.0000   144.0000 </r>
       <r>   -14.2828     0.0000   144.0000 </r>
       <r>   -14.0758     0.0000   144.0000 </r>
       <r>   -13.8687     0.0000   144.0000 </r>
       <r>   -13.6617     0.0000   144.0000 </r>
       <r>   -13.4547     0.0000   144.0000 </r>
       <r>   -13.2476     0.0000   144.0000 </r>
       <r>   -13.0406     0.0000   144.0000 </r>
       <r>   -12.8336     0.0000   144.0000 </r>
       <r>   -12.6266     0.0000   144.0000 </r>
       <r>   -12.4195     0.0000   144.0000 </r>
       <r>   -12.2125     0.0000   144.0000 </r>
       <r>   -12.0055     0.0000   144.0000 </r>
       <r>   -11.7985     0.0000   144.0000 </r>
       <r>   -11.5914     0.0000   144.0000 </r>
       <r>   -11.3844     0.0000   144.0000 </r>
       <r>   -11.1774     0.0000   144.0000 </r>
       <r>   -10.9704     0.0000   144.0000 </r>
       <r>   -10.7633     0.0000   144.0000 </r>
       <r>   -10.5563     0.0000   144.0000 </r>
       <r>   -10.3493     0.0000   144.0000 </r>
       <r>   -10.1423     0.0000   144.0000 </r>
       <r>    -9.9352     0.0000   144.0000 </r>
       <r>    -9.7282     0.0000   144.0000 </r>
       <r>    -9.5212     0.0000   144.0000 </r>
       <r>    -9.3141     0.0000   144.0000 </r>
       <r>    -9.1071     0.0000   144.0000 </r>
       <r>    -8.9001     0.0000   144.0000 </r>
       <r>    -8.6931     0.0000   144.0000 </r>
       <r>    -8.4860     0.0000   144.0000 </r>
       <r>    -8.2790     0.0000   144.0000 </r>
       <r>    -8.0720     0.0000   144.0000 </r>
       <r>    -7.8650     0.0000   144.0000 </r>
       <r>    -7.6579     0.0000   144.0000 </r>
       <r>    -7.4509     0.0000   144.0000 </r>
       <r>    -7.2439     0.0000   144.0000 </r>
       <r>    -7.0369     0.0000   144.0000 </r>
       <r>    -6.8298     0.0000   144.0000 </r>
       <r>    -6.6228     0.0000   144.0000 </r>
       <r>    -6.4158     0.0000   144.0000 </r>
       <r>    -6.2088     0.0000   144.0000 </r>
       <r>    -6.0017     0.0000   144.0000 </r>
       <r>    -5.7947     0.0000   144.0000 </r>
       <r>    -5.5877     0.0000   144.0000 </r>
       <r>    -5.3806     0.0000   144.0000 </r>
       <r>    -5.1736     0.0000   144.0000 </r>
       <r>    -4.9666     0.0000   144.0000 </r>
       <r>    -4.7596     0.0000   144.0000 </r>
       <r>    -4.5525     0.0000   144.0000 </r>
       <r>    -4.3455     0.0000   144.0000 </r>
       <r>    -4.1385     0.0000   144.0000 </r>
       <r>    -3.9315     0.0000   144.0000 </r>
       <r>    -3.7244     0.0000   144.0000 </r>
       <r>    -3.5174     0.0000   144.0000 </r>
       <r>    -3.3104     0.0000   144.0000 </r>
       <r>    -3.1034     0.0000   144.0000 </r>
       <r>    -2.8963     0.0000   144.0000 </r>
       <r>    -2.6893     0.0000   144.0000 </r>
       <r>    -2.4823     0.0000   144.0000 </r>
       <r>    -2.2753     0.0000   144.0000 </r>
       <r>    -2.0682     0.0000   144.0000 </r>
       <r>    -1.8612     0.0000   144.0000 </r>
       <r>    -1.6542     0.0000   144.0000 </r>
       <r>    -1.4471     0.0000   144.0000 </r>
       <r>    -1.2401     0.0000   144.0000 </r>
       <r>    -1.0331     0.0000   144.0000 </r>
       <r>    -0.8261     0.0000   144.0000 </r>
       <r>    -0.6190     0.0000   144.0000 </r>
       <r>    -0.4120     0.0000   144.0000 </r>
       <r>    -0.2050    -0.0000   144.0000 </r>
       <r>     0.0020    -0.0000   144.0000 </r>
       <r>     0.2091    -0.0000   144.0000 </r>
       <r>     0.4161    -0.0000   144.0000 </r>
       <r>     0.6231    -0.0004   143.9999 </r>
       <r>     0.8301    -0.0131   143.9972 </r>
       <r>     1.0372     0.2118   144.0411 </r>
       <r>     1.2442     1.0611   144.2607 </r>
       <r>     1.4512     1.6119   144.5945 </r>
       <r>     1.6583     1.7614   144.9591 </r>
       <r>     1.8653     3.2919   145.6406 </r>
       <r>     2.0723     3.7375   146.4144 </r>
       <r>     2.2793     2.3471   146.9003 </r>
       <r>     2.4864     3.8171   147.6905 </r>
       <r>     2.6934     4.7025   148.6641 </r>
       <r>     2.9004     3.7398   149.4383 </r>
       <r>     3.1074     6.0771   150.6964 </r>
       <r>     3.3145     9.2335   152.6080 </r>
       <r>     3.5215     6.7304   154.0014 </r>
       <r>     3.7285     8.5012   155.7614 </r>
       <r>     3.9355    11.3550   158.1121 </r>
       <r>     4.1426    15.9398   161.4121 </r>
       <r>     4.3496    21.7230   165.9093 </r>
       <r>     4.5566    23.8259   170.8419 </r>
       <r>     4.7636    29.5533   176.9602 </r>
       <r>     4.9707    33.7941   183.9565 </r>
       <r>     5.1777    39.9401   192.2252 </r>
       <r>     5.3847    38.9954   200.2982 </r>
       <r>     5.5918    39.0368   208.3799 </r>
       <r>     5.7988    33.3463   215.2835 </r>
       <r>     6.0058    33.1084   222.1378 </r>
       <r>     6.2128    15.8301   225.4150 </r>
       <r>     6.4199    37.2390   233.1245 </r>
       <r>     6.6269    68.1803   247.2396 </r>
       <r>     6.8339    59.7775   259.6151 </r>
       <r>     7.0409    49.7676   269.9183 </r>
       <r>     7.2480    56.3611   281.5865 </r>
       <r>     7.4550    57.7963   293.5519 </r>
       <r>     7.6620    52.9350   304.5108 </r>
       <r>     7.8690    46.4594   314.1292 </r>
       <r>     8.0761    46.4010   323.7354 </r>
       <r>     8.2831    43.0633   332.6506 </r>
       <r>     8.4901    34.9459   339.8853 </r>
       <r>     8.6971    29.8026   346.0553 </r>
       <r>     8.9042    24.2531   351.0763 </r>
       <r>     9.1112    18.1735   354.8387 </r>
       <r>     9.3182    15.7271   358.0946 </r>
       <r>     9.5253    22.6100   362.7755 </r>
       <r>     9.7323    19.1977   366.7499 </r>
       <r>     9.9393     6.4263   368.0803 </r>
       <r>    10.1463    -0.3804   368.0016 </r>
       <r>    10.3534    -0.0075   368.0000 </r>
       <r>    10.5604    -0.0000   368.0000 </r>
       <r>    10.7674    -0.0000   368.0000 </r>
       <r>    10.9744     0.0000   368.0000 </r>
       <r>    11.1815     0.0000   368.0000 </r>
       <r>    11.3885     0.0000   368.0000 </r>
       <r>    11.5955     0.0000   368.0000 </r>
       <r>    11.8025     0.0000   368.0000 </r>
       <r>    12.0096     0.0000   368.0000 </r>
       <r>    12.2166     0.0000   368.0000 </r>
       <r>    12.4236     0.0000   368.0000 </r>
       <r>    12.6306     0.0000   368.0000 </r>
      </set>
     </set>
    </array>
   </total>
  </dos>
 </calculation>
 <structure name="finalpos" >
  <crystal>
   <varray name="basis" >
    <v>       6.86397364       0.00460951      -0.00223486 </v>
    <v>       0.00710387      10.29868202       0.02784105 </v>
    <v>      -0.00310501       0.02739997      10.27921450 </v>
   </varray>
   <i name="volume">    726.63081374 </i>
   <varray name="rec_basis" >
    <v>       0.14568829      -0.00010061       0.00004428 </v>
    <v>      -0.00006529       0.09710055      -0.00025885 </v>
    <v>       0.00003185      -0.00026302       0.09728441 </v>
   </varray>
  </crystal>
  <varray name="positions" >
   <v>       0.25539023       0.16833882       0.82189404 </v>
   <v>       0.24373377       0.49992569       0.16600894 </v>
   <v>       0.23041347       0.81529005       0.14361235 </v>
   <v>       0.00998574       0.67739063       0.35372095 </v>
   <v>       0.50942462       0.00859068       0.01044563 </v>
   <v>       0.74669440       0.16802220       0.50612688 </v>
   <v>       0.50871520       0.32562951       0.00204340 </v>
   <v>       0.74269628       0.48706628       0.49912702 </v>
   <v>       0.49601860       0.68409970       0.34399103 </v>
   <v>       0.00394618       0.00058815       0.66926441 </v>
   <v>       0.26137375       0.48277258       0.49639888 </v>
   <v>       0.99549409       0.65592654       0.97908445 </v>
   <v>       0.24593517       0.84309794       0.83399438 </v>
   <v>       0.75195950       0.18279734       0.19374827 </v>
   <v>       0.49836765       0.99772209       0.66934521 </v>
   <v>       0.74248342       0.16713892       0.81320717 </v>
   <v>       0.49362199       0.33836230       0.66902433 </v>
   <v>       0.76746942       0.81166580       0.15458527 </v>
   <v>       0.24606501       0.18267609       0.18060949 </v>
   <v>       0.25313964       0.16545258       0.50584903 </v>
   <v>       0.01649966       0.32724668       0.34070595 </v>
   <v>       0.00652300       0.33753100       0.66571030 </v>
   <v>       0.23977091       0.48178532       0.83050401 </v>
   <v>       0.25221199       0.86089753       0.51484047 </v>
   <v>       0.48330349       0.32529491       0.33264373 </v>
   <v>       0.76031938       0.49163613       0.81686335 </v>
   <v>       0.75210176       0.85170801       0.51897919 </v>
   <v>       0.98498489       0.01190269       0.00628381 </v>
   <v>       0.99986025       0.99887349       0.33013613 </v>
   <v>       0.98724901       0.32431573       0.99890540 </v>
   <v>       0.01345079       0.66344020       0.66023012 </v>
   <v>       0.50112012       0.99765335       0.32645367 </v>
   <v>       0.75440721       0.50587120       0.17459793 </v>
   <v>       0.50076307       0.65773884       0.98133799 </v>
   <v>       0.49047293       0.66596110       0.66235032 </v>
   <v>       0.75403341       0.83558993       0.82737651 </v>
  </varray>
 </structure>
</modeling>
