<?xml version="1.0" encoding="ISO-8859-1"?>
<modeling>
 <generator>
  <i name="program" type="string">vasp </i>
  <i name="version" type="string">5.4.1  </i>
  <i name="subversion" type="string">05Feb16 (build Jan 29 2020 16:04:39) complex                          parallel </i>
  <i name="platform" type="string">IFC91_ompi </i>
  <i name="date" type="string">2020 06 15 </i>
  <i name="time" type="string">13:10:14 </i>
 </generator>
 <incar>
  <i type="string" name="SYSTEM"> automatically generated by mexm</i>
  <i type="int" name="ISTART">     0</i>
  <i type="string" name="PREC">accurate               ! avoid wrap aro</i>
  <i type="string" name="ALGO"> Fast                   ! blocked Davids</i>
  <i type="int" name="ISPIN">     1</i>
  <i type="int" name="ICHARG">     2</i>
  <i type="int" name="NELM">    70</i>
  <i type="int" name="IBRION">     2</i>
  <i name="EDIFF">      0.00001000</i>
  <i name="EDIFFG">     -0.01000000</i>
  <i type="int" name="NSW">   300</i>
  <i type="int" name="ISIF">     3</i>
  <i type="int" name="ISYM">     1</i>
  <i name="ENCUT">    300.00000000</i>
  <i name="POTIM">      0.15000000</i>
  <i type="string" name="LREAL"> Auto                  ! unpublished met</i>
  <i type="int" name="ISMEAR">     1</i>
  <i name="SIGMA">      0.15000000</i>
  <i type="logical" name="LWAVE"> F  </i>
  <i type="logical" name="LCHARG"> F  </i>
  <i type="logical" name="LVTOT"> F  </i>
  <v type="int" name="KPOINT_BSE">    -1     0     0     0</v>
  <i type="int" name="NELM">    70</i>
 </incar>
 <kpoints>
  <generation param="Gamma">
   <v type="int" name="divisions">       3        3        3 </v>
   <v name="usershift">      0.00000000       0.00000000       0.00000000 </v>
   <v name="genvec1">      0.33333333       0.00000000       0.00000000 </v>
   <v name="genvec2">      0.00000000       0.33333333       0.00000000 </v>
   <v name="genvec3">      0.00000000      -0.00000000       0.33333333 </v>
   <v name="shift">      0.00000000       0.00000000       0.00000000 </v>
  </generation>
  <varray name="kpointlist" >
   <v>       0.00000000       0.00000000       0.00000000 </v>
   <v>       0.33333333      -0.00000000       0.00000000 </v>
   <v>       0.00000000       0.33333333      -0.00000000 </v>
   <v>       0.33333333       0.33333333      -0.00000000 </v>
   <v>      -0.33333333       0.33333333      -0.00000000 </v>
   <v>       0.00000000       0.00000000       0.33333333 </v>
   <v>       0.33333333      -0.00000000       0.33333333 </v>
   <v>      -0.33333333      -0.00000000       0.33333333 </v>
   <v>      -0.00000000       0.33333333       0.33333333 </v>
   <v>       0.33333333       0.33333333       0.33333333 </v>
   <v>      -0.33333333       0.33333333       0.33333333 </v>
   <v>       0.00000000      -0.33333333       0.33333333 </v>
   <v>       0.33333333      -0.33333333       0.33333333 </v>
   <v>      -0.33333333      -0.33333333       0.33333333 </v>
  </varray>
  <varray name="weights" >
   <v>       0.03703704 </v>
   <v>       0.07407407 </v>
   <v>       0.07407407 </v>
   <v>       0.07407407 </v>
   <v>       0.07407407 </v>
   <v>       0.07407407 </v>
   <v>       0.07407407 </v>
   <v>       0.07407407 </v>
   <v>       0.07407407 </v>
   <v>       0.07407407 </v>
   <v>       0.07407407 </v>
   <v>       0.07407407 </v>
   <v>       0.07407407 </v>
   <v>       0.07407407 </v>
  </varray>
 </kpoints>
 <parameters>
  <separator name="general" >
   <i type="string" name="SYSTEM">automatically generated by mexm</i>
   <i type="logical" name="LCOMPAT"> F  </i>
  </separator>
  <separator name="electronic" >
   <i type="string" name="PREC">accura</i>
   <i name="ENMAX">    300.00000000</i>
   <i name="ENAUG">    461.25700000</i>
   <i name="EDIFF">      0.00001000</i>
   <i type="int" name="IALGO">    68</i>
   <i type="int" name="IWAVPR">    11</i>
   <i type="int" name="NBANDS">   172</i>
   <i name="NELECT">    288.00000000</i>
   <i type="int" name="TURBO">     0</i>
   <i type="int" name="IRESTART">     0</i>
   <i type="int" name="NREBOOT">     0</i>
   <i type="int" name="NMIN">     0</i>
   <i name="EREF">      0.00000000</i>
   <separator name="electronic smearing" >
    <i type="int" name="ISMEAR">     1</i>
    <i name="SIGMA">      0.15000000</i>
    <i name="KSPACING">      0.50000000</i>
    <i type="logical" name="KGAMMA"> T  </i>
   </separator>
   <separator name="electronic projectors" >
    <i type="logical" name="LREAL"> T  </i>
    <v name="ROPT">     -0.00025000     -0.00025000     -0.00025000     -0.00025000</v>
    <i type="int" name="LMAXPAW">  -100</i>
    <i type="int" name="LMAXMIX">     2</i>
    <i type="logical" name="NLSPLINE"> F  </i>
   </separator>
   <separator name="electronic startup" >
    <i type="int" name="ISTART">     0</i>
    <i type="int" name="ICHARG">     2</i>
    <i type="int" name="INIWAV">     1</i>
   </separator>
   <separator name="electronic spin" >
    <i type="int" name="ISPIN">     1</i>
    <i type="logical" name="LNONCOLLINEAR"> F  </i>
    <v name="MAGMOM">      1.00000000      1.00000000      1.00000000      1.00000000      1.00000000      1.00000000      1.00000000      1.00000000      1.00000000      1.00000000      1.00000000      1.00000000      1.00000000      1.00000000      1.00000000      1.00000000      1.00000000      1.00000000      1.00000000      1.00000000
      1.00000000      1.00000000      1.00000000      1.00000000      1.00000000      1.00000000      1.00000000      1.00000000      1.00000000      1.00000000      1.00000000      1.00000000      1.00000000      1.00000000      1.00000000      1.00000000</v>
    <i name="NUPDOWN">     -1.00000000</i>
    <i type="logical" name="LSORBIT"> F  </i>
    <v name="SAXIS">      0.00000000      0.00000000      1.00000000</v>
    <i type="logical" name="LSPIRAL"> F  </i>
    <v name="QSPIRAL">      0.00000000      0.00000000      0.00000000</v>
    <i type="logical" name="LZEROZ"> F  </i>
   </separator>
   <separator name="electronic exchange-correlation" >
    <i type="logical" name="LASPH"> F  </i>
    <i type="logical" name="LMETAGGA"> F  </i>
   </separator>
   <separator name="electronic convergence" >
    <i type="int" name="NELM">    70</i>
    <i type="int" name="NELMDL">    -5</i>
    <i type="int" name="NELMIN">     2</i>
    <i name="ENINI">    300.00000000</i>
    <separator name="electronic convergence detail" >
     <i type="logical" name="LDIAG"> T  </i>
     <i type="logical" name="LSUBROT"> F  </i>
     <i name="WEIMIN">      0.00100000</i>
     <i name="EBREAK">      0.00000001</i>
     <i name="DEPER">      0.30000000</i>
     <i type="int" name="NRMM">     4</i>
     <i name="TIME">      0.40000000</i>
    </separator>
   </separator>
   <separator name="electronic mixer" >
    <i name="AMIX">      0.40000000</i>
    <i name="BMIX">      1.00000000</i>
    <i name="AMIN">      0.10000000</i>
    <i name="AMIX_MAG">      1.60000000</i>
    <i name="BMIX_MAG">      1.00000000</i>
    <separator name="electronic mixer details" >
     <i type="int" name="IMIX">     4</i>
     <i type="logical" name="MIXFIRST"> F  </i>
     <i type="int" name="MAXMIX">   -45</i>
     <i name="WC">    100.00000000</i>
     <i type="int" name="INIMIX">     1</i>
     <i type="int" name="MIXPRE">     1</i>
     <i type="int" name="MREMOVE">     5</i>
    </separator>
   </separator>
   <separator name="electronic dipolcorrection" >
    <i type="logical" name="LDIPOL"> F  </i>
    <i type="logical" name="LMONO"> F  </i>
    <i type="int" name="IDIPOL">     0</i>
    <i name="EPSILON">      1.00000000</i>
    <v name="DIPOL">   -100.00000000   -100.00000000   -100.00000000</v>
    <i name="EFIELD">      0.00000000</i>
   </separator>
  </separator>
  <separator name="grids" >
   <i type="int" name="NGX">    40</i>
   <i type="int" name="NGY">    60</i>
   <i type="int" name="NGZ">    60</i>
   <i type="int" name="NGXF">    80</i>
   <i type="int" name="NGYF">   120</i>
   <i type="int" name="NGZF">   120</i>
   <i type="logical" name="ADDGRID"> F  </i>
  </separator>
  <separator name="ionic" >
   <i type="int" name="NSW">   300</i>
   <i type="int" name="IBRION">     2</i>
   <i type="int" name="ISIF">     3</i>
   <i name="PSTRESS">      0.00000000</i>
   <i name="EDIFFG">     -0.01000000</i>
   <i type="int" name="NFREE">     1</i>
   <i name="POTIM">      0.15000000</i>
   <i name="SMASS">     -3.00000000</i>
   <i name="SCALEE">      1.00000000</i>
  </separator>
  <separator name="ionic md" >
   <i name="TEBEG">      0.00010000</i>
   <i name="TEEND">      0.00010000</i>
   <i type="int" name="NBLOCK">     1</i>
   <i type="int" name="KBLOCK">   300</i>
   <i type="int" name="NPACO">   256</i>
   <i name="APACO">     16.00000000</i>
  </separator>
  <separator name="symmetry" >
   <i type="int" name="ISYM">     1</i>
   <i name="SYMPREC">      0.00001000</i>
  </separator>
  <separator name="dos" >
   <i type="logical" name="LORBIT"> F  </i>
   <v name="RWIGS">     -1.00000000     -1.00000000     -1.00000000     -1.00000000</v>
   <i type="int" name="NEDOS">   301</i>
   <i name="EMIN">     10.00000000</i>
   <i name="EMAX">    -10.00000000</i>
   <i name="EFERMI">      0.00000000</i>
  </separator>
  <separator name="writing" >
   <i type="int" name="NWRITE">     2</i>
   <i type="logical" name="LWAVE"> F  </i>
   <i type="logical" name="LCHARG"> F  </i>
   <i type="logical" name="LPARD"> F  </i>
   <i type="logical" name="LVTOT"> F  </i>
   <i type="logical" name="LVHAR"> F  </i>
   <i type="logical" name="LELF"> F  </i>
   <i type="logical" name="LOPTICS"> F  </i>
   <v name="STM">      0.00000000      0.00000000      0.00000000      0.00000000      0.00000000      0.00000000      0.00000000</v>
  </separator>
  <separator name="performance" >
   <i type="int" name="NPAR">     4</i>
   <i type="int" name="NSIM">     4</i>
   <i type="int" name="NBLK">    -1</i>
   <i type="logical" name="LPLANE"> T  </i>
   <i type="logical" name="LSCALAPACK"> T  </i>
   <i type="logical" name="LSCAAWARE"> F  </i>
   <i type="logical" name="LSCALU"> F  </i>
   <i type="logical" name="LASYNC"> F  </i>
   <i type="logical" name="LORBITALREAL"> F  </i>
  </separator>
  <separator name="miscellaneous" >
   <i type="int" name="IDIOT">     3</i>
   <i type="logical" name="LMUSIC"> F  </i>
   <v name="POMASS">     91.22400000    178.49000000    180.94800000     92.91000000</v>
   <v name="DARWINR">      0.00000000      0.00000000      0.00000000      0.00000000</v>
   <v name="DARWINV">      1.00000000      1.00000000      1.00000000      1.00000000</v>
   <i type="logical" name="LCORR"> T  </i>
  </separator>
  <i type="logical" name="GGA_COMPAT"> T  </i>
  <i type="logical" name="LBERRY"> F  </i>
  <i type="int" name="ICORELEVEL">     0</i>
  <i type="logical" name="LDAU"> F  </i>
  <i type="int" name="I_CONSTRAINED_M">     0</i>
  <separator name="electronic exchange-correlation" >
   <i type="string" name="GGA">--</i>
   <i type="int" name="VOSKOWN">     0</i>
   <i type="logical" name="LHFCALC"> F  </i>
   <i type="string" name="PRECFOCK"></i>
   <i type="logical" name="LSYMGRAD"> F  </i>
   <i type="logical" name="LHFONE"> F  </i>
   <i type="logical" name="LRHFCALC"> F  </i>
   <i type="logical" name="LTHOMAS"> F  </i>
   <i type="logical" name="LMODELHF"> F  </i>
   <i name="ENCUT4O">     -1.00000000</i>
   <i type="int" name="EXXOEP">     0</i>
   <i type="int" name="FOURORBIT">     0</i>
   <i name="AEXX">      0.00000000</i>
   <i name="HFALPHA">      0.00000000</i>
   <i name="MCALPHA">      0.00000000</i>
   <i name="ALDAX">      1.00000000</i>
   <i name="AGGAX">      1.00000000</i>
   <i name="ALDAC">      1.00000000</i>
   <i name="AGGAC">      1.00000000</i>
   <i type="int" name="NKREDX">     1</i>
   <i type="int" name="NKREDY">     1</i>
   <i type="int" name="NKREDZ">     1</i>
   <i type="logical" name="SHIFTRED"> F  </i>
   <i type="logical" name="ODDONLY"> F  </i>
   <i type="logical" name="EVENONLY"> F  </i>
   <i type="int" name="LMAXFOCK">     0</i>
   <i type="int" name="NMAXFOCKAE">     0</i>
   <i type="logical" name="LFOCKAEDFT"> F  </i>
   <i name="HFSCREEN">      0.00000000</i>
   <i name="HFSCREENC">      0.00000000</i>
   <i type="int" name="NBANDSGWLOW">     0</i>
  </separator>
  <separator name="vdW DFT" >
   <i type="logical" name="LUSE_VDW"> F  </i>
   <i name="Zab_VDW">     -0.84910000</i>
   <i name="PARAM1">      0.12340000</i>
   <i name="PARAM2">      1.00000000</i>
   <i name="PARAM3">      0.00000000</i>
  </separator>
  <separator name="model GW" >
   <i type="int" name="MODEL_GW">     0</i>
   <i name="MODEL_EPS0">     12.16444614</i>
   <i name="MODEL_ALPHA">      1.00000000</i>
  </separator>
  <separator name="linear response parameters" >
   <i type="logical" name="LEPSILON"> F  </i>
   <i type="logical" name="LRPA"> F  </i>
   <i type="logical" name="LNABLA"> F  </i>
   <i type="logical" name="LVEL"> F  </i>
   <i type="int" name="KINTER">     0</i>
   <i name="CSHIFT">      0.10000000</i>
   <i name="OMEGAMAX">     -1.00000000</i>
   <i name="DEG_THRESHOLD">      0.00200000</i>
  </separator>
  <separator name="orbital magnetization" >
   <i type="logical" name="NUCIND"> F  </i>
   <v name="MAGPOS">      0.00000000      0.00000000      0.00000000</v>
   <i type="logical" name="LNICSALL"> T  </i>
   <i type="logical" name="ORBITALMAG"> F  </i>
   <i type="logical" name="LMAGBLOCH"> F  </i>
   <i type="logical" name="LCHIMAG"> F  </i>
   <i type="logical" name="LGAUGE"> T  </i>
   <i type="int" name="MAGATOM">     0</i>
   <v name="MAGDIPOL">      0.00000000      0.00000000      0.00000000</v>
   <v name="AVECCONST">      0.00000000      0.00000000      0.00000000</v>
  </separator>
  <separator name="response functions" >
   <i type="logical" name="LADDER"> F  </i>
   <i type="logical" name="LFXC"> F  </i>
   <i type="logical" name="LHARTREE"> T  </i>
   <i type="int" name="IBSE">     0</i>
   <v type="int" name="KPOINT">    -1     0     0     0</v>
   <i type="logical" name="LTCTE"> F  </i>
   <i type="logical" name="LTETE"> F  </i>
   <i type="logical" name="LTRIPLET"> F  </i>
   <i type="logical" name="LFXCEPS"> F  </i>
   <i type="logical" name="LFXHEG"> F  </i>
   <i type="int" name="NATURALO">     0</i>
   <i type="logical" name="L2ORDER"> F  </i>
   <i type="logical" name="LUSEW"> F  </i>
   <i name="ENCUTGW">     -2.00000000</i>
   <i name="ENCUTGWSOFT">     -2.00000000</i>
   <i name="ENCUTLF">     -1.00000000</i>
   <i type="int" name="LMAXMP2">    -1</i>
   <i name="SCISSOR">      0.00000000</i>
   <i type="int" name="NOMEGA">     0</i>
   <i type="int" name="NOMEGAR">     0</i>
   <i type="int" name="NBANDSGW">    -1</i>
   <i type="int" name="NBANDSO">    -1</i>
   <i type="int" name="NBANDSV">    -1</i>
   <i type="int" name="NELM">    70</i>
   <i type="int" name="NELMHF">     1</i>
   <i type="int" name="DIM">     3</i>
   <i type="int" name="ANTIRES">     0</i>
   <i name="OMEGAMAX">    -30.00000000</i>
   <i name="OMEGAMIN">    -30.00000000</i>
   <i name="OMEGATL">   -200.00000000</i>
   <i type="int" name="OMEGAGRID">     0</i>
   <i name="CSHIFT">     -0.10000000</i>
   <i type="logical" name="SELFENERGY"> F  </i>
   <i type="logical" name="LSPECTRAL"> F  </i>
   <i type="logical" name="LSPECTRALGW"> F  </i>
   <i type="logical" name="LSINGLES"> F  </i>
   <i type="logical" name="LFERMIGW"> F  </i>
   <i type="logical" name="ODDONLYGW"> F  </i>
   <i type="logical" name="EVENONLYGW"> F  </i>
   <i type="int" name="NKREDLFX">     1</i>
   <i type="int" name="NKREDLFY">     1</i>
   <i type="int" name="NKREDLFZ">     1</i>
   <i type="int" name="MAXMEM">  1800</i>
   <i type="int" name="TELESCOPE">     0</i>
   <i type="int" name="TAUPAR">     1</i>
   <i type="int" name="OMEGAPAR">    -1</i>
   <i name="LAMBDA">      1.00000000</i>
  </separator>
  <separator name="External order field" >
   <i name="OFIELD_KAPPA">      0.00000000</i>
   <v name="OFIELD_K">      0.00000000      0.00000000      0.00000000</v>
   <i name="OFIELD_Q6_NEAR">      0.00000000</i>
   <i name="OFIELD_Q6_FAR">      0.00000000</i>
   <i name="OFIELD_A">      0.00000000</i>
  </separator>
 </parameters>
 <atominfo>
  <atoms>      36 </atoms>
  <types>       4 </types>
  <array name="atoms" >
   <dimension dim="1">ion</dimension>
   <field type="string">element</field>
   <field type="int">atomtype</field>
   <set>
    <rc><c>Zr</c><c>   1</c></rc>
    <rc><c>Zr</c><c>   1</c></rc>
    <rc><c>Zr</c><c>   1</c></rc>
    <rc><c>Zr</c><c>   1</c></rc>
    <rc><c>Zr</c><c>   1</c></rc>
    <rc><c>Zr</c><c>   1</c></rc>
    <rc><c>Zr</c><c>   1</c></rc>
    <rc><c>Zr</c><c>   1</c></rc>
    <rc><c>Hf</c><c>   2</c></rc>
    <rc><c>Hf</c><c>   2</c></rc>
    <rc><c>Hf</c><c>   2</c></rc>
    <rc><c>Hf</c><c>   2</c></rc>
    <rc><c>Hf</c><c>   2</c></rc>
    <rc><c>Hf</c><c>   2</c></rc>
    <rc><c>Hf</c><c>   2</c></rc>
    <rc><c>Hf</c><c>   2</c></rc>
    <rc><c>Hf</c><c>   2</c></rc>
    <rc><c>Hf</c><c>   2</c></rc>
    <rc><c>Hf</c><c>   2</c></rc>
    <rc><c>Hf</c><c>   2</c></rc>
    <rc><c>Ta</c><c>   3</c></rc>
    <rc><c>Ta</c><c>   3</c></rc>
    <rc><c>Ta</c><c>   3</c></rc>
    <rc><c>Ta</c><c>   3</c></rc>
    <rc><c>Ta</c><c>   3</c></rc>
    <rc><c>Ta</c><c>   3</c></rc>
    <rc><c>Ta</c><c>   3</c></rc>
    <rc><c>Ta</c><c>   3</c></rc>
    <rc><c>Nb</c><c>   4</c></rc>
    <rc><c>Nb</c><c>   4</c></rc>
    <rc><c>Nb</c><c>   4</c></rc>
    <rc><c>Nb</c><c>   4</c></rc>
    <rc><c>Nb</c><c>   4</c></rc>
    <rc><c>Nb</c><c>   4</c></rc>
    <rc><c>Nb</c><c>   4</c></rc>
    <rc><c>Nb</c><c>   4</c></rc>
   </set>
  </array>
  <array name="atomtypes" >
   <dimension dim="1">type</dimension>
   <field type="int">atomspertype</field>
   <field type="string">element</field>
   <field>mass</field>
   <field>valence</field>
   <field type="string">pseudopotential</field>
   <set>
    <rc><c>   8</c><c>Zr</c><c>     91.22400000</c><c>     12.00000000</c><c>  PAW_PBE Zr_sv 04Jan2005               </c></rc>
    <rc><c>  12</c><c>Hf</c><c>    178.49000000</c><c>      4.00000000</c><c>  PAW_PBE Hf 20Jan2003                  </c></rc>
    <rc><c>   8</c><c>Ta</c><c>    180.94800000</c><c>      5.00000000</c><c>  PAW_PBE Ta 17Jan2003                  </c></rc>
    <rc><c>   8</c><c>Nb</c><c>     92.91000000</c><c>     13.00000000</c><c>  PAW_PBE Nb_sv 25May2007               </c></rc>
   </set>
  </array>
 </atominfo>
 <structure name="initialpos" >
  <crystal>
   <varray name="basis" >
    <v>       6.95430274      -0.00213998      -0.01443118 </v>
    <v>      -0.00247919      10.22396036       0.04313890 </v>
    <v>      -0.02112549       0.04324865      10.26550800 </v>
   </varray>
   <i name="volume">    729.86676831 </i>
   <varray name="rec_basis" >
    <v>       0.14379649       0.00003362       0.00029578 </v>
    <v>       0.00002924       0.09781120      -0.00041202 </v>
    <v>       0.00020203      -0.00041099       0.09741574 </v>
   </varray>
  </crystal>
  <varray name="positions" >
   <v>       0.48702200       0.32357400       0.32824500 </v>
   <v>       0.74118000       0.49541500       0.49838300 </v>
   <v>       0.00659600       0.99343600       0.99780800 </v>
   <v>       0.50240100       0.00303300       0.33234100 </v>
   <v>       0.25912500       0.83664300       0.50592100 </v>
   <v>       0.77480400       0.17025200       0.16123600 </v>
   <v>       0.00502700       0.68543300       0.00115100 </v>
   <v>       0.00358000       0.32832200       0.66588200 </v>
   <v>       0.25397100       0.49727100       0.49886200 </v>
   <v>       0.47768400       0.32976000       0.99966500 </v>
   <v>       0.76689300       0.49618400       0.16491600 </v>
   <v>       0.26939800       0.82161300       0.81337500 </v>
   <v>       0.75160200       0.49989000       0.83491300 </v>
   <v>       0.22455200       0.49680400       0.17409400 </v>
   <v>       0.99402700       0.67846500       0.34045200 </v>
   <v>       0.49399500       0.67417900       0.01893100 </v>
   <v>       0.52138600       0.02742300       0.66865500 </v>
   <v>       0.98457300       0.00925400       0.66744600 </v>
   <v>       0.73076000       0.81395900       0.80879500 </v>
   <v>       0.49427000       0.00122800       0.99992500 </v>
   <v>       0.74842200       0.83832100       0.18341600 </v>
   <v>       0.24303500       0.16218100       0.49816800 </v>
   <v>       0.01529000       0.32347800       0.34708900 </v>
   <v>       0.24863500       0.50526100       0.82495300 </v>
   <v>       0.50227800       0.67279900       0.32705400 </v>
   <v>       0.48536300       0.64143000       0.65428700 </v>
   <v>       0.01203700       0.65559500       0.65646800 </v>
   <v>       0.99776400       0.99605400       0.33996700 </v>
   <v>       0.76197200       0.17387100       0.48870500 </v>
   <v>       0.22479400       0.16751000       0.17056300 </v>
   <v>       0.75758500       0.18426400       0.84952900 </v>
   <v>       0.24690500       0.17251800       0.83249900 </v>
   <v>       0.02592900       0.32996700       0.98673300 </v>
   <v>       0.74544500       0.82764200       0.50360000 </v>
   <v>       0.25139200       0.83696300       0.18312300 </v>
   <v>       0.49031400       0.33002300       0.67285000 </v>
  </varray>
 </structure>
 <calculation>
  <scstep>
   <time name="dav">    1.16    1.17</time>
   <time name="total">    1.34    1.59</time>
   <energy>
    <i name="alphaZ">   1452.40077943 </i>
    <i name="ewald"> -18218.35003165 </i>
    <i name="hartreedc">  -7283.60007929 </i>
    <i name="XCdc">   -316.13524671 </i>
    <i name="pawpsdc">  20899.74828540 </i>
    <i name="pawaedc"> -19300.11130347 </i>
    <i name="eentropy">     -0.00139011 </i>
    <i name="bandstr">   -108.97247708 </i>
    <i name="atom">  24670.23139789 </i>
    <i name="e_fr_energy">   1795.20993440 </i>
    <i name="e_wo_entrp">   1795.21132452 </i>
    <i name="e_0_energy">   1795.21039777 </i>
   </energy>
  </scstep>
  <scstep>
   <time name="dav">    0.96    1.05</time>
   <time name="total">    0.97    1.15</time>
   <energy>
    <i name="e_fr_energy">    -96.28644500 </i>
    <i name="e_wo_entrp">    -96.28764334 </i>
    <i name="e_0_energy">    -96.28684445 </i>
   </energy>
  </scstep>
  <scstep>
   <time name="dav">    1.38    1.40</time>
   <time name="total">    1.38    1.44</time>
   <energy>
    <i name="e_fr_energy">   -341.55607270 </i>
    <i name="e_wo_entrp">   -341.55824177 </i>
    <i name="e_0_energy">   -341.55679572 </i>
   </energy>
  </scstep>
  <scstep>
   <time name="dav">    1.37    1.38</time>
   <time name="total">    1.37    1.40</time>
   <energy>
    <i name="e_fr_energy">   -371.54861444 </i>
    <i name="e_wo_entrp">   -371.56074313 </i>
    <i name="e_0_energy">   -371.55265733 </i>
   </energy>
  </scstep>
  <scstep>
   <time name="dav">    1.41    1.46</time>
   <time name="total">    1.44    1.53</time>
   <energy>
    <i name="e_fr_energy">   -374.76020644 </i>
    <i name="e_wo_entrp">   -374.77507463 </i>
    <i name="e_0_energy">   -374.76516250 </i>
   </energy>
  </scstep>
  <scstep>
   <time name="diag">    0.08    0.08</time>
   <time name="diis">    0.70    0.72</time>
   <time name="orth">    0.01    0.01</time>
   <time name="total">    0.85    0.89</time>
   <energy>
    <i name="e_fr_energy">   -364.82760788 </i>
    <i name="e_wo_entrp">   -364.84705973 </i>
    <i name="e_0_energy">   -364.83409183 </i>
   </energy>
  </scstep>
  <scstep>
   <time name="diag">    0.07    0.08</time>
   <time name="diis">    0.74    0.74</time>
   <time name="orth">    0.01    0.01</time>
   <time name="total">    0.89    0.92</time>
   <energy>
    <i name="e_fr_energy">   -366.04592074 </i>
    <i name="e_wo_entrp">   -366.04281606 </i>
    <i name="e_0_energy">   -366.04488585 </i>
   </energy>
  </scstep>
  <scstep>
   <time name="diag">    0.07    0.08</time>
   <time name="diis">    0.74    0.76</time>
   <time name="orth">    0.01    0.01</time>
   <time name="total">    0.93    0.97</time>
   <energy>
    <i name="e_fr_energy">   -360.61731908 </i>
    <i name="e_wo_entrp">   -360.63189334 </i>
    <i name="e_0_energy">   -360.62217717 </i>
   </energy>
  </scstep>
  <scstep>
   <time name="diag">    0.13    0.13</time>
   <time name="diis">    0.84    0.86</time>
   <time name="orth">    0.01    0.01</time>
   <time name="total">    1.06    1.10</time>
   <energy>
    <i name="e_fr_energy">   -360.17914828 </i>
    <i name="e_wo_entrp">   -360.19730589 </i>
    <i name="e_0_energy">   -360.18520082 </i>
   </energy>
  </scstep>
  <scstep>
   <time name="diag">    0.12    0.14</time>
   <time name="diis">    0.88    0.90</time>
   <time name="orth">    0.01    0.01</time>
   <time name="total">    1.14    1.24</time>
   <energy>
    <i name="e_fr_energy">   -360.18916873 </i>
    <i name="e_wo_entrp">   -360.20353204 </i>
    <i name="e_0_energy">   -360.19395650 </i>
   </energy>
  </scstep>
  <scstep>
   <time name="diag">    0.08    0.08</time>
   <time name="diis">    0.78    0.81</time>
   <time name="orth">    0.01    0.01</time>
   <time name="total">    0.94    1.00</time>
   <energy>
    <i name="e_fr_energy">   -360.14495235 </i>
    <i name="e_wo_entrp">   -360.16061652 </i>
    <i name="e_0_energy">   -360.15017374 </i>
   </energy>
  </scstep>
  <scstep>
   <time name="diag">    0.07    0.07</time>
   <time name="diis">    0.77    0.78</time>
   <time name="orth">    0.01    0.01</time>
   <time name="total">    0.91    0.95</time>
   <energy>
    <i name="e_fr_energy">   -360.13885752 </i>
    <i name="e_wo_entrp">   -360.15466847 </i>
    <i name="e_0_energy">   -360.14412783 </i>
   </energy>
  </scstep>
  <scstep>
   <time name="diag">    0.08    0.08</time>
   <time name="diis">    0.76    0.78</time>
   <time name="orth">    0.01    0.01</time>
   <time name="total">    0.91    0.98</time>
   <energy>
    <i name="e_fr_energy">   -360.13790309 </i>
    <i name="e_wo_entrp">   -360.15374772 </i>
    <i name="e_0_energy">   -360.14318463 </i>
   </energy>
  </scstep>
  <scstep>
   <time name="diag">    0.07    0.07</time>
   <time name="diis">    0.76    0.78</time>
   <time name="orth">    0.01    0.01</time>
   <time name="total">    0.92    0.97</time>
   <energy>
    <i name="e_fr_energy">   -360.13772659 </i>
    <i name="e_wo_entrp">   -360.15292917 </i>
    <i name="e_0_energy">   -360.14279412 </i>
   </energy>
  </scstep>
  <scstep>
   <time name="diag">    0.07    0.07</time>
   <time name="diis">    0.83    0.86</time>
   <time name="orth">    0.01    0.01</time>
   <time name="total">    0.99    1.04</time>
   <energy>
    <i name="e_fr_energy">   -360.13783997 </i>
    <i name="e_wo_entrp">   -360.15334871 </i>
    <i name="e_0_energy">   -360.14300955 </i>
   </energy>
  </scstep>
  <scstep>
   <time name="diag">    0.07    0.08</time>
   <time name="diis">    0.77    0.79</time>
   <time name="orth">    0.02    0.02</time>
   <time name="total">    0.93    0.99</time>
   <energy>
    <i name="e_fr_energy">   -360.13808936 </i>
    <i name="e_wo_entrp">   -360.15358901 </i>
    <i name="e_0_energy">   -360.14325591 </i>
   </energy>
  </scstep>
  <scstep>
   <time name="diag">    0.08    0.14</time>
   <time name="diis">    0.74    0.75</time>
   <time name="orth">    0.01    0.01</time>
   <time name="total">    0.90    0.99</time>
   <energy>
    <i name="e_fr_energy">   -360.13813045 </i>
    <i name="e_wo_entrp">   -360.15363484 </i>
    <i name="e_0_energy">   -360.14329858 </i>
   </energy>
  </scstep>
  <scstep>
   <time name="diag">    0.07    0.08</time>
   <time name="diis">    0.66    0.67</time>
   <time name="orth">    0.01    0.01</time>
   <time name="total">    0.84    0.87</time>
   <energy>
    <i name="e_fr_energy">   -360.13816877 </i>
    <i name="e_wo_entrp">   -360.15369529 </i>
    <i name="e_0_energy">   -360.14334427 </i>
   </energy>
  </scstep>
  <scstep>
   <time name="diag">    0.07    0.07</time>
   <time name="diis">    0.53    0.54</time>
   <time name="orth">    0.02    0.02</time>
   <time name="total">    0.72    0.75</time>
   <energy>
    <i name="e_fr_energy">   -360.13819747 </i>
    <i name="e_wo_entrp">   -360.15370916 </i>
    <i name="e_0_energy">   -360.14336803 </i>
   </energy>
  </scstep>
  <scstep>
   <time name="diag">    0.15    0.16</time>
   <time name="diis">    0.46    0.50</time>
   <time name="orth">    0.01    0.01</time>
   <time name="total">    0.69    0.77</time>
   <energy>
    <i name="e_fr_energy">   -360.13821035 </i>
    <i name="e_wo_entrp">   -360.15373512 </i>
    <i name="e_0_energy">   -360.14338527 </i>
   </energy>
  </scstep>
  <scstep>
   <time name="diag">    0.08    0.08</time>
   <time name="diis">    0.42    0.43</time>
   <time name="orth">    0.01    0.01</time>
   <time name="total">    0.72    0.81</time>
   <energy>
    <i name="alphaZ">   1452.40077943 </i>
    <i name="ewald"> -18218.35003165 </i>
    <i name="hartreedc">  -7059.47536076 </i>
    <i name="XCdc">   -315.45932290 </i>
    <i name="pawpsdc">  33375.62673368 </i>
    <i name="pawaedc"> -31757.17085450 </i>
    <i name="eentropy">      0.01552643 </i>
    <i name="bandstr">  -2507.95708288 </i>
    <i name="atom">  24670.23139789 </i>
    <i name="e_fr_energy">   -360.13821527 </i>
    <i name="e_wo_entrp">   -360.15374169 </i>
    <i name="e_0_energy">   -360.14339074 </i>
   </energy>
  </scstep>
  <structure>
   <crystal>
    <varray name="basis" >
     <v>       6.95430274      -0.00213998      -0.01443118 </v>
     <v>      -0.00247919      10.22396036       0.04313890 </v>
     <v>      -0.02112549       0.04324865      10.26550800 </v>
    </varray>
    <i name="volume">    729.86676831 </i>
    <varray name="rec_basis" >
     <v>       0.14379649       0.00003362       0.00029578 </v>
     <v>       0.00002924       0.09781120      -0.00041202 </v>
     <v>       0.00020203      -0.00041099       0.09741574 </v>
    </varray>
   </crystal>
   <varray name="positions" >
    <v>       0.48702200       0.32357400       0.32824500 </v>
    <v>       0.74118000       0.49541500       0.49838300 </v>
    <v>       0.00659600       0.99343600       0.99780800 </v>
    <v>       0.50240100       0.00303300       0.33234100 </v>
    <v>       0.25912500       0.83664300       0.50592100 </v>
    <v>       0.77480400       0.17025200       0.16123600 </v>
    <v>       0.00502700       0.68543300       0.00115100 </v>
    <v>       0.00358000       0.32832200       0.66588200 </v>
    <v>       0.25397100       0.49727100       0.49886200 </v>
    <v>       0.47768400       0.32976000       0.99966500 </v>
    <v>       0.76689300       0.49618400       0.16491600 </v>
    <v>       0.26939800       0.82161300       0.81337500 </v>
    <v>       0.75160200       0.49989000       0.83491300 </v>
    <v>       0.22455200       0.49680400       0.17409400 </v>
    <v>       0.99402700       0.67846500       0.34045200 </v>
    <v>       0.49399500       0.67417900       0.01893100 </v>
    <v>       0.52138600       0.02742300       0.66865500 </v>
    <v>       0.98457300       0.00925400       0.66744600 </v>
    <v>       0.73076000       0.81395900       0.80879500 </v>
    <v>       0.49427000       0.00122800       0.99992500 </v>
    <v>       0.74842200       0.83832100       0.18341600 </v>
    <v>       0.24303500       0.16218100       0.49816800 </v>
    <v>       0.01529000       0.32347800       0.34708900 </v>
    <v>       0.24863500       0.50526100       0.82495300 </v>
    <v>       0.50227800       0.67279900       0.32705400 </v>
    <v>       0.48536300       0.64143000       0.65428700 </v>
    <v>       0.01203700       0.65559500       0.65646800 </v>
    <v>       0.99776400       0.99605400       0.33996700 </v>
    <v>       0.76197200       0.17387100       0.48870500 </v>
    <v>       0.22479400       0.16751000       0.17056300 </v>
    <v>       0.75758500       0.18426400       0.84952900 </v>
    <v>       0.24690500       0.17251800       0.83249900 </v>
    <v>       0.02592900       0.32996700       0.98673300 </v>
    <v>       0.74544500       0.82764200       0.50360000 </v>
    <v>       0.25139200       0.83696300       0.18312300 </v>
    <v>       0.49031400       0.33002300       0.67285000 </v>
   </varray>
  </structure>
  <varray name="forces" >
   <v>       0.14620464      -0.24483081      -0.25885100 </v>
   <v>      -0.01984560       0.01462552      -0.06619891 </v>
   <v>       0.01680888       0.00965131       0.00224655 </v>
   <v>       0.02877013      -0.00688375      -0.01237978 </v>
   <v>      -0.01354554       0.03784282      -0.01900658 </v>
   <v>       0.02682281       0.03505826       0.05030526 </v>
   <v>      -0.01444567       0.00269057       0.01162145 </v>
   <v>      -0.16279971      -0.16985817       0.16147592 </v>
   <v>       0.06109563      -0.21143435      -0.26568681 </v>
   <v>       0.00244741      -0.00588517       0.02065425 </v>
   <v>       0.01416727      -0.00244918       0.04997588 </v>
   <v>       0.00509577      -0.01645002      -0.02854363 </v>
   <v>      -0.01486823       0.03121905      -0.00056601 </v>
   <v>       0.01422203       0.01939727      -0.07014836 </v>
   <v>      -0.24071564       0.26033436      -0.09829220 </v>
   <v>      -0.00214834       0.01775907       0.01701246 </v>
   <v>       0.00575869       0.02035568       0.01329653 </v>
   <v>       0.00188066       0.01828522       0.01074790 </v>
   <v>       0.02390469      -0.03715123      -0.01442031 </v>
   <v>      -0.01130577      -0.00445159      -0.00253727 </v>
   <v>      -0.01398023      -0.06369462       0.01519084 </v>
   <v>       0.00754222       0.02858187       0.01700863 </v>
   <v>      -0.29881601      -0.41344707      -0.23332229 </v>
   <v>      -0.00301909      -0.03947924      -0.04037731 </v>
   <v>       0.26271681       0.26965708      -0.28652049 </v>
   <v>       0.40797375       0.29920657       0.48226348 </v>
   <v>      -0.38739540       0.45005776       0.35814274 </v>
   <v>      -0.04034373      -0.02956454      -0.01128570 </v>
   <v>      -0.00874517      -0.01161002      -0.01971610 </v>
   <v>      -0.00681248      -0.01037685       0.01607769 </v>
   <v>      -0.00193468       0.03878024      -0.05410777 </v>
   <v>       0.00346616      -0.00691859      -0.02050142 </v>
   <v>      -0.02896711      -0.00425684      -0.00541544 </v>
   <v>       0.01575310      -0.03551915      -0.00215894 </v>
   <v>       0.00227123      -0.03376800       0.01523678 </v>
   <v>       0.22278653      -0.20547350       0.26877998 </v>
  </varray>
  <varray name="stress" >
   <v>       7.29967898       0.02284816       0.07498979 </v>
   <v>       0.02284812       7.34433123       1.13844218 </v>
   <v>       0.07498980       1.13844220       6.43292861 </v>
  </varray>
  <energy>
   <i name="e_fr_energy">   -360.13821527 </i>
   <i name="e_wo_entrp">   -360.14339074 </i>
   <i name="e_0_energy">      0.01552643 </i>
  </energy>
  <time name="totalsc">   22.40   24.00</time>
 </calculation>
 <calculation>
  <scstep>
   <time name="dav">    1.01    1.04</time>
   <time name="total">    1.16    1.29</time>
   <energy>
    <i name="alphaZ">   1446.80894324 </i>
    <i name="ewald"> -18191.63933491 </i>
    <i name="hartreedc">  -7053.57826360 </i>
    <i name="XCdc">   -316.53478462 </i>
    <i name="pawpsdc">  33375.70987044 </i>
    <i name="pawaedc"> -31757.25504451 </i>
    <i name="eentropy">      0.01566454 </i>
    <i name="bandstr">  -2533.96487460 </i>
    <i name="atom">  24670.23139789 </i>
    <i name="e_fr_energy">   -360.20642612 </i>
    <i name="e_wo_entrp">   -360.22209067 </i>
    <i name="e_0_energy">   -360.21164764 </i>
   </energy>
  </scstep>
  <scstep>
   <time name="diag">    0.07    0.08</time>
   <time name="diis">    0.73    0.75</time>
   <time name="orth">    0.01    0.01</time>
   <time name="total">    0.88    0.93</time>
   <energy>
    <i name="e_fr_energy">   -360.19311869 </i>
    <i name="e_wo_entrp">   -360.20973217 </i>
    <i name="e_0_energy">   -360.19865651 </i>
   </energy>
  </scstep>
  <scstep>
   <time name="diag">    0.10    0.10</time>
   <time name="diis">    0.82    0.84</time>
   <time name="orth">    0.01    0.01</time>
   <time name="total">    0.99    1.04</time>
   <energy>
    <i name="e_fr_energy">   -360.18194320 </i>
    <i name="e_wo_entrp">   -360.19834146 </i>
    <i name="e_0_energy">   -360.18740929 </i>
   </energy>
  </scstep>
  <scstep>
   <time name="diag">    0.07    0.07</time>
   <time name="diis">    0.82    0.84</time>
   <time name="orth">    0.01    0.01</time>
   <time name="total">    0.97    1.02</time>
   <energy>
    <i name="e_fr_energy">   -360.17675525 </i>
    <i name="e_wo_entrp">   -360.19335869 </i>
    <i name="e_0_energy">   -360.18228973 </i>
   </energy>
  </scstep>
  <scstep>
   <time name="diag">    0.09    0.09</time>
   <time name="diis">    0.77    0.78</time>
   <time name="orth">    0.01    0.01</time>
   <time name="total">    0.96    1.00</time>
   <energy>
    <i name="e_fr_energy">   -360.17585781 </i>
    <i name="e_wo_entrp">   -360.19235409 </i>
    <i name="e_0_energy">   -360.18135657 </i>
   </energy>
  </scstep>
  <scstep>
   <time name="diag">    0.07    0.08</time>
   <time name="diis">    0.84    0.87</time>
   <time name="orth">    0.01    0.01</time>
   <time name="total">    0.99    1.08</time>
   <energy>
    <i name="e_fr_energy">   -360.17592791 </i>
    <i name="e_wo_entrp">   -360.19240325 </i>
    <i name="e_0_energy">   -360.18141969 </i>
   </energy>
  </scstep>
  <scstep>
   <time name="diag">    0.08    0.09</time>
   <time name="diis">    0.78    0.80</time>
   <time name="orth">    0.01    0.01</time>
   <time name="total">    0.94    0.99</time>
   <energy>
    <i name="e_fr_energy">   -360.17593750 </i>
    <i name="e_wo_entrp">   -360.19247681 </i>
    <i name="e_0_energy">   -360.18145060 </i>
   </energy>
  </scstep>
  <scstep>
   <time name="diag">    0.07    0.07</time>
   <time name="diis">    0.68    0.69</time>
   <time name="orth">    0.01    0.01</time>
   <time name="total">    0.83    0.87</time>
   <energy>
    <i name="e_fr_energy">   -360.17596231 </i>
    <i name="e_wo_entrp">   -360.19244364 </i>
    <i name="e_0_energy">   -360.18145608 </i>
   </energy>
  </scstep>
  <scstep>
   <time name="diag">    0.11    0.11</time>
   <time name="diis">    0.57    0.58</time>
   <time name="orth">    0.01    0.01</time>
   <time name="total">    0.76    0.79</time>
   <energy>
    <i name="e_fr_energy">   -360.17597871 </i>
    <i name="e_wo_entrp">   -360.19247114 </i>
    <i name="e_0_energy">   -360.18147618 </i>
   </energy>
  </scstep>
  <scstep>
   <time name="diag">    0.07    0.08</time>
   <time name="diis">    0.51    0.52</time>
   <time name="orth">    0.01    0.01</time>
   <time name="total">    0.63    0.66</time>
   <energy>
    <i name="alphaZ">   1446.80894324 </i>
    <i name="ewald"> -18191.63933491 </i>
    <i name="hartreedc">  -7069.26656031 </i>
    <i name="XCdc">   -315.86557559 </i>
    <i name="pawpsdc">  33203.42338229 </i>
    <i name="pawaedc"> -31585.01946379 </i>
    <i name="eentropy">      0.01650377 </i>
    <i name="bandstr">  -2518.86527702 </i>
    <i name="atom">  24670.23139789 </i>
    <i name="e_fr_energy">   -360.17598442 </i>
    <i name="e_wo_entrp">   -360.19248819 </i>
    <i name="e_0_energy">   -360.18148568 </i>
   </energy>
  </scstep>
  <structure>
   <crystal>
    <varray name="basis" >
     <v>       6.96359948      -0.00211677      -0.01435312 </v>
     <v>      -0.00243913      10.23772098       0.04532133 </v>
     <v>      -0.02101257       0.04544703      10.27761078 </v>
    </varray>
    <i name="volume">    732.68766282 </i>
    <varray name="rec_basis" >
     <v>       0.14360451       0.00003291       0.00029345 </v>
     <v>       0.00002880       0.09767991      -0.00043188 </v>
     <v>       0.00020042      -0.00043069       0.09730119 </v>
    </varray>
   </crystal>
   <varray name="positions" >
    <v>       0.48732504       0.32322902       0.32788194 </v>
    <v>       0.74113842       0.49543609       0.49828952 </v>
    <v>       0.00663100       0.99344966       0.99781116 </v>
    <v>       0.50246082       0.00302334       0.33232367 </v>
    <v>       0.25909675       0.83669668       0.50589394 </v>
    <v>       0.77486005       0.17030134       0.16130679 </v>
    <v>       0.00499699       0.68543673       0.00116733 </v>
    <v>       0.00324180       0.32808052       0.66611020 </v>
    <v>       0.25409691       0.49697330       0.49848885 </v>
    <v>       0.47768918       0.32975155       0.99969416 </v>
    <v>       0.76692270       0.49618024       0.16498652 </v>
    <v>       0.26940847       0.82158989       0.81333487 </v>
    <v>       0.75157107       0.49993419       0.83491197 </v>
    <v>       0.22458131       0.49683188       0.17399503 </v>
    <v>       0.99352574       0.67883401       0.34031117 </v>
    <v>       0.49399061       0.67420404       0.01895487 </v>
    <v>       0.52139805       0.02745174       0.66867364 </v>
    <v>       0.98457697       0.00927982       0.66746105 </v>
    <v>       0.73080967       0.81390650       0.80877496 </v>
    <v>       0.49424646       0.00122171       0.99992142 </v>
    <v>       0.74839294       0.83823074       0.18343776 </v>
    <v>       0.24305078       0.16222136       0.49819183 </v>
    <v>       0.01466692       0.32289399       0.34676163 </v>
    <v>       0.24862852       0.50520535       0.82489630 </v>
    <v>       0.50282365       0.67318255       0.32664921 </v>
    <v>       0.48621426       0.64185085       0.65496635 </v>
    <v>       0.01123253       0.65622980       0.65696913 </v>
    <v>       0.99767998       0.99601220       0.33995115 </v>
    <v>       0.76195371       0.17385468       0.48867725 </v>
    <v>       0.22477989       0.16749521       0.17058571 </v>
    <v>       0.75758076       0.18431922       0.84945248 </v>
    <v>       0.24691212       0.17250833       0.83247015 </v>
    <v>       0.02586869       0.32996099       0.98672531 </v>
    <v>       0.74547776       0.82759174       0.50359721 </v>
    <v>       0.25139678       0.83691511       0.18314469 </v>
    <v>       0.49077870       0.32973062       0.67323082 </v>
   </varray>
  </structure>
  <varray name="forces" >
   <v>       0.12332151      -0.23630603      -0.24534254 </v>
   <v>      -0.02658181       0.03279023      -0.04482511 </v>
   <v>       0.02175251       0.01352595       0.00896671 </v>
   <v>       0.02422113      -0.00861278      -0.00872281 </v>
   <v>      -0.01131136       0.02443710      -0.01152638 </v>
   <v>       0.03479475       0.02076560       0.03506213 </v>
   <v>      -0.00515078      -0.00047466       0.01121819 </v>
   <v>      -0.13627258      -0.15337048       0.13538729 </v>
   <v>       0.06250605      -0.15962943      -0.20028505 </v>
   <v>      -0.00959842      -0.00921107       0.01474889 </v>
   <v>       0.01596359      -0.00103223       0.04476798 </v>
   <v>       0.00196364      -0.01983334      -0.02926322 </v>
   <v>      -0.00911693       0.02453320       0.00562792 </v>
   <v>       0.00942552       0.01091000      -0.04619197 </v>
   <v>      -0.21944893       0.24264910      -0.08462906 </v>
   <v>      -0.00670827       0.01654001       0.01616477 </v>
   <v>       0.00489153       0.02570324       0.00499265 </v>
   <v>       0.00277028       0.01873613       0.00419429 </v>
   <v>       0.02029477      -0.02148081      -0.00332264 </v>
   <v>      -0.01323817       0.00032002       0.00143824 </v>
   <v>      -0.01369045      -0.04560693       0.00565083 </v>
   <v>      -0.00419253       0.02983282       0.01168186 </v>
   <v>      -0.25707668      -0.37631081      -0.19951916 </v>
   <v>      -0.00388590      -0.02483271      -0.05128348 </v>
   <v>       0.23920990       0.24188207      -0.26543056 </v>
   <v>       0.35156554       0.23480205       0.40931755 </v>
   <v>      -0.32975465       0.38168954       0.29980374 </v>
   <v>      -0.03275778      -0.02420589      -0.01011544 </v>
   <v>      -0.00280042      -0.02130534      -0.01523359 </v>
   <v>      -0.02082749      -0.01244902       0.00757652 </v>
   <v>      -0.00776154       0.04126404      -0.04372494 </v>
   <v>       0.00989684       0.00166624      -0.01396315 </v>
   <v>      -0.00982604      -0.00485660      -0.00784370 </v>
   <v>       0.01007262      -0.03580553       0.00782029 </v>
   <v>       0.00256297      -0.02686250       0.01698967 </v>
   <v>       0.18478761      -0.17986117       0.23981327 </v>
  </varray>
  <varray name="stress" >
   <v>       2.17060139       0.03163401       0.00071387 </v>
   <v>       0.03163404       2.25225730       0.94251747 </v>
   <v>       0.00071390       0.94251746       1.41509241 </v>
  </varray>
  <energy>
   <i name="e_fr_energy">   -360.17598442 </i>
   <i name="e_wo_entrp">   -360.18148568 </i>
   <i name="e_0_energy">      0.01650377 </i>
  </energy>
  <time name="totalsc">   10.64   11.27</time>
 </calculation>
 <calculation>
  <scstep>
   <time name="dav">    0.97    1.00</time>
   <time name="total">    1.14    1.28</time>
   <energy>
    <i name="alphaZ">   1430.20560417 </i>
    <i name="ewald"> -18111.30025169 </i>
    <i name="hartreedc">  -7052.05833010 </i>
    <i name="XCdc">   -319.08268122 </i>
    <i name="pawpsdc">  33202.99574689 </i>
    <i name="pawaedc"> -31584.70152069 </i>
    <i name="eentropy">      0.01630706 </i>
    <i name="bandstr">  -2596.79027077 </i>
    <i name="atom">  24670.23139789 </i>
    <i name="e_fr_energy">   -360.48399845 </i>
    <i name="e_wo_entrp">   -360.50030552 </i>
    <i name="e_0_energy">   -360.48943414 </i>
   </energy>
  </scstep>
  <scstep>
   <time name="diag">    0.07    0.08</time>
   <time name="diis">    0.73    0.76</time>
   <time name="orth">    0.01    0.01</time>
   <time name="total">    0.89    0.94</time>
   <energy>
    <i name="e_fr_energy">   -360.36785732 </i>
    <i name="e_wo_entrp">   -360.38726317 </i>
    <i name="e_0_energy">   -360.37432594 </i>
   </energy>
  </scstep>
  <scstep>
   <time name="diag">    0.08    0.08</time>
   <time name="diis">    0.77    0.79</time>
   <time name="orth">    0.01    0.01</time>
   <time name="total">    0.92    0.99</time>
   <energy>
    <i name="e_fr_energy">   -360.26033259 </i>
    <i name="e_wo_entrp">   -360.27918061 </i>
    <i name="e_0_energy">   -360.26661527 </i>
   </energy>
  </scstep>
  <scstep>
   <time name="diag">    0.08    0.08</time>
   <time name="diis">    0.77    0.79</time>
   <time name="orth">    0.01    0.01</time>
   <time name="total">    0.92    0.97</time>
   <energy>
    <i name="e_fr_energy">   -360.21613197 </i>
    <i name="e_wo_entrp">   -360.23550069 </i>
    <i name="e_0_energy">   -360.22258821 </i>
   </energy>
  </scstep>
  <scstep>
   <time name="diag">    0.08    0.08</time>
   <time name="diis">    0.82    0.84</time>
   <time name="orth">    0.01    0.01</time>
   <time name="total">    0.98    1.04</time>
   <energy>
    <i name="e_fr_energy">   -360.20757988 </i>
    <i name="e_wo_entrp">   -360.22678342 </i>
    <i name="e_0_energy">   -360.21398106 </i>
   </energy>
  </scstep>
  <scstep>
   <time name="diag">    0.07    0.07</time>
   <time name="diis">    0.85    0.87</time>
   <time name="orth">    0.01    0.01</time>
   <time name="total">    1.00    1.04</time>
   <energy>
    <i name="e_fr_energy">   -360.20842484 </i>
    <i name="e_wo_entrp">   -360.22752682 </i>
    <i name="e_0_energy">   -360.21479217 </i>
   </energy>
  </scstep>
  <scstep>
   <time name="diag">    0.07    0.08</time>
   <time name="diis">    0.84    0.86</time>
   <time name="orth">    0.01    0.01</time>
   <time name="total">    0.99    1.06</time>
   <energy>
    <i name="e_fr_energy">   -360.20873923 </i>
    <i name="e_wo_entrp">   -360.22796920 </i>
    <i name="e_0_energy">   -360.21514922 </i>
   </energy>
  </scstep>
  <scstep>
   <time name="diag">    0.08    0.08</time>
   <time name="diis">    0.82    0.84</time>
   <time name="orth">    0.01    0.01</time>
   <time name="total">    0.98    1.06</time>
   <energy>
    <i name="e_fr_energy">   -360.20911322 </i>
    <i name="e_wo_entrp">   -360.22827376 </i>
    <i name="e_0_energy">   -360.21550007 </i>
   </energy>
  </scstep>
  <scstep>
   <time name="diag">    0.07    0.07</time>
   <time name="diis">    0.76    0.78</time>
   <time name="orth">    0.01    0.01</time>
   <time name="total">    0.91    0.96</time>
   <energy>
    <i name="e_fr_energy">   -360.20935808 </i>
    <i name="e_wo_entrp">   -360.22846975 </i>
    <i name="e_0_energy">   -360.21572864 </i>
   </energy>
  </scstep>
  <scstep>
   <time name="diag">    0.08    0.08</time>
   <time name="diis">    0.73    0.74</time>
   <time name="orth">    0.01    0.01</time>
   <time name="total">    0.89    0.94</time>
   <energy>
    <i name="e_fr_energy">   -360.20948999 </i>
    <i name="e_wo_entrp">   -360.22868843 </i>
    <i name="e_0_energy">   -360.21588947 </i>
   </energy>
  </scstep>
  <scstep>
   <time name="diag">    0.08    0.08</time>
   <time name="diis">    0.64    0.66</time>
   <time name="orth">    0.01    0.01</time>
   <time name="total">    0.84    0.91</time>
   <energy>
    <i name="e_fr_energy">   -360.20953023 </i>
    <i name="e_wo_entrp">   -360.22870030 </i>
    <i name="e_0_energy">   -360.21592026 </i>
   </energy>
  </scstep>
  <scstep>
   <time name="diag">    0.10    0.11</time>
   <time name="diis">    0.58    0.60</time>
   <time name="orth">    0.01    0.01</time>
   <time name="total">    0.76    0.82</time>
   <energy>
    <i name="e_fr_energy">   -360.20953052 </i>
    <i name="e_wo_entrp">   -360.22870421 </i>
    <i name="e_0_energy">   -360.21592175 </i>
   </energy>
  </scstep>
  <scstep>
   <time name="diag">    0.07    0.08</time>
   <time name="diis">    0.50    0.51</time>
   <time name="orth">    0.01    0.01</time>
   <time name="total">    0.62    0.65</time>
   <energy>
    <i name="alphaZ">   1430.20560417 </i>
    <i name="ewald"> -18111.30025169 </i>
    <i name="hartreedc">  -7098.27620611 </i>
    <i name="XCdc">   -317.11219258 </i>
    <i name="pawpsdc">  32699.99500416 </i>
    <i name="pawaedc"> -31082.64035314 </i>
    <i name="eentropy">      0.01916209 </i>
    <i name="bandstr">  -2551.33169398 </i>
    <i name="atom">  24670.23139789 </i>
    <i name="e_fr_energy">   -360.20952917 </i>
    <i name="e_wo_entrp">   -360.22869126 </i>
    <i name="e_0_energy">   -360.21591654 </i>
   </energy>
  </scstep>
  <structure>
   <crystal>
    <varray name="basis" >
     <v>       6.99148969      -0.00204714      -0.01411894 </v>
     <v>      -0.00231895      10.27900284       0.05186861 </v>
     <v>      -0.02067381       0.05204217      10.31391915 </v>
    </varray>
    <i name="volume">    741.19347601 </i>
    <varray name="rec_basis" >
     <v>       0.14303162       0.00003082       0.00028655 </v>
     <v>       0.00002750       0.09728818      -0.00049084 </v>
     <v>       0.00019566      -0.00048922       0.09695922 </v>
    </varray>
   </crystal>
   <varray name="positions" >
    <v>       0.48823299       0.32219571       0.32679423 </v>
    <v>       0.74101386       0.49549934       0.49800941 </v>
    <v>       0.00673584       0.99349057       0.99782062 </v>
    <v>       0.50264003       0.00299441       0.33227175 </v>
    <v>       0.25901210       0.83685751       0.50581282 </v>
    <v>       0.77502799       0.17044912       0.16151889 </v>
    <v>       0.00490707       0.68544791       0.00121625 </v>
    <v>       0.00222855       0.32735690       0.66679414 </v>
    <v>       0.25447416       0.49608165       0.49737090 </v>
    <v>       0.47770469       0.32972620       0.99978155 </v>
    <v>       0.76701166       0.49616893       0.16519782 </v>
    <v>       0.26943986       0.82152066       0.81321463 </v>
    <v>       0.75147840       0.50006659       0.83490887 </v>
    <v>       0.22466912       0.49691548       0.17369843 </v>
    <v>       0.99202398       0.67993966       0.33988895 </v>
    <v>       0.49397746       0.67427903       0.01902639 </v>
    <v>       0.52143416       0.02753783       0.66872949 </v>
    <v>       0.98458886       0.00935717       0.66750613 </v>
    <v>       0.73095848       0.81374924       0.80871494 </v>
    <v>       0.49417593       0.00120286       0.99991068 </v>
    <v>       0.74830587       0.83796030       0.18350300 </v>
    <v>       0.24309807       0.16234227       0.49826322 </v>
    <v>       0.01280022       0.32114452       0.34578105 </v>
    <v>       0.24860913       0.50503867       0.82472643 </v>
    <v>       0.50445845       0.67433189       0.32543600 </v>
    <v>       0.48876458       0.64311129       0.65700170 </v>
    <v>       0.00882230       0.65813134       0.65847037 </v>
    <v>       0.99742824       0.99588697       0.33990367 </v>
    <v>       0.76189892       0.17380580       0.48859409 </v>
    <v>       0.22473760       0.16745089       0.17065377 </v>
    <v>       0.75756806       0.18448470       0.84922315 </v>
    <v>       0.24693346       0.17247938       0.83238369 </v>
    <v>       0.02568800       0.32994301       0.98670225 </v>
    <v>       0.74557590       0.82744116       0.50358889 </v>
    <v>       0.25141108       0.83677161       0.18320971 </v>
    <v>       0.49217092       0.32885443       0.67437211 </v>
   </varray>
  </structure>
  <varray name="forces" >
   <v>       0.05568143      -0.20904955      -0.20253506 </v>
   <v>      -0.04669555       0.08096986       0.01500622 </v>
   <v>       0.03537279       0.02826241       0.03102318 </v>
   <v>       0.00884922      -0.01568645       0.00168941 </v>
   <v>      -0.00505823      -0.01479019       0.00936132 </v>
   <v>       0.05882626      -0.02278355      -0.01237488 </v>
   <v>       0.02243963      -0.01156878       0.01185899 </v>
   <v>      -0.05729870      -0.10865735       0.06052086 </v>
   <v>       0.06543574      -0.01959118      -0.02140257 </v>
   <v>      -0.04486423      -0.02018060      -0.00434566 </v>
   <v>       0.02125852       0.00504370       0.02884658 </v>
   <v>      -0.00859647      -0.02929432      -0.03203919 </v>
   <v>       0.00916089       0.00921127       0.02373450 </v>
   <v>      -0.00476283      -0.01170169       0.01719596 </v>
   <v>      -0.15580375       0.19261914      -0.04931184 </v>
   <v>      -0.01977959       0.01336777       0.01237201 </v>
   <v>      -0.00146166       0.03835048      -0.01707460 </v>
   <v>       0.01032445       0.01648069      -0.01348635 </v>
   <v>       0.01002508       0.02703120       0.03414451 </v>
   <v>      -0.01842727       0.01520776       0.01403094 </v>
   <v>      -0.01391664       0.00948211      -0.02566152 </v>
   <v>      -0.04000147       0.03120072      -0.00535728 </v>
   <v>      -0.13316654      -0.26694708      -0.10375679 </v>
   <v>      -0.00544528       0.01752211      -0.07742023 </v>
   <v>       0.17171254       0.16154028      -0.20549461 </v>
   <v>       0.19741381       0.05758041       0.20461459 </v>
   <v>      -0.17552567       0.19586472       0.13978804 </v>
   <v>      -0.00905839      -0.00894562      -0.00822527 </v>
   <v>       0.01394807      -0.04811466      -0.00511601 </v>
   <v>      -0.06290427      -0.02023760      -0.02180758 </v>
   <v>      -0.02237994       0.04918868      -0.01171556 </v>
   <v>       0.02738905       0.03077239       0.00606914 </v>
   <v>       0.04486267      -0.01147685      -0.01429865 </v>
   <v>      -0.00734136      -0.03888243       0.03925583 </v>
   <v>       0.00341051      -0.00939671       0.02180890 </v>
   <v>       0.07637719      -0.11239108       0.16010268 </v>
  </varray>
  <varray name="stress" >
   <v>     -13.34396265       0.04420586      -0.25025503 </v>
   <v>       0.04420588     -13.08597786       0.36616816 </v>
   <v>      -0.25025501       0.36616821     -13.75236502 </v>
  </varray>
  <energy>
   <i name="e_fr_energy">   -360.20952917 </i>
   <i name="e_wo_entrp">   -360.21591654 </i>
   <i name="e_0_energy">      0.01916209 </i>
  </energy>
  <time name="totalsc">   13.51   14.44</time>
 </calculation>
 <calculation>
  <scstep>
   <time name="dav">    1.03    1.06</time>
   <time name="total">    1.19    1.33</time>
   <energy>
    <i name="alphaZ">   1433.66343215 </i>
    <i name="ewald"> -18128.15313187 </i>
    <i name="hartreedc">  -7101.80647129 </i>
    <i name="XCdc">   -316.44045166 </i>
    <i name="pawpsdc">  32699.60504374 </i>
    <i name="pawaedc"> -31082.27414432 </i>
    <i name="eentropy">      0.01908685 </i>
    <i name="bandstr">  -2535.06904293 </i>
    <i name="atom">  24670.23139789 </i>
    <i name="e_fr_energy">   -360.22428146 </i>
    <i name="e_wo_entrp">   -360.24336831 </i>
    <i name="e_0_energy">   -360.23064374 </i>
   </energy>
  </scstep>
  <scstep>
   <time name="diag">    0.09    0.10</time>
   <time name="diis">    0.78    0.80</time>
   <time name="orth">    0.01    0.01</time>
   <time name="total">    0.94    1.03</time>
   <energy>
    <i name="e_fr_energy">   -360.21880759 </i>
    <i name="e_wo_entrp">   -360.23736404 </i>
    <i name="e_0_energy">   -360.22499307 </i>
   </energy>
  </scstep>
  <scstep>
   <time name="diag">    0.07    0.07</time>
   <time name="diis">    0.76    0.78</time>
   <time name="orth">    0.01    0.01</time>
   <time name="total">    0.91    0.98</time>
   <energy>
    <i name="e_fr_energy">   -360.21440195 </i>
    <i name="e_wo_entrp">   -360.23308693 </i>
    <i name="e_0_energy">   -360.22063028 </i>
   </energy>
  </scstep>
  <scstep>
   <time name="diag">    0.07    0.07</time>
   <time name="diis">    0.76    0.78</time>
   <time name="orth">    0.01    0.01</time>
   <time name="total">    0.91    0.95</time>
   <energy>
    <i name="e_fr_energy">   -360.21239179 </i>
    <i name="e_wo_entrp">   -360.23098654 </i>
    <i name="e_0_energy">   -360.21859004 </i>
   </energy>
  </scstep>
  <scstep>
   <time name="diag">    0.07    0.07</time>
   <time name="diis">    0.75    0.77</time>
   <time name="orth">    0.01    0.01</time>
   <time name="total">    0.90    0.94</time>
   <energy>
    <i name="e_fr_energy">   -360.21205235 </i>
    <i name="e_wo_entrp">   -360.23069277 </i>
    <i name="e_0_energy">   -360.21826582 </i>
   </energy>
  </scstep>
  <scstep>
   <time name="diag">    0.08    0.08</time>
   <time name="diis">    0.76    0.77</time>
   <time name="orth">    0.01    0.01</time>
   <time name="total">    0.91    0.95</time>
   <energy>
    <i name="e_fr_energy">   -360.21211436 </i>
    <i name="e_wo_entrp">   -360.23076843 </i>
    <i name="e_0_energy">   -360.21833238 </i>
   </energy>
  </scstep>
  <scstep>
   <time name="diag">    0.07    0.08</time>
   <time name="diis">    0.71    0.73</time>
   <time name="orth">    0.01    0.01</time>
   <time name="total">    0.86    0.91</time>
   <energy>
    <i name="e_fr_energy">   -360.21215009 </i>
    <i name="e_wo_entrp">   -360.23077549 </i>
    <i name="e_0_energy">   -360.21835855 </i>
   </energy>
  </scstep>
  <scstep>
   <time name="diag">    0.08    0.08</time>
   <time name="diis">    0.67    0.69</time>
   <time name="orth">    0.01    0.01</time>
   <time name="total">    0.83    0.87</time>
   <energy>
    <i name="e_fr_energy">   -360.21218334 </i>
    <i name="e_wo_entrp">   -360.23082924 </i>
    <i name="e_0_energy">   -360.21839864 </i>
   </energy>
  </scstep>
  <scstep>
   <time name="diag">    0.07    0.08</time>
   <time name="diis">    0.43    0.44</time>
   <time name="orth">    0.01    0.01</time>
   <time name="total">    0.58    0.61</time>
   <energy>
    <i name="e_fr_energy">   -360.21220483 </i>
    <i name="e_wo_entrp">   -360.23085785 </i>
    <i name="e_0_energy">   -360.21842250 </i>
   </energy>
  </scstep>
  <scstep>
   <time name="diag">    0.08    0.08</time>
   <time name="diis">    0.39    0.40</time>
   <time name="orth">    0.01    0.01</time>
   <time name="total">    0.55    0.58</time>
   <energy>
    <i name="e_fr_energy">   -360.21221956 </i>
    <i name="e_wo_entrp">   -360.23085664 </i>
    <i name="e_0_energy">   -360.21843192 </i>
   </energy>
  </scstep>
  <scstep>
   <time name="diag">    0.07    0.07</time>
   <time name="diis">    0.38    0.39</time>
   <time name="orth">    0.01    0.01</time>
   <time name="total">    0.50    0.53</time>
   <energy>
    <i name="alphaZ">   1433.66343215 </i>
    <i name="ewald"> -18128.15313187 </i>
    <i name="hartreedc">  -7091.91008129 </i>
    <i name="XCdc">   -316.86104612 </i>
    <i name="pawpsdc">  32800.48942690 </i>
    <i name="pawaedc"> -31183.15931831 </i>
    <i name="eentropy">      0.01864322 </i>
    <i name="bandstr">  -2544.53154965 </i>
    <i name="atom">  24670.23139789 </i>
    <i name="e_fr_energy">   -360.21222708 </i>
    <i name="e_wo_entrp">   -360.23087031 </i>
    <i name="e_0_energy">   -360.21844149 </i>
   </energy>
  </scstep>
  <structure>
   <crystal>
    <varray name="basis" >
     <v>       6.98564558      -0.00206173      -0.01416801 </v>
     <v>      -0.00234413      10.27035265       0.05049669 </v>
     <v>      -0.02074479       0.05066023      10.30631110 </v>
    </varray>
    <i name="volume">    739.40580431 </i>
    <varray name="rec_basis" >
     <v>       0.14315129       0.00003126       0.00028798 </v>
     <v>       0.00002777       0.09737000      -0.00047856 </v>
     <v>       0.00019665      -0.00047703       0.09703067 </v>
    </varray>
   </crystal>
   <varray name="positions" >
    <v>       0.48804348       0.32241122       0.32702122 </v>
    <v>       0.74103985       0.49548610       0.49806790 </v>
    <v>       0.00671396       0.99348203       0.99781865 </v>
    <v>       0.50260263       0.00300045       0.33228259 </v>
    <v>       0.25902977       0.83682394       0.50582978 </v>
    <v>       0.77499294       0.17041830       0.16147463 </v>
    <v>       0.00492584       0.68544558       0.00120603 </v>
    <v>       0.00244002       0.32750801       0.66665123 </v>
    <v>       0.25439541       0.49626759       0.49760422 </v>
    <v>       0.47770146       0.32973150       0.99976330 </v>
    <v>       0.76699310       0.49617132       0.16515370 </v>
    <v>       0.26943331       0.82153509       0.81323973 </v>
    <v>       0.75149774       0.50003895       0.83490953 </v>
    <v>       0.22465079       0.49689800       0.17376037 </v>
    <v>       0.99233741       0.67970886       0.33997725 </v>
    <v>       0.49398020       0.67426339       0.01901147 </v>
    <v>       0.52142662       0.02751987       0.66871784 </v>
    <v>       0.98458638       0.00934103       0.66749673 </v>
    <v>       0.73092742       0.81378206       0.80872745 </v>
    <v>       0.49419065       0.00120679       0.99991292 </v>
    <v>       0.74832404       0.83801675       0.18348934 </v>
    <v>       0.24308820       0.16231705       0.49824833 </v>
    <v>       0.01318979       0.32150950       0.34598556 </v>
    <v>       0.24861317       0.50507343       0.82476188 </v>
    <v>       0.50411725       0.67409187       0.32568948 </v>
    <v>       0.48823235       0.64284851       0.65657689 </v>
    <v>       0.00932535       0.65773469       0.65815714 </v>
    <v>       0.99748078       0.99591310       0.33991357 </v>
    <v>       0.76191035       0.17381599       0.48861145 </v>
    <v>       0.22474643       0.16746015       0.17063955 </v>
    <v>       0.75757071       0.18445014       0.84927106 </v>
    <v>       0.24692901       0.17248541       0.83240174 </v>
    <v>       0.02572571       0.32994676       0.98670706 </v>
    <v>       0.74555542       0.82747258       0.50359061 </v>
    <v>       0.25140810       0.83680157       0.18319612 </v>
    <v>       0.49188037       0.32903744       0.67413370 </v>
   </varray>
  </structure>
  <varray name="forces" >
   <v>       0.06949144      -0.21518311      -0.21254401 </v>
   <v>      -0.04255236       0.07141655       0.00294882 </v>
   <v>       0.03256837       0.02538148       0.02675634 </v>
   <v>       0.01191353      -0.01425867      -0.00077542 </v>
   <v>      -0.00611520      -0.00774956       0.00522655 </v>
   <v>       0.05414111      -0.01410856      -0.00283996 </v>
   <v>       0.01659084      -0.00892229       0.01181083 </v>
   <v>      -0.07350886      -0.11719124       0.07571082 </v>
   <v>       0.06484234      -0.04703669      -0.05740720 </v>
   <v>      -0.03739001      -0.01770694      -0.00023213 </v>
   <v>       0.02029675       0.00386441       0.03184151 </v>
   <v>      -0.00653544      -0.02728591      -0.03127796 </v>
   <v>       0.00536331       0.01240760       0.01965403 </v>
   <v>      -0.00196792      -0.00681539       0.00494007 </v>
   <v>      -0.16922677       0.20320250      -0.05628561 </v>
   <v>      -0.01713995       0.01383838       0.01317473 </v>
   <v>      -0.00077070       0.03549602      -0.01197172 </v>
   <v>       0.00934959       0.01671336      -0.00904291 </v>
   <v>       0.01248990       0.01643636       0.02611128 </v>
   <v>      -0.01751847       0.01232944       0.01072355 </v>
   <v>      -0.01367955      -0.00229824      -0.01861936 </v>
   <v>      -0.03269496       0.03149573      -0.00153885 </v>
   <v>      -0.15903078      -0.29053944      -0.12450187 </v>
   <v>      -0.00560329       0.00916227      -0.07363974 </v>
   <v>       0.18606887       0.17877243      -0.21851443 </v>
   <v>       0.22865302       0.09384893       0.24751195 </v>
   <v>      -0.20683444       0.23383726       0.17276714 </v>
   <v>      -0.01365226      -0.01242810      -0.00872705 </v>
   <v>       0.01040045      -0.04182874      -0.00757837 </v>
   <v>      -0.05441756      -0.01811035      -0.01528380 </v>
   <v>      -0.01900014       0.04789233      -0.01805765 </v>
   <v>       0.02345879       0.02495498       0.00194138 </v>
   <v>       0.03308773      -0.01086634      -0.01297614 </v>
   <v>      -0.00379912      -0.03902456       0.03224909 </v>
   <v>       0.00293498      -0.01325271       0.02052316 </v>
   <v>       0.09978677      -0.12644318       0.17792293 </v>
  </varray>
  <varray name="stress" >
   <v>     -10.33445800       0.03840856      -0.20268525 </v>
   <v>       0.03840855     -10.12412839       0.48779246 </v>
   <v>      -0.20268521       0.48779249     -10.81616282 </v>
  </varray>
  <energy>
   <i name="e_fr_energy">   -360.21222708 </i>
   <i name="e_wo_entrp">   -360.21844149 </i>
   <i name="e_0_energy">      0.01864322 </i>
  </energy>
  <time name="totalsc">   10.79   11.49</time>
 </calculation>
 <calculation>
  <scstep>
   <time name="dav">    0.90    0.92</time>
   <time name="total">    1.05    1.18</time>
   <energy>
    <i name="alphaZ">   1436.62438212 </i>
    <i name="ewald"> -18135.15004374 </i>
    <i name="hartreedc">  -7102.01420526 </i>
    <i name="XCdc">   -316.26576781 </i>
    <i name="pawpsdc">  32800.67889128 </i>
    <i name="pawaedc"> -31183.31539019 </i>
    <i name="eentropy">      0.01815404 </i>
    <i name="bandstr">  -2531.05453259 </i>
    <i name="atom">  24670.23139789 </i>
    <i name="e_fr_energy">   -360.24711425 </i>
    <i name="e_wo_entrp">   -360.26526829 </i>
    <i name="e_0_energy">   -360.25316559 </i>
   </energy>
  </scstep>
  <scstep>
   <time name="diag">    0.08    0.08</time>
   <time name="diis">    0.70    0.72</time>
   <time name="orth">    0.01    0.01</time>
   <time name="total">    0.85    0.89</time>
   <energy>
    <i name="e_fr_energy">   -360.24765055 </i>
    <i name="e_wo_entrp">   -360.26618598 </i>
    <i name="e_0_energy">   -360.25382903 </i>
   </energy>
  </scstep>
  <scstep>
   <time name="diag">    0.09    0.09</time>
   <time name="diis">    0.77    0.79</time>
   <time name="orth">    0.01    0.01</time>
   <time name="total">    0.93    0.98</time>
   <energy>
    <i name="e_fr_energy">   -360.24351918 </i>
    <i name="e_wo_entrp">   -360.26183846 </i>
    <i name="e_0_energy">   -360.24962561 </i>
   </energy>
  </scstep>
  <scstep>
   <time name="diag">    0.07    0.08</time>
   <time name="diis">    0.74    0.77</time>
   <time name="orth">    0.01    0.01</time>
   <time name="total">    0.89    0.94</time>
   <energy>
    <i name="e_fr_energy">   -360.24228037 </i>
    <i name="e_wo_entrp">   -360.26058909 </i>
    <i name="e_0_energy">   -360.24838327 </i>
   </energy>
  </scstep>
  <scstep>
   <time name="diag">    0.07    0.07</time>
   <time name="diis">    0.74    0.76</time>
   <time name="orth">    0.01    0.01</time>
   <time name="total">    0.89    0.93</time>
   <energy>
    <i name="e_fr_energy">   -360.24197985 </i>
    <i name="e_wo_entrp">   -360.26021613 </i>
    <i name="e_0_energy">   -360.24805861 </i>
   </energy>
  </scstep>
  <scstep>
   <time name="diag">    0.07    0.08</time>
   <time name="diis">    0.81    0.83</time>
   <time name="orth">    0.01    0.01</time>
   <time name="total">    0.97    1.02</time>
   <energy>
    <i name="e_fr_energy">   -360.24201242 </i>
    <i name="e_wo_entrp">   -360.26033194 </i>
    <i name="e_0_energy">   -360.24811893 </i>
   </energy>
  </scstep>
  <scstep>
   <time name="diag">    0.07    0.07</time>
   <time name="diis">    0.66    0.68</time>
   <time name="orth">    0.01    0.01</time>
   <time name="total">    0.81    0.85</time>
   <energy>
    <i name="e_fr_energy">   -360.24204441 </i>
    <i name="e_wo_entrp">   -360.26028006 </i>
    <i name="e_0_energy">   -360.24812296 </i>
   </energy>
  </scstep>
  <scstep>
   <time name="diag">    0.07    0.07</time>
   <time name="diis">    0.62    0.63</time>
   <time name="orth">    0.01    0.01</time>
   <time name="total">    0.77    0.81</time>
   <energy>
    <i name="e_fr_energy">   -360.24206706 </i>
    <i name="e_wo_entrp">   -360.26034559 </i>
    <i name="e_0_energy">   -360.24815990 </i>
   </energy>
  </scstep>
  <scstep>
   <time name="diag">    0.07    0.08</time>
   <time name="diis">    0.50    0.51</time>
   <time name="orth">    0.01    0.01</time>
   <time name="total">    0.65    0.69</time>
   <energy>
    <i name="e_fr_energy">   -360.24208641 </i>
    <i name="e_wo_entrp">   -360.26034894 </i>
    <i name="e_0_energy">   -360.24817392 </i>
   </energy>
  </scstep>
  <scstep>
   <time name="diag">    0.07    0.07</time>
   <time name="diis">    0.49    0.50</time>
   <time name="orth">    0.01    0.01</time>
   <time name="total">    0.60    0.65</time>
   <energy>
    <i name="alphaZ">   1436.62438212 </i>
    <i name="ewald"> -18135.15004374 </i>
    <i name="hartreedc">  -7094.25230557 </i>
    <i name="XCdc">   -316.60360555 </i>
    <i name="pawpsdc">  32890.31764209 </i>
    <i name="pawaedc"> -31272.81041672 </i>
    <i name="eentropy">      0.01826785 </i>
    <i name="bandstr">  -2538.61741340 </i>
    <i name="atom">  24670.23139789 </i>
    <i name="e_fr_energy">   -360.24209503 </i>
    <i name="e_wo_entrp">   -360.26036287 </i>
    <i name="e_0_energy">   -360.24818431 </i>
   </energy>
  </scstep>
  <structure>
   <crystal>
    <varray name="basis" >
     <v>       6.98122341      -0.00199707      -0.01431223 </v>
     <v>      -0.00224542      10.26428215       0.05296271 </v>
     <v>      -0.02096069       0.05314704      10.29769716 </v>
    </varray>
    <i name="volume">    737.88185441 </i>
    <varray name="rec_basis" >
     <v>       0.14324198       0.00002983       0.00029141 </v>
     <v>       0.00002684       0.09742783      -0.00050278 </v>
     <v>       0.00019895      -0.00050105       0.09711208 </v>
    </varray>
   </crystal>
   <varray name="positions" >
    <v>       0.48840749       0.32187474       0.32647470 </v>
    <v>       0.74092961       0.49559129       0.49799752 </v>
    <v>       0.00680097       0.99352410       0.99785413 </v>
    <v>       0.50267135       0.00297518       0.33226813 </v>
    <v>       0.25899643       0.83685647       0.50581497 </v>
    <v>       0.77513572       0.17043956       0.16152696 </v>
    <v>       0.00493256       0.68543737       0.00123356 </v>
    <v>       0.00204046       0.32717228       0.66692488 </v>
    <v>       0.25461240       0.49597593       0.49724053 </v>
    <v>       0.47763731       0.32970287       0.99978596 </v>
    <v>       0.76705357       0.49617294       0.16524852 </v>
    <v>       0.26942949       0.82148329       0.81316968 </v>
    <v>       0.75148330       0.50008895       0.83493294 </v>
    <v>       0.22467024       0.49691147       0.17368870 </v>
    <v>       0.99163479       0.68025124       0.33979510 </v>
    <v>       0.49394554       0.67430013       0.01904638 </v>
    <v>       0.52143465       0.02758655       0.66871745 </v>
    <v>       0.98460652       0.00938211       0.66749729 </v>
    <v>       0.73098933       0.81376106       0.80874394 </v>
    <v>       0.49414024       0.00121708       0.99992325 </v>
    <v>       0.74827619       0.83794308       0.18348345 </v>
    <v>       0.24304097       0.16238782       0.49826486 </v>
    <v>       0.01240964       0.32069110       0.34557600 </v>
    <v>       0.24859760       0.50504156       0.82462622 </v>
    <v>       0.50488463       0.67461662       0.32510027 </v>
    <v>       0.48931912       0.64329377       0.65741667 </v>
    <v>       0.00831673       0.65852213       0.65876240 </v>
    <v>       0.99738983       0.99586490       0.33989038 </v>
    <v>       0.76191491       0.17375133       0.48858055 </v>
    <v>       0.22463601       0.16742612       0.17063849 </v>
    <v>       0.75753268       0.18455308       0.84918821 </v>
    <v>       0.24697741       0.17250878       0.83238137 </v>
    <v>       0.02573863       0.32992865       0.98668513 </v>
    <v>       0.74557433       0.82738448       0.50362855 </v>
    <v>       0.25141727       0.83674736       0.18323865 </v>
    <v>       0.49242806       0.32864960       0.67465419 </v>
   </varray>
  </structure>
  <varray name="forces" >
   <v>       0.05694833      -0.18277322      -0.18827992 </v>
   <v>      -0.04318422       0.07695697       0.01397592 </v>
   <v>       0.03210099       0.02352615       0.02588856 </v>
   <v>       0.00381294      -0.01437103       0.00792741 </v>
   <v>       0.00083601      -0.01324601       0.01550873 </v>
   <v>       0.03931761      -0.03016745      -0.02704383 </v>
   <v>       0.02441373      -0.01961482       0.00420023 </v>
   <v>      -0.05206234      -0.08856224       0.04431422 </v>
   <v>       0.05693867      -0.00859474      -0.00733603 </v>
   <v>      -0.03182833      -0.00881256       0.00138797 </v>
   <v>       0.01330892       0.00233711       0.02305899 </v>
   <v>      -0.01447421      -0.01243923      -0.02198682 </v>
   <v>       0.01381258       0.00772486       0.03838687 </v>
   <v>       0.00189351      -0.00759402       0.02470299 </v>
   <v>      -0.13250127       0.15889152      -0.04013371 </v>
   <v>      -0.01977224       0.00444603      -0.00328483 </v>
   <v>      -0.00981642       0.02272703      -0.01848932 </v>
   <v>       0.01944695       0.00065309      -0.00720690 </v>
   <v>       0.01405024       0.05073529       0.06155722 </v>
   <v>      -0.01569257       0.01411878       0.01155716 </v>
   <v>      -0.00699365       0.02692258      -0.05920578 </v>
   <v>      -0.02750270       0.02472913      -0.00171852 </v>
   <v>      -0.12149812      -0.21333951      -0.09134117 </v>
   <v>      -0.00761592       0.02016764      -0.06082573 </v>
   <v>       0.14621162       0.12001471      -0.17239039 </v>
   <v>       0.18592317       0.04559828       0.16626855 </v>
   <v>      -0.16187354       0.16596646       0.11136313 </v>
   <v>      -0.00487750      -0.00733154      -0.00366583 </v>
   <v>      -0.00344232      -0.05749359       0.00588502 </v>
   <v>      -0.04485817      -0.03600684      -0.03447129 </v>
   <v>      -0.02875085       0.03325821      -0.01219385 </v>
   <v>       0.02954502       0.01655876       0.00656067 </v>
   <v>       0.03674590       0.00623567      -0.00099072 </v>
   <v>      -0.01369358      -0.02448637       0.04807621 </v>
   <v>      -0.00184951       0.00057386       0.00743185 </v>
   <v>       0.06698129      -0.09730894       0.13251293 </v>
  </varray>
  <varray name="stress" >
   <v>      -7.68577727       0.05328535      -0.27932395 </v>
   <v>       0.05328532      -7.29912405       0.28149827 </v>
   <v>      -0.27932395       0.28149829      -7.87744424 </v>
  </varray>
  <energy>
   <i name="e_fr_energy">   -360.24209503 </i>
   <i name="e_wo_entrp">   -360.24818431 </i>
   <i name="e_0_energy">      0.01826785 </i>
  </energy>
  <time name="totalsc">   10.03   10.66</time>
 </calculation>
 <calculation>
  <scstep>
   <time name="dav">    0.88    0.91</time>
   <time name="total">    1.03    1.17</time>
   <energy>
    <i name="alphaZ">   1444.90551595 </i>
    <i name="ewald"> -18153.71260994 </i>
    <i name="hartreedc">  -7123.15942408 </i>
    <i name="XCdc">   -314.94563133 </i>
    <i name="pawpsdc">  32890.97681415 </i>
    <i name="pawaedc"> -31273.41847822 </i>
    <i name="eentropy">      0.01627416 </i>
    <i name="bandstr">  -2501.20946580 </i>
    <i name="atom">  24670.23139789 </i>
    <i name="e_fr_energy">   -360.31560722 </i>
    <i name="e_wo_entrp">   -360.33188138 </i>
    <i name="e_0_energy">   -360.32103194 </i>
   </energy>
  </scstep>
  <scstep>
   <time name="diag">    0.08    0.08</time>
   <time name="diis">    0.70    0.72</time>
   <time name="orth">    0.01    0.01</time>
   <time name="total">    0.86    0.94</time>
   <energy>
    <i name="e_fr_energy">   -360.31971732 </i>
    <i name="e_wo_entrp">   -360.33725315 </i>
    <i name="e_0_energy">   -360.32556260 </i>
   </energy>
  </scstep>
  <scstep>
   <time name="diag">    0.09    0.09</time>
   <time name="diis">    0.74    0.76</time>
   <time name="orth">    0.01    0.01</time>
   <time name="total">    0.90    0.94</time>
   <energy>
    <i name="e_fr_energy">   -360.28816833 </i>
    <i name="e_wo_entrp">   -360.30502755 </i>
    <i name="e_0_energy">   -360.29378807 </i>
   </energy>
  </scstep>
  <scstep>
   <time name="diag">    0.08    0.08</time>
   <time name="diis">    0.75    0.78</time>
   <time name="orth">    0.01    0.01</time>
   <time name="total">    0.92    0.98</time>
   <energy>
    <i name="e_fr_energy">   -360.27851605 </i>
    <i name="e_wo_entrp">   -360.29545231 </i>
    <i name="e_0_energy">   -360.28416147 </i>
   </energy>
  </scstep>
  <scstep>
   <time name="diag">    0.08    0.08</time>
   <time name="diis">    0.80    0.82</time>
   <time name="orth">    0.01    0.01</time>
   <time name="total">    0.97    1.01</time>
   <energy>
    <i name="e_fr_energy">   -360.27626193 </i>
    <i name="e_wo_entrp">   -360.29295511 </i>
    <i name="e_0_energy">   -360.28182632 </i>
   </energy>
  </scstep>
  <scstep>
   <time name="diag">    0.08    0.08</time>
   <time name="diis">    0.81    0.83</time>
   <time name="orth">    0.01    0.01</time>
   <time name="total">    0.99    1.04</time>
   <energy>
    <i name="e_fr_energy">   -360.27642672 </i>
    <i name="e_wo_entrp">   -360.29331918 </i>
    <i name="e_0_energy">   -360.28205754 </i>
   </energy>
  </scstep>
  <scstep>
   <time name="diag">    0.17    0.18</time>
   <time name="diis">    0.89    0.91</time>
   <time name="orth">    0.01    0.01</time>
   <time name="total">    1.19    1.25</time>
   <energy>
    <i name="e_fr_energy">   -360.27661916 </i>
    <i name="e_wo_entrp">   -360.29333376 </i>
    <i name="e_0_energy">   -360.28219069 </i>
   </energy>
  </scstep>
  <scstep>
[...]
       <r>    6.6154    1.0000 </r>
       <r>    6.6276    1.0000 </r>
       <r>    6.6592    1.0000 </r>
       <r>    6.7132    1.0000 </r>
       <r>    6.7768    1.0000 </r>
       <r>    6.8077    1.0000 </r>
       <r>    6.8419    1.0000 </r>
       <r>    6.8865    1.0000 </r>
       <r>    6.9258    1.0001 </r>
       <r>    6.9677    1.0002 </r>
       <r>    7.0154    1.0011 </r>
       <r>    7.0370    1.0021 </r>
       <r>    7.0679    1.0047 </r>
       <r>    7.1117    1.0121 </r>
       <r>    7.1472    1.0218 </r>
       <r>    7.1725    1.0295 </r>
       <r>    7.2047    1.0354 </r>
       <r>    7.2242    1.0332 </r>
       <r>    7.2495    1.0183 </r>
       <r>    7.3013    0.9196 </r>
       <r>    7.3407    0.7674 </r>
       <r>    7.3662    0.6384 </r>
       <r>    7.4010    0.4444 </r>
       <r>    7.4217    0.3313 </r>
       <r>    7.4506    0.1920 </r>
       <r>    7.4847    0.0696 </r>
       <r>    7.5382   -0.0230 </r>
       <r>    7.5817   -0.0352 </r>
       <r>    7.6221   -0.0259 </r>
       <r>    7.6624   -0.0141 </r>
       <r>    7.7024   -0.0062 </r>
       <r>    7.7285   -0.0033 </r>
       <r>    7.7450   -0.0021 </r>
       <r>    7.7772   -0.0008 </r>
       <r>    7.8400   -0.0001 </r>
       <r>    7.8717   -0.0000 </r>
       <r>    7.8942   -0.0000 </r>
       <r>    7.9515   -0.0000 </r>
       <r>    8.0013   -0.0000 </r>
       <r>    8.0673   -0.0000 </r>
       <r>    8.1416   -0.0000 </r>
       <r>    8.2089   -0.0000 </r>
       <r>    8.2850   -0.0000 </r>
       <r>    8.3489   -0.0000 </r>
       <r>    8.3994   -0.0000 </r>
       <r>    8.5501   -0.0000 </r>
       <r>    8.7078   -0.0000 </r>
       <r>    8.7665   -0.0000 </r>
       <r>    9.2543   -0.0000 </r>
      </set>
     </set>
    </set>
   </array>
  </eigenvalues>
  <separator name="orbital magnetization" >
   <v name="MAGDIPOLOUT">      0.00000000      0.00000000      0.00000000</v>
  </separator>
  <dos>
   <i name="efermi">      7.39113423 </i>
   <total>
    <array>
     <dimension dim="1">gridpoints</dimension>
     <dimension dim="2">spin</dimension>
     <field>energy</field>
     <field>total</field>
     <field>integrated</field>
     <set>
      <set comment="spin 1">
       <r>   -49.7155     0.0000     0.0000 </r>
       <r>   -49.5094     0.0000     0.0000 </r>
       <r>   -49.3033     0.0000     0.0000 </r>
       <r>   -49.0972     0.0000     0.0000 </r>
       <r>   -48.8911     0.0000     0.0000 </r>
       <r>   -48.6849     0.0000     0.0000 </r>
       <r>   -48.4788     0.0000     0.0000 </r>
       <r>   -48.2727    -0.0000    -0.0000 </r>
       <r>   -48.0666    -0.0000    -0.0000 </r>
       <r>   -47.8605    -0.0000    -0.0000 </r>
       <r>   -47.6544    -0.0000    -0.0000 </r>
       <r>   -47.4483    -0.0000    -0.0000 </r>
       <r>   -47.2421    -0.0454    -0.0094 </r>
       <r>   -47.0360    -1.0653    -0.2289 </r>
       <r>   -46.8299    24.3176     4.7833 </r>
       <r>   -46.6238    47.7780    14.6310 </r>
       <r>   -46.4177     7.2436    16.1241 </r>
       <r>   -46.2116    -0.5971    16.0010 </r>
       <r>   -46.0055    -0.0048    16.0000 </r>
       <r>   -45.7993    -0.0000    16.0000 </r>
       <r>   -45.5932    -0.0000    16.0000 </r>
       <r>   -45.3871     0.0000    16.0000 </r>
       <r>   -45.1810     0.0000    16.0000 </r>
       <r>   -44.9749     0.0000    16.0000 </r>
       <r>   -44.7688     0.0000    16.0000 </r>
       <r>   -44.5626     0.0000    16.0000 </r>
       <r>   -44.3565     0.0000    16.0000 </r>
       <r>   -44.1504     0.0000    16.0000 </r>
       <r>   -43.9443     0.0000    16.0000 </r>
       <r>   -43.7382     0.0000    16.0000 </r>
       <r>   -43.5321     0.0000    16.0000 </r>
       <r>   -43.3260     0.0000    16.0000 </r>
       <r>   -43.1198     0.0000    16.0000 </r>
       <r>   -42.9137     0.0000    16.0000 </r>
       <r>   -42.7076     0.0000    16.0000 </r>
       <r>   -42.5015     0.0000    16.0000 </r>
       <r>   -42.2954     0.0000    16.0000 </r>
       <r>   -42.0893    -0.0000    16.0000 </r>
       <r>   -41.8832    -0.0000    16.0000 </r>
       <r>   -41.6770    -0.0000    16.0000 </r>
       <r>   -41.4709    -0.0000    16.0000 </r>
       <r>   -41.2648    -0.0117    15.9976 </r>
       <r>   -41.0587    -0.6951    15.8543 </r>
       <r>   -40.8526     9.8156    17.8775 </r>
       <r>   -40.6465    52.4654    28.6914 </r>
       <r>   -40.4404    17.2503    32.2469 </r>
       <r>   -40.2342    -1.1884    32.0019 </r>
       <r>   -40.0281    -0.0094    32.0000 </r>
       <r>   -39.8220    -0.0000    32.0000 </r>
       <r>   -39.6159    -0.0000    32.0000 </r>
       <r>   -39.4098     0.0000    32.0000 </r>
       <r>   -39.2037     0.0000    32.0000 </r>
       <r>   -38.9976     0.0000    32.0000 </r>
       <r>   -38.7914     0.0000    32.0000 </r>
       <r>   -38.5853     0.0000    32.0000 </r>
       <r>   -38.3792     0.0000    32.0000 </r>
       <r>   -38.1731     0.0000    32.0000 </r>
       <r>   -37.9670     0.0000    32.0000 </r>
       <r>   -37.7609     0.0000    32.0000 </r>
       <r>   -37.5547     0.0000    32.0000 </r>
       <r>   -37.3486     0.0000    32.0000 </r>
       <r>   -37.1425     0.0000    32.0000 </r>
       <r>   -36.9364     0.0000    32.0000 </r>
       <r>   -36.7303     0.0000    32.0000 </r>
       <r>   -36.5242     0.0000    32.0000 </r>
       <r>   -36.3181     0.0000    32.0000 </r>
       <r>   -36.1119     0.0000    32.0000 </r>
       <r>   -35.9058     0.0000    32.0000 </r>
       <r>   -35.6997     0.0000    32.0000 </r>
       <r>   -35.4936     0.0000    32.0000 </r>
       <r>   -35.2875     0.0000    32.0000 </r>
       <r>   -35.0814     0.0000    32.0000 </r>
       <r>   -34.8753     0.0000    32.0000 </r>
       <r>   -34.6691     0.0000    32.0000 </r>
       <r>   -34.4630     0.0000    32.0000 </r>
       <r>   -34.2569     0.0000    32.0000 </r>
       <r>   -34.0508     0.0000    32.0000 </r>
       <r>   -33.8447     0.0000    32.0000 </r>
       <r>   -33.6386     0.0000    32.0000 </r>
       <r>   -33.4325     0.0000    32.0000 </r>
       <r>   -33.2263     0.0000    32.0000 </r>
       <r>   -33.0202     0.0000    32.0000 </r>
       <r>   -32.8141     0.0000    32.0000 </r>
       <r>   -32.6080     0.0000    32.0000 </r>
       <r>   -32.4019     0.0000    32.0000 </r>
       <r>   -32.1958     0.0000    32.0000 </r>
       <r>   -31.9896     0.0000    32.0000 </r>
       <r>   -31.7835     0.0000    32.0000 </r>
       <r>   -31.5774     0.0000    32.0000 </r>
       <r>   -31.3713     0.0000    32.0000 </r>
       <r>   -31.1652     0.0000    32.0000 </r>
       <r>   -30.9591     0.0000    32.0000 </r>
       <r>   -30.7530     0.0000    32.0000 </r>
       <r>   -30.5468     0.0000    32.0000 </r>
       <r>   -30.3407     0.0000    32.0000 </r>
       <r>   -30.1346     0.0000    32.0000 </r>
       <r>   -29.9285     0.0000    32.0000 </r>
       <r>   -29.7224     0.0000    32.0000 </r>
       <r>   -29.5163     0.0000    32.0000 </r>
       <r>   -29.3102     0.0000    32.0000 </r>
       <r>   -29.1040     0.0000    32.0000 </r>
       <r>   -28.8979     0.0000    32.0000 </r>
       <r>   -28.6918     0.0000    32.0000 </r>
       <r>   -28.4857     0.0000    32.0000 </r>
       <r>   -28.2796     0.0000    32.0000 </r>
       <r>   -28.0735     0.0000    32.0000 </r>
       <r>   -27.8674     0.0000    32.0000 </r>
       <r>   -27.6612     0.0000    32.0000 </r>
       <r>   -27.4551     0.0000    32.0000 </r>
       <r>   -27.2490     0.0000    32.0000 </r>
       <r>   -27.0429     0.0000    32.0000 </r>
       <r>   -26.8368     0.0000    32.0000 </r>
       <r>   -26.6307     0.0000    32.0000 </r>
       <r>   -26.4246     0.0000    32.0000 </r>
       <r>   -26.2184     0.0000    32.0000 </r>
       <r>   -26.0123     0.0000    32.0000 </r>
       <r>   -25.8062     0.0000    32.0000 </r>
       <r>   -25.6001     0.0000    32.0000 </r>
       <r>   -25.3940     0.0000    32.0000 </r>
       <r>   -25.1879     0.0000    32.0000 </r>
       <r>   -24.9817     0.0000    32.0000 </r>
       <r>   -24.7756     0.0000    32.0000 </r>
       <r>   -24.5695    -0.0000    32.0000 </r>
       <r>   -24.3634    -0.0000    32.0000 </r>
       <r>   -24.1573    -0.0000    32.0000 </r>
       <r>   -23.9512    -0.0000    32.0000 </r>
       <r>   -23.7451    -0.0012    31.9998 </r>
       <r>   -23.5389    -0.3270    31.9324 </r>
       <r>   -23.3328     3.0079    32.5523 </r>
       <r>   -23.1267    33.5556    39.4686 </r>
       <r>   -22.9206    58.9197    51.6129 </r>
       <r>   -22.7145   103.3518    72.9152 </r>
       <r>   -22.5084    30.5908    79.2204 </r>
       <r>   -22.3023     4.1701    80.0799 </r>
       <r>   -22.0961    -0.3847    80.0006 </r>
       <r>   -21.8900    -0.0029    80.0000 </r>
       <r>   -21.6839    -0.0000    80.0000 </r>
       <r>   -21.4778    -0.0000    80.0000 </r>
       <r>   -21.2717     0.0000    80.0000 </r>
       <r>   -21.0656     0.0000    80.0000 </r>
       <r>   -20.8595     0.0000    80.0000 </r>
       <r>   -20.6533    -0.0000    80.0000 </r>
       <r>   -20.4472    -0.0000    80.0000 </r>
       <r>   -20.2411    -0.0000    80.0000 </r>
       <r>   -20.0350    -0.0000    80.0000 </r>
       <r>   -19.8289    -0.0000    80.0000 </r>
       <r>   -19.6228    -0.0258    79.9947 </r>
       <r>   -19.4167    -0.3297    79.9267 </r>
       <r>   -19.2105     9.3173    81.8472 </r>
       <r>   -19.0044    27.4659    87.5083 </r>
       <r>   -18.7983   101.8105   108.4929 </r>
       <r>   -18.5922    78.3108   124.6339 </r>
       <r>   -18.3861    17.6127   128.2642 </r>
       <r>   -18.1800    -1.2648   128.0035 </r>
       <r>   -17.9738    -0.0169   128.0000 </r>
       <r>   -17.7677    -0.0000   128.0000 </r>
       <r>   -17.5616    -0.0000   128.0000 </r>
       <r>   -17.3555     0.0000   128.0000 </r>
       <r>   -17.1494     0.0000   128.0000 </r>
       <r>   -16.9433     0.0000   128.0000 </r>
       <r>   -16.7372     0.0000   128.0000 </r>
       <r>   -16.5310     0.0000   128.0000 </r>
       <r>   -16.3249     0.0000   128.0000 </r>
       <r>   -16.1188     0.0000   128.0000 </r>
       <r>   -15.9127     0.0000   128.0000 </r>
       <r>   -15.7066     0.0000   128.0000 </r>
       <r>   -15.5005     0.0000   128.0000 </r>
       <r>   -15.2944     0.0000   128.0000 </r>
       <r>   -15.0882     0.0000   128.0000 </r>
       <r>   -14.8821     0.0000   128.0000 </r>
       <r>   -14.6760     0.0000   128.0000 </r>
       <r>   -14.4699     0.0000   128.0000 </r>
       <r>   -14.2638     0.0000   128.0000 </r>
       <r>   -14.0577     0.0000   128.0000 </r>
       <r>   -13.8516     0.0000   128.0000 </r>
       <r>   -13.6454     0.0000   128.0000 </r>
       <r>   -13.4393     0.0000   128.0000 </r>
       <r>   -13.2332     0.0000   128.0000 </r>
       <r>   -13.0271     0.0000   128.0000 </r>
       <r>   -12.8210     0.0000   128.0000 </r>
       <r>   -12.6149     0.0000   128.0000 </r>
       <r>   -12.4087     0.0000   128.0000 </r>
       <r>   -12.2026     0.0000   128.0000 </r>
       <r>   -11.9965     0.0000   128.0000 </r>
       <r>   -11.7904     0.0000   128.0000 </r>
       <r>   -11.5843     0.0000   128.0000 </r>
       <r>   -11.3782     0.0000   128.0000 </r>
       <r>   -11.1721     0.0000   128.0000 </r>
       <r>   -10.9659     0.0000   128.0000 </r>
       <r>   -10.7598     0.0000   128.0000 </r>
       <r>   -10.5537     0.0000   128.0000 </r>
       <r>   -10.3476     0.0000   128.0000 </r>
       <r>   -10.1415     0.0000   128.0000 </r>
       <r>    -9.9354     0.0000   128.0000 </r>
       <r>    -9.7293     0.0000   128.0000 </r>
       <r>    -9.5231     0.0000   128.0000 </r>
       <r>    -9.3170     0.0000   128.0000 </r>
       <r>    -9.1109     0.0000   128.0000 </r>
       <r>    -8.9048     0.0000   128.0000 </r>
       <r>    -8.6987     0.0000   128.0000 </r>
       <r>    -8.4926     0.0000   128.0000 </r>
       <r>    -8.2865     0.0000   128.0000 </r>
       <r>    -8.0803     0.0000   128.0000 </r>
       <r>    -7.8742     0.0000   128.0000 </r>
       <r>    -7.6681     0.0000   128.0000 </r>
       <r>    -7.4620     0.0000   128.0000 </r>
       <r>    -7.2559     0.0000   128.0000 </r>
       <r>    -7.0498     0.0000   128.0000 </r>
       <r>    -6.8437     0.0000   128.0000 </r>
       <r>    -6.6375     0.0000   128.0000 </r>
       <r>    -6.4314     0.0000   128.0000 </r>
       <r>    -6.2253     0.0000   128.0000 </r>
       <r>    -6.0192     0.0000   128.0000 </r>
       <r>    -5.8131     0.0000   128.0000 </r>
       <r>    -5.6070     0.0000   128.0000 </r>
       <r>    -5.4008     0.0000   128.0000 </r>
       <r>    -5.1947     0.0000   128.0000 </r>
       <r>    -4.9886     0.0000   128.0000 </r>
       <r>    -4.7825     0.0000   128.0000 </r>
       <r>    -4.5764     0.0000   128.0000 </r>
       <r>    -4.3703     0.0000   128.0000 </r>
       <r>    -4.1642     0.0000   128.0000 </r>
       <r>    -3.9580     0.0000   128.0000 </r>
       <r>    -3.7519     0.0000   128.0000 </r>
       <r>    -3.5458     0.0000   128.0000 </r>
       <r>    -3.3397     0.0000   128.0000 </r>
       <r>    -3.1336     0.0000   128.0000 </r>
       <r>    -2.9275     0.0000   128.0000 </r>
       <r>    -2.7214     0.0000   128.0000 </r>
       <r>    -2.5152     0.0000   128.0000 </r>
       <r>    -2.3091     0.0000   128.0000 </r>
       <r>    -2.1030     0.0000   128.0000 </r>
       <r>    -1.8969     0.0000   128.0000 </r>
       <r>    -1.6908     0.0000   128.0000 </r>
       <r>    -1.4847     0.0000   128.0000 </r>
       <r>    -1.2786     0.0000   128.0000 </r>
       <r>    -1.0724     0.0000   128.0000 </r>
       <r>    -0.8663     0.0000   128.0000 </r>
       <r>    -0.6602    -0.0000   128.0000 </r>
       <r>    -0.4541    -0.0000   128.0000 </r>
       <r>    -0.2480    -0.0000   128.0000 </r>
       <r>    -0.0419    -0.0000   128.0000 </r>
       <r>     0.1642    -0.0000   128.0000 </r>
       <r>     0.3704    -0.0049   127.9990 </r>
       <r>     0.5765     0.0482   128.0089 </r>
       <r>     0.7826     0.4461   128.1009 </r>
       <r>     0.9887     1.3595   128.3811 </r>
       <r>     1.1948     1.8176   128.7557 </r>
       <r>     1.4009     2.4026   129.2509 </r>
       <r>     1.6071     4.0162   130.0787 </r>
       <r>     1.8132     2.8113   130.6582 </r>
       <r>     2.0193     3.2731   131.3328 </r>
       <r>     2.2254     4.3930   132.2383 </r>
       <r>     2.4315     4.1136   133.0862 </r>
       <r>     2.6376     4.2286   133.9577 </r>
       <r>     2.8437     8.5596   135.7220 </r>
       <r>     3.0499     7.6010   137.2887 </r>
       <r>     3.2560     7.8312   138.9028 </r>
       <r>     3.4621     7.5841   140.4660 </r>
       <r>     3.6682    10.4569   142.6213 </r>
       <r>     3.8743    17.5288   146.2343 </r>
       <r>     4.0804    23.6209   151.1029 </r>
       <r>     4.2865    23.5235   155.9514 </r>
       <r>     4.4927    29.5140   162.0347 </r>
       <r>     4.6988    33.0809   168.8532 </r>
       <r>     4.9049    40.8059   177.2639 </r>
       <r>     5.1110    41.4918   185.8159 </r>
       <r>     5.3171    33.8780   192.7987 </r>
       <r>     5.5232    33.1974   199.6412 </r>
       <r>     5.7293    32.8359   206.4091 </r>
       <r>     5.9355    15.8976   209.6859 </r>
       <r>     6.1416    39.1947   217.7645 </r>
       <r>     6.3477    62.2874   230.6028 </r>
       <r>     6.5538    57.9161   242.5402 </r>
       <r>     6.7599    56.6890   254.2246 </r>
       <r>     6.9660    54.5495   265.4681 </r>
       <r>     7.1722    56.4069   277.0944 </r>
       <r>     7.3783    50.1306   287.4270 </r>
       <r>     7.5844    45.5995   296.8257 </r>
       <r>     7.7905    52.8204   307.7128 </r>
       <r>     7.9966    43.9273   316.7668 </r>
       <r>     8.2027    35.8895   324.1642 </r>
       <r>     8.4088    28.9079   330.1225 </r>
       <r>     8.6150    23.5742   334.9815 </r>
       <r>     8.8211    17.5872   338.6065 </r>
       <r>     9.0272    12.1733   341.1156 </r>
       <r>     9.2333    11.6278   343.5123 </r>
       <r>     9.4394     2.5214   344.0320 </r>
       <r>     9.6455    -0.1511   344.0008 </r>
       <r>     9.8516    -0.0040   344.0000 </r>
       <r>    10.0578    -0.0000   344.0000 </r>
       <r>    10.2639    -0.0000   344.0000 </r>
       <r>    10.4700     0.0000   344.0000 </r>
       <r>    10.6761     0.0000   344.0000 </r>
       <r>    10.8822     0.0000   344.0000 </r>
       <r>    11.0883     0.0000   344.0000 </r>
       <r>    11.2944     0.0000   344.0000 </r>
       <r>    11.5006     0.0000   344.0000 </r>
       <r>    11.7067     0.0000   344.0000 </r>
       <r>    11.9128     0.0000   344.0000 </r>
       <r>    12.1189     0.0000   344.0000 </r>
      </set>
     </set>
    </array>
   </total>
  </dos>
 </calculation>
 <structure name="finalpos" >
  <crystal>
   <varray name="basis" >
    <v>       6.96695381      -0.00285939      -0.03568914 </v>
    <v>      -0.00384889      10.31483221       0.00719810 </v>
    <v>      -0.05278575       0.00830799      10.20490628 </v>
   </varray>
   <i name="volume">    733.33480872 </i>
   <varray name="rec_basis" >
    <v>       0.14353858       0.00005304       0.00074242 </v>
    <v>       0.00003939       0.09694784      -0.00007872 </v>
    <v>       0.00050196      -0.00006820       0.09799473 </v>
   </varray>
  </crystal>
  <varray name="positions" >
   <v>       0.48698639       0.31694114       0.32650650 </v>
   <v>       0.73929925       0.49523136       0.49477397 </v>
   <v>       0.02011737       0.99924296       0.99533725 </v>
   <v>       0.49735834      -0.00000180       0.32792178 </v>
   <v>       0.25893247       0.83115550       0.50291277 </v>
   <v>       0.77068402       0.16473123       0.16000324 </v>
   <v>       0.02651865       0.67291453       0.00098772 </v>
   <v>       0.00428996       0.32835978       0.66656607 </v>
   <v>       0.25971537       0.50150670       0.50517083 </v>
   <v>       0.47400567       0.33361405       0.00024781 </v>
   <v>       0.76662439       0.49332583       0.16526090 </v>
   <v>       0.26794403       0.81957698       0.80772286 </v>
   <v>       0.74901035       0.49590961       0.83925411 </v>
   <v>       0.22417531       0.49635946       0.18889381 </v>
   <v>       0.97597845       0.68598086       0.33551130 </v>
   <v>       0.48093959       0.66592228       0.01852277 </v>
   <v>       0.51758614       0.01886026       0.66791501 </v>
   <v>       0.98725966       0.00787967       0.66542185 </v>
   <v>       0.74126193       0.82605643       0.84103011 </v>
   <v>       0.48084039       0.00642881      -0.00085553 </v>
   <v>       0.75209515       0.84129379       0.15672240 </v>
   <v>       0.24069420       0.15957473       0.49733370 </v>
   <v>       0.00496280       0.31628503       0.34789797 </v>
   <v>       0.26396052       0.50676881       0.81490367 </v>
   <v>       0.51472297       0.67750244       0.32086711 </v>
   <v>       0.53119189       0.66157765       0.66095348 </v>
   <v>      -0.01903776       0.66184419       0.66588474 </v>
   <v>       0.99640126       0.99453809       0.33795451 </v>
   <v>       0.75827426       0.16873467       0.49082260 </v>
   <v>       0.21782943       0.16946991       0.17234284 </v>
   <v>       0.75361363       0.18540099       0.84476263 </v>
   <v>       0.24770731       0.17696880       0.82885798 </v>
   <v>       0.02446835       0.33243455       0.98868713 </v>
   <v>       0.74211611       0.82974190       0.50311065 </v>
   <v>       0.24631013       0.83583523       0.18490676 </v>
   <v>       0.49516804       0.32204855       0.67488671 </v>
  </varray>
 </structure>
</modeling>
