       N       E                     dE             d eps       ncg     rms          rms(c)
DAV:   1     0.228577648358E+04    0.22858E+04   -0.12552E+05  5992   0.108E+03
DAV:   2    -0.545888016634E+02   -0.23404E+04   -0.22627E+04  6232   0.414E+02
DAV:   3    -0.342207270645E+03   -0.28762E+03   -0.27379E+03  9216   0.999E+01
DAV:   4    -0.375729272632E+03   -0.33522E+02   -0.32016E+02  9168   0.320E+01
DAV:   5    -0.378972479053E+03   -0.32432E+01   -0.31970E+01  8592   0.976E+00    0.641E+01
RMM:   6    -0.368846606701E+03    0.10126E+02   -0.30525E+01  7847   0.112E+01    0.299E+01
RMM:   7    -0.373962529732E+03   -0.51159E+01   -0.30766E+01  8154   0.796E+00    0.163E+01
RMM:   8    -0.363914385885E+03    0.10048E+02   -0.97718E+00  7927   0.483E+00    0.452E+00
RMM:   9    -0.363708080283E+03    0.20631E+00   -0.28093E+00  8222   0.212E+00    0.309E+00
RMM:  10    -0.363639056368E+03    0.69024E-01   -0.49044E-01  8188   0.106E+00    0.171E+00
RMM:  11    -0.363617006042E+03    0.22050E-01   -0.18195E-01  8055   0.665E-01    0.906E-01
RMM:  12    -0.363608214344E+03    0.87917E-02   -0.67338E-02  8239   0.396E-01    0.449E-01
RMM:  13    -0.363605916987E+03    0.22974E-02   -0.23301E-02  8205   0.216E-01    0.259E-01
RMM:  14    -0.363605950450E+03   -0.33463E-04   -0.89109E-03  8527   0.115E-01    0.154E-01
RMM:  15    -0.363606088320E+03   -0.13787E-03   -0.38576E-03  8399   0.707E-02    0.718E-02
RMM:  16    -0.363606131952E+03   -0.43632E-04   -0.15735E-03  7672   0.402E-02    0.433E-02
RMM:  17    -0.363606138305E+03   -0.63535E-05   -0.66066E-04  6755   0.286E-02    0.218E-02
RMM:  18    -0.363606151429E+03   -0.13124E-04   -0.29112E-04  6081   0.195E-02    0.105E-02
RMM:  19    -0.363606159111E+03   -0.76816E-05   -0.13772E-04  5456   0.143E-02    0.576E-03
RMM:  20    -0.363606160061E+03   -0.95009E-06   -0.48909E-05  4747   0.116E-02
   1 F= -.36360616E+03 E0= -.36361352E+03  d E =-.363606E+03
       N       E                     dE             d eps       ncg     rms          rms(c)
DAV:   1    -0.363669192606E+03   -0.63033E-01   -0.24924E+00  7328   0.523E+00    0.184E+00
RMM:   2    -0.363649767291E+03    0.19425E-01   -0.29726E-01  8063   0.144E+00    0.657E-01
RMM:   3    -0.363637852279E+03    0.11915E-01   -0.54671E-02  8304   0.422E-01    0.428E-01
RMM:   4    -0.363633533502E+03    0.43188E-02   -0.14999E-02  8296   0.266E-01    0.237E-01
RMM:   5    -0.363632796518E+03    0.73698E-03   -0.40885E-03  8378   0.125E-01    0.197E-01
RMM:   6    -0.363632935163E+03   -0.13864E-03   -0.19590E-03  8784   0.676E-02    0.126E-01
RMM:   7    -0.363633041370E+03   -0.10621E-03   -0.76380E-04  8366   0.525E-02    0.555E-02
RMM:   8    -0.363633127432E+03   -0.86061E-04   -0.43639E-04  7580   0.296E-02    0.440E-02
RMM:   9    -0.363633185690E+03   -0.58259E-04   -0.16250E-04  5779   0.239E-02    0.336E-02
RMM:  10    -0.363633233641E+03   -0.47950E-04   -0.10645E-04  5646   0.176E-02    0.212E-02
RMM:  11    -0.363633260210E+03   -0.26569E-04   -0.47889E-05  4664   0.145E-02    0.736E-03
RMM:  12    -0.363633267481E+03   -0.72708E-05   -0.27034E-05  4126   0.134E-02
   2 F= -.36363327E+03 E0= -.36364061E+03  d E =-.271074E-01
       N       E                     dE             d eps       ncg     rms          rms(c)
DAV:   1    -0.363790986095E+03   -0.15773E+00   -0.93865E+00  7064   0.102E+01    0.361E+00
RMM:   2    -0.363716101545E+03    0.74885E-01   -0.11108E+00  8048   0.279E+00    0.128E+00
RMM:   3    -0.363671043142E+03    0.45058E-01   -0.20514E-01  8296   0.815E-01    0.831E-01
RMM:   4    -0.363654621581E+03    0.16422E-01   -0.56710E-02  8309   0.518E-01    0.460E-01
RMM:   5    -0.363651925791E+03    0.26958E-02   -0.15629E-02  8374   0.242E-01    0.385E-01
RMM:   6    -0.363652382938E+03   -0.45715E-03   -0.73018E-03  8930   0.132E-01    0.245E-01
RMM:   7    -0.363652708048E+03   -0.32511E-03   -0.29761E-03  9138   0.101E-01    0.110E-01
RMM:   8    -0.363653012641E+03   -0.30459E-03   -0.16691E-03  9314   0.571E-02    0.871E-02
RMM:   9    -0.363653208537E+03   -0.19590E-03   -0.62621E-04  8114   0.419E-02    0.668E-02
RMM:  10    -0.363653351968E+03   -0.14343E-03   -0.35090E-04  7700   0.290E-02    0.416E-02
RMM:  11    -0.363653431563E+03   -0.79595E-04   -0.19539E-04  5928   0.233E-02    0.173E-02
RMM:  12    -0.363653452741E+03   -0.21178E-04   -0.10288E-04  5382   0.176E-02    0.871E-03
RMM:  13    -0.363653457000E+03   -0.42586E-05   -0.32055E-05  4666   0.137E-02
   3 F= -.36365346E+03 E0= -.36366069E+03  d E =-.472969E-01
       N       E                     dE             d eps       ncg     rms          rms(c)
DAV:   1    -0.363669036090E+03   -0.15583E-01   -0.20766E+00  5648   0.419E+00    0.411E-01
RMM:   2    -0.363679549265E+03   -0.10513E-01   -0.98235E-02  7583   0.855E-01    0.343E-01
RMM:   3    -0.363674755867E+03    0.47934E-02   -0.10690E-02  8024   0.261E-01    0.175E-01
RMM:   4    -0.363674589693E+03    0.16617E-03   -0.21910E-03  8853   0.711E-02    0.121E-01
RMM:   5    -0.363674530018E+03    0.59675E-04   -0.76734E-04  8178   0.480E-02    0.781E-02
RMM:   6    -0.363674488893E+03    0.41125E-04   -0.38487E-04  8348   0.398E-02    0.340E-02
RMM:   7    -0.363674482617E+03    0.62763E-05   -0.14715E-04  7104   0.187E-02    0.229E-02
RMM:   8    -0.363674479783E+03    0.28338E-05   -0.38574E-05  4576   0.131E-02
   4 F= -.36367448E+03 E0= -.36368174E+03  d E =-.210228E-01
       N       E                     dE             d eps       ncg     rms          rms(c)
DAV:   1    -0.363665064192E+03    0.94184E-02   -0.18698E+01  5488   0.126E+01    0.123E+00
RMM:   2    -0.363757940807E+03   -0.92877E-01   -0.88540E-01  7365   0.259E+00    0.994E-01
RMM:   3    -0.363718755648E+03    0.39185E-01   -0.10045E-01  8184   0.800E-01    0.543E-01
RMM:   4    -0.363717012685E+03    0.17430E-02   -0.19346E-02  8836   0.213E-01    0.373E-01
RMM:   5    -0.363716495334E+03    0.51735E-03   -0.69287E-03  8345   0.148E-01    0.246E-01
RMM:   6    -0.363716125199E+03    0.37013E-03   -0.35962E-03  8367   0.125E-01    0.104E-01
RMM:   7    -0.363716119425E+03    0.57735E-05   -0.14079E-03  9417   0.564E-02    0.720E-02
RMM:   8    -0.363716130925E+03   -0.11499E-04   -0.48715E-04  8207   0.299E-02    0.503E-02
RMM:   9    -0.363716137774E+03   -0.68495E-05   -0.23714E-04  7719   0.234E-02    0.303E-02
RMM:  10    -0.363716138330E+03   -0.55620E-06   -0.10887E-04  6674   0.174E-02    0.155E-02
RMM:  11    -0.363716136175E+03    0.21551E-05   -0.49587E-05  4872   0.140E-02
   5 F= -.36371614E+03 E0= -.36372333E+03  d E =-.626792E-01
       N       E                     dE             d eps       ncg     rms          rms(c)
DAV:   1    -0.363484826418E+03    0.23131E+00   -0.74979E+01  5488   0.252E+01    0.245E+00
RMM:   2    -0.363843563143E+03   -0.35874E+00   -0.36244E+00  7129   0.525E+00    0.183E+00
RMM:   3    -0.363719658995E+03    0.12390E+00   -0.42260E-01  8209   0.168E+00    0.112E+00
RMM:   4    -0.363710374743E+03    0.92843E-02   -0.78189E-02  8692   0.447E-01    0.769E-01
RMM:   5    -0.363707863507E+03    0.25112E-02   -0.27838E-02  8290   0.306E-01    0.522E-01
RMM:   6    -0.363706172894E+03    0.16906E-02   -0.15048E-02  8270   0.260E-01    0.215E-01
RMM:   7    -0.363706191878E+03   -0.18984E-04   -0.59585E-03  9685   0.118E-01    0.146E-01
RMM:   8    -0.363706261202E+03   -0.69324E-04   -0.21304E-03  9587   0.615E-02    0.105E-01
RMM:   9    -0.363706308525E+03   -0.47323E-04   -0.89943E-04  8902   0.417E-02    0.684E-02
RMM:  10    -0.363706332810E+03   -0.24285E-04   -0.46533E-04  8097   0.324E-02    0.357E-02
RMM:  11    -0.363706328796E+03    0.40144E-05   -0.19688E-04  7276   0.220E-02    0.188E-02
RMM:  12    -0.363706330024E+03   -0.12281E-05   -0.92761E-05  6049   0.159E-02
   6 F= -.36370633E+03 E0= -.36371288E+03  d E =-.528730E-01
       N       E                     dE             d eps       ncg     rms          rms(c)
DAV:   1    -0.363665153299E+03    0.41175E-01   -0.25215E+01  5504   0.145E+01    0.145E+00
RMM:   2    -0.363788590351E+03   -0.12344E+00   -0.11962E+00  7563   0.299E+00    0.115E+00
RMM:   3    -0.363729152890E+03    0.59437E-01   -0.12160E-01  8015   0.886E-01    0.566E-01
RMM:   4    -0.363727649195E+03    0.15037E-02   -0.28784E-02  8861   0.257E-01    0.392E-01
RMM:   5    -0.363726791136E+03    0.85806E-03   -0.88461E-03  8582   0.174E-01    0.253E-01
RMM:   6    -0.363726748877E+03    0.42258E-04   -0.43807E-03  8583   0.127E-01    0.124E-01
RMM:   7    -0.363726738594E+03    0.10284E-04   -0.16040E-03  9375   0.653E-02    0.779E-02
RMM:   8    -0.365876517597E+03   -0.21498E+01   -0.21498E+01  8620   0.347E-02    0.592E+01
RMM:   9    -0.363427515731E+03    0.24490E+01   -0.27888E-04  7579   0.279E-02    0.960E-02
RMM:  10    -0.363427284809E+03    0.23092E-03   -0.69642E-04  8007   0.395E-02    0.510E-02
RMM:  11    -0.363427246018E+03    0.38791E-04   -0.17564E-04  7265   0.244E-02    0.318E-02
RMM:  12    -0.363427247430E+03   -0.14125E-05   -0.83697E-05  6780   0.145E-02
   7 F= -.36342725E+03 E0= -.36343427E+03  d E =0.226210E+00
       N       E                     dE             d eps       ncg     rms          rms(c)
DAV:   1    -0.363673744445E+03   -0.24650E+00   -0.80738E-01  6016   0.281E+00    0.686E-01
RMM:   2    -0.363720706232E+03   -0.46962E-01   -0.53379E-01  7578   0.720E-01    0.276E-01
RMM:   3    -0.363731321735E+03   -0.10616E-01   -0.14539E-01  8096   0.225E-01    0.203E-01
RMM:   4    -0.363732353402E+03   -0.10317E-02   -0.28374E-02  8313   0.102E-01    0.120E-01
RMM:   5    -0.363733194175E+03   -0.84077E-03   -0.13147E-02  8220   0.648E-02    0.858E-02
RMM:   6    -0.363733497823E+03   -0.30365E-03   -0.44281E-03  8206   0.386E-02    0.542E-02
RMM:   7    -0.363733637323E+03   -0.13950E-03   -0.21071E-03  7081   0.270E-02    0.243E-02
RMM:   8    -0.363733696265E+03   -0.58942E-04   -0.80243E-04  5515   0.160E-02    0.174E-02
RMM:   9    -0.363733724572E+03   -0.28307E-04   -0.37943E-04  4315   0.129E-02    0.126E-02
RMM:  10    -0.363733734412E+03   -0.98402E-05   -0.15619E-04  3821   0.108E-02    0.831E-03
RMM:  11    -0.363733736745E+03   -0.23331E-05   -0.75361E-05  3322   0.102E-02
   8 F= -.36373374E+03 E0= -.36374067E+03  d E =-.306489E+00
       N       E                     dE             d eps       ncg     rms          rms(c)
DAV:   1    -0.363750041661E+03   -0.16307E-01   -0.27977E+00  5896   0.522E+00    0.129E+00
RMM:   2    -0.363750795393E+03   -0.75373E-03   -0.22912E-01  7353   0.128E+00    0.505E-01
RMM:   3    -0.363743748929E+03    0.70465E-02   -0.33722E-02  8119   0.399E-01    0.365E-01
RMM:   4    -0.363740847549E+03    0.29014E-02   -0.97668E-03  8327   0.182E-01    0.211E-01
RMM:   5    -0.363740087072E+03    0.76048E-03   -0.32269E-03  8240   0.109E-01    0.155E-01
RMM:   6    -0.363740093174E+03   -0.61020E-05   -0.14671E-03  8439   0.627E-02    0.991E-02
RMM:   7    -0.363740056603E+03    0.36570E-04   -0.59521E-04  8004   0.454E-02    0.466E-02
RMM:   8    -0.363740077683E+03   -0.21080E-04   -0.29758E-04  6857   0.255E-02    0.341E-02
RMM:   9    -0.363740083538E+03   -0.58549E-05   -0.12975E-04  6026   0.210E-02    0.263E-02
RMM:  10    -0.363740085939E+03   -0.24010E-05   -0.44969E-05  4893   0.128E-02
   9 F= -.36374009E+03 E0= -.36374689E+03  d E =-.312839E+00
       N       E                     dE             d eps       ncg     rms          rms(c)
DAV:   1    -0.363746019521E+03   -0.59360E-02   -0.48132E-01  5896   0.214E+00    0.461E-01
RMM:   2    -0.363746560686E+03   -0.54117E-03   -0.35842E-02  7031   0.504E-01    0.183E-01
RMM:   3    -0.363745826691E+03    0.73400E-03   -0.45435E-03  8055   0.156E-01    0.130E-01
RMM:   4    -0.363745492712E+03    0.33398E-03   -0.13437E-03  8280   0.668E-02    0.727E-02
RMM:   5    -0.363745437132E+03    0.55580E-04   -0.45574E-04  7818   0.389E-02    0.570E-02
RMM:   6    -0.363745443429E+03   -0.62972E-05   -0.19525E-04  7512   0.233E-02    0.346E-02
RMM:   7    -0.363745453166E+03   -0.97371E-05   -0.78509E-05  6217   0.170E-02
  10 F= -.36374545E+03 E0= -.36375216E+03  d E =-.536723E-02
       N       E                     dE             d eps       ncg     rms          rms(c)
DAV:   1    -0.363759597329E+03   -0.14154E-01   -0.43179E+00  5712   0.639E+00    0.138E+00
RMM:   2    -0.363764263371E+03   -0.46660E-02   -0.32080E-01  6879   0.150E+00    0.541E-01
RMM:   3    -0.363757312866E+03    0.69505E-02   -0.38854E-02  8004   0.462E-01    0.379E-01
RMM:   4    -0.363754436328E+03    0.28765E-02   -0.11821E-02  8318   0.199E-01    0.211E-01
RMM:   5    -0.363753995660E+03    0.44067E-03   -0.38307E-03  8348   0.115E-01    0.170E-01
RMM:   6    -0.363754048186E+03   -0.52526E-04   -0.17426E-03  8621   0.673E-02    0.106E-01
RMM:   7    -0.363754111677E+03   -0.63491E-04   -0.71158E-04  8235   0.497E-02    0.505E-02
RMM:   8    -0.363754185393E+03   -0.73716E-04   -0.36401E-04  7434   0.283E-02    0.368E-02
RMM:   9    -0.363754216992E+03   -0.31599E-04   -0.15396E-04  5744   0.218E-02    0.292E-02
RMM:  10    -0.363754246577E+03   -0.29585E-04   -0.84918E-05  5648   0.161E-02    0.187E-02
RMM:  11    -0.363754268261E+03   -0.21683E-04   -0.38898E-05  4496   0.130E-02    0.670E-03
RMM:  12    -0.363754273631E+03   -0.53704E-05   -0.27367E-05  4444   0.124E-02
  11 F= -.36375427E+03 E0= -.36376068E+03  d E =-.141877E-01
       N       E                     dE             d eps       ncg     rms          rms(c)
DAV:   1    -0.363755096049E+03   -0.82779E-03   -0.33977E-01  5992   0.180E+00    0.387E-01
RMM:   2    -0.363755467913E+03   -0.37186E-03   -0.25163E-02  6850   0.421E-01    0.151E-01
RMM:   3    -0.363754937355E+03    0.53056E-03   -0.30678E-03  8009   0.130E-01    0.105E-01
RMM:   4    -0.363754717598E+03    0.21976E-03   -0.91185E-04  8239   0.552E-02    0.584E-02
RMM:   5    -0.363754686938E+03    0.30660E-04   -0.30520E-04  7711   0.321E-02    0.467E-02
RMM:   6    -0.363754698194E+03   -0.11255E-04   -0.13440E-04  7182   0.194E-02    0.293E-02
RMM:   7    -0.363754710692E+03   -0.12498E-04   -0.53360E-05  4888   0.143E-02    0.147E-02
RMM:   8    -0.363754721207E+03   -0.10515E-04   -0.33018E-05  3989   0.125E-02    0.917E-03
RMM:   9    -0.363754726816E+03   -0.56092E-05   -0.21265E-05  3845   0.115E-02
  12 F= -.36375473E+03 E0= -.36376105E+03  d E =-.146409E-01
       N       E                     dE             d eps       ncg     rms          rms(c)
DAV:   1    -0.363755908815E+03   -0.11876E-02   -0.65779E-01  5632   0.238E+00    0.215E-01
RMM:   2    -0.363758278439E+03   -0.23696E-02   -0.28413E-02  7104   0.471E-01    0.111E-01
RMM:   3    -0.363757963264E+03    0.31518E-03   -0.28442E-03  7957   0.143E-01    0.943E-02
RMM:   4    -0.363757892688E+03    0.70576E-04   -0.66676E-04  8930   0.385E-02    0.629E-02
RMM:   5    -0.363757879275E+03    0.13413E-04   -0.24799E-04  7581   0.273E-02    0.403E-02
RMM:   6    -0.363757861950E+03    0.17325E-04   -0.11790E-04  7593   0.226E-02    0.163E-02
RMM:   7    -0.363757857955E+03    0.39953E-05   -0.33146E-05  3933   0.113E-02
  13 F= -.36375786E+03 E0= -.36376404E+03  d E =-.313114E-02
       N       E                     dE             d eps       ncg     rms          rms(c)
DAV:   1    -0.363746280998E+03    0.11581E-01   -0.59200E+00  5488   0.714E+00    0.633E-01
RMM:   2    -0.363767784942E+03   -0.21504E-01   -0.25628E-01  6903   0.142E+00    0.321E-01
RMM:   3    -0.363765054676E+03    0.27303E-02   -0.25507E-02  7926   0.437E-01    0.281E-01
RMM:   4    -0.363764469054E+03    0.58562E-03   -0.59127E-03  9337   0.114E-01    0.189E-01
RMM:   5    -0.363764368362E+03    0.10069E-03   -0.21104E-03  8585   0.774E-02    0.125E-01
RMM:   6    -0.363764247054E+03    0.12131E-03   -0.11041E-03  8316   0.694E-02    0.502E-02
RMM:   7    -0.363764234687E+03    0.12366E-04   -0.40485E-04  8594   0.294E-02    0.345E-02
RMM:   8    -0.363764233831E+03    0.85596E-06   -0.10078E-04  5643   0.161E-02    0.249E-02
RMM:   9    -0.363764234146E+03   -0.31452E-06   -0.74626E-05  5669   0.149E-02
  14 F= -.36376423E+03 E0= -.36377002E+03  d E =-.950733E-02
       N       E                     dE             d eps       ncg     rms          rms(c)
DAV:   1    -0.363689615262E+03    0.74619E-01   -0.23686E+01  5496   0.143E+01    0.126E+00
RMM:   2    -0.363776944126E+03   -0.87329E-01   -0.10353E+00  6856   0.285E+00    0.633E-01
RMM:   3    -0.363766915078E+03    0.10029E-01   -0.10536E-01  8069   0.893E-01    0.572E-01
RMM:   4    -0.363764509779E+03    0.24053E-02   -0.24022E-02  9268   0.228E-01    0.390E-01
RMM:   5    -0.363764045488E+03    0.46429E-03   -0.82929E-03  8689   0.158E-01    0.260E-01
RMM:   6    -0.363763522751E+03    0.52274E-03   -0.46057E-03  8248   0.146E-01    0.101E-01
RMM:   7    -0.363763484606E+03    0.38145E-04   -0.16510E-03  9744   0.599E-02    0.709E-02
RMM:   8    -0.363763504002E+03   -0.19396E-04   -0.51451E-04  8332   0.323E-02    0.515E-02
RMM:   9    -0.363763515011E+03   -0.11009E-04   -0.26807E-04  7782   0.247E-02    0.346E-02
RMM:  10    -0.363763513804E+03    0.12074E-05   -0.11348E-04  6294   0.178E-02    0.152E-02
RMM:  11    -0.363763512793E+03    0.10108E-05   -0.64624E-05  5199   0.146E-02
  15 F= -.36376351E+03 E0= -.36376862E+03  d E =-.878598E-02
       N       E                     dE             d eps       ncg     rms          rms(c)
DAV:   1    -0.363745348914E+03    0.18165E-01   -0.72869E+00  5576   0.791E+00    0.712E-01
RMM:   2    -0.363770803846E+03   -0.25455E-01   -0.31169E-01  6946   0.156E+00    0.362E-01
RMM:   3    -0.363766944474E+03    0.38594E-02   -0.29755E-02  7961   0.472E-01    0.299E-01
RMM:   4    -0.363766242011E+03    0.70246E-03   -0.71314E-03  9163   0.127E-01    0.194E-01
RMM:   5    -0.363766149360E+03    0.92651E-04   -0.26150E-03  8805   0.884E-02    0.125E-01
RMM:   6    -0.363766080500E+03    0.68860E-04   -0.12090E-03  8677   0.690E-02    0.550E-02
RMM:   7    -0.363766085479E+03   -0.49785E-05   -0.43948E-04  8818   0.324E-02    0.360E-02
RMM:   8    -0.363766102265E+03   -0.16786E-04   -0.12001E-04  6228   0.170E-02    0.253E-02
RMM:   9    -0.363766116247E+03   -0.13981E-04   -0.84624E-05  5878   0.158E-02    0.146E-02
RMM:  10    -0.363766124438E+03   -0.81912E-05   -0.23406E-05  3882   0.117E-02
  16 F= -.36376612E+03 E0= -.36377158E+03  d E =-.113976E-01
       N       E                     dE             d eps       ncg     rms          rms(c)
DAV:   1    -0.363768103029E+03   -0.19868E-02   -0.26391E+00  5600   0.475E+00    0.628E-01
RMM:   2    -0.363774195006E+03   -0.60920E-02   -0.12323E-01  7506   0.963E-01    0.276E-01
RMM:   3    -0.363772363611E+03    0.18314E-02   -0.12324E-02  7750   0.286E-01    0.196E-01
RMM:   4    -0.363771899362E+03    0.46425E-03   -0.35992E-03  8271   0.100E-01    0.116E-01
RMM:   5    -0.363771804047E+03    0.95315E-04   -0.12825E-03  8742   0.607E-02    0.815E-02
RMM:   6    -0.363771806271E+03   -0.22241E-05   -0.56136E-04  8622   0.393E-02    0.487E-02
RMM:   7    -0.363771814595E+03   -0.83237E-05   -0.21854E-04  7631   0.254E-02    0.281E-02
RMM:   8    -0.363771831173E+03   -0.16578E-04   -0.72281E-05  5578   0.155E-02    0.181E-02
RMM:   9    -0.363771841718E+03   -0.10545E-04   -0.47348E-05  4488   0.132E-02    0.115E-02
RMM:  10    -0.363771849588E+03   -0.78703E-05   -0.28805E-05  4128   0.126E-02
  17 F= -.36377185E+03 E0= -.36377706E+03  d E =-.572515E-02
       N       E                     dE             d eps       ncg     rms          rms(c)
DAV:   1    -0.363761939958E+03    0.99018E-02   -0.86329E+00  5600   0.860E+00    0.115E+00
RMM:   2    -0.363781828640E+03   -0.19889E-01   -0.40454E-01  7589   0.175E+00    0.505E-01
RMM:   3    -0.363775991762E+03    0.58369E-02   -0.41157E-02  7812   0.513E-01    0.357E-01
RMM:   4    -0.363774494830E+03    0.14969E-02   -0.12327E-02  8346   0.184E-01    0.211E-01
RMM:   5    -0.363774168470E+03    0.32636E-03   -0.43693E-03  8791   0.113E-01    0.149E-01
RMM:   6    -0.363774160732E+03    0.77381E-05   -0.19109E-03  8838   0.721E-02    0.890E-02
RMM:   7    -0.363774175564E+03   -0.14832E-04   -0.75795E-04  9027   0.469E-02    0.511E-02
RMM:   8    -0.363774222870E+03   -0.47306E-04   -0.30004E-04  7738   0.253E-02    0.341E-02
RMM:   9    -0.363774247469E+03   -0.24599E-04   -0.14937E-04  6110   0.205E-02    0.229E-02
RMM:  10    -0.363774266785E+03   -0.19316E-04   -0.73401E-05  5499   0.156E-02    0.149E-02
RMM:  11    -0.363774278377E+03   -0.11592E-04   -0.30996E-05  4380   0.126E-02    0.562E-03
RMM:  12    -0.363774281181E+03   -0.28038E-05   -0.20210E-05  3711   0.116E-02
  18 F= -.36377428E+03 E0= -.36377910E+03  d E =-.815674E-02
       N       E                     dE             d eps       ncg     rms          rms(c)
DAV:   1    -0.363773730482E+03    0.54789E-03   -0.65624E-01  5672   0.237E+00    0.312E-01
RMM:   2    -0.363775324577E+03   -0.15941E-02   -0.30914E-02  7450   0.481E-01    0.139E-01
RMM:   3    -0.363774853900E+03    0.47068E-03   -0.31021E-03  7710   0.145E-01    0.101E-01
RMM:   4    -0.363774722491E+03    0.13141E-03   -0.87720E-04  8169   0.497E-02    0.612E-02
RMM:   5    -0.363774685761E+03    0.36730E-04   -0.31412E-04  7975   0.301E-02    0.427E-02
RMM:   6    -0.363774670740E+03    0.15021E-04   -0.13564E-04  7198   0.205E-02    0.246E-02
RMM:   7    -0.363774662188E+03    0.85514E-05   -0.54971E-05  5158   0.136E-02
  19 F= -.36377466E+03 E0= -.36377958E+03  d E =-.853775E-02
       N       E                     dE             d eps       ncg     rms          rms(c)
DAV:   1    -0.363786361399E+03   -0.11691E-01   -0.35405E+00  5944   0.572E+00    0.127E+00
RMM:   2    -0.363788017918E+03   -0.16565E-02   -0.23367E-01  6975   0.129E+00    0.529E-01
RMM:   3    -0.363780557988E+03    0.74599E-02   -0.34793E-02  8106   0.418E-01    0.357E-01
RMM:   4    -0.363777807264E+03    0.27507E-02   -0.10161E-02  8324   0.185E-01    0.203E-01
RMM:   5    -0.363777146694E+03    0.66057E-03   -0.31688E-03  8423   0.110E-01    0.155E-01
RMM:   6    -0.363777156159E+03   -0.94650E-05   -0.14520E-03  8708   0.607E-02    0.994E-02
RMM:   7    -0.363777133876E+03    0.22284E-04   -0.53530E-04  8166   0.443E-02    0.472E-02
RMM:   8    -0.363777158986E+03   -0.25110E-04   -0.31610E-04  7239   0.265E-02    0.342E-02
RMM:   9    -0.363777165576E+03   -0.65900E-05   -0.13546E-04  5791   0.214E-02    0.266E-02
RMM:  10    -0.363777168838E+03   -0.32627E-05   -0.58845E-05  5103   0.139E-02
  20 F= -.36377717E+03 E0= -.36378193E+03  d E =-.250665E-02
       N       E                     dE             d eps       ncg     rms          rms(c)
DAV:   1    -0.363777711160E+03   -0.54558E-03   -0.14037E-01  6248   0.114E+00    0.258E-01
RMM:   2    -0.363777735414E+03   -0.24255E-04   -0.94763E-03  7199   0.258E-01    0.107E-01
RMM:   3    -0.363777446706E+03    0.28871E-03   -0.14465E-03  8120   0.837E-02    0.736E-02
RMM:   4    -0.363777335885E+03    0.11082E-03   -0.41751E-04  8206   0.376E-02    0.413E-02
RMM:   5    -0.363777310123E+03    0.25762E-04   -0.12421E-04  6899   0.231E-02    0.303E-02
RMM:   6    -0.363777315214E+03   -0.50904E-05   -0.53014E-05  4566   0.130E-02
  21 F= -.36377732E+03 E0= -.36378210E+03  d E =-.265303E-02
       N       E                     dE             d eps       ncg     rms          rms(c)
DAV:   1    -0.363777711067E+03   -0.40094E-03   -0.36551E-01  5512   0.174E+00    0.175E-01
RMM:   2    -0.363778632161E+03   -0.92109E-03   -0.14254E-02  7642   0.342E-01    0.865E-02
RMM:   3    -0.363778503241E+03    0.12892E-03   -0.14366E-03  8003   0.931E-02    0.635E-02
RMM:   4    -0.363778460813E+03    0.42429E-04   -0.34727E-04  8367   0.309E-02    0.386E-02
RMM:   5    -0.363778458652E+03    0.21607E-05   -0.16319E-04  7306   0.217E-02    0.266E-02
RMM:   6    -0.363778459359E+03   -0.70683E-06   -0.62454E-05  5519   0.144E-02
  22 F= -.36377846E+03 E0= -.36378317E+03  d E =-.114415E-02
       N       E                     dE             d eps       ncg     rms          rms(c)
DAV:   1    -0.363776079409E+03    0.23792E-02   -0.16084E+00  5488   0.364E+00    0.373E-01
RMM:   2    -0.363780183922E+03   -0.41045E-02   -0.63370E-02  7815   0.721E-01    0.192E-01
RMM:   3    -0.363779633099E+03    0.55082E-03   -0.67126E-03  8029   0.192E-01    0.137E-01
RMM:   4    -0.363779439729E+03    0.19337E-03   -0.16674E-03  8711   0.665E-02    0.838E-02
RMM:   5    -0.363779419114E+03    0.20614E-04   -0.79975E-04  8663   0.471E-02    0.559E-02
RMM:   6    -0.363779405131E+03    0.13984E-04   -0.29126E-04  8411   0.304E-02    0.289E-02
RMM:   7    -0.363779413456E+03   -0.83256E-05   -0.10383E-04  5641   0.165E-02    0.192E-02
RMM:   8    -0.363779421656E+03   -0.81993E-05   -0.55595E-05  4609   0.145E-02
  23 F= -.36377942E+03 E0= -.36378400E+03  d E =-.210644E-02
       N       E                     dE             d eps       ncg     rms          rms(c)
DAV:   1    -0.363780998955E+03   -0.15855E-02   -0.50371E-01  5672   0.213E+00    0.426E-01
RMM:   2    -0.363781467873E+03   -0.46892E-03   -0.30491E-02  7090   0.466E-01    0.172E-01
RMM:   3    -0.363780744106E+03    0.72377E-03   -0.39728E-03  8062   0.149E-01    0.122E-01
RMM:   4    -0.363780465879E+03    0.27823E-03   -0.11802E-03  8165   0.635E-02    0.708E-02
RMM:   5    -0.363780393159E+03    0.72720E-04   -0.39876E-04  8167   0.352E-02    0.554E-02
RMM:   6    -0.363780378880E+03    0.14279E-04   -0.17172E-04  7285   0.212E-02    0.340E-02
RMM:   7    -0.363780364137E+03    0.14742E-04   -0.78410E-05  6172   0.159E-02    0.153E-02
RMM:   8    -0.363780361344E+03    0.27936E-05   -0.36487E-05  4070   0.122E-02
  24 F= -.36378036E+03 E0= -.36378487E+03  d E =-.939688E-03
       N       E                     dE             d eps       ncg     rms          rms(c)
DAV:   1    -0.363780854063E+03   -0.48993E-03   -0.30373E-01  5684   0.165E+00    0.326E-01
RMM:   2    -0.363781148122E+03   -0.29406E-03   -0.18244E-02  6988   0.360E-01    0.129E-01
RMM:   3    -0.363780699431E+03    0.44869E-03   -0.22769E-03  8045   0.113E-01    0.896E-02
RMM:   4    -0.363780547060E+03    0.15237E-03   -0.68284E-04  8134   0.482E-02    0.520E-02
RMM:   5    -0.363780508194E+03    0.38865E-04   -0.22686E-04  7617   0.266E-02    0.415E-02
RMM:   6    -0.363780501174E+03    0.70209E-05   -0.10154E-04  6541   0.164E-02    0.266E-02
RMM:   7    -0.363780491874E+03    0.92999E-05   -0.45550E-05  4482   0.134E-02
  25 F= -.36378049E+03 E0= -.36378495E+03  d E =-.107022E-02
       N       E                     dE             d eps       ncg     rms          rms(c)
DAV:   1    -0.363780713869E+03   -0.21270E-03   -0.14630E-01  5608   0.110E+00    0.126E-01
RMM:   2    -0.363781107452E+03   -0.39358E-03   -0.61475E-03  7818   0.220E-01    0.646E-02
RMM:   3    -0.363781050034E+03    0.57418E-04   -0.71078E-04  8012   0.626E-02    0.499E-02
RMM:   4    -0.363781018327E+03    0.31706E-04   -0.17536E-04  7383   0.228E-02    0.305E-02
RMM:   5    -0.363781013551E+03    0.47760E-05   -0.77522E-05  6383   0.149E-02
  26 F= -.36378101E+03 E0= -.36378542E+03  d E =-.521678E-03
       N       E                     dE             d eps       ncg     rms          rms(c)
DAV:   1    -0.363779060242E+03    0.19581E-02   -0.13146E+00  5488   0.331E+00    0.367E-01
RMM:   2    -0.363782660835E+03   -0.36006E-02   -0.54273E-02  7716   0.653E-01    0.185E-01
RMM:   3    -0.363781987981E+03    0.67285E-03   -0.57172E-03  7966   0.183E-01    0.141E-01
RMM:   4    -0.363781740504E+03    0.24748E-03   -0.14392E-03  8353   0.645E-02    0.855E-02
RMM:   5    -0.363781715782E+03    0.24722E-04   -0.65877E-04  8707   0.460E-02    0.560E-02
RMM:   6    -0.363781703873E+03    0.11909E-04   -0.26953E-04  8397   0.296E-02    0.306E-02
RMM:   7    -0.363781711481E+03   -0.76085E-05   -0.10191E-04  6182   0.166E-02    0.196E-02
RMM:   8    -0.363781719239E+03   -0.77576E-05   -0.37052E-05  4358   0.131E-02
  27 F= -.36378172E+03 E0= -.36378598E+03  d E =-.122737E-02
       N       E                     dE             d eps       ncg     rms          rms(c)
DAV:   1    -0.363781993628E+03   -0.28215E-03   -0.24217E-02  5824   0.464E-01    0.802E-02
RMM:   2    -0.363782021298E+03   -0.27670E-04   -0.13564E-03  7405   0.984E-02    0.320E-02
RMM:   3    -0.363781998275E+03    0.23023E-04   -0.15380E-04  7033   0.306E-02    0.223E-02
RMM:   4    -0.363781992100E+03    0.61751E-05   -0.46259E-05  4902   0.139E-02
  28 F= -.36378199E+03 E0= -.36378626E+03  d E =-.272861E-03
       N       E                     dE             d eps       ncg     rms          rms(c)
DAV:   1    -0.363782532291E+03   -0.53402E-03   -0.21745E-01  5496   0.139E+00    0.244E-01
RMM:   2    -0.363782762530E+03   -0.23024E-03   -0.12332E-02  7701   0.298E-01    0.101E-01
RMM:   3    -0.363782560124E+03    0.20241E-03   -0.15272E-03  7945   0.899E-02    0.731E-02
RMM:   4    -0.363782474562E+03    0.85562E-04   -0.46458E-04  8052   0.377E-02    0.440E-02
RMM:   5    -0.363782454038E+03    0.20525E-04   -0.16919E-04  7294   0.219E-02    0.321E-02
RMM:   6    -0.363782459486E+03   -0.54482E-05   -0.72839E-05  5635   0.144E-02
  29 F= -.36378246E+03 E0= -.36378673E+03  d E =-.740247E-03
       N       E                     dE             d eps       ncg     rms          rms(c)
DAV:   1    -0.363782515141E+03   -0.61104E-04   -0.52209E-02  5552   0.681E-01    0.118E-01
RMM:   2    -0.363782564970E+03   -0.49829E-04   -0.29423E-03  7743   0.146E-01    0.489E-02
RMM:   3    -0.363782521528E+03    0.43442E-04   -0.37783E-04  7840   0.438E-02    0.345E-02
RMM:   4    -0.363782507380E+03    0.14148E-04   -0.11988E-04  6824   0.192E-02    0.209E-02
RMM:   5    -0.363782505501E+03    0.18793E-05   -0.40120E-05  4363   0.110E-02
  30 F= -.36378251E+03 E0= -.36378678E+03  d E =-.786262E-03
       N       E                     dE             d eps       ncg     rms          rms(c)
DAV:   1    -0.363782842070E+03   -0.33469E-03   -0.23016E-02  6264   0.470E-01    0.130E-01
RMM:   2    -0.363782824206E+03    0.17864E-04   -0.17849E-03  7872   0.112E-01    0.509E-02
RMM:   3    -0.363782768923E+03    0.55283E-04   -0.35366E-04  8029   0.358E-02    0.387E-02
RMM:   4    -0.363782736010E+03    0.32912E-04   -0.10264E-04  6908   0.198E-02    0.206E-02
RMM:   5    -0.363782727052E+03    0.89577E-05   -0.31958E-05  4052   0.125E-02
  31 F= -.36378273E+03 E0= -.36378701E+03  d E =-.221552E-03
       N       E                     dE             d eps       ncg     rms          rms(c)
DAV:   1    -0.363783970057E+03   -0.12340E-02   -0.20546E-01  5764   0.141E+00    0.365E-01
RMM:   2    -0.363783812982E+03    0.15708E-03   -0.15531E-02  7620   0.339E-01    0.143E-01
RMM:   3    -0.363783209294E+03    0.60369E-03   -0.26071E-03  8119   0.105E-01    0.107E-01
RMM:   4    -0.363782958733E+03    0.25056E-03   -0.76823E-04  8249   0.539E-02    0.599E-02
RMM:   5    -0.363782898013E+03    0.60720E-04   -0.25702E-04  7717   0.313E-02    0.457E-02
RMM:   6    -0.363782891382E+03    0.66304E-05   -0.12026E-04  7027   0.184E-02    0.287E-02
RMM:   7    -0.363782880406E+03    0.10976E-04   -0.46195E-05  4500   0.137E-02    0.147E-02
RMM:   8    -0.363782878224E+03    0.21818E-05   -0.31265E-05  3898   0.114E-02
  32 F= -.36378288E+03 E0= -.36378718E+03  d E =-.372723E-03
       N       E                     dE             d eps       ncg     rms          rms(c)
DAV:   1    -0.363782939887E+03   -0.59482E-04   -0.75295E-03  6264   0.269E-01    0.742E-02
RMM:   2    -0.363782924107E+03    0.15780E-04   -0.59564E-04  7692   0.641E-02    0.310E-02
RMM:   3    -0.363782902377E+03    0.21730E-04   -0.10950E-04  6492   0.205E-02    0.240E-02
RMM:   4    -0.363782889985E+03    0.12392E-04   -0.26917E-05  3245   0.143E-02    0.141E-02
RMM:   5    -0.363782887299E+03    0.26855E-05   -0.10047E-05  2990   0.107E-02
  33 F= -.36378289E+03 E0= -.36378719E+03  d E =-.381798E-03
       N       E                     dE             d eps       ncg     rms          rms(c)
DAV:   1    -0.363782978612E+03   -0.88628E-04   -0.23728E-02  5756   0.480E-01    0.122E-01
RMM:   2    -0.363782953483E+03    0.25129E-04   -0.17821E-03  7614   0.114E-01    0.484E-02
RMM:   3    -0.363782886490E+03    0.66993E-04   -0.29037E-04  7592   0.354E-02    0.359E-02
RMM:   4    -0.363782861155E+03    0.25335E-04   -0.81832E-05  6125   0.185E-02    0.205E-02
RMM:   5    -0.363782855996E+03    0.51588E-05   -0.21106E-05  3264   0.129E-02
  34 F= -.36378286E+03 E0= -.36378715E+03  d E =-.350496E-03
       N       E                     dE             d eps       ncg     rms          rms(c)
DAV:   1    -0.363782942604E+03   -0.81449E-04   -0.96225E-03  6088   0.303E-01    0.849E-02
RMM:   2    -0.363782942753E+03   -0.14915E-06   -0.74989E-04  7305   0.725E-02    0.339E-02
RMM:   3    -0.363782915863E+03    0.26890E-04   -0.13190E-04  6620   0.235E-02    0.242E-02
RMM:   4    -0.363782902297E+03    0.13566E-04   -0.32410E-05  3780   0.152E-02    0.132E-02
RMM:   5    -0.363782898648E+03    0.36494E-05   -0.10185E-05  2897   0.109E-02
  35 F= -.36378290E+03 E0= -.36378720E+03  d E =-.393147E-03
       N       E                     dE             d eps       ncg     rms          rms(c)
DAV:   1    -0.363782902796E+03   -0.49955E-06   -0.60922E-04  5848   0.771E-02    0.181E-02
RMM:   2    -0.363782903126E+03   -0.32917E-06   -0.48975E-05  4825   0.179E-02
  36 F= -.36378290E+03 E0= -.36378720E+03  d E =-.397625E-03
       N       E                     dE             d eps       ncg     rms          rms(c)
DAV:   1    -0.363782984003E+03   -0.81207E-04   -0.58530E-03  5584   0.214E-01    0.247E-02
RMM:   2    -0.363782995384E+03   -0.11381E-04   -0.22857E-04  7430   0.427E-02    0.125E-02
RMM:   3    -0.363782990609E+03    0.47750E-05   -0.22332E-05  3503   0.127E-02
  37 F= -.36378299E+03 E0= -.36378728E+03  d E =-.874834E-04
       N       E                     dE             d eps       ncg     rms          rms(c)
DAV:   1    -0.363783144488E+03   -0.14910E-03   -0.52354E-02  5488   0.639E-01    0.731E-02
RMM:   2    -0.363783230189E+03   -0.85701E-04   -0.19807E-03  7836   0.126E-01    0.366E-02
RMM:   3    -0.363783216809E+03    0.13380E-04   -0.25909E-04  7485   0.342E-02    0.262E-02
RMM:   4    -0.363783208046E+03    0.87629E-05   -0.80700E-05  5952   0.153E-02
  38 F= -.36378321E+03 E0= -.36378749E+03  d E =-.304921E-03
       N       E                     dE             d eps       ncg     rms          rms(c)
DAV:   1    -0.363783125485E+03    0.91324E-04   -0.20907E-01  5488   0.128E+00    0.143E-01
RMM:   2    -0.363783487260E+03   -0.36178E-03   -0.77484E-03  7863   0.252E-01    0.722E-02
RMM:   3    -0.363783460455E+03    0.26805E-04   -0.10278E-03  7971   0.683E-02    0.544E-02
RMM:   4    -0.363783412007E+03    0.48448E-04   -0.30170E-04  8219   0.285E-02    0.303E-02
RMM:   5    -0.363783406344E+03    0.56638E-05   -0.13186E-04  6828   0.193E-02    0.179E-02
RMM:   6    -0.363783402112E+03    0.42321E-05   -0.41424E-05  4313   0.120E-02
  39 F= -.36378340E+03 E0= -.36378766E+03  d E =-.498986E-03
       N       E                     dE             d eps       ncg     rms          rms(c)
DAV:   1    -0.363783785825E+03   -0.37948E-03   -0.32054E-02  6288   0.560E-01    0.168E-01
RMM:   2    -0.363783656656E+03    0.12917E-03   -0.24978E-03  7978   0.131E-01    0.630E-02
RMM:   3    -0.363783565141E+03    0.91515E-04   -0.52829E-04  8235   0.418E-02    0.472E-02
RMM:   4    -0.363783516139E+03    0.49002E-04   -0.15986E-04  7864   0.260E-02    0.250E-02
RMM:   5    -0.363783507629E+03    0.85103E-05   -0.51634E-05  5469   0.145E-02
  40 F= -.36378351E+03 E0= -.36378774E+03  d E =-.105517E-03
       N       E                     dE             d eps       ncg     rms          rms(c)
DAV:   1    -0.363784023052E+03   -0.50691E-03   -0.63865E-02  5960   0.792E-01    0.226E-01
RMM:   2    -0.363783781474E+03    0.24158E-03   -0.47755E-03  7876   0.186E-01    0.844E-02
RMM:   3    -0.363783594252E+03    0.18722E-03   -0.90965E-04  8207   0.568E-02    0.634E-02
RMM:   4    -0.363783509642E+03    0.84610E-04   -0.28185E-04  7950   0.350E-02    0.351E-02
RMM:   5    -0.363783498493E+03    0.11149E-04   -0.93895E-05  6675   0.199E-02    0.285E-02
RMM:   6    -0.363783508492E+03   -0.99990E-05   -0.38884E-05  4224   0.117E-02
  41 F= -.36378351E+03 E0= -.36378771E+03  d E =-.106380E-03
       N       E                     dE             d eps       ncg     rms          rms(c)
DAV:   1    -0.363783594406E+03   -0.95913E-04   -0.57268E-03  6288   0.235E-01    0.743E-02
RMM:   2    -0.363783587377E+03    0.70290E-05   -0.48130E-04  7818   0.559E-02    0.297E-02
RMM:   3    -0.363783569712E+03    0.17665E-04   -0.10035E-04  6407   0.185E-02    0.223E-02
RMM:   4    -0.363783559807E+03    0.99051E-05   -0.23210E-05  3113   0.135E-02
  42 F= -.36378356E+03 E0= -.36378777E+03  d E =-.157696E-03
       N       E                     dE             d eps       ncg     rms          rms(c)
DAV:   1    -0.363783631041E+03   -0.61329E-04   -0.78455E-03  5848   0.278E-01    0.796E-02
RMM:   2    -0.363783608012E+03    0.23029E-04   -0.62542E-04  7874   0.671E-02    0.309E-02
RMM:   3    -0.363783579108E+03    0.28904E-04   -0.10447E-04  6540   0.207E-02    0.245E-02
RMM:   4    -0.363783563768E+03    0.15340E-04   -0.26854E-05  3305   0.142E-02    0.153E-02
RMM:   5    -0.363783559919E+03    0.38488E-05   -0.10502E-05  2907   0.115E-02
  43 F= -.36378356E+03 E0= -.36378779E+03  d E =-.157807E-03
       N       E                     dE             d eps       ncg     rms          rms(c)
DAV:   1    -0.363783604888E+03   -0.41120E-04   -0.25406E-02  5488   0.450E-01    0.301E-02
RMM:   2    -0.363783669917E+03   -0.65029E-04   -0.82709E-04  6619   0.865E-02    0.161E-02
RMM:   3    -0.363783663540E+03    0.63772E-05   -0.73577E-05  5543   0.267E-02
  44 F= -.36378366E+03 E0= -.36378788E+03  d E =-.103621E-03
       N       E                     dE             d eps       ncg     rms          rms(c)
DAV:   1    -0.363783358017E+03    0.31190E-03   -0.21837E-01  5488   0.131E+00    0.922E-02
RMM:   2    -0.363783927099E+03   -0.56908E-03   -0.72412E-03  7292   0.253E-01    0.522E-02
RMM:   3    -0.363783915309E+03    0.11790E-04   -0.87934E-04  7909   0.726E-02    0.401E-02
RMM:   4    -0.363783905279E+03    0.10030E-04   -0.20535E-04  7807   0.218E-02    0.251E-02
RMM:   5    -0.363783903601E+03    0.16773E-05   -0.70976E-05  5572   0.135E-02
  45 F= -.36378390E+03 E0= -.36378808E+03  d E =-.343682E-03
       N       E                     dE             d eps       ncg     rms          rms(c)
DAV:   1    -0.363781837766E+03    0.20675E-02   -0.87211E-01  5488   0.263E+00    0.180E-01
RMM:   2    -0.363784126125E+03   -0.22884E-02   -0.28542E-02  7261   0.505E-01    0.100E-01
RMM:   3    -0.363784084072E+03    0.42053E-04   -0.33604E-03  8021   0.145E-01    0.788E-02
RMM:   4    -0.363784034695E+03    0.49377E-04   -0.71937E-04  8917   0.409E-02    0.499E-02
RMM:   5    -0.363784034377E+03    0.31826E-06   -0.29319E-04  8105   0.295E-02    0.289E-02
RMM:   6    -0.363784025493E+03    0.88834E-05   -0.11451E-04  6839   0.193E-02    0.133E-02
RMM:   7    -0.363784024546E+03    0.94758E-06   -0.29749E-05  4356   0.123E-02
  46 F= -.36378402E+03 E0= -.36378813E+03  d E =-.464627E-03
       N       E                     dE             d eps       ncg     rms          rms(c)
DAV:   1    -0.363783972249E+03    0.53244E-04   -0.16385E-01  5504   0.112E+00    0.139E-01
RMM:   2    -0.363784319487E+03   -0.34724E-03   -0.62800E-03  7819   0.217E-01    0.661E-02
RMM:   3    -0.363784238312E+03    0.81175E-04   -0.69040E-04  7885   0.616E-02    0.475E-02
RMM:   4    -0.363784210699E+03    0.27612E-04   -0.19682E-04  7722   0.239E-02    0.284E-02
RMM:   5    -0.363784203102E+03    0.75969E-05   -0.76877E-05  6229   0.149E-02
  47 F= -.36378420E+03 E0= -.36378831E+03  d E =-.178556E-03
       N       E                     dE             d eps       ncg     rms          rms(c)
DAV:   1    -0.363784078099E+03    0.13260E-03   -0.12466E-01  5488   0.974E-01    0.119E-01
RMM:   2    -0.363784344192E+03   -0.26609E-03   -0.47433E-03  7868   0.189E-01    0.598E-02
RMM:   3    -0.363784274472E+03    0.69720E-04   -0.54162E-04  7922   0.530E-02    0.428E-02
RMM:   4    -0.363784252304E+03    0.22167E-04   -0.15120E-04  7399   0.214E-02    0.257E-02
RMM:   5    -0.363784247280E+03    0.50243E-05   -0.64139E-05  5786   0.136E-02
  48 F= -.36378425E+03 E0= -.36378835E+03  d E =-.222734E-03
       N       E                     dE             d eps       ncg     rms          rms(c)
DAV:   1    -0.363784488614E+03   -0.23631E-03   -0.10481E-01  5760   0.901E-01    0.172E-01
RMM:   2    -0.363784532039E+03   -0.43425E-04   -0.47431E-03  7792   0.185E-01    0.739E-02
RMM:   3    -0.363784440539E+03    0.91500E-04   -0.74630E-04  8035   0.596E-02    0.528E-02
RMM:   4    -0.363784388904E+03    0.51635E-04   -0.23583E-04  8049   0.277E-02    0.294E-02
RMM:   5    -0.363784377351E+03    0.11553E-04   -0.83530E-05  6683   0.161E-02    0.212E-02
RMM:   6    -0.363784379441E+03   -0.20902E-05   -0.26284E-05  3594   0.995E-03
  49 F= -.36378438E+03 E0= -.36378847E+03  d E =-.132161E-03
       N       E                     dE             d eps       ncg     rms          rms(c)
DAV:   1    -0.363784447549E+03   -0.70198E-04   -0.61864E-02  5576   0.693E-01    0.124E-01
RMM:   2    -0.363784481379E+03   -0.33830E-04   -0.26946E-03  7750   0.139E-01    0.531E-02
RMM:   3    -0.363784426635E+03    0.54745E-04   -0.39627E-04  7877   0.440E-02    0.378E-02
RMM:   4    -0.363784402801E+03    0.23834E-04   -0.12321E-04  7130   0.202E-02    0.220E-02
RMM:   5    -0.363784398598E+03    0.42026E-05   -0.42495E-05  4887   0.120E-02
  50 F= -.36378440E+03 E0= -.36378848E+03  d E =-.151318E-03
