       N       E                     dE             d eps       ncg     rms          rms(c)
DAV:   1     0.257597647551E+04    0.25760E+04   -0.13445E+05  6248   0.109E+03
DAV:   2    -0.199301596270E+01   -0.25780E+04   -0.24879E+04  6480   0.425E+02
DAV:   3    -0.322002004126E+03   -0.32001E+03   -0.30437E+03  9712   0.104E+02
DAV:   4    -0.360205285875E+03   -0.38203E+02   -0.36619E+02  9840   0.332E+01
DAV:   5    -0.364131123069E+03   -0.39258E+01   -0.38675E+01  9272   0.103E+01    0.623E+01
RMM:   6    -0.353877137295E+03    0.10254E+02   -0.23027E+01  7689   0.979E+00    0.288E+01
RMM:   7    -0.356044680337E+03   -0.21675E+01   -0.23538E+01  8313   0.827E+00    0.116E+01
RMM:   8    -0.350182769342E+03    0.58619E+01   -0.51413E+00  8443   0.312E+00    0.440E+00
RMM:   9    -0.350149977101E+03    0.32792E-01   -0.19199E+00  8423   0.180E+00    0.299E+00
RMM:  10    -0.350078771867E+03    0.71205E-01   -0.37428E-01  8380   0.113E+00    0.118E+00
RMM:  11    -0.350068205633E+03    0.10566E-01   -0.12235E-01  8467   0.524E-01    0.631E-01
RMM:  12    -0.350062916271E+03    0.52894E-02   -0.37016E-02  8551   0.267E-01    0.355E-01
RMM:  13    -0.350061610303E+03    0.13060E-02   -0.13452E-02  8673   0.150E-01    0.222E-01
RMM:  14    -0.350061807997E+03   -0.19769E-03   -0.57259E-03  9100   0.906E-02    0.124E-01
RMM:  15    -0.350061846625E+03   -0.38629E-04   -0.23775E-03  8948   0.559E-02    0.561E-02
RMM:  16    -0.350061881618E+03   -0.34993E-04   -0.10203E-03  7571   0.332E-02    0.347E-02
RMM:  17    -0.350061884618E+03   -0.30004E-05   -0.43673E-04  6708   0.233E-02    0.167E-02
RMM:  18    -0.350061890657E+03   -0.60384E-05   -0.19488E-04  6161   0.165E-02    0.881E-03
RMM:  19    -0.350061894763E+03   -0.41065E-05   -0.82733E-05  5350   0.122E-02
   1 F= -.35006189E+03 E0= -.35006182E+03  d E =-.350062E+03
       N       E                     dE             d eps       ncg     rms          rms(c)
DAV:   1    -0.350147543065E+03   -0.85652E-01   -0.35288E+00  7648   0.602E+00    0.222E+00
RMM:   2    -0.350116886290E+03    0.30657E-01   -0.37900E-01  8160   0.158E+00    0.737E-01
RMM:   3    -0.350106638271E+03    0.10248E-01   -0.72959E-02  8565   0.476E-01    0.524E-01
RMM:   4    -0.350099099725E+03    0.75385E-02   -0.19827E-02  8651   0.278E-01    0.288E-01
RMM:   5    -0.350097947529E+03    0.11522E-02   -0.60680E-03  8786   0.150E-01    0.235E-01
RMM:   6    -0.350098007949E+03   -0.60421E-04   -0.25550E-03  9413   0.758E-02    0.141E-01
RMM:   7    -0.350098045331E+03   -0.37382E-04   -0.11530E-03  9065   0.613E-02    0.755E-02
RMM:   8    -0.350098079673E+03   -0.34342E-04   -0.59191E-04  8242   0.343E-02    0.512E-02
RMM:   9    -0.350098109600E+03   -0.29927E-04   -0.17946E-04  6492   0.243E-02    0.427E-02
RMM:  10    -0.350098138303E+03   -0.28702E-04   -0.13642E-04  6073   0.188E-02    0.270E-02
RMM:  11    -0.350098139381E+03   -0.10784E-05   -0.10321E-04  5745   0.169E-02    0.919E-03
RMM:  12    -0.350098135810E+03    0.35705E-05   -0.40073E-05  4885   0.134E-02
   2 F= -.35009814E+03 E0= -.35009827E+03  d E =-.362410E-01
       N       E                     dE             d eps       ncg     rms          rms(c)
DAV:   1    -0.350281696076E+03   -0.18356E+00   -0.11115E+01  7384   0.107E+01    0.388E+00
RMM:   2    -0.350183686911E+03    0.98009E-01   -0.11712E+00  8180   0.278E+00    0.131E+00
RMM:   3    -0.350149574706E+03    0.34112E-01   -0.22777E-01  8603   0.830E-01    0.928E-01
RMM:   4    -0.350126123087E+03    0.23452E-01   -0.61915E-02  8665   0.492E-01    0.510E-01
RMM:   5    -0.350122307516E+03    0.38156E-02   -0.18958E-02  8789   0.265E-01    0.414E-01
RMM:   6    -0.350122583850E+03   -0.27633E-03   -0.78151E-03  9536   0.132E-01    0.252E-01
RMM:   7    -0.350122793052E+03   -0.20920E-03   -0.36081E-03  9440   0.108E-01    0.135E-01
RMM:   8    -0.350122941336E+03   -0.14828E-03   -0.19239E-03  9656   0.611E-02    0.906E-02
RMM:   9    -0.350123063735E+03   -0.12240E-03   -0.62660E-04  8362   0.410E-02    0.778E-02
RMM:  10    -0.350123181160E+03   -0.11742E-03   -0.35887E-04  8069   0.285E-02    0.490E-02
RMM:  11    -0.350123222554E+03   -0.41394E-04   -0.27064E-04  6969   0.252E-02    0.192E-02
RMM:  12    -0.350123219318E+03    0.32356E-05   -0.14503E-04  6482   0.189E-02    0.833E-03
RMM:  13    -0.350123220704E+03   -0.13859E-05   -0.46024E-05  5070   0.133E-02
   3 F= -.35012322E+03 E0= -.35012375E+03  d E =-.613259E-01
       N       E                     dE             d eps       ncg     rms          rms(c)
DAV:   1    -0.350153529557E+03   -0.30310E-01   -0.47934E+00  6112   0.618E+00    0.106E+00
RMM:   2    -0.350165073059E+03   -0.11544E-01   -0.24781E-01  7510   0.125E+00    0.484E-01
RMM:   3    -0.350156815815E+03    0.82572E-02   -0.30178E-02  8330   0.394E-01    0.355E-01
RMM:   4    -0.350154633227E+03    0.21826E-02   -0.69983E-03  8620   0.143E-01    0.212E-01
RMM:   5    -0.350154280170E+03    0.35306E-03   -0.26046E-03  8559   0.991E-02    0.146E-01
RMM:   6    -0.350154332237E+03   -0.52067E-04   -0.12639E-03  8911   0.582E-02    0.937E-02
RMM:   7    -0.350154321316E+03    0.10922E-04   -0.49000E-04  8300   0.383E-02    0.566E-02
RMM:   8    -0.350154352204E+03   -0.30888E-04   -0.22714E-04  7522   0.221E-02    0.347E-02
RMM:   9    -0.350154375834E+03   -0.23630E-04   -0.10152E-04  6359   0.177E-02    0.225E-02
RMM:  10    -0.350154392982E+03   -0.17148E-04   -0.42352E-05  5005   0.125E-02    0.126E-02
RMM:  11    -0.350154401785E+03   -0.88031E-05   -0.21572E-05  4131   0.110E-02
   4 F= -.35015440E+03 E0= -.35015517E+03  d E =-.311811E-01
       N       E                     dE             d eps       ncg     rms          rms(c)
DAV:   1    -0.350179811049E+03   -0.25418E-01   -0.28495E+01  5944   0.151E+01    0.263E+00
RMM:   2    -0.350248922880E+03   -0.69112E-01   -0.14815E+00  7631   0.311E+00    0.119E+00
RMM:   3    -0.350199068511E+03    0.49854E-01   -0.17796E-01  8355   0.947E-01    0.851E-01
RMM:   4    -0.350186323849E+03    0.12745E-01   -0.42375E-02  8656   0.353E-01    0.506E-01
RMM:   5    -0.350184354346E+03    0.19695E-02   -0.15203E-02  8631   0.240E-01    0.349E-01
RMM:   6    -0.350184683266E+03   -0.32892E-03   -0.73518E-03  9208   0.140E-01    0.224E-01
RMM:   7    -0.350184606154E+03    0.77112E-04   -0.28143E-03  9644   0.914E-02    0.135E-01
RMM:   8    -0.350184768257E+03   -0.16210E-03   -0.14405E-03  9726   0.498E-02    0.858E-02
RMM:   9    -0.350184865967E+03   -0.97710E-04   -0.53961E-04  8525   0.370E-02    0.569E-02
RMM:  10    -0.350184945021E+03   -0.79054E-04   -0.25480E-04  7834   0.242E-02    0.320E-02
RMM:  11    -0.350184976711E+03   -0.31690E-04   -0.13260E-04  6139   0.189E-02    0.149E-02
RMM:  12    -0.350184983302E+03   -0.65915E-05   -0.60592E-05  5552   0.145E-02
   5 F= -.35018498E+03 E0= -.35018635E+03  d E =-.617626E-01
       N       E                     dE             d eps       ncg     rms          rms(c)
DAV:   1    -0.350185024180E+03   -0.47469E-04   -0.31165E-02  6480   0.501E-01    0.868E-02
RMM:   2    -0.350185113022E+03   -0.88842E-04   -0.16863E-03  7415   0.103E-01    0.403E-02
RMM:   3    -0.350185058879E+03    0.54142E-04   -0.20196E-04  7349   0.335E-02    0.306E-02
RMM:   4    -0.350185041853E+03    0.17026E-04   -0.43224E-05  5438   0.133E-02    0.190E-02
RMM:   5    -0.350185036972E+03    0.48815E-05   -0.12117E-05  3288   0.987E-03
   6 F= -.35018504E+03 E0= -.35018639E+03  d E =-.618163E-01
       N       E                     dE             d eps       ncg     rms          rms(c)
DAV:   1    -0.350187922608E+03   -0.28808E-02   -0.54835E-01  6048   0.217E+00    0.363E-01
RMM:   2    -0.350189256642E+03   -0.13340E-02   -0.29324E-02  7030   0.448E-01    0.140E-01
RMM:   3    -0.350188742067E+03    0.51458E-03   -0.32540E-03  8278   0.136E-01    0.111E-01
RMM:   4    -0.350188460321E+03    0.28175E-03   -0.71173E-04  8602   0.464E-02    0.638E-02
RMM:   5    -0.350188418844E+03    0.41476E-04   -0.28857E-04  8131   0.310E-02    0.451E-02
RMM:   6    -0.350188408740E+03    0.10104E-04   -0.12726E-04  7223   0.197E-02    0.274E-02
RMM:   7    -0.350188398038E+03    0.10702E-04   -0.53915E-05  5269   0.139E-02    0.161E-02
RMM:   8    -0.350188395122E+03    0.29162E-05   -0.30010E-05  4100   0.119E-02
   7 F= -.35018840E+03 E0= -.35018982E+03  d E =-.335815E-02
       N       E                     dE             d eps       ncg     rms          rms(c)
DAV:   1    -0.350189216273E+03   -0.81824E-03   -0.49359E+00  5824   0.650E+00    0.109E+00
RMM:   2    -0.350201368175E+03   -0.12152E-01   -0.26506E-01  7054   0.135E+00    0.421E-01
RMM:   3    -0.350196772791E+03    0.45954E-02   -0.29725E-02  8314   0.412E-01    0.332E-01
RMM:   4    -0.350194321879E+03    0.24509E-02   -0.65389E-03  8688   0.140E-01    0.192E-01
RMM:   5    -0.350193971475E+03    0.35040E-03   -0.26017E-03  9274   0.902E-02    0.135E-01
RMM:   6    -0.350193934429E+03    0.37046E-04   -0.11161E-03  9379   0.573E-02    0.812E-02
RMM:   7    -0.350193885897E+03    0.48532E-04   -0.50660E-04  9331   0.372E-02    0.480E-02
RMM:   8    -0.350193891098E+03   -0.52016E-05   -0.20718E-04  8107   0.214E-02    0.314E-02
RMM:   9    -0.350193896978E+03   -0.58802E-05   -0.11005E-04  5851   0.184E-02    0.239E-02
RMM:  10    -0.350193897282E+03   -0.30331E-06   -0.52997E-05  5277   0.138E-02
   8 F= -.35019390E+03 E0= -.35019556E+03  d E =-.886031E-02
       N       E                     dE             d eps       ncg     rms          rms(c)
DAV:   1    -0.350201854493E+03   -0.79575E-02   -0.92337E-01  6288   0.294E+00    0.815E-01
RMM:   2    -0.350200428021E+03    0.14265E-02   -0.75614E-02  7187   0.713E-01    0.298E-01
RMM:   3    -0.350198557118E+03    0.18709E-02   -0.11886E-02  8371   0.228E-01    0.227E-01
RMM:   4    -0.350197121113E+03    0.14360E-02   -0.31188E-03  8665   0.997E-02    0.125E-01
RMM:   5    -0.350196989546E+03    0.13157E-03   -0.99332E-04  8403   0.630E-02    0.970E-02
RMM:   6    -0.350197015333E+03   -0.25787E-04   -0.45083E-04  8346   0.341E-02    0.586E-02
RMM:   7    -0.350197045218E+03   -0.29885E-04   -0.19844E-04  7292   0.263E-02    0.322E-02
RMM:   8    -0.350197062521E+03   -0.17303E-04   -0.10418E-04  6494   0.163E-02    0.206E-02
RMM:   9    -0.350197074808E+03   -0.12287E-04   -0.39701E-05  4457   0.124E-02    0.163E-02
RMM:  10    -0.350197089523E+03   -0.14715E-04   -0.24936E-05  4259   0.109E-02    0.963E-03
RMM:  11    -0.350197099875E+03   -0.10353E-04   -0.14139E-05  3820   0.102E-02    0.407E-03
RMM:  12    -0.350197102938E+03   -0.30630E-05   -0.11194E-05  3729   0.947E-03
   9 F= -.35019710E+03 E0= -.35019878E+03  d E =-.320566E-02
       N       E                     dE             d eps       ncg     rms          rms(c)
DAV:   1    -0.350200222245E+03   -0.31224E-02   -0.46260E-01  6288   0.208E+00    0.575E-01
RMM:   2    -0.350199506731E+03    0.71551E-03   -0.37455E-02  7070   0.503E-01    0.209E-01
RMM:   3    -0.350198558842E+03    0.94789E-03   -0.57912E-03  8316   0.161E-01    0.157E-01
RMM:   4    -0.350197857760E+03    0.70108E-03   -0.15061E-03  8642   0.697E-02    0.859E-02
RMM:   5    -0.350197802723E+03    0.55037E-04   -0.47441E-04  8292   0.435E-02    0.673E-02
RMM:   6    -0.350197826063E+03   -0.23340E-04   -0.21751E-04  7644   0.241E-02    0.416E-02
RMM:   7    -0.350197848704E+03   -0.22642E-04   -0.96202E-05  6638   0.187E-02    0.235E-02
RMM:   8    -0.350197862571E+03   -0.13867E-04   -0.58442E-05  4918   0.134E-02    0.150E-02
RMM:   9    -0.350197871676E+03   -0.91053E-05   -0.27046E-05  4239   0.107E-02
  10 F= -.35019787E+03 E0= -.35019956E+03  d E =-.397439E-02
       N       E                     dE             d eps       ncg     rms          rms(c)
DAV:   1    -0.350197984289E+03   -0.12172E-03   -0.24354E-02  6496   0.478E-01    0.128E-01
RMM:   2    -0.350197943565E+03    0.40724E-04   -0.19225E-03  6933   0.115E-01    0.457E-02
RMM:   3    -0.350197899841E+03    0.43724E-04   -0.28477E-04  7930   0.368E-02    0.341E-02
RMM:   4    -0.350197870852E+03    0.28989E-04   -0.74143E-05  5717   0.162E-02    0.192E-02
RMM:   5    -0.350197871534E+03   -0.68187E-06   -0.19253E-05  3570   0.129E-02
  11 F= -.35019787E+03 E0= -.35019957E+03  d E =-.397425E-02
       N       E                     dE             d eps       ncg     rms          rms(c)
DAV:   1    -0.350196988871E+03    0.88198E-03   -0.10609E+00  5824   0.294E+00    0.274E-01
RMM:   2    -0.350200572454E+03   -0.35836E-02   -0.44363E-02  7110   0.571E-01    0.130E-01
RMM:   3    -0.350200255395E+03    0.31706E-03   -0.43566E-03  8302   0.172E-01    0.116E-01
RMM:   4    -0.350200143153E+03    0.11224E-03   -0.92110E-04  9866   0.432E-02    0.783E-02
RMM:   5    -0.350200129478E+03    0.13675E-04   -0.36364E-04  8359   0.304E-02    0.499E-02
RMM:   6    -0.350200109924E+03    0.19554E-04   -0.16879E-04  7872   0.264E-02    0.211E-02
RMM:   7    -0.350200103267E+03    0.66564E-05   -0.55755E-05  5180   0.128E-02
  12 F= -.35020010E+03 E0= -.35020183E+03  d E =-.223173E-02
       N       E                     dE             d eps       ncg     rms          rms(c)
DAV:   1    -0.350198339769E+03    0.17702E-02   -0.99288E-01  5824   0.285E+00    0.258E-01
RMM:   2    -0.350201699227E+03   -0.33595E-02   -0.41694E-02  6912   0.553E-01    0.121E-01
RMM:   3    -0.350201408183E+03    0.29104E-03   -0.40979E-03  8292   0.168E-01    0.111E-01
RMM:   4    -0.350201313926E+03    0.94257E-04   -0.88037E-04  9887   0.414E-02    0.748E-02
RMM:   5    -0.350201304970E+03    0.89564E-05   -0.34222E-04  8438   0.293E-02    0.492E-02
RMM:   6    -0.350201287673E+03    0.17297E-04   -0.17129E-04  7924   0.263E-02    0.211E-02
RMM:   7    -0.350201281437E+03    0.62353E-05   -0.54633E-05  5084   0.131E-02
  13 F= -.35020128E+03 E0= -.35020304E+03  d E =-.340990E-02
       N       E                     dE             d eps       ncg     rms          rms(c)
DAV:   1    -0.350188977081E+03    0.12311E-01   -0.39685E+00  5824   0.570E+00    0.517E-01
RMM:   2    -0.350202451274E+03   -0.13474E-01   -0.16689E-01  6864   0.111E+00    0.240E-01
RMM:   3    -0.350201304282E+03    0.11470E-02   -0.16271E-02  8295   0.338E-01    0.221E-01
RMM:   4    -0.350200926766E+03    0.37752E-03   -0.34275E-03 10195   0.826E-02    0.150E-01
RMM:   5    -0.350200888165E+03    0.38601E-04   -0.12982E-03  9121   0.565E-02    0.998E-02
RMM:   6    -0.350200829008E+03    0.59158E-04   -0.69086E-04  9014   0.530E-02    0.416E-02
RMM:   7    -0.350200812983E+03    0.16025E-04   -0.24693E-04  8130   0.237E-02    0.276E-02
RMM:   8    -0.350200809949E+03    0.30333E-05   -0.72939E-05  5727   0.157E-02
  14 F= -.35020081E+03 E0= -.35020264E+03  d E =-.293842E-02
       N       E                     dE             d eps       ncg     rms          rms(c)
DAV:   1    -0.350197031623E+03    0.37814E-02   -0.16083E+00  5824   0.362E+00    0.334E-01
RMM:   2    -0.350202251437E+03   -0.52198E-02   -0.66592E-02  6858   0.699E-01    0.151E-01
RMM:   3    -0.350201736037E+03    0.51540E-03   -0.62111E-03  8275   0.213E-01    0.136E-01
RMM:   4    -0.350201558017E+03    0.17802E-03   -0.12761E-03  9860   0.515E-02    0.897E-02
RMM:   5    -0.350201542230E+03    0.15787E-04   -0.49295E-04  8791   0.357E-02    0.585E-02
RMM:   6    -0.350201532403E+03    0.98268E-05   -0.23862E-04  8361   0.307E-02    0.255E-02
RMM:   7    -0.350201530106E+03    0.22976E-05   -0.79901E-05  6139   0.145E-02
  15 F= -.35020153E+03 E0= -.35020331E+03  d E =-.365857E-02
       N       E                     dE             d eps       ncg     rms          rms(c)
DAV:   1    -0.350204404938E+03   -0.28725E-02   -0.34202E-01  6216   0.176E+00    0.455E-01
RMM:   2    -0.350203940941E+03    0.46400E-03   -0.22919E-02  7212   0.404E-01    0.167E-01
RMM:   3    -0.350203477506E+03    0.46343E-03   -0.36276E-03  8390   0.132E-01    0.127E-01
RMM:   4    -0.350203020076E+03    0.45743E-03   -0.98465E-04  8596   0.565E-02    0.698E-02
RMM:   5    -0.350202969947E+03    0.50129E-04   -0.33467E-04  8341   0.336E-02    0.542E-02
RMM:   6    -0.350202953911E+03    0.16036E-04   -0.12137E-04  7351   0.184E-02    0.310E-02
RMM:   7    -0.350202946045E+03    0.78663E-05   -0.61324E-05  5807   0.148E-02
  16 F= -.35020295E+03 E0= -.35020470E+03  d E =-.141594E-02
       N       E                     dE             d eps       ncg     rms          rms(c)
DAV:   1    -0.350206075104E+03   -0.31212E-02   -0.66803E-01  6104   0.245E+00    0.622E-01
RMM:   2    -0.350205204929E+03    0.87017E-03   -0.44505E-02  7137   0.564E-01    0.227E-01
RMM:   3    -0.350204256746E+03    0.94818E-03   -0.67442E-03  8355   0.183E-01    0.172E-01
RMM:   4    -0.350203430641E+03    0.82611E-03   -0.18677E-03  8613   0.771E-02    0.965E-02
RMM:   5    -0.350203350913E+03    0.79728E-04   -0.64625E-04  8830   0.460E-02    0.761E-02
RMM:   6    -0.350203337599E+03    0.13314E-04   -0.24639E-04  7758   0.254E-02    0.448E-02
RMM:   7    -0.350203335052E+03    0.25473E-05   -0.13601E-04  6965   0.209E-02    0.249E-02
RMM:   8    -0.350203331342E+03    0.37095E-05   -0.74462E-05  5329   0.152E-02
  17 F= -.35020333E+03 E0= -.35020505E+03  d E =-.180124E-02
       N       E                     dE             d eps       ncg     rms          rms(c)
DAV:   1    -0.350203981970E+03   -0.64692E-03   -0.88691E-02  6160   0.856E-01    0.153E-01
RMM:   2    -0.350204074226E+03   -0.92256E-04   -0.43381E-03  7774   0.175E-01    0.603E-02
RMM:   3    -0.350204015663E+03    0.58563E-04   -0.57673E-04  8284   0.559E-02    0.457E-02
RMM:   4    -0.350203980256E+03    0.35407E-04   -0.15693E-04  7524   0.208E-02    0.275E-02
RMM:   5    -0.350203973408E+03    0.68475E-05   -0.59651E-05  5941   0.130E-02
  18 F= -.35020397E+03 E0= -.35020568E+03  d E =-.642066E-03
       N       E                     dE             d eps       ncg     rms          rms(c)
DAV:   1    -0.350205017787E+03   -0.10375E-02   -0.79515E-01  5936   0.257E+00    0.433E-01
RMM:   2    -0.350205997265E+03   -0.97948E-03   -0.38225E-02  7543   0.521E-01    0.161E-01
RMM:   3    -0.350205396534E+03    0.60073E-03   -0.45071E-03  8306   0.163E-01    0.121E-01
RMM:   4    -0.350205141060E+03    0.25547E-03   -0.12090E-03  8643   0.585E-02    0.724E-02
RMM:   5    -0.350205113003E+03    0.28056E-04   -0.45541E-04  9104   0.359E-02    0.540E-02
RMM:   6    -0.350205124291E+03   -0.11287E-04   -0.18826E-04  7596   0.227E-02    0.306E-02
RMM:   7    -0.350205135626E+03   -0.11335E-04   -0.92113E-05  6234   0.167E-02    0.178E-02
RMM:   8    -0.350205144195E+03   -0.85688E-05   -0.39708E-05  4682   0.131E-02
  19 F= -.35020514E+03 E0= -.35020680E+03  d E =-.181285E-02
       N       E                     dE             d eps       ncg     rms          rms(c)
DAV:   1    -0.350203374056E+03    0.17616E-02   -0.31829E+00  5936   0.513E+00    0.875E-01
RMM:   2    -0.350207341548E+03   -0.39675E-02   -0.15344E-01  7499   0.104E+00    0.318E-01
RMM:   3    -0.350204937033E+03    0.24045E-02   -0.17665E-02  8281   0.325E-01    0.237E-01
RMM:   4    -0.350203929755E+03    0.10073E-02   -0.47636E-03  8652   0.116E-01    0.140E-01
RMM:   5    -0.350203800824E+03    0.12893E-03   -0.17459E-03  9421   0.712E-02    0.105E-01
RMM:   6    -0.350203827104E+03   -0.26280E-04   -0.72727E-04  9340   0.441E-02    0.601E-02
RMM:   7    -0.350203856460E+03   -0.29356E-04   -0.34951E-04  8582   0.308E-02    0.356E-02
RMM:   8    -0.350203877642E+03   -0.21182E-04   -0.12683E-04  6703   0.184E-02    0.224E-02
RMM:   9    -0.350203893247E+03   -0.15605E-04   -0.71512E-05  5252   0.152E-02    0.172E-02
RMM:  10    -0.350203907275E+03   -0.14028E-04   -0.38775E-05  5038   0.125E-02    0.982E-03
RMM:  11    -0.350203915771E+03   -0.84954E-05   -0.14636E-05  3983   0.108E-02
  20 F= -.35020392E+03 E0= -.35020553E+03  d E =-.584429E-03
       N       E                     dE             d eps       ncg     rms          rms(c)
DAV:   1    -0.350205045014E+03   -0.11377E-02   -0.17049E+00  5936   0.376E+00    0.635E-01
RMM:   2    -0.350207429694E+03   -0.23847E-02   -0.82679E-02  7416   0.765E-01    0.235E-01
RMM:   3    -0.350206059391E+03    0.13703E-02   -0.94170E-03  8253   0.240E-01    0.177E-01
RMM:   4    -0.350205470549E+03    0.58884E-03   -0.24139E-03  8525   0.844E-02    0.106E-01
RMM:   5    -0.350205360580E+03    0.10997E-03   -0.88493E-04  9336   0.509E-02    0.788E-02
RMM:   6    -0.350205331054E+03    0.29526E-04   -0.36381E-04  8905   0.320E-02    0.439E-02
RMM:   7    -0.350205318734E+03    0.12321E-04   -0.17648E-04  7380   0.221E-02    0.253E-02
RMM:   8    -0.350205313093E+03    0.56405E-05   -0.60829E-05  5505   0.150E-02
  21 F= -.35020531E+03 E0= -.35020696E+03  d E =-.198175E-02
       N       E                     dE             d eps       ncg     rms          rms(c)
DAV:   1    -0.350205302799E+03    0.15935E-04   -0.87802E-03  6080   0.270E-01    0.428E-02
RMM:   2    -0.350205319824E+03   -0.17026E-04   -0.43792E-04  7758   0.546E-02    0.176E-02
RMM:   3    -0.350205312361E+03    0.74635E-05   -0.54950E-05  5762   0.172E-02
  22 F= -.35020531E+03 E0= -.35020696E+03  d E =-.198102E-02
       N       E                     dE             d eps       ncg     rms          rms(c)
DAV:   1    -0.350205642405E+03   -0.32258E-03   -0.19900E-02  6240   0.427E-01    0.104E-01
RMM:   2    -0.350205612076E+03    0.30328E-04   -0.13290E-03  7550   0.981E-02    0.390E-02
RMM:   3    -0.350205600430E+03    0.11647E-04   -0.20412E-04  7572   0.332E-02    0.295E-02
RMM:   4    -0.350205578458E+03    0.21971E-04   -0.59042E-05  6324   0.143E-02    0.166E-02
RMM:   5    -0.350205575959E+03    0.24999E-05   -0.16757E-05  3473   0.949E-03
  23 F= -.35020558E+03 E0= -.35020722E+03  d E =-.263598E-03
       N       E                     dE             d eps       ncg     rms          rms(c)
DAV:   1    -0.350206554935E+03   -0.97648E-03   -0.17737E-01  5864   0.128E+00    0.295E-01
RMM:   2    -0.350206364035E+03    0.19090E-03   -0.12028E-02  7480   0.292E-01    0.109E-01
RMM:   3    -0.350206217011E+03    0.14702E-03   -0.16193E-03  8261   0.934E-02    0.829E-02
RMM:   4    -0.350206056331E+03    0.16068E-03   -0.44029E-04  8391   0.353E-02    0.513E-02
RMM:   5    -0.350206040409E+03    0.15922E-04   -0.16819E-04  7536   0.217E-02    0.394E-02
RMM:   6    -0.350206046276E+03   -0.58672E-05   -0.72935E-05  6361   0.147E-02
  24 F= -.35020605E+03 E0= -.35020767E+03  d E =-.733915E-03
       N       E                     dE             d eps       ncg     rms          rms(c)
DAV:   1    -0.350207391828E+03   -0.13514E-02   -0.70962E-01  5824   0.255E+00    0.592E-01
RMM:   2    -0.350206677905E+03    0.71392E-03   -0.48159E-02  7448   0.585E-01    0.215E-01
RMM:   3    -0.350206075025E+03    0.60288E-03   -0.64130E-03  8271   0.187E-01    0.164E-01
RMM:   4    -0.350205419377E+03    0.65565E-03   -0.17297E-03  8544   0.700E-02    0.101E-01
RMM:   5    -0.350205349759E+03    0.69618E-04   -0.67754E-04  8834   0.431E-02    0.770E-02
RMM:   6    -0.350205361675E+03   -0.11917E-04   -0.26976E-04  8060   0.273E-02    0.440E-02
RMM:   7    -0.350205389108E+03   -0.27433E-04   -0.15449E-04  6940   0.210E-02    0.239E-02
RMM:   8    -0.350205396615E+03   -0.75067E-05   -0.67465E-05  5472   0.150E-02
  25 F= -.35020540E+03 E0= -.35020698E+03  d E =-.842540E-04
       N       E                     dE             d eps       ncg     rms          rms(c)
DAV:   1    -0.350207266469E+03   -0.18774E-02   -0.36967E-01  5984   0.184E+00    0.438E-01
RMM:   2    -0.350206934030E+03    0.33244E-03   -0.25352E-02  7391   0.425E-01    0.161E-01
RMM:   3    -0.350206588161E+03    0.34587E-03   -0.34734E-03  8315   0.139E-01    0.122E-01
RMM:   4    -0.350206208296E+03    0.37986E-03   -0.92393E-04  8558   0.527E-02    0.723E-02
RMM:   5    -0.350206151234E+03    0.57063E-04   -0.33295E-04  8191   0.322E-02    0.546E-02
RMM:   6    -0.350206130038E+03    0.21195E-04   -0.12457E-04  7625   0.198E-02    0.298E-02
RMM:   7    -0.350206122692E+03    0.73466E-05   -0.65119E-05  5914   0.145E-02
  26 F= -.35020612E+03 E0= -.35020773E+03  d E =-.810331E-03
       N       E                     dE             d eps       ncg     rms          rms(c)
DAV:   1    -0.350206142298E+03   -0.12260E-04   -0.68738E-03  6048   0.251E-01    0.553E-02
RMM:   2    -0.350206138006E+03    0.42923E-05   -0.47358E-04  7730   0.570E-02    0.200E-02
RMM:   3    -0.350206129354E+03    0.86516E-05   -0.58490E-05  5827   0.180E-02
  27 F= -.35020613E+03 E0= -.35020773E+03  d E =-.816993E-03
       N       E                     dE             d eps       ncg     rms          rms(c)
DAV:   1    -0.350206294530E+03   -0.15652E-03   -0.15451E-02  6136   0.376E-01    0.810E-02
RMM:   2    -0.350206298256E+03   -0.37262E-05   -0.10697E-03  6819   0.863E-02    0.293E-02
RMM:   3    -0.350206269331E+03    0.28925E-04   -0.10891E-04  6645   0.262E-02    0.208E-02
RMM:   4    -0.350206257954E+03    0.11378E-04   -0.22145E-05  3317   0.124E-02    0.164E-02
RMM:   5    -0.350206255125E+03    0.28282E-05   -0.73556E-06  3054   0.911E-03
  28 F= -.35020626E+03 E0= -.35020787E+03  d E =-.125771E-03
       N       E                     dE             d eps       ncg     rms          rms(c)
DAV:   1    -0.350206501580E+03   -0.24363E-03   -0.58229E-02  6024   0.726E-01    0.159E-01
RMM:   2    -0.350206543478E+03   -0.41897E-04   -0.39003E-03  7117   0.162E-01    0.589E-02
RMM:   3    -0.350206457482E+03    0.85995E-04   -0.47849E-04  8240   0.492E-02    0.431E-02
RMM:   4    -0.350206411716E+03    0.45766E-04   -0.12811E-04  7100   0.200E-02    0.254E-02
RMM:   5    -0.350206402564E+03    0.91513E-05   -0.39842E-05  4627   0.133E-02
  29 F= -.35020640E+03 E0= -.35020801E+03  d E =-.273210E-03
       N       E                     dE             d eps       ncg     rms          rms(c)
DAV:   1    -0.350206697903E+03   -0.28619E-03   -0.23393E-01  5936   0.146E+00    0.323E-01
RMM:   2    -0.350206822489E+03   -0.12459E-03   -0.15699E-02  7156   0.327E-01    0.121E-01
RMM:   3    -0.350206488746E+03    0.33374E-03   -0.19853E-03  8331   0.101E-01    0.879E-02
RMM:   4    -0.350206307888E+03    0.18086E-03   -0.55184E-04  8437   0.405E-02    0.528E-02
RMM:   5    -0.350206278872E+03    0.29016E-04   -0.19055E-04  7682   0.245E-02    0.418E-02
RMM:   6    -0.350206272228E+03    0.66442E-05   -0.88885E-05  6520   0.157E-02
  30 F= -.35020627E+03 E0= -.35020789E+03  d E =-.142874E-03
       N       E                     dE             d eps       ncg     rms          rms(c)
DAV:   1    -0.350206598570E+03   -0.31970E-03   -0.94434E-02  6080   0.924E-01    0.217E-01
RMM:   2    -0.350206608374E+03   -0.98038E-05   -0.63984E-03  7202   0.209E-01    0.821E-02
RMM:   3    -0.350206488726E+03    0.11965E-03   -0.86396E-04  8304   0.664E-02    0.583E-02
RMM:   4    -0.350206403340E+03    0.85387E-04   -0.22722E-04  8104   0.272E-02    0.319E-02
RMM:   5    -0.350206391373E+03    0.11966E-04   -0.67826E-05  6334   0.165E-02    0.245E-02
RMM:   6    -0.350206392835E+03   -0.14613E-05   -0.22623E-05  3599   0.101E-02
  31 F= -.35020639E+03 E0= -.35020800E+03  d E =-.263480E-03
       N       E                     dE             d eps       ncg     rms          rms(c)
DAV:   1    -0.350206404387E+03   -0.13014E-04   -0.33026E-03  6048   0.174E-01    0.371E-02
RMM:   2    -0.350206404311E+03    0.76026E-07   -0.22783E-04  7547   0.387E-02    0.143E-02
RMM:   3    -0.350206399824E+03    0.44867E-05   -0.21389E-05  3798   0.122E-02
  32 F= -.35020640E+03 E0= -.35020802E+03  d E =-.270470E-03
       N       E                     dE             d eps       ncg     rms          rms(c)
DAV:   1    -0.350206400280E+03    0.40307E-05   -0.10539E-03  6072   0.965E-02    0.215E-02
RMM:   2    -0.350206399579E+03    0.70082E-06   -0.84087E-05  6383   0.225E-02
  33 F= -.35020640E+03 E0= -.35020801E+03  d E =-.270225E-03
       N       E                     dE             d eps       ncg     rms          rms(c)
DAV:   1    -0.350206401159E+03   -0.87873E-06   -0.44791E-04  6112   0.636E-02    0.164E-02
RMM:   2    -0.350206404863E+03   -0.37038E-05   -0.25431E-05  3290   0.145E-02
  34 F= -.35020640E+03 E0= -.35020802E+03  d E =-.275509E-03
       N       E                     dE             d eps       ncg     rms          rms(c)
DAV:   1    -0.350206404723E+03   -0.35644E-05   -0.10746E-04  6040   0.328E-02    0.532E-03
RMM:   2    -0.350206406250E+03   -0.15267E-05   -0.84056E-06  3035   0.742E-03
  35 F= -.35020641E+03 E0= -.35020802E+03  d E =-.276896E-03
       N       E                     dE             d eps       ncg     rms          rms(c)
DAV:   1    -0.350206405721E+03   -0.99748E-06   -0.41602E-05  4776   0.210E-02    0.714E-03
RMM:   2    -0.350206406983E+03   -0.12628E-05   -0.48720E-06  2980   0.803E-03
  36 F= -.35020641E+03 E0= -.35020802E+03  d E =-.277629E-03
       N       E                     dE             d eps       ncg     rms          rms(c)
DAV:   1    -0.350206406676E+03   -0.95491E-06   -0.86778E-06  3248   0.103E-02    0.248E-03
RMM:   2    -0.350206406943E+03   -0.26728E-06   -0.16096E-06  2958   0.424E-03
  37 F= -.35020641E+03 E0= -.35020802E+03  d E =-.277589E-03
       N       E                     dE             d eps       ncg     rms          rms(c)
DAV:   1    -0.350206407281E+03   -0.60524E-06   -0.35669E-06  3248   0.661E-03    0.225E-03
RMM:   2    -0.350206407699E+03   -0.41848E-06   -0.88366E-07  2865   0.326E-03
  38 F= -.35020641E+03 E0= -.35020802E+03  d E =-.278345E-03
       N       E                     dE             d eps       ncg     rms          rms(c)
DAV:   1    -0.350206448431E+03   -0.41150E-04   -0.21268E-03  5984   0.128E-01    0.106E-02
RMM:   2    -0.350206453472E+03   -0.50413E-05   -0.70421E-05  5424   0.245E-02
  39 F= -.35020645E+03 E0= -.35020806E+03  d E =-.457731E-04
       N       E                     dE             d eps       ncg     rms          rms(c)
DAV:   1    -0.350206541087E+03   -0.92656E-04   -0.19211E-02  5856   0.385E-01    0.334E-02
RMM:   2    -0.350206587698E+03   -0.46611E-04   -0.68658E-04  7666   0.744E-02    0.196E-02
RMM:   3    -0.350206583526E+03    0.41722E-05   -0.75284E-05  5516   0.212E-02
  40 F= -.35020658E+03 E0= -.35020820E+03  d E =-.175827E-03
       N       E                     dE             d eps       ncg     rms          rms(c)
DAV:   1    -0.350206620144E+03   -0.32445E-04   -0.76262E-02  5824   0.764E-01    0.655E-02
RMM:   2    -0.350206796105E+03   -0.17596E-03   -0.26820E-03  7756   0.147E-01    0.375E-02
RMM:   3    -0.350206791296E+03    0.48089E-05   -0.36556E-04  7748   0.421E-02    0.270E-02
RMM:   4    -0.350206786890E+03    0.44054E-05   -0.11062E-04  6500   0.157E-02    0.150E-02
RMM:   5    -0.350206786497E+03    0.39321E-06   -0.32387E-05  4337   0.930E-03
  41 F= -.35020679E+03 E0= -.35020841E+03  d E =-.378798E-03
       N       E                     dE             d eps       ncg     rms          rms(c)
DAV:   1    -0.350206294936E+03    0.49195E-03   -0.30483E-01  5824   0.153E+00    0.124E-01
RMM:   2    -0.350207007428E+03   -0.71249E-03   -0.10366E-02  7651   0.293E-01    0.679E-02
RMM:   3    -0.350207001026E+03    0.64012E-05   -0.13367E-03  8253   0.830E-02    0.511E-02
RMM:   4    -0.350206973615E+03    0.27412E-04   -0.31194E-04  8641   0.263E-02    0.296E-02
RMM:   5    -0.350206973014E+03    0.60042E-06   -0.11504E-04  6106   0.174E-02    0.175E-02
RMM:   6    -0.350206969589E+03    0.34255E-05   -0.55126E-05  5024   0.139E-02
  42 F= -.35020697E+03 E0= -.35020862E+03  d E =-.561890E-03
       N       E                     dE             d eps       ncg     rms          rms(c)
DAV:   1    -0.350207073772E+03   -0.10076E-03   -0.27855E-02  6200   0.486E-01    0.893E-02
RMM:   2    -0.350207095306E+03   -0.21534E-04   -0.15426E-03  7633   0.102E-01    0.342E-02
RMM:   3    -0.350207076559E+03    0.18747E-04   -0.19036E-04  7641   0.321E-02    0.261E-02
RMM:   4    -0.350207063098E+03    0.13461E-04   -0.52698E-05  5592   0.134E-02    0.157E-02
RMM:   5    -0.350207061897E+03    0.12009E-05   -0.16703E-05  3542   0.952E-03
  43 F= -.35020706E+03 E0= -.35020869E+03  d E =-.923081E-04
       N       E                     dE             d eps       ncg     rms          rms(c)
DAV:   1    -0.350207225496E+03   -0.16240E-03   -0.24616E-01  5824   0.145E+00    0.257E-01
RMM:   2    -0.350207473423E+03   -0.24793E-03   -0.13258E-02  7483   0.301E-01    0.967E-02
RMM:   3    -0.350207293954E+03    0.17947E-03   -0.15615E-03  8279   0.939E-02    0.752E-02
RMM:   4    -0.350207178509E+03    0.11544E-03   -0.40298E-04  8329   0.336E-02    0.459E-02
RMM:   5    -0.350207165701E+03    0.12809E-04   -0.16156E-04  7511   0.215E-02    0.340E-02
RMM:   6    -0.350207171990E+03   -0.62896E-05   -0.68738E-05  5940   0.144E-02
  44 F= -.35020717E+03 E0= -.35020875E+03  d E =-.202401E-03
       N       E                     dE             d eps       ncg     rms          rms(c)
DAV:   1    -0.350207244168E+03   -0.78467E-04   -0.20233E-02  6064   0.409E-01    0.657E-02
RMM:   2    -0.350207296558E+03   -0.52390E-04   -0.10317E-03  8312   0.851E-02    0.320E-02
RMM:   3    -0.350207290856E+03    0.57016E-05   -0.14470E-04  7138   0.249E-02    0.238E-02
RMM:   4    -0.350207282234E+03    0.86224E-05   -0.45741E-05  5168   0.136E-02
  45 F= -.35020728E+03 E0= -.35020885E+03  d E =-.110243E-03
       N       E                     dE             d eps       ncg     rms          rms(c)
DAV:   1    -0.350207252786E+03    0.38070E-04   -0.18185E-01  5824   0.123E+00    0.178E-01
RMM:   2    -0.350207588618E+03   -0.33583E-03   -0.84751E-03  8223   0.246E-01    0.774E-02
RMM:   3    -0.350207521121E+03    0.67497E-04   -0.91134E-04  8273   0.681E-02    0.594E-02
RMM:   4    -0.350207451185E+03    0.69936E-04   -0.28546E-04  8092   0.274E-02    0.343E-02
RMM:   5    -0.350207439917E+03    0.11269E-04   -0.11624E-04  7045   0.182E-02    0.238E-02
RMM:   6    -0.350207432826E+03    0.70903E-05   -0.38061E-05  4405   0.108E-02
  46 F= -.35020743E+03 E0= -.35020895E+03  d E =-.260836E-03
