<?xml version="1.0" encoding="ISO-8859-1"?>
<modeling>
 <generator>
  <i name="program" type="string">vasp </i>
  <i name="version" type="string">5.4.1  </i>
  <i name="subversion" type="string">05Feb16 (build Jan 29 2020 16:04:39) complex                          parallel </i>
  <i name="platform" type="string">IFC91_ompi </i>
  <i name="date" type="string">2020 06 15 </i>
  <i name="time" type="string">04:54:37 </i>
 </generator>
 <incar>
  <i type="string" name="SYSTEM"> automatically generated by mexm</i>
  <i type="int" name="ISTART">     0</i>
  <i type="string" name="PREC">accurate               ! avoid wrap aro</i>
  <i type="string" name="ALGO"> Fast                   ! blocked Davids</i>
  <i type="int" name="ISPIN">     1</i>
  <i type="int" name="ICHARG">     2</i>
  <i type="int" name="NELM">    70</i>
  <i type="int" name="IBRION">     2</i>
  <i name="EDIFF">      0.00001000</i>
  <i name="EDIFFG">     -0.01000000</i>
  <i type="int" name="NSW">   300</i>
  <i type="int" name="ISIF">     3</i>
  <i type="int" name="ISYM">     1</i>
  <i name="ENCUT">    300.00000000</i>
  <i name="POTIM">      0.15000000</i>
  <i type="string" name="LREAL"> Auto                  ! unpublished met</i>
  <i type="int" name="ISMEAR">     1</i>
  <i name="SIGMA">      0.15000000</i>
  <i type="logical" name="LWAVE"> F  </i>
  <i type="logical" name="LCHARG"> F  </i>
  <i type="logical" name="LVTOT"> F  </i>
  <v type="int" name="KPOINT_BSE">    -1     0     0     0</v>
  <i type="int" name="NELM">    70</i>
 </incar>
 <kpoints>
  <generation param="Gamma">
   <v type="int" name="divisions">       3        3        3 </v>
   <v name="usershift">      0.00000000       0.00000000       0.00000000 </v>
   <v name="genvec1">      0.33333333      -0.00000000       0.00000000 </v>
   <v name="genvec2">     -0.00000000       0.33333333       0.00000000 </v>
   <v name="genvec3">      0.00000000      -0.00000000       0.33333333 </v>
   <v name="shift">      0.00000000       0.00000000       0.00000000 </v>
  </generation>
  <varray name="kpointlist" >
   <v>       0.00000000       0.00000000       0.00000000 </v>
   <v>       0.33333333       0.00000000       0.00000000 </v>
   <v>       0.00000000       0.33333333      -0.00000000 </v>
   <v>       0.33333333       0.33333333       0.00000000 </v>
   <v>      -0.33333333       0.33333333      -0.00000000 </v>
   <v>      -0.00000000       0.00000000       0.33333333 </v>
   <v>       0.33333333       0.00000000       0.33333333 </v>
   <v>      -0.33333333       0.00000000       0.33333333 </v>
   <v>      -0.00000000       0.33333333       0.33333333 </v>
   <v>       0.33333333       0.33333333       0.33333333 </v>
   <v>      -0.33333333       0.33333333       0.33333333 </v>
   <v>       0.00000000      -0.33333333       0.33333333 </v>
   <v>       0.33333333      -0.33333333       0.33333333 </v>
   <v>      -0.33333333      -0.33333333       0.33333333 </v>
  </varray>
  <varray name="weights" >
   <v>       0.03703704 </v>
   <v>       0.07407407 </v>
   <v>       0.07407407 </v>
   <v>       0.07407407 </v>
   <v>       0.07407407 </v>
   <v>       0.07407407 </v>
   <v>       0.07407407 </v>
   <v>       0.07407407 </v>
   <v>       0.07407407 </v>
   <v>       0.07407407 </v>
   <v>       0.07407407 </v>
   <v>       0.07407407 </v>
   <v>       0.07407407 </v>
   <v>       0.07407407 </v>
  </varray>
 </kpoints>
 <parameters>
  <separator name="general" >
   <i type="string" name="SYSTEM">automatically generated by mexm</i>
   <i type="logical" name="LCOMPAT"> F  </i>
  </separator>
  <separator name="electronic" >
   <i type="string" name="PREC">accura</i>
   <i name="ENMAX">    300.00000000</i>
   <i name="ENAUG">    461.25700000</i>
   <i name="EDIFF">      0.00001000</i>
   <i type="int" name="IALGO">    68</i>
   <i type="int" name="IWAVPR">    11</i>
   <i type="int" name="NBANDS">   176</i>
   <i name="NELECT">    290.00000000</i>
   <i type="int" name="TURBO">     0</i>
   <i type="int" name="IRESTART">     0</i>
   <i type="int" name="NREBOOT">     0</i>
   <i type="int" name="NMIN">     0</i>
   <i name="EREF">      0.00000000</i>
   <separator name="electronic smearing" >
    <i type="int" name="ISMEAR">     1</i>
    <i name="SIGMA">      0.15000000</i>
    <i name="KSPACING">      0.50000000</i>
    <i type="logical" name="KGAMMA"> T  </i>
   </separator>
   <separator name="electronic projectors" >
    <i type="logical" name="LREAL"> T  </i>
    <v name="ROPT">     -0.00025000     -0.00025000     -0.00025000     -0.00025000</v>
    <i type="int" name="LMAXPAW">  -100</i>
    <i type="int" name="LMAXMIX">     2</i>
    <i type="logical" name="NLSPLINE"> F  </i>
   </separator>
   <separator name="electronic startup" >
    <i type="int" name="ISTART">     0</i>
    <i type="int" name="ICHARG">     2</i>
    <i type="int" name="INIWAV">     1</i>
   </separator>
   <separator name="electronic spin" >
    <i type="int" name="ISPIN">     1</i>
    <i type="logical" name="LNONCOLLINEAR"> F  </i>
    <v name="MAGMOM">      1.00000000      1.00000000      1.00000000      1.00000000      1.00000000      1.00000000      1.00000000      1.00000000      1.00000000      1.00000000      1.00000000      1.00000000      1.00000000      1.00000000      1.00000000      1.00000000      1.00000000      1.00000000      1.00000000      1.00000000
      1.00000000      1.00000000      1.00000000      1.00000000      1.00000000      1.00000000      1.00000000      1.00000000      1.00000000      1.00000000      1.00000000      1.00000000      1.00000000      1.00000000      1.00000000      1.00000000</v>
    <i name="NUPDOWN">     -1.00000000</i>
    <i type="logical" name="LSORBIT"> F  </i>
    <v name="SAXIS">      0.00000000      0.00000000      1.00000000</v>
    <i type="logical" name="LSPIRAL"> F  </i>
    <v name="QSPIRAL">      0.00000000      0.00000000      0.00000000</v>
    <i type="logical" name="LZEROZ"> F  </i>
   </separator>
   <separator name="electronic exchange-correlation" >
    <i type="logical" name="LASPH"> F  </i>
    <i type="logical" name="LMETAGGA"> F  </i>
   </separator>
   <separator name="electronic convergence" >
    <i type="int" name="NELM">    70</i>
    <i type="int" name="NELMDL">    -5</i>
    <i type="int" name="NELMIN">     2</i>
    <i name="ENINI">    300.00000000</i>
    <separator name="electronic convergence detail" >
     <i type="logical" name="LDIAG"> T  </i>
     <i type="logical" name="LSUBROT"> F  </i>
     <i name="WEIMIN">      0.00100000</i>
     <i name="EBREAK">      0.00000001</i>
     <i name="DEPER">      0.30000000</i>
     <i type="int" name="NRMM">     4</i>
     <i name="TIME">      0.40000000</i>
    </separator>
   </separator>
   <separator name="electronic mixer" >
    <i name="AMIX">      0.40000000</i>
    <i name="BMIX">      1.00000000</i>
    <i name="AMIN">      0.10000000</i>
    <i name="AMIX_MAG">      1.60000000</i>
    <i name="BMIX_MAG">      1.00000000</i>
    <separator name="electronic mixer details" >
     <i type="int" name="IMIX">     4</i>
     <i type="logical" name="MIXFIRST"> F  </i>
     <i type="int" name="MAXMIX">   -45</i>
     <i name="WC">    100.00000000</i>
     <i type="int" name="INIMIX">     1</i>
     <i type="int" name="MIXPRE">     1</i>
     <i type="int" name="MREMOVE">     5</i>
    </separator>
   </separator>
   <separator name="electronic dipolcorrection" >
    <i type="logical" name="LDIPOL"> F  </i>
    <i type="logical" name="LMONO"> F  </i>
    <i type="int" name="IDIPOL">     0</i>
    <i name="EPSILON">      1.00000000</i>
    <v name="DIPOL">   -100.00000000   -100.00000000   -100.00000000</v>
    <i name="EFIELD">      0.00000000</i>
   </separator>
  </separator>
  <separator name="grids" >
   <i type="int" name="NGX">    40</i>
   <i type="int" name="NGY">    60</i>
   <i type="int" name="NGZ">    60</i>
   <i type="int" name="NGXF">    80</i>
   <i type="int" name="NGYF">   120</i>
   <i type="int" name="NGZF">   120</i>
   <i type="logical" name="ADDGRID"> F  </i>
  </separator>
  <separator name="ionic" >
   <i type="int" name="NSW">   300</i>
   <i type="int" name="IBRION">     2</i>
   <i type="int" name="ISIF">     3</i>
   <i name="PSTRESS">      0.00000000</i>
   <i name="EDIFFG">     -0.01000000</i>
   <i type="int" name="NFREE">     1</i>
   <i name="POTIM">      0.15000000</i>
   <i name="SMASS">     -3.00000000</i>
   <i name="SCALEE">      1.00000000</i>
  </separator>
  <separator name="ionic md" >
   <i name="TEBEG">      0.00010000</i>
   <i name="TEEND">      0.00010000</i>
   <i type="int" name="NBLOCK">     1</i>
   <i type="int" name="KBLOCK">   300</i>
   <i type="int" name="NPACO">   256</i>
   <i name="APACO">     16.00000000</i>
  </separator>
  <separator name="symmetry" >
   <i type="int" name="ISYM">     1</i>
   <i name="SYMPREC">      0.00001000</i>
  </separator>
  <separator name="dos" >
   <i type="logical" name="LORBIT"> F  </i>
   <v name="RWIGS">     -1.00000000     -1.00000000     -1.00000000     -1.00000000</v>
   <i type="int" name="NEDOS">   301</i>
   <i name="EMIN">     10.00000000</i>
   <i name="EMAX">    -10.00000000</i>
   <i name="EFERMI">      0.00000000</i>
  </separator>
  <separator name="writing" >
   <i type="int" name="NWRITE">     2</i>
   <i type="logical" name="LWAVE"> F  </i>
   <i type="logical" name="LCHARG"> F  </i>
   <i type="logical" name="LPARD"> F  </i>
   <i type="logical" name="LVTOT"> F  </i>
   <i type="logical" name="LVHAR"> F  </i>
   <i type="logical" name="LELF"> F  </i>
   <i type="logical" name="LOPTICS"> F  </i>
   <v name="STM">      0.00000000      0.00000000      0.00000000      0.00000000      0.00000000      0.00000000      0.00000000</v>
  </separator>
  <separator name="performance" >
   <i type="int" name="NPAR">     4</i>
   <i type="int" name="NSIM">     4</i>
   <i type="int" name="NBLK">    -1</i>
   <i type="logical" name="LPLANE"> T  </i>
   <i type="logical" name="LSCALAPACK"> T  </i>
   <i type="logical" name="LSCAAWARE"> F  </i>
   <i type="logical" name="LSCALU"> F  </i>
   <i type="logical" name="LASYNC"> F  </i>
   <i type="logical" name="LORBITALREAL"> F  </i>
  </separator>
  <separator name="miscellaneous" >
   <i type="int" name="IDIOT">     3</i>
   <i type="logical" name="LMUSIC"> F  </i>
   <v name="POMASS">     91.22400000    178.49000000    180.94800000     92.91000000</v>
   <v name="DARWINR">      0.00000000      0.00000000      0.00000000      0.00000000</v>
   <v name="DARWINV">      1.00000000      1.00000000      1.00000000      1.00000000</v>
   <i type="logical" name="LCORR"> T  </i>
  </separator>
  <i type="logical" name="GGA_COMPAT"> T  </i>
  <i type="logical" name="LBERRY"> F  </i>
  <i type="int" name="ICORELEVEL">     0</i>
  <i type="logical" name="LDAU"> F  </i>
  <i type="int" name="I_CONSTRAINED_M">     0</i>
  <separator name="electronic exchange-correlation" >
   <i type="string" name="GGA">--</i>
   <i type="int" name="VOSKOWN">     0</i>
   <i type="logical" name="LHFCALC"> F  </i>
   <i type="string" name="PRECFOCK"></i>
   <i type="logical" name="LSYMGRAD"> F  </i>
   <i type="logical" name="LHFONE"> F  </i>
   <i type="logical" name="LRHFCALC"> F  </i>
   <i type="logical" name="LTHOMAS"> F  </i>
   <i type="logical" name="LMODELHF"> F  </i>
   <i name="ENCUT4O">     -1.00000000</i>
   <i type="int" name="EXXOEP">     0</i>
   <i type="int" name="FOURORBIT">     0</i>
   <i name="AEXX">      0.00000000</i>
   <i name="HFALPHA">      0.00000000</i>
   <i name="MCALPHA">      0.00000000</i>
   <i name="ALDAX">      1.00000000</i>
   <i name="AGGAX">      1.00000000</i>
   <i name="ALDAC">      1.00000000</i>
   <i name="AGGAC">      1.00000000</i>
   <i type="int" name="NKREDX">     1</i>
   <i type="int" name="NKREDY">     1</i>
   <i type="int" name="NKREDZ">     1</i>
   <i type="logical" name="SHIFTRED"> F  </i>
   <i type="logical" name="ODDONLY"> F  </i>
   <i type="logical" name="EVENONLY"> F  </i>
   <i type="int" name="LMAXFOCK">     0</i>
   <i type="int" name="NMAXFOCKAE">     0</i>
   <i type="logical" name="LFOCKAEDFT"> F  </i>
   <i name="HFSCREEN">      0.00000000</i>
   <i name="HFSCREENC">      0.00000000</i>
   <i type="int" name="NBANDSGWLOW">     0</i>
  </separator>
  <separator name="vdW DFT" >
   <i type="logical" name="LUSE_VDW"> F  </i>
   <i name="Zab_VDW">     -0.84910000</i>
   <i name="PARAM1">      0.12340000</i>
   <i name="PARAM2">      1.00000000</i>
   <i name="PARAM3">      0.00000000</i>
  </separator>
  <separator name="model GW" >
   <i type="int" name="MODEL_GW">     0</i>
   <i name="MODEL_EPS0">     12.17424903</i>
   <i name="MODEL_ALPHA">      1.00000000</i>
  </separator>
  <separator name="linear response parameters" >
   <i type="logical" name="LEPSILON"> F  </i>
   <i type="logical" name="LRPA"> F  </i>
   <i type="logical" name="LNABLA"> F  </i>
   <i type="logical" name="LVEL"> F  </i>
   <i type="int" name="KINTER">     0</i>
   <i name="CSHIFT">      0.10000000</i>
   <i name="OMEGAMAX">     -1.00000000</i>
   <i name="DEG_THRESHOLD">      0.00200000</i>
  </separator>
  <separator name="orbital magnetization" >
   <i type="logical" name="NUCIND"> F  </i>
   <v name="MAGPOS">      0.00000000      0.00000000      0.00000000</v>
   <i type="logical" name="LNICSALL"> T  </i>
   <i type="logical" name="ORBITALMAG"> F  </i>
   <i type="logical" name="LMAGBLOCH"> F  </i>
   <i type="logical" name="LCHIMAG"> F  </i>
   <i type="logical" name="LGAUGE"> T  </i>
   <i type="int" name="MAGATOM">     0</i>
   <v name="MAGDIPOL">      0.00000000      0.00000000      0.00000000</v>
   <v name="AVECCONST">      0.00000000      0.00000000      0.00000000</v>
  </separator>
  <separator name="response functions" >
   <i type="logical" name="LADDER"> F  </i>
   <i type="logical" name="LFXC"> F  </i>
   <i type="logical" name="LHARTREE"> T  </i>
   <i type="int" name="IBSE">     0</i>
   <v type="int" name="KPOINT">    -1     0     0     0</v>
   <i type="logical" name="LTCTE"> F  </i>
   <i type="logical" name="LTETE"> F  </i>
   <i type="logical" name="LTRIPLET"> F  </i>
   <i type="logical" name="LFXCEPS"> F  </i>
   <i type="logical" name="LFXHEG"> F  </i>
   <i type="int" name="NATURALO">     0</i>
   <i type="logical" name="L2ORDER"> F  </i>
   <i type="logical" name="LUSEW"> F  </i>
   <i name="ENCUTGW">     -2.00000000</i>
   <i name="ENCUTGWSOFT">     -2.00000000</i>
   <i name="ENCUTLF">     -1.00000000</i>
   <i type="int" name="LMAXMP2">    -1</i>
   <i name="SCISSOR">      0.00000000</i>
   <i type="int" name="NOMEGA">     0</i>
   <i type="int" name="NOMEGAR">     0</i>
   <i type="int" name="NBANDSGW">    -1</i>
   <i type="int" name="NBANDSO">    -1</i>
   <i type="int" name="NBANDSV">    -1</i>
   <i type="int" name="NELM">    70</i>
   <i type="int" name="NELMHF">     1</i>
   <i type="int" name="DIM">     3</i>
   <i type="int" name="ANTIRES">     0</i>
   <i name="OMEGAMAX">    -30.00000000</i>
   <i name="OMEGAMIN">    -30.00000000</i>
   <i name="OMEGATL">   -200.00000000</i>
   <i type="int" name="OMEGAGRID">     0</i>
   <i name="CSHIFT">     -0.10000000</i>
   <i type="logical" name="SELFENERGY"> F  </i>
   <i type="logical" name="LSPECTRAL"> F  </i>
   <i type="logical" name="LSPECTRALGW"> F  </i>
   <i type="logical" name="LSINGLES"> F  </i>
   <i type="logical" name="LFERMIGW"> F  </i>
   <i type="logical" name="ODDONLYGW"> F  </i>
   <i type="logical" name="EVENONLYGW"> F  </i>
   <i type="int" name="NKREDLFX">     1</i>
   <i type="int" name="NKREDLFY">     1</i>
   <i type="int" name="NKREDLFZ">     1</i>
   <i type="int" name="MAXMEM">  1800</i>
   <i type="int" name="TELESCOPE">     0</i>
   <i type="int" name="TAUPAR">     1</i>
   <i type="int" name="OMEGAPAR">    -1</i>
   <i name="LAMBDA">      1.00000000</i>
  </separator>
  <separator name="External order field" >
   <i name="OFIELD_KAPPA">      0.00000000</i>
   <v name="OFIELD_K">      0.00000000      0.00000000      0.00000000</v>
   <i name="OFIELD_Q6_NEAR">      0.00000000</i>
   <i name="OFIELD_Q6_FAR">      0.00000000</i>
   <i name="OFIELD_A">      0.00000000</i>
  </separator>
 </parameters>
 <atominfo>
  <atoms>      36 </atoms>
  <types>       4 </types>
  <array name="atoms" >
   <dimension dim="1">ion</dimension>
   <field type="string">element</field>
   <field type="int">atomtype</field>
   <set>
    <rc><c>Zr</c><c>   1</c></rc>
    <rc><c>Zr</c><c>   1</c></rc>
    <rc><c>Zr</c><c>   1</c></rc>
    <rc><c>Zr</c><c>   1</c></rc>
    <rc><c>Zr</c><c>   1</c></rc>
    <rc><c>Zr</c><c>   1</c></rc>
    <rc><c>Zr</c><c>   1</c></rc>
    <rc><c>Hf</c><c>   2</c></rc>
    <rc><c>Hf</c><c>   2</c></rc>
    <rc><c>Hf</c><c>   2</c></rc>
    <rc><c>Hf</c><c>   2</c></rc>
    <rc><c>Hf</c><c>   2</c></rc>
    <rc><c>Hf</c><c>   2</c></rc>
    <rc><c>Hf</c><c>   2</c></rc>
    <rc><c>Hf</c><c>   2</c></rc>
    <rc><c>Hf</c><c>   2</c></rc>
    <rc><c>Hf</c><c>   2</c></rc>
    <rc><c>Hf</c><c>   2</c></rc>
    <rc><c>Ta</c><c>   3</c></rc>
    <rc><c>Ta</c><c>   3</c></rc>
    <rc><c>Ta</c><c>   3</c></rc>
    <rc><c>Ta</c><c>   3</c></rc>
    <rc><c>Ta</c><c>   3</c></rc>
    <rc><c>Ta</c><c>   3</c></rc>
    <rc><c>Ta</c><c>   3</c></rc>
    <rc><c>Ta</c><c>   3</c></rc>
    <rc><c>Ta</c><c>   3</c></rc>
    <rc><c>Nb</c><c>   4</c></rc>
    <rc><c>Nb</c><c>   4</c></rc>
    <rc><c>Nb</c><c>   4</c></rc>
    <rc><c>Nb</c><c>   4</c></rc>
    <rc><c>Nb</c><c>   4</c></rc>
    <rc><c>Nb</c><c>   4</c></rc>
    <rc><c>Nb</c><c>   4</c></rc>
    <rc><c>Nb</c><c>   4</c></rc>
    <rc><c>Nb</c><c>   4</c></rc>
   </set>
  </array>
  <array name="atomtypes" >
   <dimension dim="1">type</dimension>
   <field type="int">atomspertype</field>
   <field type="string">element</field>
   <field>mass</field>
   <field>valence</field>
   <field type="string">pseudopotential</field>
   <set>
    <rc><c>   7</c><c>Zr</c><c>     91.22400000</c><c>     12.00000000</c><c>  PAW_PBE Zr_sv 04Jan2005               </c></rc>
    <rc><c>  11</c><c>Hf</c><c>    178.49000000</c><c>      4.00000000</c><c>  PAW_PBE Hf 20Jan2003                  </c></rc>
    <rc><c>   9</c><c>Ta</c><c>    180.94800000</c><c>      5.00000000</c><c>  PAW_PBE Ta 17Jan2003                  </c></rc>
    <rc><c>   9</c><c>Nb</c><c>     92.91000000</c><c>     13.00000000</c><c>  PAW_PBE Nb_sv 25May2007               </c></rc>
   </set>
  </array>
 </atominfo>
 <structure name="initialpos" >
  <crystal>
   <varray name="basis" >
    <v>       6.96450383       0.00448449       0.01776836 </v>
    <v>       0.00683398      10.26262974      -0.00253905 </v>
    <v>       0.02670242      -0.00287327      10.21992482 </v>
   </varray>
   <i name="volume">    730.45494162 </i>
   <varray name="rec_basis" >
    <v>       0.14358627      -0.00009571      -0.00037519 </v>
    <v>      -0.00006281       0.09744096       0.00002756 </v>
    <v>      -0.00024965       0.00002437       0.09784874 </v>
   </varray>
  </crystal>
  <varray name="positions" >
   <v>       0.76666900       0.48694200       0.49835500 </v>
   <v>       0.99456600       0.00152600       0.99664600 </v>
   <v>       0.00908800       0.31173400       0.98926400 </v>
   <v>       0.00851300       0.67246700       0.66587000 </v>
   <v>       0.48245200       0.99784800       0.31343500 </v>
   <v>       0.75554500       0.49334200       0.16768400 </v>
   <v>       0.50670900       0.67631200       0.99713100 </v>
   <v>       0.72217600       0.84332000       0.49817500 </v>
   <v>       0.00411400       0.00044100       0.67219500 </v>
   <v>       0.75153600       0.48997100       0.83320000 </v>
   <v>       0.23483400       0.50423700       0.15097400 </v>
   <v>       0.01988600       0.67979800       0.34643700 </v>
   <v>       0.50535000       0.00113100       0.99987300 </v>
   <v>       0.74942600       0.17082500       0.50067200 </v>
   <v>       0.48119300       0.66694100       0.33371100 </v>
   <v>       0.46869500       0.34343700       0.34095300 </v>
   <v>       0.02136200       0.99768500       0.33287000 </v>
   <v>       0.74970500       0.18362000       0.18248400 </v>
   <v>       0.25758800       0.16395600       0.51005300 </v>
   <v>       0.03333900       0.32357700       0.34131700 </v>
   <v>       0.01569800       0.32428500       0.67097900 </v>
   <v>       0.24550100       0.49349600       0.84054200 </v>
   <v>       0.28327200       0.85105100       0.51387000 </v>
   <v>       0.25097100       0.83546600       0.83729300 </v>
   <v>       0.22705000       0.81901700       0.14791500 </v>
   <v>       0.48182100       0.33781400       0.66632900 </v>
   <v>       0.48943600       0.32235200       0.99215800 </v>
   <v>       0.75286000       0.82541500       0.83232100 </v>
   <v>       0.25622500       0.17596400       0.16549600 </v>
   <v>       0.22555000       0.48950500       0.50914600 </v>
   <v>       0.99186500       0.67604000       0.99204500 </v>
   <v>       0.49773000       0.00462300       0.68049200 </v>
   <v>       0.73564200       0.17934000       0.81865200 </v>
   <v>       0.77093300       0.83084100       0.16949800 </v>
   <v>       0.26654100       0.16661400       0.82193100 </v>
   <v>       0.48614300       0.65907800       0.67002900 </v>
  </varray>
 </structure>
 <calculation>
  <scstep>
   <time name="dav">    0.99    1.00</time>
   <time name="total">    1.13    1.49</time>
   <energy>
    <i name="alphaZ">   1474.13769655 </i>
    <i name="ewald"> -19012.04195711 </i>
    <i name="hartreedc">  -6814.29699870 </i>
    <i name="XCdc">   -323.88211487 </i>
    <i name="pawpsdc">  21195.19712611 </i>
    <i name="pawaedc"> -19579.59169218 </i>
    <i name="eentropy">     -0.00242685 </i>
    <i name="bandstr">   -143.23142764 </i>
    <i name="atom">  24995.92809465 </i>
    <i name="e_fr_energy">   1792.21629996 </i>
    <i name="e_wo_entrp">   1792.21872681 </i>
    <i name="e_0_energy">   1792.21710891 </i>
   </energy>
  </scstep>
  <scstep>
   <time name="dav">    1.10    1.11</time>
   <time name="total">    1.10    1.29</time>
   <energy>
    <i name="e_fr_energy">   -108.21892830 </i>
    <i name="e_wo_entrp">   -108.21274772 </i>
    <i name="e_0_energy">   -108.21686810 </i>
   </energy>
  </scstep>
  <scstep>
   <time name="dav">    1.42    1.43</time>
   <time name="total">    1.42    1.47</time>
   <energy>
    <i name="e_fr_energy">   -348.92767427 </i>
    <i name="e_wo_entrp">   -348.92846681 </i>
    <i name="e_0_energy">   -348.92793845 </i>
   </energy>
  </scstep>
  <scstep>
   <time name="dav">    1.35    1.49</time>
   <time name="total">    1.36    1.54</time>
   <energy>
    <i name="e_fr_energy">   -376.74703236 </i>
    <i name="e_wo_entrp">   -376.75394210 </i>
    <i name="e_0_energy">   -376.74933560 </i>
   </energy>
  </scstep>
  <scstep>
   <time name="dav">    1.32    1.32</time>
   <time name="total">    1.35    1.39</time>
   <energy>
    <i name="e_fr_energy">   -379.52183936 </i>
    <i name="e_wo_entrp">   -379.52787872 </i>
    <i name="e_0_energy">   -379.52385248 </i>
   </energy>
  </scstep>
  <scstep>
   <time name="diag">    0.08    0.08</time>
   <time name="diis">    0.77    0.77</time>
   <time name="orth">    0.01    0.01</time>
   <time name="total">    0.96    1.00</time>
   <energy>
    <i name="e_fr_energy">   -369.22227723 </i>
    <i name="e_wo_entrp">   -369.23537450 </i>
    <i name="e_0_energy">   -369.22664298 </i>
   </energy>
  </scstep>
  <scstep>
   <time name="diag">    0.11    0.13</time>
   <time name="diis">    0.70    0.84</time>
   <time name="orth">    0.01    0.01</time>
   <time name="total">    0.89    1.13</time>
   <energy>
    <i name="e_fr_energy">   -371.04260536 </i>
    <i name="e_wo_entrp">   -371.05784135 </i>
    <i name="e_0_energy">   -371.04768403 </i>
   </energy>
  </scstep>
  <scstep>
   <time name="diag">    0.11    0.11</time>
   <time name="diis">    0.73    0.78</time>
   <time name="orth">    0.01    0.01</time>
   <time name="total">    0.92    1.01</time>
   <energy>
    <i name="e_fr_energy">   -364.64641035 </i>
    <i name="e_wo_entrp">   -364.67126864 </i>
    <i name="e_0_energy">   -364.65469644 </i>
   </energy>
  </scstep>
  <scstep>
   <time name="diag">    0.08    0.08</time>
   <time name="diis">    0.80    0.80</time>
   <time name="orth">    0.01    0.01</time>
   <time name="total">    0.96    1.00</time>
   <energy>
    <i name="e_fr_energy">   -364.45695836 </i>
    <i name="e_wo_entrp">   -364.47593915 </i>
    <i name="e_0_energy">   -364.46328529 </i>
   </energy>
  </scstep>
  <scstep>
   <time name="diag">    0.08    0.08</time>
   <time name="diis">    0.79    0.79</time>
   <time name="orth">    0.01    0.01</time>
   <time name="total">    0.95    1.00</time>
   <energy>
    <i name="e_fr_energy">   -364.36581015 </i>
    <i name="e_wo_entrp">   -364.38758813 </i>
    <i name="e_0_energy">   -364.37306947 </i>
   </energy>
  </scstep>
  <scstep>
   <time name="diag">    0.08    0.08</time>
   <time name="diis">    0.76    0.76</time>
   <time name="orth">    0.01    0.01</time>
   <time name="total">    0.91    0.97</time>
   <energy>
    <i name="e_fr_energy">   -364.34736178 </i>
    <i name="e_wo_entrp">   -364.36923945 </i>
    <i name="e_0_energy">   -364.35465433 </i>
   </energy>
  </scstep>
  <scstep>
   <time name="diag">    0.08    0.08</time>
   <time name="diis">    0.80    0.83</time>
   <time name="orth">    0.02    0.02</time>
   <time name="total">    0.97    1.04</time>
   <energy>
    <i name="e_fr_energy">   -364.34586117 </i>
    <i name="e_wo_entrp">   -364.36774471 </i>
    <i name="e_0_energy">   -364.35315569 </i>
   </energy>
  </scstep>
  <scstep>
   <time name="diag">    0.16    0.20</time>
   <time name="diis">    0.84    0.89</time>
   <time name="orth">    0.01    0.01</time>
   <time name="total">    1.10    1.26</time>
   <energy>
    <i name="e_fr_energy">   -364.34475085 </i>
    <i name="e_wo_entrp">   -364.36700720 </i>
    <i name="e_0_energy">   -364.35216963 </i>
   </energy>
  </scstep>
  <scstep>
   <time name="diag">    0.11    0.11</time>
   <time name="diis">    0.92    0.93</time>
   <time name="orth">    0.01    0.01</time>
   <time name="total">    1.14    1.17</time>
   <energy>
    <i name="e_fr_energy">   -364.34482415 </i>
    <i name="e_wo_entrp">   -364.36671649 </i>
    <i name="e_0_energy">   -364.35212160 </i>
   </energy>
  </scstep>
  <scstep>
   <time name="diag">    0.08    0.11</time>
   <time name="diis">    0.80    0.85</time>
   <time name="orth">    0.01    0.01</time>
   <time name="total">    0.97    1.10</time>
   <energy>
    <i name="e_fr_energy">   -364.34491112 </i>
    <i name="e_wo_entrp">   -364.36693167 </i>
    <i name="e_0_energy">   -364.35225131 </i>
   </energy>
  </scstep>
  <scstep>
   <time name="diag">    0.08    0.09</time>
   <time name="diis">    0.73    0.84</time>
   <time name="orth">    0.01    0.01</time>
   <time name="total">    0.88    1.05</time>
   <energy>
    <i name="e_fr_energy">   -364.34496757 </i>
    <i name="e_wo_entrp">   -364.36695351 </i>
    <i name="e_0_energy">   -364.35229622 </i>
   </energy>
  </scstep>
  <scstep>
   <time name="diag">    0.08    0.09</time>
   <time name="diis">    0.68    0.75</time>
   <time name="orth">    0.01    0.01</time>
   <time name="total">    0.84    0.96</time>
   <energy>
    <i name="e_fr_energy">   -364.34498583 </i>
    <i name="e_wo_entrp">   -364.36702453 </i>
    <i name="e_0_energy">   -364.35233206 </i>
   </energy>
  </scstep>
  <scstep>
   <time name="diag">    0.08    0.09</time>
   <time name="diis">    0.62    0.68</time>
   <time name="orth">    0.01    0.01</time>
   <time name="total">    0.95    1.09</time>
   <energy>
    <i name="e_fr_energy">   -364.34500104 </i>
    <i name="e_wo_entrp">   -364.36704570 </i>
    <i name="e_0_energy">   -364.35234926 </i>
   </energy>
  </scstep>
  <scstep>
   <time name="diag">    0.07    0.08</time>
   <time name="diis">    0.49    0.54</time>
   <time name="orth">    0.01    0.01</time>
   <time name="total">    0.61    0.72</time>
   <energy>
    <i name="alphaZ">   1474.13769655 </i>
    <i name="ewald"> -19012.04195711 </i>
    <i name="hartreedc">  -6589.40419263 </i>
    <i name="XCdc">   -322.92992841 </i>
    <i name="pawpsdc">  33069.29656866 </i>
    <i name="pawaedc"> -31435.42359961 </i>
    <i name="eentropy">      0.02204386 </i>
    <i name="bandstr">  -2543.92973142 </i>
    <i name="atom">  24995.92809465 </i>
    <i name="e_fr_energy">   -364.34500546 </i>
    <i name="e_wo_entrp">   -364.36704932 </i>
    <i name="e_0_energy">   -364.35235342 </i>
   </energy>
  </scstep>
  <structure>
   <crystal>
    <varray name="basis" >
     <v>       6.96450383       0.00448449       0.01776836 </v>
     <v>       0.00683398      10.26262974      -0.00253905 </v>
     <v>       0.02670242      -0.00287327      10.21992482 </v>
    </varray>
    <i name="volume">    730.45494162 </i>
    <varray name="rec_basis" >
     <v>       0.14358627      -0.00009571      -0.00037519 </v>
     <v>      -0.00006281       0.09744096       0.00002756 </v>
     <v>      -0.00024965       0.00002437       0.09784874 </v>
    </varray>
   </crystal>
   <varray name="positions" >
    <v>       0.76666900       0.48694200       0.49835500 </v>
    <v>       0.99456600       0.00152600       0.99664600 </v>
    <v>       0.00908800       0.31173400       0.98926400 </v>
    <v>       0.00851300       0.67246700       0.66587000 </v>
    <v>       0.48245200       0.99784800       0.31343500 </v>
    <v>       0.75554500       0.49334200       0.16768400 </v>
    <v>       0.50670900       0.67631200       0.99713100 </v>
    <v>       0.72217600       0.84332000       0.49817500 </v>
    <v>       0.00411400       0.00044100       0.67219500 </v>
    <v>       0.75153600       0.48997100       0.83320000 </v>
    <v>       0.23483400       0.50423700       0.15097400 </v>
    <v>       0.01988600       0.67979800       0.34643700 </v>
    <v>       0.50535000       0.00113100       0.99987300 </v>
    <v>       0.74942600       0.17082500       0.50067200 </v>
    <v>       0.48119300       0.66694100       0.33371100 </v>
    <v>       0.46869500       0.34343700       0.34095300 </v>
    <v>       0.02136200       0.99768500       0.33287000 </v>
    <v>       0.74970500       0.18362000       0.18248400 </v>
    <v>       0.25758800       0.16395600       0.51005300 </v>
    <v>       0.03333900       0.32357700       0.34131700 </v>
    <v>       0.01569800       0.32428500       0.67097900 </v>
    <v>       0.24550100       0.49349600       0.84054200 </v>
    <v>       0.28327200       0.85105100       0.51387000 </v>
    <v>       0.25097100       0.83546600       0.83729300 </v>
    <v>       0.22705000       0.81901700       0.14791500 </v>
    <v>       0.48182100       0.33781400       0.66632900 </v>
    <v>       0.48943600       0.32235200       0.99215800 </v>
    <v>       0.75286000       0.82541500       0.83232100 </v>
    <v>       0.25622500       0.17596400       0.16549600 </v>
    <v>       0.22555000       0.48950500       0.50914600 </v>
    <v>       0.99186500       0.67604000       0.99204500 </v>
    <v>       0.49773000       0.00462300       0.68049200 </v>
    <v>       0.73564200       0.17934000       0.81865200 </v>
    <v>       0.77093300       0.83084100       0.16949800 </v>
    <v>       0.26654100       0.16661400       0.82193100 </v>
    <v>       0.48614300       0.65907800       0.67002900 </v>
   </varray>
  </structure>
  <varray name="forces" >
   <v>      -0.25350640       0.22036869       0.14130131 </v>
   <v>       0.01365203       0.03577889       0.01325800 </v>
   <v>       0.01178427      -0.01992550      -0.00494923 </v>
   <v>      -0.02491503       0.01535523       0.01996439 </v>
   <v>       0.01306445      -0.01296225      -0.02076622 </v>
   <v>      -0.03023728       0.00481327       0.01668926 </v>
   <v>       0.04967748       0.00254056       0.05909652 </v>
   <v>      -0.12000439      -0.24479249       0.26164305 </v>
   <v>      -0.01086508      -0.02173388      -0.02011015 </v>
   <v>      -0.23499568       0.23535298      -0.19229783 </v>
   <v>       0.00153669      -0.01234729       0.01403423 </v>
   <v>      -0.02066827       0.03173329      -0.00654171 </v>
   <v>      -0.00574009       0.00465084      -0.00030838 </v>
   <v>      -0.02250664       0.02238056      -0.00044241 </v>
   <v>       0.00010234       0.00495803      -0.03686960 </v>
   <v>      -0.04290617      -0.03787446      -0.02541129 </v>
   <v>       0.00634536       0.02654493       0.00224020 </v>
   <v>      -0.00581392      -0.00988983       0.01398065 </v>
   <v>       0.01142178       0.00799040      -0.01275387 </v>
   <v>       0.02245556      -0.05835514      -0.01631500 </v>
   <v>       0.01882105      -0.01339206       0.00617244 </v>
   <v>       0.24281405       0.30342814      -0.35361975 </v>
   <v>       0.13905257      -0.47689074       0.26371522 </v>
   <v>       0.31037332      -0.31871503      -0.27478438 </v>
   <v>       0.00985068       0.00040615       0.01593215 </v>
   <v>      -0.03387783      -0.13802009      -0.00884191 </v>
   <v>      -0.01689823      -0.02077815      -0.00759092 </v>
   <v>      -0.36800965      -0.21090394      -0.28957241 </v>
   <v>       0.00590588       0.01001933       0.00207076 </v>
   <v>       0.34301203       0.33010334       0.20643394 </v>
   <v>      -0.00023452      -0.01675993      -0.00514196 </v>
   <v>       0.00760042       0.06819201      -0.00400517 </v>
   <v>      -0.03583349      -0.01405867      -0.00721395 </v>
   <v>      -0.01221564      -0.00540667       0.02997888 </v>
   <v>       0.03366793      -0.00145319       0.02097489 </v>
   <v>      -0.00190959       0.30964269       0.20005026 </v>
  </varray>
  <varray name="stress" >
   <v>      -8.23524070       0.19668992       0.30041180 </v>
   <v>       0.19668989      -8.05798999       0.77683991 </v>
   <v>       0.30041179       0.77683992      -7.28460079 </v>
  </varray>
  <energy>
   <i name="e_fr_energy">   -364.34500546 </i>
   <i name="e_wo_entrp">   -364.35235342 </i>
   <i name="e_0_energy">      0.02204386 </i>
  </energy>
  <time name="totalsc">   21.08   23.50</time>
 </calculation>
 <calculation>
  <scstep>
   <time name="dav">    1.08    1.09</time>
   <time name="total">    1.19    1.38</time>
   <energy>
    <i name="alphaZ">   1480.52666095 </i>
    <i name="ewald"> -19036.60454042 </i>
    <i name="hartreedc">  -6601.75320997 </i>
    <i name="XCdc">   -321.70011324 </i>
    <i name="pawpsdc">  33069.60069831 </i>
    <i name="pawaedc"> -31435.72186416 </i>
    <i name="eentropy">      0.02150107 </i>
    <i name="bandstr">  -2514.71470191 </i>
    <i name="atom">  24995.92809465 </i>
    <i name="e_fr_energy">   -364.41747471 </i>
    <i name="e_wo_entrp">   -364.43897578 </i>
    <i name="e_0_energy">   -364.42464173 </i>
   </energy>
  </scstep>
  <scstep>
   <time name="diag">    0.08    0.08</time>
   <time name="diis">    0.76    0.76</time>
   <time name="orth">    0.01    0.01</time>
   <time name="total">    0.92    0.96</time>
   <energy>
    <i name="e_fr_energy">   -364.39828620 </i>
    <i name="e_wo_entrp">   -364.41937332 </i>
    <i name="e_0_energy">   -364.40531524 </i>
   </energy>
  </scstep>
  <scstep>
   <time name="diag">    0.08    0.08</time>
   <time name="diis">    0.80    0.81</time>
   <time name="orth">    0.01    0.01</time>
   <time name="total">    0.99    1.03</time>
   <energy>
    <i name="e_fr_energy">   -364.38885921 </i>
    <i name="e_wo_entrp">   -364.41018126 </i>
    <i name="e_0_energy">   -364.39596656 </i>
   </energy>
  </scstep>
  <scstep>
   <time name="diag">    0.12    0.13</time>
   <time name="diis">    0.82    0.82</time>
   <time name="orth">    0.01    0.01</time>
   <time name="total">    1.02    1.07</time>
   <energy>
    <i name="e_fr_energy">   -364.38305118 </i>
    <i name="e_wo_entrp">   -364.40432163 </i>
    <i name="e_0_energy">   -364.39014133 </i>
   </energy>
  </scstep>
  <scstep>
   <time name="diag">    0.13    0.13</time>
   <time name="diis">    0.85    0.86</time>
   <time name="orth">    0.01    0.01</time>
   <time name="total">    1.08    1.14</time>
   <energy>
    <i name="e_fr_energy">   -364.38242715 </i>
    <i name="e_wo_entrp">   -364.40355379 </i>
    <i name="e_0_energy">   -364.38946936 </i>
   </energy>
  </scstep>
  <scstep>
   <time name="diag">    0.08    0.08</time>
   <time name="diis">    0.81    0.82</time>
   <time name="orth">    0.01    0.01</time>
   <time name="total">    0.97    1.01</time>
   <energy>
    <i name="e_fr_energy">   -364.38253815 </i>
    <i name="e_wo_entrp">   -364.40386263 </i>
    <i name="e_0_energy">   -364.38964631 </i>
   </energy>
  </scstep>
  <scstep>
   <time name="diag">    0.07    0.07</time>
   <time name="diis">    0.77    0.77</time>
   <time name="orth">    0.01    0.01</time>
   <time name="total">    0.92    0.96</time>
   <energy>
    <i name="e_fr_energy">   -364.38267220 </i>
    <i name="e_wo_entrp">   -364.40385270 </i>
    <i name="e_0_energy">   -364.38973236 </i>
   </energy>
  </scstep>
  <scstep>
   <time name="diag">    0.08    0.08</time>
   <time name="diis">    0.70    0.71</time>
   <time name="orth">    0.01    0.01</time>
   <time name="total">    0.86    0.91</time>
   <energy>
    <i name="e_fr_energy">   -364.38274480 </i>
    <i name="e_wo_entrp">   -364.40397104 </i>
    <i name="e_0_energy">   -364.38982021 </i>
   </energy>
  </scstep>
  <scstep>
   <time name="diag">    0.08    0.08</time>
   <time name="diis">    0.65    0.66</time>
   <time name="orth">    0.01    0.01</time>
   <time name="total">    0.81    0.85</time>
   <energy>
    <i name="e_fr_energy">   -364.38280313 </i>
    <i name="e_wo_entrp">   -364.40404396 </i>
    <i name="e_0_energy">   -364.38988341 </i>
   </energy>
  </scstep>
  <scstep>
   <time name="diag">    0.12    0.12</time>
   <time name="diis">    0.55    0.55</time>
   <time name="orth">    0.01    0.01</time>
   <time name="total">    0.75    0.79</time>
   <energy>
    <i name="e_fr_energy">   -364.38286247 </i>
    <i name="e_wo_entrp">   -364.40409372 </i>
    <i name="e_0_energy">   -364.38993955 </i>
   </energy>
  </scstep>
  <scstep>
   <time name="diag">    0.07    0.07</time>
   <time name="diis">    0.52    0.53</time>
   <time name="orth">    0.01    0.01</time>
   <time name="total">    0.68    0.80</time>
   <energy>
    <i name="e_fr_energy">   -364.38288232 </i>
    <i name="e_wo_entrp">   -364.40411625 </i>
    <i name="e_0_energy">   -364.38996029 </i>
   </energy>
  </scstep>
  <scstep>
   <time name="diag">    0.11    0.11</time>
   <time name="diis">    0.43    0.44</time>
   <time name="orth">    0.01    0.01</time>
   <time name="total">    0.60    0.66</time>
   <energy>
    <i name="alphaZ">   1480.52666095 </i>
    <i name="ewald"> -19036.60454042 </i>
    <i name="hartreedc">  -6584.57063972 </i>
    <i name="XCdc">   -322.43580618 </i>
    <i name="pawpsdc">  33248.02539465 </i>
    <i name="pawaedc"> -31613.87014259 </i>
    <i name="eentropy">      0.02123099 </i>
    <i name="bandstr">  -2531.40313787 </i>
    <i name="atom">  24995.92809465 </i>
    <i name="e_fr_energy">   -364.38288554 </i>
    <i name="e_wo_entrp">   -364.40411653 </i>
    <i name="e_0_energy">   -364.38996254 </i>
   </energy>
  </scstep>
  <structure>
   <crystal>
    <varray name="basis" >
     <v>       6.95399263       0.00473147       0.01812875 </v>
     <v>       0.00719351      10.24747245      -0.00107404 </v>
     <v>       0.02722474      -0.00141290      10.20628048 </v>
    </varray>
    <i name="volume">    727.30278587 </i>
    <varray name="rec_basis" >
     <v>       0.14380335      -0.00010099      -0.00038360 </v>
     <v>      -0.00006643       0.09758509       0.00001369 </v>
     <v>      -0.00025544       0.00001045       0.09797957 </v>
    </varray>
   </crystal>
   <varray name="positions" >
    <v>       0.76614112       0.48725306       0.49855610 </v>
    <v>       0.99459425       0.00157645       0.99666474 </v>
    <v>       0.00911254       0.31170589       0.98925694 </v>
    <v>       0.00846109       0.67248869       0.66589837 </v>
    <v>       0.48247928       0.99782970       0.31340554 </v>
    <v>       0.75548207       0.49334882       0.16770775 </v>
    <v>       0.50681191       0.67631556       0.99721451 </v>
    <v>       0.72192554       0.84297500       0.49854587 </v>
    <v>       0.00409156       0.00041035       0.67216655 </v>
    <v>       0.75104837       0.49030304       0.83292861 </v>
    <v>       0.23483713       0.50421959       0.15099386 </v>
    <v>       0.01984304       0.67984277       0.34642782 </v>
    <v>       0.50533807       0.00113756       0.99987259 </v>
    <v>       0.74937920       0.17085658       0.50067146 </v>
    <v>       0.48119341       0.66694798       0.33365879 </v>
    <v>       0.46860603       0.34338362       0.34091716 </v>
    <v>       0.02137514       0.99772243       0.33287316 </v>
    <v>       0.74969286       0.18360606       0.18250382 </v>
    <v>       0.25761179       0.16396725       0.51003490 </v>
    <v>       0.03338583       0.32349468       0.34129379 </v>
    <v>       0.01573710       0.32426610       0.67098767 </v>
    <v>       0.24600709       0.49392355       0.84004045 </v>
    <v>       0.28356019       0.85037845       0.51424279 </v>
    <v>       0.25161792       0.83501614       0.83690263 </v>
    <v>       0.22707038       0.81901757       0.14793753 </v>
    <v>       0.48175084       0.33761939       0.66631655 </v>
    <v>       0.48940095       0.32232271       0.99214730 </v>
    <v>       0.75209711       0.82511779       0.83191218 </v>
    <v>       0.25623725       0.17597813       0.16549891 </v>
    <v>       0.22626123       0.48997030       0.50943722 </v>
    <v>       0.99186456       0.67601636       0.99203771 </v>
    <v>       0.49774572       0.00471916       0.68048632 </v>
    <v>       0.73556759       0.17932020       0.81864191 </v>
    <v>       0.77090746       0.83083340       0.16954050 </v>
    <v>       0.26661085       0.16661193       0.82196058 </v>
    <v>       0.48613752       0.65951475       0.67031242 </v>
   </varray>
  </structure>
  <varray name="forces" >
   <v>      -0.24057436       0.20719076       0.12536368 </v>
   <v>       0.01186867       0.02522031       0.00286624 </v>
   <v>       0.00259489       0.00695738      -0.01382378 </v>
   <v>      -0.03690556       0.00863225       0.01095008 </v>
   <v>       0.02294408      -0.02550248      -0.00355090 </v>
   <v>      -0.01892500       0.00068754       0.01595507 </v>
   <v>       0.04989315      -0.00168601       0.07202729 </v>
   <v>      -0.09450191      -0.22066030       0.24237899 </v>
   <v>      -0.01686513      -0.02533970      -0.02479237 </v>
   <v>      -0.21758943       0.21959990      -0.17223588 </v>
   <v>      -0.00531032      -0.01661997       0.01306796 </v>
   <v>      -0.02841712       0.01827715       0.00197784 </v>
   <v>      -0.00331628       0.00212786      -0.00038095 </v>
   <v>      -0.01845987       0.01717395      -0.00905940 </v>
   <v>       0.00534889      -0.00591302      -0.04268497 </v>
   <v>      -0.02811083      -0.02421634      -0.02155471 </v>
   <v>      -0.00116063       0.01739626       0.01786805 </v>
   <v>      -0.00309070      -0.01753324       0.00942151 </v>
   <v>       0.00972785       0.00052914      -0.02578028 </v>
   <v>       0.00385554      -0.02623054      -0.00041075 </v>
   <v>       0.00683695       0.00634311      -0.00480483 </v>
   <v>       0.21778841       0.28480181      -0.31219928 </v>
   <v>       0.10763278      -0.44160697       0.22990052 </v>
   <v>       0.28612575      -0.28777355      -0.25523219 </v>
   <v>       0.01669031       0.01172854       0.01982694 </v>
   <v>      -0.01787609      -0.13156766      -0.01646368 </v>
   <v>      -0.00590382      -0.00248725      -0.00666500 </v>
   <v>      -0.34242360      -0.18667186      -0.27365577 </v>
   <v>       0.00278789      -0.00806522      -0.00605293 </v>
   <v>       0.32230585       0.31377478       0.18654023 </v>
   <v>      -0.00229804      -0.03486383      -0.01287586 </v>
   <v>       0.01951430       0.05037266      -0.00816776 </v>
   <v>      -0.01501208      -0.02420847       0.00589337 </v>
   <v>      -0.01733547       0.00948289       0.02822031 </v>
   <v>       0.00964112      -0.00909723       0.03734389 </v>
   <v>       0.01851981       0.28974733       0.19078933 </v>
  </varray>
  <varray name="stress" >
   <v>      -2.38087454       0.13799574       0.29800388 </v>
   <v>       0.13799576      -2.25344540       0.63578323 </v>
   <v>       0.29800395       0.63578323      -1.51475528 </v>
  </varray>
  <energy>
   <i name="e_fr_energy">   -364.38288554 </i>
   <i name="e_wo_entrp">   -364.38996254 </i>
   <i name="e_0_energy">      0.02123099 </i>
  </energy>
  <time name="totalsc">   12.36   13.29</time>
 </calculation>
 <calculation>
  <scstep>
   <time name="dav">    1.01    1.09</time>
   <time name="total">    1.15    1.42</time>
   <energy>
    <i name="alphaZ">   1494.87270522 </i>
    <i name="ewald"> -19090.97606185 </i>
    <i name="hartreedc">  -6612.57801988 </i>
    <i name="XCdc">   -319.68615561 </i>
    <i name="pawpsdc">  33248.15198238 </i>
    <i name="pawaedc"> -31613.98258867 </i>
    <i name="eentropy">      0.01995117 </i>
    <i name="bandstr">  -2466.33961374 </i>
    <i name="atom">  24995.92809465 </i>
    <i name="e_fr_energy">   -364.58970634 </i>
    <i name="e_wo_entrp">   -364.60965751 </i>
    <i name="e_0_energy">   -364.59635673 </i>
   </energy>
  </scstep>
  <scstep>
   <time name="diag">    0.12    0.12</time>
   <time name="diis">    0.83    0.83</time>
   <time name="orth">    0.01    0.01</time>
   <time name="total">    1.03    1.11</time>
   <energy>
    <i name="e_fr_energy">   -364.49314071 </i>
    <i name="e_wo_entrp">   -364.51192235 </i>
    <i name="e_0_energy">   -364.49940126 </i>
   </energy>
  </scstep>
  <scstep>
   <time name="diag">    0.08    0.08</time>
   <time name="diis">    0.76    0.83</time>
   <time name="orth">    0.01    0.01</time>
   <time name="total">    0.92    1.02</time>
   <energy>
    <i name="e_fr_energy">   -364.44572640 </i>
    <i name="e_wo_entrp">   -364.46509003 </i>
    <i name="e_0_energy">   -364.45218094 </i>
   </energy>
  </scstep>
  <scstep>
   <time name="diag">    0.09    0.09</time>
   <time name="diis">    0.80    0.81</time>
   <time name="orth">    0.01    0.01</time>
   <time name="total">    0.96    1.02</time>
   <energy>
    <i name="e_fr_energy">   -364.41734033 </i>
    <i name="e_wo_entrp">   -364.43646675 </i>
    <i name="e_0_energy">   -364.42371581 </i>
   </energy>
  </scstep>
  <scstep>
   <time name="diag">    0.08    0.08</time>
   <time name="diis">    0.79    0.79</time>
   <time name="orth">    0.01    0.01</time>
   <time name="total">    0.95    0.99</time>
   <energy>
    <i name="e_fr_energy">   -364.41426390 </i>
    <i name="e_wo_entrp">   -364.43313331 </i>
    <i name="e_0_energy">   -364.42055370 </i>
   </energy>
  </scstep>
  <scstep>
   <time name="diag">    0.08    0.08</time>
   <time name="diis">    0.83    0.84</time>
   <time name="orth">    0.01    0.01</time>
   <time name="total">    0.98    1.04</time>
   <energy>
    <i name="e_fr_energy">   -364.41467965 </i>
    <i name="e_wo_entrp">   -364.43397015 </i>
    <i name="e_0_energy">   -364.42110982 </i>
   </energy>
  </scstep>
  <scstep>
   <time name="diag">    0.07    0.07</time>
   <time name="diis">    0.86    0.87</time>
   <time name="orth">    0.01    0.01</time>
   <time name="total">    1.01    1.06</time>
   <energy>
    <i name="e_fr_energy">   -364.41526272 </i>
    <i name="e_wo_entrp">   -364.43423819 </i>
    <i name="e_0_energy">   -364.42158788 </i>
   </energy>
  </scstep>
  <scstep>
   <time name="diag">    0.10    0.10</time>
   <time name="diis">    0.90    0.90</time>
   <time name="orth">    0.01    0.01</time>
   <time name="total">    1.08    1.13</time>
   <energy>
    <i name="e_fr_energy">   -364.41557382 </i>
    <i name="e_wo_entrp">   -364.43465727 </i>
    <i name="e_0_energy">   -364.42193497 </i>
   </energy>
  </scstep>
  <scstep>
   <time name="diag">    0.08    0.08</time>
   <time name="diis">    0.78    0.79</time>
   <time name="orth">    0.01    0.01</time>
   <time name="total">    0.94    0.99</time>
   <energy>
    <i name="e_fr_energy">   -364.41581288 </i>
    <i name="e_wo_entrp">   -364.43492484 </i>
    <i name="e_0_energy">   -364.42218353 </i>
   </energy>
  </scstep>
  <scstep>
   <time name="diag">    0.08    0.08</time>
   <time name="diis">    0.85    0.85</time>
   <time name="orth">    0.01    0.01</time>
   <time name="total">    1.00    1.05</time>
   <energy>
    <i name="e_fr_energy">   -364.41605462 </i>
    <i name="e_wo_entrp">   -364.43514283 </i>
    <i name="e_0_energy">   -364.42241735 </i>
   </energy>
  </scstep>
  <scstep>
   <time name="diag">    0.07    0.08</time>
   <time name="diis">    0.59    0.74</time>
   <time name="orth">    0.01    0.01</time>
   <time name="total">    0.74    0.94</time>
   <energy>
    <i name="e_fr_energy">   -364.41612259 </i>
    <i name="e_wo_entrp">   -364.43521782 </i>
    <i name="e_0_energy">   -364.42248766 </i>
   </energy>
  </scstep>
  <scstep>
   <time name="diag">    0.13    0.13</time>
   <time name="diis">    0.61    0.61</time>
   <time name="orth">    0.01    0.01</time>
   <time name="total">    0.82    0.86</time>
   <energy>
    <i name="e_fr_energy">   -364.41613486 </i>
    <i name="e_wo_entrp">   -364.43522534 </i>
    <i name="e_0_energy">   -364.42249836 </i>
   </energy>
  </scstep>
  <scstep>
   <time name="diag">    0.07    0.07</time>
   <time name="diis">    0.49    0.49</time>
   <time name="orth">    0.01    0.01</time>
   <time name="total">    0.61    0.65</time>
   <energy>
    <i name="alphaZ">   1494.87270522 </i>
    <i name="ewald"> -19090.97606185 </i>
    <i name="hartreedc">  -6574.53009250 </i>
    <i name="XCdc">   -321.31472375 </i>
    <i name="pawpsdc">  33659.75337662 </i>
    <i name="pawaedc"> -32024.80384889 </i>
    <i name="eentropy">      0.01909148 </i>
    <i name="bandstr">  -2503.36467947 </i>
    <i name="atom">  24995.92809465 </i>
    <i name="e_fr_energy">   -364.41613850 </i>
    <i name="e_wo_entrp">   -364.43522998 </i>
    <i name="e_0_energy">   -364.42250233 </i>
   </energy>
  </scstep>
  <structure>
   <crystal>
    <varray name="basis" >
     <v>       6.93060977       0.00528090       0.01893047 </v>
     <v>       0.00799328      10.21375405       0.00218498 </v>
     <v>       0.02838667       0.00183580      10.17592773 </v>
    </varray>
    <i name="volume">    720.32298222 </i>
    <varray name="rec_basis" >
     <v>       0.14428863      -0.00011283      -0.00040249 </v>
     <v>      -0.00007455       0.09790726      -0.00001746 </v>
     <v>      -0.00026841      -0.00002081       0.09827189 </v>
    </varray>
   </crystal>
   <varray name="positions" >
    <v>       0.76496496       0.48794602       0.49900399 </v>
    <v>       0.99465718       0.00168884       0.99670646 </v>
    <v>       0.00916723       0.31164326       0.98924123 </v>
    <v>       0.00834545       0.67253699       0.66596156 </v>
    <v>       0.48254006       0.99778894       0.31333992 </v>
    <v>       0.75534185       0.49336402       0.16776064 </v>
    <v>       0.50704117       0.67632346       0.99740052 </v>
    <v>       0.72136750       0.84220627       0.49937214 </v>
    <v>       0.00404158       0.00034208       0.67210320 </v>
    <v>       0.74996199       0.49104290       0.83232401 </v>
    <v>       0.23484412       0.50418080       0.15103812 </v>
    <v>       0.01974733       0.67994251       0.34640737 </v>
    <v>       0.50531148       0.00115219       0.99987166 </v>
    <v>       0.74927493       0.17092695       0.50067026 </v>
    <v>       0.48119432       0.66696354       0.33354248 </v>
    <v>       0.46840782       0.34326470       0.34083734 </v>
    <v>       0.02140440       0.99780582       0.33288018 </v>
    <v>       0.74966580       0.18357501       0.18254796 </v>
    <v>       0.25766481       0.16399233       0.50999458 </v>
    <v>       0.03349019       0.32331128       0.34124212 </v>
    <v>       0.01582420       0.32422399       0.67100698 </v>
    <v>       0.24713466       0.49487619       0.83892306 </v>
    <v>       0.28420228       0.84887996       0.51507338 </v>
    <v>       0.25305933       0.83401401       0.83603316 </v>
    <v>       0.22711579       0.81901883       0.14798770 </v>
    <v>       0.48159455       0.33718582       0.66628889 </v>
    <v>       0.48932288       0.32225746       0.99212349 </v>
    <v>       0.75039754       0.82445583       0.83100167 </v>
    <v>       0.25626453       0.17600959       0.16550540 </v>
    <v>       0.22784571       0.49100678       0.51008571 </v>
    <v>       0.99186360       0.67596370       0.99202149 </v>
    <v>       0.49778074       0.00493339       0.68047365 </v>
    <v>       0.73540182       0.17927611       0.81861944 </v>
    <v>       0.77085055       0.83081645       0.16963516 </v>
    <v>       0.26676648       0.16660730       0.82202647 </v>
    <v>       0.48612520       0.66048769       0.67094360 </v>
   </varray>
  </structure>
  <varray name="forces" >
   <v>      -0.21186176       0.17734227       0.08885356 </v>
   <v>       0.01054336       0.00323443      -0.01869241 </v>
   <v>      -0.01557693       0.06643368      -0.03387080 </v>
   <v>      -0.06517554      -0.00746337      -0.00984994 </v>
   <v>       0.04461406      -0.05436105       0.03714355 </v>
   <v>       0.00653395      -0.00931523       0.01473070 </v>
   <v>       0.04945413      -0.01206125       0.10544978 </v>
   <v>      -0.03462937      -0.16472943       0.19611877 </v>
   <v>      -0.03026591      -0.03344875      -0.03572182 </v>
   <v>      -0.17631560       0.18222726      -0.12627408 </v>
   <v>      -0.02091995      -0.02541449       0.01153649 </v>
   <v>      -0.04634495      -0.01082833       0.01999518 </v>
   <v>       0.00222939      -0.00397898      -0.00048893 </v>
   <v>      -0.00924685       0.00523250      -0.02847602 </v>
   <v>       0.01740300      -0.02982656      -0.05746712 </v>
   <v>       0.00377327       0.00599154      -0.01169966 </v>
   <v>      -0.01866608      -0.00438125       0.05391426 </v>
   <v>       0.00386772      -0.03529299       0.00079543 </v>
   <v>       0.00418526      -0.01725846      -0.05515629 </v>
   <v>      -0.03897452       0.04381471       0.03452375 </v>
   <v>      -0.02123908       0.04986337      -0.03024970 </v>
   <v>       0.15961280       0.24067166      -0.21716269 </v>
   <v>       0.03251069      -0.35713531       0.14916820 </v>
   <v>       0.22451808      -0.21350710      -0.20488287 </v>
   <v>       0.03389500       0.03682141       0.02882114 </v>
   <v>       0.01946061      -0.11697198      -0.03309616 </v>
   <v>       0.01761337       0.03970636      -0.00551970 </v>
   <v>      -0.27860318      -0.12757530      -0.23245444 </v>
   <v>      -0.00551143      -0.04720169      -0.02493637 </v>
   <v>       0.27788463       0.27581598       0.13920290 </v>
   <v>      -0.00556589      -0.07835670      -0.03024464 </v>
   <v>       0.04506832       0.01327396      -0.02202394 </v>
   <v>       0.03322951      -0.04518488       0.03441795 </v>
   <v>      -0.02918164       0.04219951       0.02387339 </v>
   <v>      -0.04680463      -0.02456556       0.07683814 </v>
   <v>       0.06848616       0.23623003       0.16288438 </v>
  </varray>
  <varray name="stress" >
   <v>      11.13750877      -0.00893172       0.30013943 </v>
   <v>      -0.00893167      11.12318060       0.29887700 </v>
   <v>       0.30013944       0.29887703      11.78708704 </v>
  </varray>
  <energy>
   <i name="e_fr_energy">   -364.41613850 </i>
   <i name="e_wo_entrp">   -364.42250233 </i>
   <i name="e_0_energy">      0.01909148 </i>
  </energy>
  <time name="totalsc">   13.78   15.01</time>
 </calculation>
 <calculation>
  <scstep>
   <time name="dav">    0.92    0.93</time>
   <time name="total">    1.03    1.23</time>
   <energy>
    <i name="alphaZ">   1493.52616451 </i>
    <i name="ewald"> -19081.81294816 </i>
    <i name="hartreedc">  -6575.97872143 </i>
    <i name="XCdc">   -321.56518496 </i>
    <i name="pawpsdc">  33660.57640991 </i>
    <i name="pawaedc"> -32025.58296781 </i>
    <i name="eentropy">      0.01865824 </i>
    <i name="bandstr">  -2509.55046577 </i>
    <i name="atom">  24995.92809465 </i>
    <i name="e_fr_energy">   -364.44096083 </i>
    <i name="e_wo_entrp">   -364.45961906 </i>
    <i name="e_0_energy">   -364.44718024 </i>
   </energy>
  </scstep>
  <scstep>
   <time name="diag">    0.08    0.08</time>
   <time name="diis">    0.75    0.76</time>
   <time name="orth">    0.01    0.01</time>
   <time name="total">    0.91    0.94</time>
   <energy>
    <i name="e_fr_energy">   -364.44789771 </i>
    <i name="e_wo_entrp">   -364.46687197 </i>
    <i name="e_0_energy">   -364.45422246 </i>
   </energy>
  </scstep>
  <scstep>
   <time name="diag">    0.08    0.08</time>
   <time name="diis">    0.78    0.78</time>
   <time name="orth">    0.01    0.01</time>
   <time name="total">    0.93    0.98</time>
   <energy>
    <i name="e_fr_energy">   -364.44503858 </i>
    <i name="e_wo_entrp">   -364.46388860 </i>
    <i name="e_0_energy">   -364.45132192 </i>
   </energy>
  </scstep>
  <scstep>
   <time name="diag">    0.08    0.08</time>
   <time name="diis">    0.80    0.81</time>
   <time name="orth">    0.01    0.01</time>
   <time name="total">    0.96    1.01</time>
   <energy>
    <i name="e_fr_energy">   -364.44466145 </i>
    <i name="e_wo_entrp">   -364.46357710 </i>
    <i name="e_0_energy">   -364.45096667 </i>
   </energy>
  </scstep>
  <scstep>
   <time name="diag">    0.08    0.08</time>
   <time name="diis">    0.82    0.82</time>
   <time name="orth">    0.01    0.01</time>
   <time name="total">    1.00    1.04</time>
   <energy>
    <i name="e_fr_energy">   -364.44454115 </i>
    <i name="e_wo_entrp">   -364.46342785 </i>
    <i name="e_0_energy">   -364.45083672 </i>
   </energy>
  </scstep>
  <scstep>
   <time name="diag">    0.08    0.08</time>
   <time name="diis">    0.81    0.81</time>
   <time name="orth">    0.01    0.01</time>
   <time name="total">    0.96    1.05</time>
   <energy>
    <i name="e_fr_energy">   -364.44451093 </i>
    <i name="e_wo_entrp">   -364.46346734 </i>
    <i name="e_0_energy">   -364.45082973 </i>
   </energy>
  </scstep>
  <scstep>
   <time name="diag">    0.08    0.13</time>
   <time name="diis">    0.75    0.76</time>
   <time name="orth">    0.01    0.01</time>
   <time name="total">    0.91    1.03</time>
   <energy>
    <i name="e_fr_energy">   -364.44450571 </i>
    <i name="e_wo_entrp">   -364.46342294 </i>
    <i name="e_0_energy">   -364.45081145 </i>
   </energy>
  </scstep>
  <scstep>
   <time name="diag">    0.07    0.07</time>
   <time name="diis">    0.48    0.48</time>
   <time name="orth">    0.01    0.01</time>
   <time name="total">    0.60    0.64</time>
   <energy>
    <i name="alphaZ">   1493.52616451 </i>
    <i name="ewald"> -19081.81294816 </i>
    <i name="hartreedc">  -6579.96869793 </i>
    <i name="XCdc">   -321.40224505 </i>
    <i name="pawpsdc">  33617.20193154 </i>
    <i name="pawaedc"> -31982.08270205 </i>
    <i name="eentropy">      0.01893057 </i>
    <i name="bandstr">  -2505.85303068 </i>
    <i name="atom">  24995.92809465 </i>
    <i name="e_fr_energy">   -364.44450260 </i>
    <i name="e_wo_entrp">   -364.46343317 </i>
    <i name="e_0_energy">   -364.45081279 </i>
   </energy>
  </scstep>
  <structure>
   <crystal>
    <varray name="basis" >
     <v>       6.93218409       0.00545472       0.01945206 </v>
     <v>       0.00824569      10.21629061       0.00357307 </v>
     <v>       0.02914609       0.00321838      10.18026622 </v>
    </varray>
    <i name="volume">    720.97241458 </i>
    <varray name="rec_basis" >
     <v>       0.14425593      -0.00011629      -0.00041297 </v>
     <v>      -0.00007693       0.09788296      -0.00003072 </v>
     <v>      -0.00027561      -0.00003413       0.09823006 </v>
    </varray>
   </crystal>
   <varray name="positions" >
    <v>       0.76430321       0.48832963       0.49922905 </v>
    <v>       0.99469154       0.00172772       0.99670263 </v>
    <v>       0.00916382       0.31168390       0.98920519 </v>
    <v>       0.00822081       0.67254567       0.66597289 </v>
    <v>       0.48261946       0.99772624       0.31335289 </v>
    <v>       0.75530576       0.49336036       0.16779104 </v>
    <v>       0.50718063       0.67631490       0.99755649 </v>
    <v>       0.72114188       0.84180999       0.49981619 </v>
    <v>       0.00398504       0.00028975       0.67205030 </v>
    <v>       0.74937764       0.49144607       0.83201539 </v>
    <v>       0.23481818       0.50414520       0.15106290 </v>
    <v>       0.01965430       0.67996455       0.34641926 </v>
    <v>       0.50530598       0.00115323       0.99987091 </v>
    <v>       0.74922924       0.17095424       0.50064380 </v>
    <v>       0.48121828       0.66694129       0.33345260 </v>
    <v>       0.46834955       0.34323216       0.34080111 </v>
    <v>       0.02138844       0.99782848       0.33293187 </v>
    <v>       0.74966238       0.18353285       0.18256280 </v>
    <v>       0.25768762       0.16398460       0.50993113 </v>
    <v>       0.03347096       0.32329267       0.34125735 </v>
    <v>       0.01582354       0.32425606       0.67098548 </v>
    <v>       0.24771059       0.49540055       0.83836629 </v>
    <v>       0.28445117       0.84807460       0.51547571 </v>
    <v>       0.25382344       0.83349858       0.83556701 </v>
    <v>       0.22717577       0.81905282       0.14803006 </v>
    <v>       0.48157102       0.33694038       0.66624974 </v>
    <v>       0.48932159       0.32227284       0.99211078 </v>
    <v>       0.74948027       0.82412804       0.83049844 </v>
    <v>       0.25626598       0.17597657       0.16548464 </v>
    <v>       0.22872540       0.49158971       0.51041967 </v>
    <v>       0.99185600       0.67587534       0.99198862 </v>
    <v>       0.49785264       0.00501398       0.68044928 </v>
    <v>       0.73539345       0.17922073       0.81864374 </v>
    <v>       0.77079295       0.83084957       0.16968737 </v>
    <v>       0.26675300       0.16658340       0.82211807 </v>
    <v>       0.48621248       0.66101433       0.67129431 </v>
   </varray>
  </structure>
  <varray name="forces" >
   <v>      -0.18542499       0.14822740       0.07290313 </v>
   <v>       0.01571812      -0.01672361      -0.02826349 </v>
   <v>      -0.01211687       0.08595925      -0.05144541 </v>
   <v>      -0.06352514      -0.01037757      -0.01531695 </v>
   <v>       0.03898634      -0.07182764       0.05170603 </v>
   <v>       0.02156870      -0.02131859       0.01410238 </v>
   <v>       0.04364049      -0.00518609       0.11477623 </v>
   <v>      -0.02564307      -0.13261366       0.17362940 </v>
   <v>      -0.02310736      -0.03471091      -0.03574766 </v>
   <v>      -0.15696689       0.15160469      -0.10531433 </v>
   <v>      -0.03045108      -0.02764142       0.00500635 </v>
   <v>      -0.03976487      -0.01542503       0.02554049 </v>
   <v>      -0.00195232      -0.00953665      -0.00588267 </v>
   <v>      -0.00223656       0.01201223      -0.02893738 </v>
   <v>       0.01093765      -0.02881744      -0.06355876 </v>
   <v>      -0.00722497       0.01443219      -0.00162762 </v>
   <v>      -0.01189320      -0.01628403       0.06544039 </v>
   <v>       0.00603527      -0.03267239      -0.00072246 </v>
   <v>      -0.00256206      -0.01045862      -0.05115752 </v>
   <v>      -0.02814358       0.06370058       0.05720752 </v>
   <v>      -0.01218757       0.06041452      -0.03990981 </v>
   <v>       0.13503396       0.19992456      -0.17130467 </v>
   <v>       0.01914383      -0.29880638       0.12033039 </v>
   <v>       0.18898857      -0.17266395      -0.17190532 </v>
   <v>       0.01666687       0.03225749       0.02023181 </v>
   <v>       0.01333603      -0.11936115      -0.03163807 </v>
   <v>       0.01280105       0.04171970      -0.01740066 </v>
   <v>      -0.23885499      -0.10475336      -0.20530066 </v>
   <v>      -0.00783506      -0.04557385      -0.02732244 </v>
   <v>       0.23973585       0.22727712       0.11625235 </v>
   <v>       0.00056990      -0.07299520      -0.03694422 </v>
   <v>       0.03602042       0.00095574      -0.02362998 </v>
   <v>       0.03962075      -0.03371228       0.03495158 </v>
   <v>      -0.01468858       0.05127721       0.01894801 </v>
   <v>      -0.05126167      -0.01722952       0.07200691 </v>
   <v>       0.07703701       0.20892667       0.15029711 </v>
  </varray>
  <varray name="stress" >
   <v>       9.96351065      -0.04591060       0.27624640 </v>
   <v>      -0.04591060       9.81517273       0.08308563 </v>
   <v>       0.27624642       0.08308564      10.41480088 </v>
  </varray>
  <energy>
   <i name="e_fr_energy">   -364.44450260 </i>
   <i name="e_wo_entrp">   -364.45081279 </i>
   <i name="e_0_energy">      0.01893057 </i>
  </energy>
  <time name="totalsc">    8.92    9.69</time>
 </calculation>
 <calculation>
  <scstep>
   <time name="dav">    0.96    0.97</time>
   <time name="total">    1.06    1.25</time>
   <energy>
    <i name="alphaZ">   1489.49688294 </i>
    <i name="ewald"> -19053.14869772 </i>
    <i name="hartreedc">  -6585.23460045 </i>
    <i name="XCdc">   -322.15235446 </i>
    <i name="pawpsdc">  33617.26034193 </i>
    <i name="pawaedc"> -31982.17434224 </i>
    <i name="eentropy">      0.01743111 </i>
    <i name="bandstr">  -2524.46108772 </i>
    <i name="atom">  24995.92809465 </i>
    <i name="e_fr_energy">   -364.46833197 </i>
    <i name="e_wo_entrp">   -364.48576308 </i>
    <i name="e_0_energy">   -364.47414234 </i>
   </energy>
  </scstep>
  <scstep>
   <time name="diag">    0.12    0.12</time>
   <time name="diis">    0.74    0.74</time>
   <time name="orth">    0.01    0.01</time>
   <time name="total">    0.94    0.97</time>
   <energy>
    <i name="e_fr_energy">   -364.52781689 </i>
    <i name="e_wo_entrp">   -364.54585386 </i>
    <i name="e_0_energy">   -364.53382921 </i>
   </energy>
  </scstep>
  <scstep>
   <time name="diag">    0.07    0.08</time>
   <time name="diis">    0.66    0.88</time>
   <time name="orth">    0.01    0.01</time>
   <time name="total">    0.81    1.07</time>
   <energy>
    <i name="e_fr_energy">   -364.50833360 </i>
    <i name="e_wo_entrp">   -364.52627297 </i>
    <i name="e_0_energy">   -364.51431339 </i>
   </energy>
  </scstep>
  <scstep>
   <time name="diag">    0.07    0.08</time>
   <time name="diis">    0.80    0.80</time>
   <time name="orth">    0.01    0.01</time>
   <time name="total">    0.95    0.99</time>
   <energy>
    <i name="e_fr_energy">   -364.50455078 </i>
    <i name="e_wo_entrp">   -364.52267667 </i>
    <i name="e_0_energy">   -364.51059275 </i>
   </energy>
  </scstep>
  <scstep>
   <time name="diag">    0.08    0.08</time>
   <time name="diis">    0.79    0.79</time>
   <time name="orth">    0.01    0.01</time>
   <time name="total">    0.94    0.98</time>
   <energy>
    <i name="e_fr_energy">   -364.50359134 </i>
    <i name="e_wo_entrp">   -364.52157500 </i>
    <i name="e_0_energy">   -364.50958590 </i>
   </energy>
  </scstep>
  <scstep>
   <time name="diag">    0.12    0.12</time>
   <time name="diis">    0.81    0.81</time>
   <time name="orth">    0.01    0.01</time>
   <time name="total">    1.01    1.05</time>
   <energy>
    <i name="e_fr_energy">   -364.50332312 </i>
    <i name="e_wo_entrp">   -364.52153408 </i>
    <i name="e_0_energy">   -364.50939344 </i>
   </energy>
  </scstep>
  <scstep>
   <time name="diag">    0.08    0.08</time>
   <time name="diis">    0.75    0.90</time>
   <time name="orth">    0.01    0.01</time>
   <time name="total">    0.92    1.12</time>
   <energy>
    <i name="e_fr_energy">   -364.50330938 </i>
    <i name="e_wo_entrp">   -364.52141219 </i>
    <i name="e_0_energy">   -364.50934365 </i>
   </energy>
  </scstep>
  <scstep>
   <time name="diag">    0.08    0.08</time>
   <time name="diis">    0.73    0.73</time>
   <time name="orth">    0.01    0.01</time>
   <time name="total">    0.89    0.96</time>
   <energy>
    <i name="e_fr_energy">   -364.50332303 </i>
    <i name="e_wo_entrp">   -364.52146296 </i>
    <i name="e_0_energy">   -364.50936967 </i>
   </energy>
  </scstep>
  <scstep>
   <time name="diag">    0.10    0.10</time>
   <time name="diis">    0.69    0.70</time>
   <time name="orth">    0.01    0.01</time>
   <time name="total">    0.86    0.93</time>
   <energy>
    <i name="e_fr_energy">   -364.50332939 </i>
    <i name="e_wo_entrp">   -364.52146104 </i>
    <i name="e_0_energy">   -364.50937327 </i>
   </energy>
  </scstep>
  <scstep>
   <time name="diag">    0.07    0.08</time>
   <time name="diis">    0.60    0.60</time>
   <time name="orth">    0.01    0.01</time>
   <time name="total">    0.76    0.81</time>
   <energy>
    <i name="e_fr_energy">   -364.50333227 </i>
    <i name="e_wo_entrp">   -364.52146763 </i>
    <i name="e_0_energy">   -364.50937739 </i>
   </energy>
  </scstep>
  <scstep>
   <time name="diag">    0.08    0.08</time>
   <time name="diis">    0.49    0.50</time>
   <time name="orth">    0.01    0.01</time>
   <time name="total">    0.62    0.67</time>
   <energy>
    <i name="alphaZ">   1489.49688294 </i>
    <i name="ewald"> -19053.14869772 </i>
    <i name="hartreedc">  -6596.82806739 </i>
    <i name="XCdc">   -321.68072148 </i>
    <i name="pawpsdc">  33487.79223051 </i>
    <i name="pawaedc"> -31852.88639757 </i>
    <i name="eentropy">      0.01813601 </i>
    <i name="bandstr">  -2513.19479193 </i>
    <i name="atom">  24995.92809465 </i>
    <i name="e_fr_energy">   -364.50333200 </i>
    <i name="e_wo_entrp">   -364.52146801 </i>
    <i name="e_0_energy">   -364.50937734 </i>
   </energy>
  </scstep>
  <structure>
   <crystal>
    <varray name="basis" >
     <v>       6.93690707       0.00597615       0.02101683 </v>
     <v>       0.00900291      10.22390028       0.00773734 </v>
     <v>       0.03142436       0.00736613      10.19328167 </v>
    </varray>
    <i name="volume">    722.92273814 </i>
    <varray name="rec_basis" >
     <v>       0.14415792      -0.00012661      -0.00044433 </v>
     <v>      -0.00008405       0.09781016      -0.00007042 </v>
     <v>      -0.00029717      -0.00007398       0.09810480 </v>
    </varray>
   </crystal>
   <varray name="positions" >
    <v>       0.76231830       0.48948009       0.49990387 </v>
    <v>       0.99479463       0.00184433       0.99669111 </v>
    <v>       0.00915359       0.31180583       0.98909713 </v>
    <v>       0.00784697       0.67257168       0.66600689 </v>
    <v>       0.48285758       0.99753818       0.31339178 </v>
    <v>       0.75519748       0.49334938       0.16788219 </v>
    <v>       0.50759887       0.67628916       0.99802418 </v>
    <v>       0.72046505       0.84062126       0.50114799 </v>
    <v>       0.00381551       0.00013281       0.67189170 </v>
    <v>       0.74762503       0.49265544       0.83108985 </v>
    <v>       0.23474039       0.50403842       0.15113722 </v>
    <v>       0.01937526       0.68003065       0.34645494 </v>
    <v>       0.50528950       0.00115636       0.99986867 </v>
    <v>       0.74909222       0.17103610       0.50056444 </v>
    <v>       0.48129018       0.66687460       0.33318308 </v>
    <v>       0.46817483       0.34313458       0.34069248 </v>
    <v>       0.02134056       0.99789644       0.33308687 </v>
    <v>       0.74965214       0.18340640       0.18260733 </v>
    <v>       0.25775605       0.16396144       0.50974087 </v>
    <v>       0.03341326       0.32323684       0.34130302 </v>
    <v>       0.01582156       0.32435228       0.67092098 </v>
    <v>       0.24943811       0.49697346       0.83669640 </v>
    <v>       0.28519764       0.84565894       0.51668246 </v>
    <v>       0.25611546       0.83195282       0.83416927 </v>
    <v>       0.22735565       0.81915474       0.14815706 </v>
    <v>       0.48150049       0.33620428       0.66613245 </v>
    <v>       0.48931774       0.32231898       0.99207265 </v>
    <v>       0.74672927       0.82314516       0.82898964 </v>
    <v>       0.25627035       0.17587752       0.16542240 </v>
    <v>       0.23136372       0.49333791       0.51142076 </v>
    <v>       0.99183322       0.67561031       0.99189010 </v>
    <v>       0.49806829       0.00525571       0.68037615 </v>
    <v>       0.73536832       0.17905463       0.81871661 </v>
    <v>       0.77062016       0.83094888       0.16984392 </v>
    <v>       0.26671254       0.16651169       0.82239275 </v>
    <v>       0.48647408       0.66259373       0.67234578 </v>
   </varray>
  </structure>
  <varray name="forces" >
   <v>      -0.11251198       0.06491201       0.02839739 </v>
   <v>       0.03167505      -0.07360157      -0.05188174 </v>
   <v>      -0.00274308       0.14290719      -0.10147424 </v>
   <v>      -0.05788262      -0.02071180      -0.03191785 </v>
   <v>       0.02341510      -0.12355684       0.09361042 </v>
   <v>       0.06707980      -0.06048126       0.01133939 </v>
   <v>       0.02675541       0.01551521       0.14733150 </v>
   <v>       0.00687280      -0.03796498       0.10384203 </v>
   <v>      -0.00332507      -0.03697528      -0.03721241 </v>
   <v>      -0.09863930       0.05550950      -0.04566470 </v>
   <v>      -0.05873816      -0.03629665      -0.01159026 </v>
   <v>      -0.02143395      -0.02731406       0.04316492 </v>
   <v>      -0.01414508      -0.02370028      -0.02136012 </v>
   <v>       0.01927778       0.03239326      -0.03234498 </v>
   <v>      -0.00814976      -0.02454621      -0.08044424 </v>
   <v>      -0.03967830       0.03984533       0.02761278 </v>
   <v>       0.00491919      -0.04910748       0.09837201 </v>
   <v>       0.01456189      -0.02497819      -0.00712582 </v>
   <v>      -0.02557379       0.01238768      -0.03876373 </v>
   <v>      -0.00016587       0.11324966       0.11754392 </v>
   <v>       0.00899092       0.09046003      -0.06821434 </v>
   <v>       0.06225826       0.07593347      -0.03786634 </v>
   <v>      -0.02877562      -0.12520501       0.03133335 </v>
   <v>       0.07723741      -0.04889326      -0.07079541 </v>
   <v>      -0.03421160       0.02075245      -0.00240691 </v>
   <v>      -0.00099110      -0.12552630      -0.02574152 </v>
   <v>      -0.00120788       0.05002825      -0.05193138 </v>
   <v>      -0.11944944      -0.03460822      -0.12535583 </v>
   <v>      -0.01643754      -0.04156947      -0.03576567 </v>
   <v>       0.14267186       0.09125128       0.05412280 </v>
   <v>       0.01954965      -0.05855513      -0.05624814 </v>
   <v>       0.01082230      -0.03200543      -0.02872124 </v>
   <v>       0.05880331      -0.00251689       0.03623293 </v>
   <v>       0.02923731       0.08152411       0.00478251 </v>
   <v>      -0.06658209       0.00339831       0.05993884 </v>
   <v>       0.10651418       0.11804655       0.10520207 </v>
  </varray>
  <varray name="stress" >
   <v>       6.11089568      -0.16664106       0.21512387 </v>
   <v>      -0.16664112       5.47339830      -0.53920597 </v>
   <v>       0.21512385      -0.53920596       5.94485069 </v>
  </varray>
  <energy>
   <i name="e_fr_energy">   -364.50333200 </i>
   <i name="e_wo_entrp">   -364.50937734 </i>
   <i name="e_0_energy">      0.01813601 </i>
  </energy>
  <time name="totalsc">   11.35   12.61</time>
 </calculation>
 <calculation>
  <scstep>
   <time name="dav">    0.89    0.90</time>
   <time name="total">    1.03    1.22</time>
   <energy>
    <i name="alphaZ">   1481.48458931 </i>
    <i name="ewald"> -18990.50769646 </i>
    <i name="hartreedc">  -6612.17151264 </i>
    <i name="XCdc">   -323.14454881 </i>
    <i name="pawpsdc">  33487.25445926 </i>
    <i name="pawaedc"> -31852.37794517 </i>
    <i name="eentropy">      0.01380601 </i>
    <i name="bandstr">  -2550.82250337 </i>
    <i name="atom">  24995.92809465 </i>
    <i name="e_fr_energy">   -364.34325724 </i>
    <i name="e_wo_entrp">   -364.35706325 </i>
    <i name="e_0_energy">   -364.34785924 </i>
   </energy>
  </scstep>
  <scstep>
   <time name="diag">    0.08    0.08</time>
   <time name="diis">    0.73    0.73</time>
   <time name="orth">    0.01    0.01</time>
   <time name="total">    0.88    0.92</time>
   <energy>
    <i name="e_fr_energy">   -364.56531587 </i>
    <i name="e_wo_entrp">   -364.57959383 </i>
    <i name="e_0_energy">   -364.57007519 </i>
   </energy>
  </scstep>
  <scstep>
   <time name="diag">    0.07    0.07</time>
   <time name="diis">    0.85    0.85</time>
   <time name="orth">    0.01    0.01</time>
   <time name="total">    1.00    1.05</time>
   <energy>
    <i name="e_fr_energy">   -364.52363486 </i>
    <i name="e_wo_entrp">   -364.53836152 </i>
    <i name="e_0_energy">   -364.52854374 </i>
   </energy>
  </scstep>
  <scstep>
   <time name="diag">    0.07    0.07</time>
   <time name="diis">    0.74    0.89</time>
   <time name="orth">    0.01    0.01</time>
   <time name="total">    0.89    1.09</time>
   <energy>
    <i name="e_fr_energy">   -364.50704739 </i>
    <i name="e_wo_entrp">   -364.52195350 </i>
    <i name="e_0_energy">   -364.51201609 </i>
   </energy>
  </scstep>
  <scstep>
   <time name="diag">    0.08    0.08</time>
   <time name="diis">    0.85    0.85</time>
   <time name="orth">    0.01    0.01</time>
   <time name="total">    1.00    1.04</time>
   <energy>
    <i name="e_fr_energy">   -364.50384886 </i>
    <i name="e_wo_entrp">   -364.51841406 </i>
    <i name="e_0_energy">   -364.50870393 </i>
   </energy>
  </scstep>
  <scstep>
   <time name="diag">    0.07    0.08</time>
   <time name="diis">    0.78    0.79</time>
   <time name="orth">    0.01    0.01</time>
   <time name="total">    0.94    0.98</time>
   <energy>
    <i name="e_fr_energy">   -364.50264219 </i>
    <i name="e_wo_entrp">   -364.51768345 </i>
    <i name="e_0_energy">   -364.50765594 </i>
   </energy>
  </scstep>
  <scstep>
   <time name="diag">    0.08    0.08</time>
   <time name="diis">    0.86    0.86</time>
   <time name="orth">    0.01    0.01</time>
   <time name="total">    1.01    1.06</time>
   <energy>
    <i name="e_fr_energy">   -364.50257341 </i>
    <i name="e_wo_entrp">   -364.51740131 </i>
    <i name="e_0_energy">   -364.50751604 </i>
   </energy>
  </scstep>
  <scstep>
   <time name="diag">    0.08    0.08</time>
   <time name="diis">    0.86    0.86</time>
   <time name="orth">    0.01    0.01</time>
   <time name="total">    1.01    1.06</time>
   <energy>
    <i name="e_fr_energy">   -364.50263830 </i>
    <i name="e_wo_entrp">   -364.51758373 </i>
    <i name="e_0_energy">   -364.50762011 </i>
   </energy>
  </scstep>
  <scstep>
   <time name="diag">    0.08    0.08</time>
   <time name="diis">    0.79    0.80</time>
   <time name="orth">    0.01    0.01</time>
   <time name="total">    0.95    1.00</time>
   <energy>
    <i name="e_fr_energy">   -364.50267255 </i>
    <i name="e_wo_entrp">   -364.51754191 </i>
    <i name="e_0_energy">   -364.50762900 </i>
   </energy>
  </scstep>
  <scstep>
[...]
       <r>    6.7753    1.0000 </r>
       <r>    6.8084    1.0000 </r>
       <r>    6.8174    1.0000 </r>
       <r>    6.8969    1.0000 </r>
       <r>    6.9629    1.0000 </r>
       <r>    6.9780    1.0000 </r>
       <r>    7.0120    1.0001 </r>
       <r>    7.0545    1.0002 </r>
       <r>    7.1063    1.0013 </r>
       <r>    7.1186    1.0018 </r>
       <r>    7.1522    1.0044 </r>
       <r>    7.1914    1.0105 </r>
       <r>    7.2322    1.0212 </r>
       <r>    7.2659    1.0312 </r>
       <r>    7.2982    1.0354 </r>
       <r>    7.3420    1.0127 </r>
       <r>    7.3890    0.9172 </r>
       <r>    7.4157    0.8208 </r>
       <r>    7.4573    0.6164 </r>
       <r>    7.5153    0.2973 </r>
       <r>    7.5330    0.2123 </r>
       <r>    7.5468    0.1538 </r>
       <r>    7.6032    0.0018 </r>
       <r>    7.6272   -0.0245 </r>
       <r>    7.6595   -0.0354 </r>
       <r>    7.6966   -0.0295 </r>
       <r>    7.7420   -0.0161 </r>
       <r>    7.7872   -0.0065 </r>
       <r>    7.8234   -0.0027 </r>
       <r>    7.8609   -0.0009 </r>
       <r>    7.8989   -0.0003 </r>
       <r>    7.9420   -0.0001 </r>
       <r>    7.9781   -0.0000 </r>
       <r>    8.0162   -0.0000 </r>
       <r>    8.0743   -0.0000 </r>
       <r>    8.1051   -0.0000 </r>
       <r>    8.1623   -0.0000 </r>
       <r>    8.2407   -0.0000 </r>
       <r>    8.2640   -0.0000 </r>
       <r>    8.2941   -0.0000 </r>
       <r>    8.3412   -0.0000 </r>
       <r>    8.6384   -0.0000 </r>
       <r>    8.7394   -0.0000 </r>
       <r>    8.8110   -0.0000 </r>
       <r>    9.3552   -0.0000 </r>
       <r>    9.4019   -0.0000 </r>
       <r>    9.5083   -0.0000 </r>
       <r>    9.5592   -0.0000 </r>
       <r>    9.5704   -0.0000 </r>
      </set>
     </set>
    </set>
   </array>
  </eigenvalues>
  <separator name="orbital magnetization" >
   <v name="MAGDIPOLOUT">      0.00000000      0.00000000      0.00000000</v>
  </separator>
  <dos>
   <i name="efermi">      7.47811994 </i>
   <total>
    <array>
     <dimension dim="1">gridpoints</dimension>
     <dimension dim="2">spin</dimension>
     <field>energy</field>
     <field>total</field>
     <field>integrated</field>
     <set>
      <set comment="spin 1">
       <r>   -49.6405     0.0000     0.0000 </r>
       <r>   -49.4336     0.0000     0.0000 </r>
       <r>   -49.2267     0.0000     0.0000 </r>
       <r>   -49.0198     0.0000     0.0000 </r>
       <r>   -48.8129     0.0000     0.0000 </r>
       <r>   -48.6061     0.0000     0.0000 </r>
       <r>   -48.3992     0.0000     0.0000 </r>
       <r>   -48.1923    -0.0000    -0.0000 </r>
       <r>   -47.9854    -0.0000    -0.0000 </r>
       <r>   -47.7785    -0.0000    -0.0000 </r>
       <r>   -47.5717    -0.0000    -0.0000 </r>
       <r>   -47.3648    -0.0000    -0.0000 </r>
       <r>   -47.1579    -0.0357    -0.0074 </r>
       <r>   -46.9510    -0.8021    -0.1733 </r>
       <r>   -46.7441    17.6549     3.4791 </r>
       <r>   -46.5373    60.3462    15.9636 </r>
       <r>   -46.3304    10.7143    18.1802 </r>
       <r>   -46.1235    -0.8681    18.0006 </r>
       <r>   -45.9166    -0.0028    18.0000 </r>
       <r>   -45.7097    -0.0000    18.0000 </r>
       <r>   -45.5029    -0.0000    18.0000 </r>
       <r>   -45.2960     0.0000    18.0000 </r>
       <r>   -45.0891     0.0000    18.0000 </r>
       <r>   -44.8822     0.0000    18.0000 </r>
       <r>   -44.6753     0.0000    18.0000 </r>
       <r>   -44.4685     0.0000    18.0000 </r>
       <r>   -44.2616     0.0000    18.0000 </r>
       <r>   -44.0547     0.0000    18.0000 </r>
       <r>   -43.8478     0.0000    18.0000 </r>
       <r>   -43.6409     0.0000    18.0000 </r>
       <r>   -43.4341     0.0000    18.0000 </r>
       <r>   -43.2272     0.0000    18.0000 </r>
       <r>   -43.0203     0.0000    18.0000 </r>
       <r>   -42.8134     0.0000    18.0000 </r>
       <r>   -42.6065     0.0000    18.0000 </r>
       <r>   -42.3996     0.0000    18.0000 </r>
       <r>   -42.1928    -0.0000    18.0000 </r>
       <r>   -41.9859    -0.0000    18.0000 </r>
       <r>   -41.7790    -0.0000    18.0000 </r>
       <r>   -41.5721    -0.0000    18.0000 </r>
       <r>   -41.3652    -0.0000    18.0000 </r>
       <r>   -41.1584    -0.0497    17.9897 </r>
       <r>   -40.9515    -0.1566    17.9573 </r>
       <r>   -40.7446    12.7244    20.5897 </r>
       <r>   -40.5377    45.1977    29.9403 </r>
       <r>   -40.3308    10.7722    32.1688 </r>
       <r>   -40.1240    -0.8126    32.0007 </r>
       <r>   -39.9171    -0.0034    32.0000 </r>
       <r>   -39.7102    -0.0000    32.0000 </r>
       <r>   -39.5033    -0.0000    32.0000 </r>
       <r>   -39.2964     0.0000    32.0000 </r>
       <r>   -39.0896     0.0000    32.0000 </r>
       <r>   -38.8827     0.0000    32.0000 </r>
       <r>   -38.6758     0.0000    32.0000 </r>
       <r>   -38.4689     0.0000    32.0000 </r>
       <r>   -38.2620     0.0000    32.0000 </r>
       <r>   -38.0552     0.0000    32.0000 </r>
       <r>   -37.8483     0.0000    32.0000 </r>
       <r>   -37.6414     0.0000    32.0000 </r>
       <r>   -37.4345     0.0000    32.0000 </r>
       <r>   -37.2276     0.0000    32.0000 </r>
       <r>   -37.0208     0.0000    32.0000 </r>
       <r>   -36.8139     0.0000    32.0000 </r>
       <r>   -36.6070     0.0000    32.0000 </r>
       <r>   -36.4001     0.0000    32.0000 </r>
       <r>   -36.1932     0.0000    32.0000 </r>
       <r>   -35.9864     0.0000    32.0000 </r>
       <r>   -35.7795     0.0000    32.0000 </r>
       <r>   -35.5726     0.0000    32.0000 </r>
       <r>   -35.3657     0.0000    32.0000 </r>
       <r>   -35.1588     0.0000    32.0000 </r>
       <r>   -34.9519     0.0000    32.0000 </r>
       <r>   -34.7451     0.0000    32.0000 </r>
       <r>   -34.5382     0.0000    32.0000 </r>
       <r>   -34.3313     0.0000    32.0000 </r>
       <r>   -34.1244     0.0000    32.0000 </r>
       <r>   -33.9175     0.0000    32.0000 </r>
       <r>   -33.7107     0.0000    32.0000 </r>
       <r>   -33.5038     0.0000    32.0000 </r>
       <r>   -33.2969     0.0000    32.0000 </r>
       <r>   -33.0900     0.0000    32.0000 </r>
       <r>   -32.8831     0.0000    32.0000 </r>
       <r>   -32.6763     0.0000    32.0000 </r>
       <r>   -32.4694     0.0000    32.0000 </r>
       <r>   -32.2625     0.0000    32.0000 </r>
       <r>   -32.0556     0.0000    32.0000 </r>
       <r>   -31.8487     0.0000    32.0000 </r>
       <r>   -31.6419     0.0000    32.0000 </r>
       <r>   -31.4350     0.0000    32.0000 </r>
       <r>   -31.2281     0.0000    32.0000 </r>
       <r>   -31.0212     0.0000    32.0000 </r>
       <r>   -30.8143     0.0000    32.0000 </r>
       <r>   -30.6075     0.0000    32.0000 </r>
       <r>   -30.4006     0.0000    32.0000 </r>
       <r>   -30.1937     0.0000    32.0000 </r>
       <r>   -29.9868     0.0000    32.0000 </r>
       <r>   -29.7799     0.0000    32.0000 </r>
       <r>   -29.5731     0.0000    32.0000 </r>
       <r>   -29.3662     0.0000    32.0000 </r>
       <r>   -29.1593     0.0000    32.0000 </r>
       <r>   -28.9524     0.0000    32.0000 </r>
       <r>   -28.7455     0.0000    32.0000 </r>
       <r>   -28.5386     0.0000    32.0000 </r>
       <r>   -28.3318     0.0000    32.0000 </r>
       <r>   -28.1249     0.0000    32.0000 </r>
       <r>   -27.9180     0.0000    32.0000 </r>
       <r>   -27.7111     0.0000    32.0000 </r>
       <r>   -27.5042     0.0000    32.0000 </r>
       <r>   -27.2974     0.0000    32.0000 </r>
       <r>   -27.0905     0.0000    32.0000 </r>
       <r>   -26.8836     0.0000    32.0000 </r>
       <r>   -26.6767     0.0000    32.0000 </r>
       <r>   -26.4698     0.0000    32.0000 </r>
       <r>   -26.2630     0.0000    32.0000 </r>
       <r>   -26.0561     0.0000    32.0000 </r>
       <r>   -25.8492     0.0000    32.0000 </r>
       <r>   -25.6423     0.0000    32.0000 </r>
       <r>   -25.4354     0.0000    32.0000 </r>
       <r>   -25.2286     0.0000    32.0000 </r>
       <r>   -25.0217     0.0000    32.0000 </r>
       <r>   -24.8148     0.0000    32.0000 </r>
       <r>   -24.6079     0.0000    32.0000 </r>
       <r>   -24.4010    -0.0000    32.0000 </r>
       <r>   -24.1942    -0.0000    32.0000 </r>
       <r>   -23.9873    -0.0000    32.0000 </r>
       <r>   -23.7804    -0.0000    32.0000 </r>
       <r>   -23.5735    -0.0100    31.9979 </r>
       <r>   -23.3666    -0.7018    31.8527 </r>
       <r>   -23.1598    10.2110    33.9652 </r>
       <r>   -22.9529    41.7464    42.6017 </r>
       <r>   -22.7460   101.9471    63.6926 </r>
       <r>   -22.5391    84.1664    81.1050 </r>
       <r>   -22.3322    23.2860    85.9224 </r>
       <r>   -22.1253     0.5158    86.0291 </r>
       <r>   -21.9185    -0.1406    86.0000 </r>
       <r>   -21.7116    -0.0002    86.0000 </r>
       <r>   -21.5047    -0.0000    86.0000 </r>
       <r>   -21.2978    -0.0000    86.0000 </r>
       <r>   -21.0909     0.0000    86.0000 </r>
       <r>   -20.8841     0.0000    86.0000 </r>
       <r>   -20.6772     0.0000    86.0000 </r>
       <r>   -20.4703     0.0000    86.0000 </r>
       <r>   -20.2634    -0.0000    86.0000 </r>
       <r>   -20.0565    -0.0000    86.0000 </r>
       <r>   -19.8497    -0.0000    86.0000 </r>
       <r>   -19.6428    -0.0000    86.0000 </r>
       <r>   -19.4359    -0.0142    85.9971 </r>
       <r>   -19.2290    -0.9072    85.8094 </r>
       <r>   -19.0221    13.6794    88.6394 </r>
       <r>   -18.8153    49.0843    98.7940 </r>
       <r>   -18.6084   113.3038   122.2343 </r>
       <r>   -18.4015    29.7032   128.3793 </r>
       <r>   -18.1946    -1.7965   128.0077 </r>
       <r>   -17.9877    -0.0371   128.0000 </r>
       <r>   -17.7809    -0.0000   128.0000 </r>
       <r>   -17.5740    -0.0000   128.0000 </r>
       <r>   -17.3671     0.0000   128.0000 </r>
       <r>   -17.1602     0.0000   128.0000 </r>
       <r>   -16.9533     0.0000   128.0000 </r>
       <r>   -16.7465     0.0000   128.0000 </r>
       <r>   -16.5396     0.0000   128.0000 </r>
       <r>   -16.3327     0.0000   128.0000 </r>
       <r>   -16.1258     0.0000   128.0000 </r>
       <r>   -15.9189     0.0000   128.0000 </r>
       <r>   -15.7121     0.0000   128.0000 </r>
       <r>   -15.5052     0.0000   128.0000 </r>
       <r>   -15.2983     0.0000   128.0000 </r>
       <r>   -15.0914     0.0000   128.0000 </r>
       <r>   -14.8845     0.0000   128.0000 </r>
       <r>   -14.6776     0.0000   128.0000 </r>
       <r>   -14.4708     0.0000   128.0000 </r>
       <r>   -14.2639     0.0000   128.0000 </r>
       <r>   -14.0570     0.0000   128.0000 </r>
       <r>   -13.8501     0.0000   128.0000 </r>
       <r>   -13.6432     0.0000   128.0000 </r>
       <r>   -13.4364     0.0000   128.0000 </r>
       <r>   -13.2295     0.0000   128.0000 </r>
       <r>   -13.0226     0.0000   128.0000 </r>
       <r>   -12.8157     0.0000   128.0000 </r>
       <r>   -12.6088     0.0000   128.0000 </r>
       <r>   -12.4020     0.0000   128.0000 </r>
       <r>   -12.1951     0.0000   128.0000 </r>
       <r>   -11.9882     0.0000   128.0000 </r>
       <r>   -11.7813     0.0000   128.0000 </r>
       <r>   -11.5744     0.0000   128.0000 </r>
       <r>   -11.3676     0.0000   128.0000 </r>
       <r>   -11.1607     0.0000   128.0000 </r>
       <r>   -10.9538     0.0000   128.0000 </r>
       <r>   -10.7469     0.0000   128.0000 </r>
       <r>   -10.5400     0.0000   128.0000 </r>
       <r>   -10.3332     0.0000   128.0000 </r>
       <r>   -10.1263     0.0000   128.0000 </r>
       <r>    -9.9194     0.0000   128.0000 </r>
       <r>    -9.7125     0.0000   128.0000 </r>
       <r>    -9.5056     0.0000   128.0000 </r>
       <r>    -9.2988     0.0000   128.0000 </r>
       <r>    -9.0919     0.0000   128.0000 </r>
       <r>    -8.8850     0.0000   128.0000 </r>
       <r>    -8.6781     0.0000   128.0000 </r>
       <r>    -8.4712     0.0000   128.0000 </r>
       <r>    -8.2643     0.0000   128.0000 </r>
       <r>    -8.0575     0.0000   128.0000 </r>
       <r>    -7.8506     0.0000   128.0000 </r>
       <r>    -7.6437     0.0000   128.0000 </r>
       <r>    -7.4368     0.0000   128.0000 </r>
       <r>    -7.2299     0.0000   128.0000 </r>
       <r>    -7.0231     0.0000   128.0000 </r>
       <r>    -6.8162     0.0000   128.0000 </r>
       <r>    -6.6093     0.0000   128.0000 </r>
       <r>    -6.4024     0.0000   128.0000 </r>
       <r>    -6.1955     0.0000   128.0000 </r>
       <r>    -5.9887     0.0000   128.0000 </r>
       <r>    -5.7818     0.0000   128.0000 </r>
       <r>    -5.5749     0.0000   128.0000 </r>
       <r>    -5.3680     0.0000   128.0000 </r>
       <r>    -5.1611     0.0000   128.0000 </r>
       <r>    -4.9543     0.0000   128.0000 </r>
       <r>    -4.7474     0.0000   128.0000 </r>
       <r>    -4.5405     0.0000   128.0000 </r>
       <r>    -4.3336     0.0000   128.0000 </r>
       <r>    -4.1267     0.0000   128.0000 </r>
       <r>    -3.9199     0.0000   128.0000 </r>
       <r>    -3.7130     0.0000   128.0000 </r>
       <r>    -3.5061     0.0000   128.0000 </r>
       <r>    -3.2992     0.0000   128.0000 </r>
       <r>    -3.0923     0.0000   128.0000 </r>
       <r>    -2.8855     0.0000   128.0000 </r>
       <r>    -2.6786     0.0000   128.0000 </r>
       <r>    -2.4717     0.0000   128.0000 </r>
       <r>    -2.2648     0.0000   128.0000 </r>
       <r>    -2.0579     0.0000   128.0000 </r>
       <r>    -1.8510     0.0000   128.0000 </r>
       <r>    -1.6442     0.0000   128.0000 </r>
       <r>    -1.4373     0.0000   128.0000 </r>
       <r>    -1.2304     0.0000   128.0000 </r>
       <r>    -1.0235     0.0000   128.0000 </r>
       <r>    -0.8166     0.0000   128.0000 </r>
       <r>    -0.6098    -0.0000   128.0000 </r>
       <r>    -0.4029    -0.0000   128.0000 </r>
       <r>    -0.1960    -0.0000   128.0000 </r>
       <r>     0.0109    -0.0000   128.0000 </r>
       <r>     0.2178    -0.0000   128.0000 </r>
       <r>     0.4246    -0.0072   127.9985 </r>
       <r>     0.6315     0.0828   128.0156 </r>
       <r>     0.8384     0.5192   128.1230 </r>
       <r>     1.0453     1.4081   128.4144 </r>
       <r>     1.2522     1.8377   128.7945 </r>
       <r>     1.4590     2.5889   129.3301 </r>
       <r>     1.6659     4.2391   130.2071 </r>
       <r>     1.8728     2.3451   130.6923 </r>
       <r>     2.0797     3.9125   131.5017 </r>
       <r>     2.2866     4.0721   132.3442 </r>
       <r>     2.4934     3.6767   133.1048 </r>
       <r>     2.7003     4.8778   134.1139 </r>
       <r>     2.9072     8.7694   135.9281 </r>
       <r>     3.1141     7.7116   137.5235 </r>
       <r>     3.3210     8.3190   139.2446 </r>
       <r>     3.5278     8.1675   140.9342 </r>
       <r>     3.7347    13.1119   143.6468 </r>
       <r>     3.9416    20.0798   147.8010 </r>
       <r>     4.1485    21.1194   152.1702 </r>
       <r>     4.3554    25.2489   157.3937 </r>
       <r>     4.5622    31.8152   163.9756 </r>
       <r>     4.7691    34.1606   171.0428 </r>
       <r>     4.9760    38.6774   179.0444 </r>
       <r>     5.1829    38.4044   186.9895 </r>
       <r>     5.3898    34.2042   194.0657 </r>
       <r>     5.5967    34.9443   201.2950 </r>
       <r>     5.8035    28.7947   207.2520 </r>
       <r>     6.0104    17.1582   210.8017 </r>
       <r>     6.2173    49.7162   221.0870 </r>
       <r>     6.4242    64.6964   234.4715 </r>
       <r>     6.6311    57.1635   246.2975 </r>
       <r>     6.8379    52.0446   257.0645 </r>
       <r>     7.0448    52.5686   267.9400 </r>
       <r>     7.2517    54.3203   279.1778 </r>
       <r>     7.4586    47.9944   289.1069 </r>
       <r>     7.6655    47.9349   299.0237 </r>
       <r>     7.8723    50.2773   309.4251 </r>
       <r>     8.0792    43.9930   318.5264 </r>
       <r>     8.2861    33.3664   325.4292 </r>
       <r>     8.4930    28.7162   331.3701 </r>
       <r>     8.6999    20.4658   335.6040 </r>
       <r>     8.9067    16.8506   339.0901 </r>
       <r>     9.1136    13.4414   341.8709 </r>
       <r>     9.3205    24.8681   347.0156 </r>
       <r>     9.5274    20.0758   351.1689 </r>
       <r>     9.7343     4.3010   352.0587 </r>
       <r>     9.9411    -0.2780   352.0012 </r>
       <r>    10.1480    -0.0056   352.0000 </r>
       <r>    10.3549    -0.0000   352.0000 </r>
       <r>    10.5618    -0.0000   352.0000 </r>
       <r>    10.7687     0.0000   352.0000 </r>
       <r>    10.9755     0.0000   352.0000 </r>
       <r>    11.1824     0.0000   352.0000 </r>
       <r>    11.3893     0.0000   352.0000 </r>
       <r>    11.5962     0.0000   352.0000 </r>
       <r>    11.8031     0.0000   352.0000 </r>
       <r>    12.0100     0.0000   352.0000 </r>
       <r>    12.2168     0.0000   352.0000 </r>
       <r>    12.4237     0.0000   352.0000 </r>
      </set>
     </set>
    </array>
   </total>
  </dos>
 </calculation>
 <structure name="finalpos" >
  <crystal>
   <varray name="basis" >
    <v>       6.94878121       0.00536333       0.03522145 </v>
    <v>       0.00812949      10.24250076       0.00037725 </v>
    <v>       0.05235859      -0.00001298      10.19459077 </v>
   </varray>
   <i name="volume">    725.55922470 </i>
   <varray name="rec_basis" >
    <v>       0.14391396      -0.00011420      -0.00073913 </v>
    <v>      -0.00007536       0.09763247       0.00000051 </v>
    <v>      -0.00049721      -0.00000322       0.09809379 </v>
   </varray>
  </crystal>
  <varray name="positions" >
   <v>       0.75224606       0.49264084       0.50045042 </v>
   <v>       0.99622988       0.00226760       0.99349029 </v>
   <v>       0.00696118       0.31650236       0.98285668 </v>
   <v>       0.00615754       0.66900245       0.66469455 </v>
   <v>       0.47874820       0.99391315       0.31562182 </v>
   <v>       0.76097061       0.48974041       0.16944270 </v>
   <v>       0.51077282       0.67895252       0.00704842 </v>
   <v>       0.72163136       0.83890087       0.50328719 </v>
   <v>       0.00434803      -0.00041847       0.67072851 </v>
   <v>       0.73929256       0.49459620       0.83027881 </v>
   <v>       0.23096336       0.50204298       0.14912501 </v>
   <v>       0.01877711       0.67634677       0.34782238 </v>
   <v>       0.50341672       0.00207131       0.99939334 </v>
   <v>       0.74868120       0.17176682       0.49949609 </v>
   <v>       0.48348560       0.66849930       0.32784690 </v>
   <v>       0.46689451       0.34209115       0.33687873 </v>
   <v>       0.02564514       0.99734907       0.33751359 </v>
   <v>       0.75442425       0.17772265       0.18149484 </v>
   <v>       0.25823610       0.16607303       0.50974066 </v>
   <v>       0.03445301       0.32821921       0.34693745 </v>
   <v>       0.01563847       0.32880713       0.66783818 </v>
   <v>       0.25558569       0.49980233       0.83576619 </v>
   <v>       0.28572698       0.83947526       0.51953433 </v>
   <v>       0.25729224       0.82881962       0.83342275 </v>
   <v>       0.21946420       0.81975644       0.14689965 </v>
   <v>       0.48116383       0.33182269       0.66685734 </v>
   <v>       0.48922391       0.32003536       0.99296724 </v>
   <v>       0.74386796       0.82185691       0.82633783 </v>
   <v>       0.25025397       0.17614045       0.16438112 </v>
   <v>       0.24571308       0.49638031       0.51412086 </v>
   <v>       0.99143686       0.67303900       0.98870028 </v>
   <v>       0.49711103       0.00512024       0.67991009 </v>
   <v>       0.73652887       0.17859282       0.81760317 </v>
   <v>       0.77457371       0.84026419       0.17313253 </v>
   <v>       0.26355530       0.16620162       0.82311299 </v>
   <v>       0.49051266       0.66561642       0.67526207 </v>
  </varray>
 </structure>
</modeling>
