<?xml version="1.0" encoding="ISO-8859-1"?>
<modeling>
 <generator>
  <i name="program" type="string">vasp </i>
  <i name="version" type="string">5.4.1  </i>
  <i name="subversion" type="string">05Feb16 (build Jan 29 2020 16:04:39) complex                          parallel </i>
  <i name="platform" type="string">IFC91_ompi </i>
  <i name="date" type="string">2020 06 15 </i>
  <i name="time" type="string">06:05:27 </i>
 </generator>
 <incar>
  <i type="string" name="SYSTEM"> automatically generated by mexm</i>
  <i type="int" name="ISTART">     0</i>
  <i type="string" name="PREC">accurate               ! avoid wrap aro</i>
  <i type="string" name="ALGO"> Fast                   ! blocked Davids</i>
  <i type="int" name="ISPIN">     1</i>
  <i type="int" name="ICHARG">     2</i>
  <i type="int" name="NELM">    70</i>
  <i type="int" name="IBRION">     2</i>
  <i name="EDIFF">      0.00001000</i>
  <i name="EDIFFG">     -0.01000000</i>
  <i type="int" name="NSW">   300</i>
  <i type="int" name="ISIF">     3</i>
  <i type="int" name="ISYM">     1</i>
  <i name="ENCUT">    300.00000000</i>
  <i name="POTIM">      0.15000000</i>
  <i type="string" name="LREAL"> Auto                  ! unpublished met</i>
  <i type="int" name="ISMEAR">     1</i>
  <i name="SIGMA">      0.15000000</i>
  <i type="logical" name="LWAVE"> F  </i>
  <i type="logical" name="LCHARG"> F  </i>
  <i type="logical" name="LVTOT"> F  </i>
  <v type="int" name="KPOINT_BSE">    -1     0     0     0</v>
  <i type="int" name="NELM">    70</i>
 </incar>
 <kpoints>
  <generation param="Gamma">
   <v type="int" name="divisions">       3        3        3 </v>
   <v name="usershift">      0.00000000       0.00000000       0.00000000 </v>
   <v name="genvec1">      0.33333333      -0.00000000      -0.00000000 </v>
   <v name="genvec2">     -0.00000000       0.33333333       0.00000000 </v>
   <v name="genvec3">     -0.00000000       0.00000000       0.33333333 </v>
   <v name="shift">      0.00000000       0.00000000       0.00000000 </v>
  </generation>
  <varray name="kpointlist" >
   <v>       0.00000000       0.00000000       0.00000000 </v>
   <v>       0.33333333       0.00000000       0.00000000 </v>
   <v>      -0.00000000       0.33333333       0.00000000 </v>
   <v>       0.33333333       0.33333333      -0.00000000 </v>
   <v>      -0.33333333       0.33333333       0.00000000 </v>
   <v>      -0.00000000       0.00000000       0.33333333 </v>
   <v>       0.33333333       0.00000000       0.33333333 </v>
   <v>      -0.33333333       0.00000000       0.33333333 </v>
   <v>       0.00000000       0.33333333       0.33333333 </v>
   <v>       0.33333333       0.33333333       0.33333333 </v>
   <v>      -0.33333333       0.33333333       0.33333333 </v>
   <v>       0.00000000      -0.33333333       0.33333333 </v>
   <v>       0.33333333      -0.33333333       0.33333333 </v>
   <v>      -0.33333333      -0.33333333       0.33333333 </v>
  </varray>
  <varray name="weights" >
   <v>       0.03703704 </v>
   <v>       0.07407407 </v>
   <v>       0.07407407 </v>
   <v>       0.07407407 </v>
   <v>       0.07407407 </v>
   <v>       0.07407407 </v>
   <v>       0.07407407 </v>
   <v>       0.07407407 </v>
   <v>       0.07407407 </v>
   <v>       0.07407407 </v>
   <v>       0.07407407 </v>
   <v>       0.07407407 </v>
   <v>       0.07407407 </v>
   <v>       0.07407407 </v>
  </varray>
 </kpoints>
 <parameters>
  <separator name="general" >
   <i type="string" name="SYSTEM">automatically generated by mexm</i>
   <i type="logical" name="LCOMPAT"> F  </i>
  </separator>
  <separator name="electronic" >
   <i type="string" name="PREC">accura</i>
   <i name="ENMAX">    300.00000000</i>
   <i name="ENAUG">    461.25700000</i>
   <i name="EDIFF">      0.00001000</i>
   <i type="int" name="IALGO">    68</i>
   <i type="int" name="IWAVPR">    11</i>
   <i type="int" name="NBANDS">   200</i>
   <i name="NELECT">    329.00000000</i>
   <i type="int" name="TURBO">     0</i>
   <i type="int" name="IRESTART">     0</i>
   <i type="int" name="NREBOOT">     0</i>
   <i type="int" name="NMIN">     0</i>
   <i name="EREF">      0.00000000</i>
   <separator name="electronic smearing" >
    <i type="int" name="ISMEAR">     1</i>
    <i name="SIGMA">      0.15000000</i>
    <i name="KSPACING">      0.50000000</i>
    <i type="logical" name="KGAMMA"> T  </i>
   </separator>
   <separator name="electronic projectors" >
    <i type="logical" name="LREAL"> T  </i>
    <v name="ROPT">     -0.00025000     -0.00025000     -0.00025000     -0.00025000</v>
    <i type="int" name="LMAXPAW">  -100</i>
    <i type="int" name="LMAXMIX">     2</i>
    <i type="logical" name="NLSPLINE"> F  </i>
   </separator>
   <separator name="electronic startup" >
    <i type="int" name="ISTART">     0</i>
    <i type="int" name="ICHARG">     2</i>
    <i type="int" name="INIWAV">     1</i>
   </separator>
   <separator name="electronic spin" >
    <i type="int" name="ISPIN">     1</i>
    <i type="logical" name="LNONCOLLINEAR"> F  </i>
    <v name="MAGMOM">      1.00000000      1.00000000      1.00000000      1.00000000      1.00000000      1.00000000      1.00000000      1.00000000      1.00000000      1.00000000      1.00000000      1.00000000      1.00000000      1.00000000      1.00000000      1.00000000      1.00000000      1.00000000      1.00000000      1.00000000
      1.00000000      1.00000000      1.00000000      1.00000000      1.00000000      1.00000000      1.00000000      1.00000000      1.00000000      1.00000000      1.00000000      1.00000000      1.00000000      1.00000000      1.00000000      1.00000000</v>
    <i name="NUPDOWN">     -1.00000000</i>
    <i type="logical" name="LSORBIT"> F  </i>
    <v name="SAXIS">      0.00000000      0.00000000      1.00000000</v>
    <i type="logical" name="LSPIRAL"> F  </i>
    <v name="QSPIRAL">      0.00000000      0.00000000      0.00000000</v>
    <i type="logical" name="LZEROZ"> F  </i>
   </separator>
   <separator name="electronic exchange-correlation" >
    <i type="logical" name="LASPH"> F  </i>
    <i type="logical" name="LMETAGGA"> F  </i>
   </separator>
   <separator name="electronic convergence" >
    <i type="int" name="NELM">    70</i>
    <i type="int" name="NELMDL">    -5</i>
    <i type="int" name="NELMIN">     2</i>
    <i name="ENINI">    300.00000000</i>
    <separator name="electronic convergence detail" >
     <i type="logical" name="LDIAG"> T  </i>
     <i type="logical" name="LSUBROT"> F  </i>
     <i name="WEIMIN">      0.00100000</i>
     <i name="EBREAK">      0.00000001</i>
     <i name="DEPER">      0.30000000</i>
     <i type="int" name="NRMM">     4</i>
     <i name="TIME">      0.40000000</i>
    </separator>
   </separator>
   <separator name="electronic mixer" >
    <i name="AMIX">      0.40000000</i>
    <i name="BMIX">      1.00000000</i>
    <i name="AMIN">      0.10000000</i>
    <i name="AMIX_MAG">      1.60000000</i>
    <i name="BMIX_MAG">      1.00000000</i>
    <separator name="electronic mixer details" >
     <i type="int" name="IMIX">     4</i>
     <i type="logical" name="MIXFIRST"> F  </i>
     <i type="int" name="MAXMIX">   -45</i>
     <i name="WC">    100.00000000</i>
     <i type="int" name="INIMIX">     1</i>
     <i type="int" name="MIXPRE">     1</i>
     <i type="int" name="MREMOVE">     5</i>
    </separator>
   </separator>
   <separator name="electronic dipolcorrection" >
    <i type="logical" name="LDIPOL"> F  </i>
    <i type="logical" name="LMONO"> F  </i>
    <i type="int" name="IDIPOL">     0</i>
    <i name="EPSILON">      1.00000000</i>
    <v name="DIPOL">   -100.00000000   -100.00000000   -100.00000000</v>
    <i name="EFIELD">      0.00000000</i>
   </separator>
  </separator>
  <separator name="grids" >
   <i type="int" name="NGX">    40</i>
   <i type="int" name="NGY">    60</i>
   <i type="int" name="NGZ">    60</i>
   <i type="int" name="NGXF">    80</i>
   <i type="int" name="NGYF">   120</i>
   <i type="int" name="NGZF">   120</i>
   <i type="logical" name="ADDGRID"> F  </i>
  </separator>
  <separator name="ionic" >
   <i type="int" name="NSW">   300</i>
   <i type="int" name="IBRION">     2</i>
   <i type="int" name="ISIF">     3</i>
   <i name="PSTRESS">      0.00000000</i>
   <i name="EDIFFG">     -0.01000000</i>
   <i type="int" name="NFREE">     1</i>
   <i name="POTIM">      0.15000000</i>
   <i name="SMASS">     -3.00000000</i>
   <i name="SCALEE">      1.00000000</i>
  </separator>
  <separator name="ionic md" >
   <i name="TEBEG">      0.00010000</i>
   <i name="TEEND">      0.00010000</i>
   <i type="int" name="NBLOCK">     1</i>
   <i type="int" name="KBLOCK">   300</i>
   <i type="int" name="NPACO">   256</i>
   <i name="APACO">     16.00000000</i>
  </separator>
  <separator name="symmetry" >
   <i type="int" name="ISYM">     1</i>
   <i name="SYMPREC">      0.00001000</i>
  </separator>
  <separator name="dos" >
   <i type="logical" name="LORBIT"> F  </i>
   <v name="RWIGS">     -1.00000000     -1.00000000     -1.00000000     -1.00000000</v>
   <i type="int" name="NEDOS">   301</i>
   <i name="EMIN">     10.00000000</i>
   <i name="EMAX">    -10.00000000</i>
   <i name="EFERMI">      0.00000000</i>
  </separator>
  <separator name="writing" >
   <i type="int" name="NWRITE">     2</i>
   <i type="logical" name="LWAVE"> F  </i>
   <i type="logical" name="LCHARG"> F  </i>
   <i type="logical" name="LPARD"> F  </i>
   <i type="logical" name="LVTOT"> F  </i>
   <i type="logical" name="LVHAR"> F  </i>
   <i type="logical" name="LELF"> F  </i>
   <i type="logical" name="LOPTICS"> F  </i>
   <v name="STM">      0.00000000      0.00000000      0.00000000      0.00000000      0.00000000      0.00000000      0.00000000</v>
  </separator>
  <separator name="performance" >
   <i type="int" name="NPAR">     4</i>
   <i type="int" name="NSIM">     4</i>
   <i type="int" name="NBLK">    -1</i>
   <i type="logical" name="LPLANE"> T  </i>
   <i type="logical" name="LSCALAPACK"> T  </i>
   <i type="logical" name="LSCAAWARE"> F  </i>
   <i type="logical" name="LSCALU"> F  </i>
   <i type="logical" name="LASYNC"> F  </i>
   <i type="logical" name="LORBITALREAL"> F  </i>
  </separator>
  <separator name="miscellaneous" >
   <i type="int" name="IDIOT">     3</i>
   <i type="logical" name="LMUSIC"> F  </i>
   <v name="POMASS">    180.94800000     91.22400000    178.49000000     92.91000000</v>
   <v name="DARWINR">      0.00000000      0.00000000      0.00000000      0.00000000</v>
   <v name="DARWINV">      1.00000000      1.00000000      1.00000000      1.00000000</v>
   <i type="logical" name="LCORR"> T  </i>
  </separator>
  <i type="logical" name="GGA_COMPAT"> T  </i>
  <i type="logical" name="LBERRY"> F  </i>
  <i type="int" name="ICORELEVEL">     0</i>
  <i type="logical" name="LDAU"> F  </i>
  <i type="int" name="I_CONSTRAINED_M">     0</i>
  <separator name="electronic exchange-correlation" >
   <i type="string" name="GGA">--</i>
   <i type="int" name="VOSKOWN">     0</i>
   <i type="logical" name="LHFCALC"> F  </i>
   <i type="string" name="PRECFOCK"></i>
   <i type="logical" name="LSYMGRAD"> F  </i>
   <i type="logical" name="LHFONE"> F  </i>
   <i type="logical" name="LRHFCALC"> F  </i>
   <i type="logical" name="LTHOMAS"> F  </i>
   <i type="logical" name="LMODELHF"> F  </i>
   <i name="ENCUT4O">     -1.00000000</i>
   <i type="int" name="EXXOEP">     0</i>
   <i type="int" name="FOURORBIT">     0</i>
   <i name="AEXX">      0.00000000</i>
   <i name="HFALPHA">      0.00000000</i>
   <i name="MCALPHA">      0.00000000</i>
   <i name="ALDAX">      1.00000000</i>
   <i name="AGGAX">      1.00000000</i>
   <i name="ALDAC">      1.00000000</i>
   <i name="AGGAC">      1.00000000</i>
   <i type="int" name="NKREDX">     1</i>
   <i type="int" name="NKREDY">     1</i>
   <i type="int" name="NKREDZ">     1</i>
   <i type="logical" name="SHIFTRED"> F  </i>
   <i type="logical" name="ODDONLY"> F  </i>
   <i type="logical" name="EVENONLY"> F  </i>
   <i type="int" name="LMAXFOCK">     0</i>
   <i type="int" name="NMAXFOCKAE">     0</i>
   <i type="logical" name="LFOCKAEDFT"> F  </i>
   <i name="HFSCREEN">      0.00000000</i>
   <i name="HFSCREENC">      0.00000000</i>
   <i type="int" name="NBANDSGWLOW">     0</i>
  </separator>
  <separator name="vdW DFT" >
   <i type="logical" name="LUSE_VDW"> F  </i>
   <i name="Zab_VDW">     -0.84910000</i>
   <i name="PARAM1">      0.12340000</i>
   <i name="PARAM2">      1.00000000</i>
   <i name="PARAM3">      0.00000000</i>
  </separator>
  <separator name="model GW" >
   <i type="int" name="MODEL_GW">     0</i>
   <i name="MODEL_EPS0">     12.18821852</i>
   <i name="MODEL_ALPHA">      1.00000000</i>
  </separator>
  <separator name="linear response parameters" >
   <i type="logical" name="LEPSILON"> F  </i>
   <i type="logical" name="LRPA"> F  </i>
   <i type="logical" name="LNABLA"> F  </i>
   <i type="logical" name="LVEL"> F  </i>
   <i type="int" name="KINTER">     0</i>
   <i name="CSHIFT">      0.10000000</i>
   <i name="OMEGAMAX">     -1.00000000</i>
   <i name="DEG_THRESHOLD">      0.00200000</i>
  </separator>
  <separator name="orbital magnetization" >
   <i type="logical" name="NUCIND"> F  </i>
   <v name="MAGPOS">      0.00000000      0.00000000      0.00000000</v>
   <i type="logical" name="LNICSALL"> T  </i>
   <i type="logical" name="ORBITALMAG"> F  </i>
   <i type="logical" name="LMAGBLOCH"> F  </i>
   <i type="logical" name="LCHIMAG"> F  </i>
   <i type="logical" name="LGAUGE"> T  </i>
   <i type="int" name="MAGATOM">     0</i>
   <v name="MAGDIPOL">      0.00000000      0.00000000      0.00000000</v>
   <v name="AVECCONST">      0.00000000      0.00000000      0.00000000</v>
  </separator>
  <separator name="response functions" >
   <i type="logical" name="LADDER"> F  </i>
   <i type="logical" name="LFXC"> F  </i>
   <i type="logical" name="LHARTREE"> T  </i>
   <i type="int" name="IBSE">     0</i>
   <v type="int" name="KPOINT">    -1     0     0     0</v>
   <i type="logical" name="LTCTE"> F  </i>
   <i type="logical" name="LTETE"> F  </i>
   <i type="logical" name="LTRIPLET"> F  </i>
   <i type="logical" name="LFXCEPS"> F  </i>
   <i type="logical" name="LFXHEG"> F  </i>
   <i type="int" name="NATURALO">     0</i>
   <i type="logical" name="L2ORDER"> F  </i>
   <i type="logical" name="LUSEW"> F  </i>
   <i name="ENCUTGW">     -2.00000000</i>
   <i name="ENCUTGWSOFT">     -2.00000000</i>
   <i name="ENCUTLF">     -1.00000000</i>
   <i type="int" name="LMAXMP2">    -1</i>
   <i name="SCISSOR">      0.00000000</i>
   <i type="int" name="NOMEGA">     0</i>
   <i type="int" name="NOMEGAR">     0</i>
   <i type="int" name="NBANDSGW">    -1</i>
   <i type="int" name="NBANDSO">    -1</i>
   <i type="int" name="NBANDSV">    -1</i>
   <i type="int" name="NELM">    70</i>
   <i type="int" name="NELMHF">     1</i>
   <i type="int" name="DIM">     3</i>
   <i type="int" name="ANTIRES">     0</i>
   <i name="OMEGAMAX">    -30.00000000</i>
   <i name="OMEGAMIN">    -30.00000000</i>
   <i name="OMEGATL">   -200.00000000</i>
   <i type="int" name="OMEGAGRID">     0</i>
   <i name="CSHIFT">     -0.10000000</i>
   <i type="logical" name="SELFENERGY"> F  </i>
   <i type="logical" name="LSPECTRAL"> F  </i>
   <i type="logical" name="LSPECTRALGW"> F  </i>
   <i type="logical" name="LSINGLES"> F  </i>
   <i type="logical" name="LFERMIGW"> F  </i>
   <i type="logical" name="ODDONLYGW"> F  </i>
   <i type="logical" name="EVENONLYGW"> F  </i>
   <i type="int" name="NKREDLFX">     1</i>
   <i type="int" name="NKREDLFY">     1</i>
   <i type="int" name="NKREDLFZ">     1</i>
   <i type="int" name="MAXMEM">  1800</i>
   <i type="int" name="TELESCOPE">     0</i>
   <i type="int" name="TAUPAR">     1</i>
   <i type="int" name="OMEGAPAR">    -1</i>
   <i name="LAMBDA">      1.00000000</i>
  </separator>
  <separator name="External order field" >
   <i name="OFIELD_KAPPA">      0.00000000</i>
   <v name="OFIELD_K">      0.00000000      0.00000000      0.00000000</v>
   <i name="OFIELD_Q6_NEAR">      0.00000000</i>
   <i name="OFIELD_Q6_FAR">      0.00000000</i>
   <i name="OFIELD_A">      0.00000000</i>
  </separator>
 </parameters>
 <atominfo>
  <atoms>      36 </atoms>
  <types>       4 </types>
  <array name="atoms" >
   <dimension dim="1">ion</dimension>
   <field type="string">element</field>
   <field type="int">atomtype</field>
   <set>
    <rc><c>Ta</c><c>   1</c></rc>
    <rc><c>Ta</c><c>   1</c></rc>
    <rc><c>Ta</c><c>   1</c></rc>
    <rc><c>Ta</c><c>   1</c></rc>
    <rc><c>Ta</c><c>   1</c></rc>
    <rc><c>Ta</c><c>   1</c></rc>
    <rc><c>Zr</c><c>   2</c></rc>
    <rc><c>Zr</c><c>   2</c></rc>
    <rc><c>Zr</c><c>   2</c></rc>
    <rc><c>Zr</c><c>   2</c></rc>
    <rc><c>Zr</c><c>   2</c></rc>
    <rc><c>Zr</c><c>   2</c></rc>
    <rc><c>Zr</c><c>   2</c></rc>
    <rc><c>Zr</c><c>   2</c></rc>
    <rc><c>Zr</c><c>   2</c></rc>
    <rc><c>Zr</c><c>   2</c></rc>
    <rc><c>Hf</c><c>   3</c></rc>
    <rc><c>Hf</c><c>   3</c></rc>
    <rc><c>Hf</c><c>   3</c></rc>
    <rc><c>Hf</c><c>   3</c></rc>
    <rc><c>Hf</c><c>   3</c></rc>
    <rc><c>Hf</c><c>   3</c></rc>
    <rc><c>Hf</c><c>   3</c></rc>
    <rc><c>Hf</c><c>   3</c></rc>
    <rc><c>Hf</c><c>   3</c></rc>
    <rc><c>Nb</c><c>   4</c></rc>
    <rc><c>Nb</c><c>   4</c></rc>
    <rc><c>Nb</c><c>   4</c></rc>
    <rc><c>Nb</c><c>   4</c></rc>
    <rc><c>Nb</c><c>   4</c></rc>
    <rc><c>Nb</c><c>   4</c></rc>
    <rc><c>Nb</c><c>   4</c></rc>
    <rc><c>Nb</c><c>   4</c></rc>
    <rc><c>Nb</c><c>   4</c></rc>
    <rc><c>Nb</c><c>   4</c></rc>
    <rc><c>Nb</c><c>   4</c></rc>
   </set>
  </array>
  <array name="atomtypes" >
   <dimension dim="1">type</dimension>
   <field type="int">atomspertype</field>
   <field type="string">element</field>
   <field>mass</field>
   <field>valence</field>
   <field type="string">pseudopotential</field>
   <set>
    <rc><c>   6</c><c>Ta</c><c>    180.94800000</c><c>      5.00000000</c><c>  PAW_PBE Ta 17Jan2003                  </c></rc>
    <rc><c>  10</c><c>Zr</c><c>     91.22400000</c><c>     12.00000000</c><c>  PAW_PBE Zr_sv 04Jan2005               </c></rc>
    <rc><c>   9</c><c>Hf</c><c>    178.49000000</c><c>      4.00000000</c><c>  PAW_PBE Hf 20Jan2003                  </c></rc>
    <rc><c>  11</c><c>Nb</c><c>     92.91000000</c><c>     13.00000000</c><c>  PAW_PBE Nb_sv 25May2007               </c></rc>
   </set>
  </array>
 </atominfo>
 <structure name="initialpos" >
  <crystal>
   <varray name="basis" >
    <v>       6.98278599       0.01894061      -0.00735776 </v>
    <v>       0.02779486      10.22131656       0.01769354 </v>
    <v>      -0.01085456       0.01700016      10.24615335 </v>
   </varray>
   <i name="volume">    731.29311130 </i>
   <varray name="rec_basis" >
    <v>       0.14321053      -0.00038970       0.00015236 </v>
    <v>      -0.00026555       0.09783576      -0.00016261 </v>
    <v>       0.00010330      -0.00016923       0.09759799 </v>
   </varray>
  </crystal>
  <varray name="positions" >
   <v>       0.72922800       0.49692100       0.17615000 </v>
   <v>       0.53114000       0.66774100       0.01059300 </v>
   <v>       0.04301400       0.00487800       0.66159700 </v>
   <v>       0.51676900       0.66949900       0.33892000 </v>
   <v>       0.76444000       0.49829400       0.48919700 </v>
   <v>       0.98183300       0.66875600       0.32603900 </v>
   <v>       0.25924800       0.16796600       0.17676600 </v>
   <v>       0.98386200       0.00571900       0.01033900 </v>
   <v>       0.76290500       0.16342900       0.50115900 </v>
   <v>       0.76484700       0.17148600       0.82047000 </v>
   <v>       0.51787300       0.99774100       0.99588700 </v>
   <v>       0.72548000       0.17781700       0.17773100 </v>
   <v>       0.74013900       0.49183400       0.82920000 </v>
   <v>       0.48756300       0.66284100       0.65317000 </v>
   <v>       0.48240000       0.33154500       0.65993100 </v>
   <v>       0.76525000       0.83695200       0.81325100 </v>
   <v>       0.26428100       0.50528900       0.17068200 </v>
   <v>       0.00459300       0.33722800       0.00387800 </v>
   <v>       0.97070200       0.66171400       0.01085000 </v>
   <v>       0.25839200       0.82620400       0.16895000 </v>
   <v>       0.46804200       0.00316700       0.66117300 </v>
   <v>       0.76387100       0.83885000       0.50371100 </v>
   <v>       0.23494300       0.49581700       0.47458700 </v>
   <v>       0.02686500       0.65282300       0.66494100 </v>
   <v>       0.25072300       0.82528800       0.85132200 </v>
   <v>       0.00531100       0.99042000       0.33226900 </v>
   <v>       0.49065400       0.99009500       0.34625500 </v>
   <v>       0.74066800       0.83154100       0.18584000 </v>
   <v>       0.23405600       0.16927200       0.49027900 </v>
   <v>       0.50535500       0.33855100       0.34853500 </v>
   <v>       0.26501700       0.49930600       0.84758600 </v>
   <v>       0.98494300       0.34072100       0.32360200 </v>
   <v>       0.01796000       0.33922500       0.66917700 </v>
   <v>       0.24259800       0.83406200       0.48416600 </v>
   <v>       0.48010600       0.33553900       0.98871600 </v>
   <v>       0.23493500       0.17147300       0.83307600 </v>
  </varray>
 </structure>
 <calculation>
  <scstep>
   <time name="dav">    1.18    1.19</time>
   <time name="total">    1.28    1.62</time>
   <energy>
    <i name="alphaZ">   1699.11346092 </i>
    <i name="ewald"> -23216.40471126 </i>
    <i name="hartreedc">  -8811.68056693 </i>
    <i name="XCdc">    246.79863493 </i>
    <i name="pawpsdc">  25860.02112542 </i>
    <i name="pawaedc"> -24489.07595071 </i>
    <i name="eentropy">     -0.01238793 </i>
    <i name="bandstr">   -362.03974499 </i>
    <i name="atom">  31414.99671219 </i>
    <i name="e_fr_energy">   2341.71657164 </i>
    <i name="e_wo_entrp">   2341.72895957 </i>
    <i name="e_0_energy">   2341.72070095 </i>
   </energy>
  </scstep>
  <scstep>
   <time name="dav">    1.20    1.25</time>
   <time name="total">    1.20    1.41</time>
   <energy>
    <i name="e_fr_energy">    -39.35081024 </i>
    <i name="e_wo_entrp">    -39.34818838 </i>
    <i name="e_0_energy">    -39.34993629 </i>
   </energy>
  </scstep>
  <scstep>
   <time name="dav">    1.58    1.59</time>
   <time name="total">    1.58    1.64</time>
   <energy>
    <i name="e_fr_energy">   -331.10650611 </i>
    <i name="e_wo_entrp">   -331.10369553 </i>
    <i name="e_0_energy">   -331.10556925 </i>
   </energy>
  </scstep>
  <scstep>
   <time name="dav">    1.67    1.68</time>
   <time name="total">    1.68    1.72</time>
   <energy>
    <i name="e_fr_energy">   -365.81191318 </i>
    <i name="e_wo_entrp">   -365.80944000 </i>
    <i name="e_0_energy">   -365.81108878 </i>
   </energy>
  </scstep>
  <scstep>
   <time name="dav">    1.51    1.52</time>
   <time name="total">    1.54    1.64</time>
   <energy>
    <i name="e_fr_energy">   -369.30745755 </i>
    <i name="e_wo_entrp">   -369.30636047 </i>
    <i name="e_0_energy">   -369.30709186 </i>
   </energy>
  </scstep>
  <scstep>
   <time name="diag">    0.29    0.29</time>
   <time name="diis">    0.87    0.87</time>
   <time name="orth">    0.02    0.02</time>
   <time name="total">    1.32    1.38</time>
   <energy>
    <i name="e_fr_energy">   -358.90193504 </i>
    <i name="e_wo_entrp">   -358.91394637 </i>
    <i name="e_0_energy">   -358.90593882 </i>
   </energy>
  </scstep>
  <scstep>
   <time name="diag">    0.20    0.20</time>
   <time name="diis">    0.89    0.89</time>
   <time name="orth">    0.02    0.02</time>
   <time name="total">    1.60    1.69</time>
   <energy>
    <i name="e_fr_energy">   -360.19491163 </i>
    <i name="e_wo_entrp">   -360.19347045 </i>
    <i name="e_0_energy">   -360.19443123 </i>
   </energy>
  </scstep>
  <scstep>
   <time name="diag">    0.10    0.10</time>
   <time name="diis">    0.89    0.90</time>
   <time name="orth">    0.02    0.02</time>
   <time name="total">    1.15    1.23</time>
   <energy>
    <i name="e_fr_energy">   -355.10044354 </i>
    <i name="e_wo_entrp">   -355.11273493 </i>
    <i name="e_0_energy">   -355.10454067 </i>
   </energy>
  </scstep>
  <scstep>
   <time name="diag">    0.14    0.15</time>
   <time name="diis">    1.26    1.27</time>
   <time name="orth">    0.02    0.02</time>
   <time name="total">    1.68    1.80</time>
   <energy>
    <i name="e_fr_energy">   -355.05005122 </i>
    <i name="e_wo_entrp">   -355.06521815 </i>
    <i name="e_0_energy">   -355.05510686 </i>
   </energy>
  </scstep>
  <scstep>
   <time name="diag">    0.10    0.11</time>
   <time name="diis">    0.92    0.92</time>
   <time name="orth">    0.02    0.02</time>
   <time name="total">    1.10    1.16</time>
   <energy>
    <i name="e_fr_energy">   -354.95790305 </i>
    <i name="e_wo_entrp">   -354.97342145 </i>
    <i name="e_0_energy">   -354.96307585 </i>
   </energy>
  </scstep>
  <scstep>
   <time name="diag">    0.10    0.10</time>
   <time name="diis">    0.85    0.86</time>
   <time name="orth">    0.02    0.02</time>
   <time name="total">    1.03    1.09</time>
   <energy>
    <i name="e_fr_energy">   -354.93483120 </i>
    <i name="e_wo_entrp">   -354.94832732 </i>
    <i name="e_0_energy">   -354.93932991 </i>
   </energy>
  </scstep>
  <scstep>
   <time name="diag">    0.09    0.09</time>
   <time name="diis">    0.82    0.88</time>
   <time name="orth">    0.02    0.02</time>
   <time name="total">    0.99    1.15</time>
   <energy>
    <i name="e_fr_energy">   -354.92744625 </i>
    <i name="e_wo_entrp">   -354.94156937 </i>
    <i name="e_0_energy">   -354.93215395 </i>
   </energy>
  </scstep>
  <scstep>
   <time name="diag">    0.09    0.12</time>
   <time name="diis">    0.79    0.88</time>
   <time name="orth">    0.02    0.02</time>
   <time name="total">    0.97    1.18</time>
   <energy>
    <i name="e_fr_energy">   -354.92634240 </i>
    <i name="e_wo_entrp">   -354.94034265 </i>
    <i name="e_0_energy">   -354.93100915 </i>
   </energy>
  </scstep>
  <scstep>
   <time name="diag">    0.09    0.09</time>
   <time name="diis">    0.93    0.93</time>
   <time name="orth">    0.02    0.02</time>
   <time name="total">    1.11    1.16</time>
   <energy>
    <i name="e_fr_energy">   -354.92644906 </i>
    <i name="e_wo_entrp">   -354.94058599 </i>
    <i name="e_0_energy">   -354.93116137 </i>
   </energy>
  </scstep>
  <scstep>
   <time name="diag">    0.09    0.09</time>
   <time name="diis">    0.85    0.89</time>
   <time name="orth">    0.02    0.02</time>
   <time name="total">    1.02    1.10</time>
   <energy>
    <i name="e_fr_energy">   -354.92643883 </i>
    <i name="e_wo_entrp">   -354.94059405 </i>
    <i name="e_0_energy">   -354.93115723 </i>
   </energy>
  </scstep>
  <scstep>
   <time name="diag">    0.09    0.09</time>
   <time name="diis">    0.78    0.78</time>
   <time name="orth">    0.02    0.02</time>
   <time name="total">    0.95    1.00</time>
   <energy>
    <i name="e_fr_energy">   -354.92645698 </i>
    <i name="e_wo_entrp">   -354.94058231 </i>
    <i name="e_0_energy">   -354.93116542 </i>
   </energy>
  </scstep>
  <scstep>
   <time name="diag">    0.21    0.21</time>
   <time name="diis">    0.67    0.68</time>
   <time name="orth">    0.02    0.02</time>
   <time name="total">    1.05    1.09</time>
   <energy>
    <i name="e_fr_energy">   -354.92647525 </i>
    <i name="e_wo_entrp">   -354.94061317 </i>
    <i name="e_0_energy">   -354.93118789 </i>
   </energy>
  </scstep>
  <scstep>
   <time name="diag">    0.09    0.09</time>
   <time name="diis">    0.63    0.63</time>
   <time name="orth">    0.02    0.02</time>
   <time name="total">    0.85    0.89</time>
   <energy>
    <i name="e_fr_energy">   -354.92648538 </i>
    <i name="e_wo_entrp">   -354.94060487 </i>
    <i name="e_0_energy">   -354.93119188 </i>
   </energy>
  </scstep>
  <scstep>
   <time name="diag">    0.09    0.09</time>
   <time name="diis">    0.67    0.68</time>
   <time name="orth">    0.02    0.02</time>
   <time name="total">    0.83    0.87</time>
   <energy>
    <i name="alphaZ">   1699.11346092 </i>
    <i name="ewald"> -23216.40471126 </i>
    <i name="hartreedc">  -8522.56870855 </i>
    <i name="XCdc">    240.47493471 </i>
    <i name="pawpsdc">  38359.81322725 </i>
    <i name="pawaedc"> -36957.23165242 </i>
    <i name="eentropy">      0.01412746 </i>
    <i name="bandstr">  -3373.13388144 </i>
    <i name="atom">  31414.99671219 </i>
    <i name="e_fr_energy">   -354.92649114 </i>
    <i name="e_wo_entrp">   -354.94061860 </i>
    <i name="e_0_energy">   -354.93120029 </i>
   </energy>
  </scstep>
  <structure>
   <crystal>
    <varray name="basis" >
     <v>       6.98278599       0.01894061      -0.00735776 </v>
     <v>       0.02779486      10.22131656       0.01769354 </v>
     <v>      -0.01085456       0.01700016      10.24615335 </v>
    </varray>
    <i name="volume">    731.29311130 </i>
    <varray name="rec_basis" >
     <v>       0.14321053      -0.00038970       0.00015236 </v>
     <v>      -0.00026555       0.09783576      -0.00016261 </v>
     <v>       0.00010330      -0.00016923       0.09759799 </v>
    </varray>
   </crystal>
   <varray name="positions" >
    <v>       0.72922800       0.49692100       0.17615000 </v>
    <v>       0.53114000       0.66774100       0.01059300 </v>
    <v>       0.04301400       0.00487800       0.66159700 </v>
    <v>       0.51676900       0.66949900       0.33892000 </v>
    <v>       0.76444000       0.49829400       0.48919700 </v>
    <v>       0.98183300       0.66875600       0.32603900 </v>
    <v>       0.25924800       0.16796600       0.17676600 </v>
    <v>       0.98386200       0.00571900       0.01033900 </v>
    <v>       0.76290500       0.16342900       0.50115900 </v>
    <v>       0.76484700       0.17148600       0.82047000 </v>
    <v>       0.51787300       0.99774100       0.99588700 </v>
    <v>       0.72548000       0.17781700       0.17773100 </v>
    <v>       0.74013900       0.49183400       0.82920000 </v>
    <v>       0.48756300       0.66284100       0.65317000 </v>
    <v>       0.48240000       0.33154500       0.65993100 </v>
    <v>       0.76525000       0.83695200       0.81325100 </v>
    <v>       0.26428100       0.50528900       0.17068200 </v>
    <v>       0.00459300       0.33722800       0.00387800 </v>
    <v>       0.97070200       0.66171400       0.01085000 </v>
    <v>       0.25839200       0.82620400       0.16895000 </v>
    <v>       0.46804200       0.00316700       0.66117300 </v>
    <v>       0.76387100       0.83885000       0.50371100 </v>
    <v>       0.23494300       0.49581700       0.47458700 </v>
    <v>       0.02686500       0.65282300       0.66494100 </v>
    <v>       0.25072300       0.82528800       0.85132200 </v>
    <v>       0.00531100       0.99042000       0.33226900 </v>
    <v>       0.49065400       0.99009500       0.34625500 </v>
    <v>       0.74066800       0.83154100       0.18584000 </v>
    <v>       0.23405600       0.16927200       0.49027900 </v>
    <v>       0.50535500       0.33855100       0.34853500 </v>
    <v>       0.26501700       0.49930600       0.84758600 </v>
    <v>       0.98494300       0.34072100       0.32360200 </v>
    <v>       0.01796000       0.33922500       0.66917700 </v>
    <v>       0.24259800       0.83406200       0.48416600 </v>
    <v>       0.48010600       0.33553900       0.98871600 </v>
    <v>       0.23493500       0.17147300       0.83307600 </v>
   </varray>
  </structure>
  <varray name="forces" >
   <v>       0.00712786      -0.00798050      -0.00713195 </v>
   <v>       0.00001829      -0.00927591       0.00129026 </v>
   <v>      -0.03405726       0.01396790       0.01104195 </v>
   <v>       0.00026399      -0.00673688       0.01041092 </v>
   <v>      -0.00274147      -0.01414591       0.01517842 </v>
   <v>       0.00499861      -0.00344391      -0.00528080 </v>
   <v>      -0.00626432      -0.00417970       0.09269670 </v>
   <v>       0.01400067      -0.00755274      -0.01759671 </v>
   <v>       0.00816402      -0.00556096       0.03452521 </v>
   <v>      -0.08378516       0.01032147      -0.00747313 </v>
   <v>      -0.02324717       0.01119116      -0.00240789 </v>
   <v>      -0.00560616       0.00013376      -0.01334422 </v>
   <v>       0.01071890      -0.02886877      -0.00397373 </v>
   <v>      -0.00137574      -0.00077285      -0.00383312 </v>
   <v>      -0.01833782      -0.01930398       0.02479069 </v>
   <v>       0.00372629       0.02966140       0.00574052 </v>
   <v>       0.00039673      -0.01912414      -0.01679084 </v>
   <v>       0.01878619      -0.00559593      -0.02093153 </v>
   <v>       0.00109027       0.00071076       0.01477153 </v>
   <v>      -0.00676588       0.01996288      -0.00983551 </v>
   <v>       0.01605433       0.00775604       0.01131332 </v>
   <v>      -0.00666349       0.00644122       0.00028956 </v>
   <v>       0.00729606      -0.01007087       0.00922212 </v>
   <v>       0.00025796       0.00465257      -0.01704561 </v>
   <v>      -0.00533290      -0.07302445      -0.00166392 </v>
   <v>      -0.00641182      -0.00939186      -0.00227462 </v>
   <v>      -0.00023204      -0.00848264      -0.00193580 </v>
   <v>       0.00118075       0.01893136      -0.01463281 </v>
   <v>       0.01557965       0.00216529      -0.06668273 </v>
   <v>       0.00481897       0.01399320      -0.01573054 </v>
   <v>       0.00403191       0.11087254       0.00558602 </v>
   <v>       0.00071195       0.00966745       0.00547996 </v>
   <v>       0.00715354      -0.04669631       0.02539490 </v>
   <v>      -0.00252042       0.01136418       0.01495325 </v>
   <v>      -0.02110054      -0.02615308      -0.01339969 </v>
   <v>       0.09806527       0.03456821      -0.04072017 </v>
  </varray>
  <varray name="stress" >
   <v>       0.25968419      -0.18392794       0.15288750 </v>
   <v>      -0.18392791       0.24556403       0.07113342 </v>
   <v>       0.15288752       0.07113339       0.03288612 </v>
  </varray>
  <energy>
   <i name="e_fr_energy">   -354.92649114 </i>
   <i name="e_wo_entrp">   -354.93120029 </i>
   <i name="e_0_energy">      0.01412746 </i>
  </energy>
  <time name="totalsc">   24.65   26.70</time>
 </calculation>
 <calculation>
  <scstep>
   <time name="dav">    1.45    1.46</time>
   <time name="total">    1.52    1.84</time>
   <energy>
    <i name="alphaZ">   1698.94569500 </i>
    <i name="ewald"> -23215.30866979 </i>
    <i name="hartreedc">  -8522.62275474 </i>
    <i name="XCdc">    240.43876669 </i>
    <i name="pawpsdc">  38360.55660686 </i>
    <i name="pawaedc"> -36957.95946062 </i>
    <i name="eentropy">      0.01402610 </i>
    <i name="bandstr">  -3373.98814907 </i>
    <i name="atom">  31414.99671219 </i>
    <i name="e_fr_energy">   -354.92722739 </i>
    <i name="e_wo_entrp">   -354.94125349 </i>
    <i name="e_0_energy">   -354.93190275 </i>
   </energy>
  </scstep>
  <scstep>
   <time name="diag">    0.09    0.09</time>
   <time name="diis">    0.82    0.83</time>
   <time name="orth">    0.02    0.02</time>
   <time name="total">    0.99    1.05</time>
   <energy>
    <i name="e_fr_energy">   -354.92751482 </i>
    <i name="e_wo_entrp">   -354.94159242 </i>
    <i name="e_0_energy">   -354.93220736 </i>
   </energy>
  </scstep>
  <scstep>
   <time name="diag">    0.09    0.09</time>
   <time name="diis">    0.74    0.74</time>
   <time name="orth">    0.02    0.02</time>
   <time name="total">    0.91    0.96</time>
   <energy>
    <i name="e_fr_energy">   -354.92747881 </i>
    <i name="e_wo_entrp">   -354.94152245 </i>
    <i name="e_0_energy">   -354.93216002 </i>
   </energy>
  </scstep>
  <scstep>
   <time name="diag">    0.09    0.09</time>
   <time name="diis">    0.58    0.58</time>
   <time name="orth">    0.02    0.02</time>
   <time name="total">    0.71    0.75</time>
   <energy>
    <i name="alphaZ">   1698.94569500 </i>
    <i name="ewald"> -23215.30866979 </i>
    <i name="hartreedc">  -8523.12962201 </i>
    <i name="XCdc">    240.46069624 </i>
    <i name="pawpsdc">  38356.25928425 </i>
    <i name="pawaedc"> -36953.64991496 </i>
    <i name="eentropy">      0.01406668 </i>
    <i name="bandstr">  -3373.51572095 </i>
    <i name="atom">  31414.99671219 </i>
    <i name="e_fr_energy">   -354.92747335 </i>
    <i name="e_wo_entrp">   -354.94154003 </i>
    <i name="e_0_energy">   -354.93216224 </i>
   </energy>
  </scstep>
  <structure>
   <crystal>
    <varray name="basis" >
     <v>       6.98311788       0.01870570      -0.00716166 </v>
     <v>       0.02745171      10.22177643       0.01782784 </v>
     <v>      -0.01056820       0.01713503      10.24621510 </v>
    </varray>
    <i name="volume">    731.36532435 </i>
    <varray name="rec_basis" >
     <v>       0.14320369      -0.00038485       0.00014835 </v>
     <v>      -0.00026223       0.09783134      -0.00016388 </v>
     <v>       0.00010055      -0.00017049       0.09759740 </v>
    </varray>
   </crystal>
   <varray name="positions" >
    <v>       0.72924280       0.49690969       0.17613996 </v>
    <v>       0.53114009       0.66772786       0.01059485 </v>
    <v>       0.04294336       0.00489788       0.66161251 </v>
    <v>       0.51676961       0.66948944       0.33893472 </v>
    <v>       0.76443443       0.49827394       0.48921847 </v>
    <v>       0.98184337       0.66875112       0.32603156 </v>
    <v>       0.25923524       0.16795989       0.17689694 </v>
    <v>       0.98389102       0.00570829       0.01031418 </v>
    <v>       0.76292203       0.16342101       0.50120779 </v>
    <v>       0.76467327       0.17150095       0.82045929 </v>
    <v>       0.51782475       0.99775694       0.99588354 </v>
    <v>       0.72546835       0.17781724       0.17771214 </v>
    <v>       0.74016137       0.49179309       0.82919447 </v>
    <v>       0.48756014       0.66283992       0.65316459 </v>
    <v>       0.48236216       0.33151768       0.65996604 </v>
    <v>       0.76525757       0.83699397       0.81325904 </v>
    <v>       0.26428189       0.50526196       0.17065833 </v>
    <v>       0.00463192       0.33722005       0.00384848 </v>
    <v>       0.97070429       0.66171497       0.01087086 </v>
    <v>       0.25837784       0.82623232       0.16893605 </v>
    <v>       0.46807526       0.00317789       0.66118899 </v>
    <v>       0.76385715       0.83885915       0.50371138 </v>
    <v>       0.23495820       0.49580269       0.47460006 </v>
    <v>       0.02686547       0.65282963       0.66491691 </v>
    <v>       0.25071235       0.82518462       0.85131982 </v>
    <v>       0.00529776       0.99040673       0.33226580 </v>
    <v>       0.49065356       0.99008299       0.34625229 </v>
    <v>       0.74067031       0.83156784       0.18581929 </v>
    <v>       0.23408813       0.16927516       0.49018483 </v>
    <v>       0.50536487       0.33857083       0.34851275 </v>
    <v>       0.26502474       0.49946296       0.84759362 </v>
    <v>       0.98494443       0.34073467       0.32360972 </v>
    <v>       0.01797515       0.33915879       0.66921300 </v>
    <v>       0.24259274       0.83407807       0.48418709 </v>
    <v>       0.48006238       0.33550208       0.98869711 </v>
    <v>       0.23513797       0.17152167       0.83301854 </v>
   </varray>
  </structure>
  <varray name="forces" >
   <v>       0.00604692      -0.00775870      -0.00627642 </v>
   <v>       0.00139273      -0.00829118       0.00086850 </v>
   <v>      -0.02653029       0.01602740       0.01042746 </v>
   <v>       0.00059274      -0.00634338       0.00885721 </v>
   <v>      -0.00231341      -0.01361423       0.01414417 </v>
   <v>       0.00331071      -0.00358917      -0.00376360 </v>
   <v>      -0.00724165      -0.00373430       0.08427226 </v>
   <v>       0.01473154      -0.00580969      -0.01872196 </v>
   <v>       0.00800765      -0.00461785       0.03202435 </v>
   <v>      -0.07774260       0.00876566      -0.00470504 </v>
   <v>      -0.02356518       0.01207747      -0.00300500 </v>
   <v>      -0.00437098      -0.00070153      -0.01413177 </v>
   <v>       0.00991683      -0.02733813      -0.00385497 </v>
   <v>      -0.00047550      -0.00050953      -0.00407289 </v>
   <v>      -0.01772122      -0.01603936       0.02173925 </v>
   <v>       0.00320152       0.02757331       0.00596605 </v>
   <v>       0.00099224      -0.01662194      -0.01449080 </v>
   <v>       0.02007918      -0.00689305      -0.02184556 </v>
   <v>      -0.00120702       0.00021113       0.01360089 </v>
   <v>      -0.00548939       0.01801638      -0.00805043 </v>
   <v>       0.01159930       0.00697624       0.00956369 </v>
   <v>      -0.00602117       0.00564559       0.00029511 </v>
   <v>       0.00686697      -0.00996784       0.00876007 </v>
   <v>      -0.00178620       0.00567004      -0.01720448 </v>
   <v>      -0.00381727      -0.06950300      -0.00249520 </v>
   <v>      -0.00632358      -0.00813283      -0.00275072 </v>
   <v>       0.00029213      -0.00863406      -0.00096780 </v>
   <v>       0.00127201       0.01620814      -0.01294673 </v>
   <v>       0.01359866      -0.00055261      -0.05645575 </v>
   <v>       0.00539705       0.01344359      -0.01489253 </v>
   <v>       0.00328420       0.10207920       0.00622160 </v>
   <v>      -0.00020494       0.00948263       0.00427578 </v>
   <v>       0.00728123      -0.04145246       0.02319625 </v>
   <v>      -0.00271448       0.01010997       0.01329260 </v>
   <v>      -0.01917517      -0.02305736      -0.01212491 </v>
   <v>       0.08883643       0.03087544      -0.03474866 </v>
  </varray>
  <varray name="stress" >
   <v>       0.24455102      -0.19932499       0.20097786 </v>
   <v>      -0.19932505       0.22605623       0.08411927 </v>
   <v>       0.20097787       0.08411936      -0.02283624 </v>
  </varray>
  <energy>
   <i name="e_fr_energy">   -354.92747335 </i>
   <i name="e_wo_entrp">   -354.93216224 </i>
   <i name="e_0_energy">      0.01406668 </i>
  </energy>
  <time name="totalsc">    5.85    6.48</time>
 </calculation>
 <calculation>
  <scstep>
   <time name="dav">    1.08    1.09</time>
   <time name="total">    1.18    1.41</time>
   <energy>
    <i name="alphaZ">   1698.44258354 </i>
    <i name="ewald"> -23211.99251264 </i>
    <i name="hartreedc">  -8523.35382870 </i>
    <i name="XCdc">    240.35564739 </i>
    <i name="pawpsdc">  38355.67495700 </i>
    <i name="pawaedc"> -36953.05984280 </i>
    <i name="eentropy">      0.01374954 </i>
    <i name="bandstr">  -3376.00544422 </i>
    <i name="atom">  31414.99671219 </i>
    <i name="e_fr_energy">   -354.92797871 </i>
    <i name="e_wo_entrp">   -354.94172825 </i>
    <i name="e_0_energy">   -354.93256189 </i>
   </energy>
  </scstep>
  <scstep>
   <time name="diag">    0.16    0.16</time>
   <time name="diis">    0.77    0.78</time>
   <time name="orth">    0.02    0.02</time>
   <time name="total">    1.02    1.06</time>
   <energy>
    <i name="e_fr_energy">   -354.93025397 </i>
    <i name="e_wo_entrp">   -354.94416515 </i>
    <i name="e_0_energy">   -354.93489103 </i>
   </energy>
  </scstep>
  <scstep>
   <time name="diag">    0.13    0.13</time>
   <time name="diis">    0.83    0.83</time>
   <time name="orth">    0.02    0.02</time>
   <time name="total">    1.04    1.09</time>
   <energy>
    <i name="e_fr_energy">   -354.92994318 </i>
    <i name="e_wo_entrp">   -354.94374415 </i>
    <i name="e_0_energy">   -354.93454350 </i>
   </energy>
  </scstep>
  <scstep>
   <time name="diag">    0.09    0.09</time>
   <time name="diis">    0.92    0.93</time>
   <time name="orth">    0.02    0.02</time>
   <time name="total">    1.10    1.16</time>
   <energy>
    <i name="e_fr_energy">   -354.92989114 </i>
    <i name="e_wo_entrp">   -354.94376330 </i>
    <i name="e_0_energy">   -354.93451519 </i>
   </energy>
  </scstep>
  <scstep>
   <time name="diag">    0.09    0.09</time>
   <time name="diis">    0.81    0.82</time>
   <time name="orth">    0.02    0.02</time>
   <time name="total">    0.99    1.04</time>
   <energy>
    <i name="e_fr_energy">   -354.92988662 </i>
    <i name="e_wo_entrp">   -354.94372065 </i>
    <i name="e_0_energy">   -354.93449796 </i>
   </energy>
  </scstep>
  <scstep>
   <time name="diag">    0.10    0.16</time>
   <time name="diis">    0.74    0.74</time>
   <time name="orth">    0.02    0.02</time>
   <time name="total">    0.89    1.02</time>
   <energy>
    <i name="alphaZ">   1698.44258354 </i>
    <i name="ewald"> -23211.99251264 </i>
    <i name="hartreedc">  -8525.05462933 </i>
    <i name="XCdc">    240.43080192 </i>
    <i name="pawpsdc">  38340.65837431 </i>
    <i name="pawaedc"> -36938.00153235 </i>
    <i name="eentropy">      0.01386973 </i>
    <i name="bandstr">  -3374.42354540 </i>
    <i name="atom">  31414.99671219 </i>
    <i name="e_fr_energy">   -354.92987803 </i>
    <i name="e_wo_entrp">   -354.94374776 </i>
    <i name="e_0_energy">   -354.93450128 </i>
   </energy>
  </scstep>
  <structure>
   <crystal>
    <varray name="basis" >
     <v>       6.98411356       0.01800096      -0.00657335 </v>
     <v>       0.02642225      10.22315604       0.01823075 </v>
     <v>      -0.00970912       0.01753965      10.24640035 </v>
    </varray>
    <i name="volume">    731.58196887 </i>
    <varray name="rec_basis" >
     <v>       0.14318318      -0.00037031       0.00013631 </v>
     <v>      -0.00025228       0.09781810      -0.00016768 </v>
     <v>       0.00009230      -0.00017428       0.09759564 </v>
    </varray>
   </crystal>
   <varray name="positions" >
    <v>       0.72928721       0.49687576       0.17610982 </v>
    <v>       0.53114037       0.66768845       0.01060038 </v>
    <v>       0.04273144       0.00495752       0.66165905 </v>
    <v>       0.51677143       0.66946074       0.33897889 </v>
    <v>       0.76441772       0.49821378       0.48928288 </v>
    <v>       0.98187447       0.66873647       0.32600923 </v>
    <v>       0.25919696       0.16794155       0.17728974 </v>
    <v>       0.98397809       0.00567618       0.01023973 </v>
    <v>       0.76297311       0.16339705       0.50135417 </v>
    <v>       0.76415210       0.17154580       0.82042718 </v>
    <v>       0.51768000       0.99780476       0.99587315 </v>
    <v>       0.72543340       0.17781797       0.17765557 </v>
    <v>       0.74022847       0.49167037       0.82917790 </v>
    <v>       0.48755158       0.66283668       0.65314834 </v>
    <v>       0.48224862       0.33143571       0.66007115 </v>
    <v>       0.76528028       0.83711988       0.81328316 </v>
    <v>       0.26428457       0.50518084       0.17058732 </v>
    <v>       0.00474869       0.33719622       0.00375990 </v>
    <v>       0.97071115       0.66171787       0.01093346 </v>
    <v>       0.25833538       0.82631726       0.16889419 </v>
    <v>       0.46817502       0.00321058       0.66123694 </v>
    <v>       0.76381562       0.83888658       0.50371253 </v>
    <v>       0.23500379       0.49575976       0.47463925 </v>
    <v>       0.02686689       0.65284951       0.66484465 </v>
    <v>       0.25068041       0.82487451       0.85131329 </v>
    <v>       0.00525803       0.99036693       0.33225620 </v>
    <v>       0.49065225       0.99004698       0.34624414 </v>
    <v>       0.74067724       0.83164834       0.18575714 </v>
    <v>       0.23418454       0.16928466       0.48990231 </v>
    <v>       0.50539450       0.33863033       0.34844601 </v>
    <v>       0.26504800       0.49993383       0.84761649 </v>
    <v>       0.98494873       0.34077569       0.32363287 </v>
    <v>       0.01802057       0.33896018       0.66932098 </v>
    <v>       0.24257698       0.83412626       0.48425036 </v>
    <v>       0.47993154       0.33539133       0.98864043 </v>
    <v>       0.23574687       0.17166767       0.83284616 </v>
   </varray>
  </structure>
  <varray name="forces" >
   <v>       0.00365446      -0.00704558      -0.00242288 </v>
   <v>       0.00589887      -0.00615957      -0.00067650 </v>
   <v>      -0.00686985       0.02181954       0.00967716 </v>
   <v>       0.00054118      -0.00617563       0.00471582 </v>
   <v>       0.00123447      -0.01172003       0.01002825 </v>
   <v>      -0.00099482      -0.00468669       0.00098297 </v>
   <v>      -0.01235327      -0.00040291       0.06295874 </v>
   <v>       0.01721141      -0.00105741      -0.02382049 </v>
   <v>       0.00890186      -0.00194814       0.02577614 </v>
   <v>      -0.05950844       0.00586457       0.00429536 </v>
   <v>      -0.02537183       0.01302604      -0.00458238 </v>
   <v>       0.00069371      -0.00142885      -0.01723326 </v>
   <v>       0.01118000      -0.02553812      -0.00251292 </v>
   <v>       0.00299938      -0.00021757      -0.00521630 </v>
   <v>      -0.01688890      -0.00720967       0.01265940 </v>
   <v>       0.00372299       0.02406644       0.00607120 </v>
   <v>       0.00183759      -0.00923399      -0.00723054 </v>
   <v>       0.02233956      -0.01219402      -0.02529612 </v>
   <v>      -0.00874667      -0.00272813       0.01057695 </v>
   <v>      -0.00218490       0.01118392      -0.00294594 </v>
   <v>      -0.00227417       0.00331134       0.00463380 </v>
   <v>      -0.00336434       0.00215444       0.00068831 </v>
   <v>       0.00318240      -0.00890867       0.00713358 </v>
   <v>      -0.00868499       0.00835886      -0.01811195 </v>
   <v>      -0.00070652      -0.05786171      -0.00509278 </v>
   <v>      -0.00786918      -0.00825004      -0.00302504 </v>
   <v>       0.00234569      -0.01184899       0.00317033 </v>
   <v>       0.00044377       0.00844136      -0.00815061 </v>
   <v>       0.00943506      -0.00817319      -0.03418996 </v>
   <v>       0.00985084       0.01442687      -0.01270766 </v>
   <v>       0.00220206       0.08333081       0.01062152 </v>
   <v>      -0.00439947       0.01190440       0.00246048 </v>
   <v>       0.00843863      -0.03219108       0.01982410 </v>
   <v>      -0.00395024       0.00819988       0.01006284 </v>
   <v>      -0.01807110      -0.01440513      -0.01010111 </v>
   <v>       0.06612475       0.02329665      -0.02302051 </v>
  </varray>
  <varray name="stress" >
   <v>      -0.40384780       0.00772435       0.13644907 </v>
   <v>       0.00772440      -0.40692109       0.01665962 </v>
   <v>       0.13644907       0.01665961      -0.56969839 </v>
  </varray>
  <energy>
   <i name="e_fr_energy">   -354.92987803 </i>
   <i name="e_wo_entrp">   -354.93450128 </i>
   <i name="e_0_energy">      0.01386973 </i>
  </energy>
  <time name="totalsc">    7.94    8.64</time>
 </calculation>
 <calculation>
  <scstep>
   <time name="dav">    1.10    1.11</time>
   <time name="total">    1.18    1.36</time>
   <energy>
    <i name="alphaZ">   1697.43719824 </i>
    <i name="ewald"> -23205.23366015 </i>
    <i name="hartreedc">  -8525.48836381 </i>
    <i name="XCdc">    240.21626972 </i>
    <i name="pawpsdc">  38340.81654286 </i>
    <i name="pawaedc"> -36938.16910871 </i>
    <i name="eentropy">      0.01328949 </i>
    <i name="bandstr">  -3379.51374223 </i>
    <i name="atom">  31414.99671219 </i>
    <i name="e_fr_energy">   -354.92486240 </i>
    <i name="e_wo_entrp">   -354.93815189 </i>
    <i name="e_0_energy">   -354.92929223 </i>
   </energy>
  </scstep>
  <scstep>
   <time name="diag">    0.09    0.09</time>
   <time name="diis">    0.76    0.77</time>
   <time name="orth">    0.02    0.02</time>
   <time name="total">    0.95    1.02</time>
   <energy>
    <i name="e_fr_energy">   -354.93386883 </i>
    <i name="e_wo_entrp">   -354.94740927 </i>
    <i name="e_0_energy">   -354.93838231 </i>
   </energy>
  </scstep>
  <scstep>
   <time name="diag">    0.09    0.09</time>
   <time name="diis">    0.89    0.90</time>
   <time name="orth">    0.02    0.02</time>
   <time name="total">    1.07    1.12</time>
   <energy>
    <i name="e_fr_energy">   -354.93263211 </i>
    <i name="e_wo_entrp">   -354.94599318 </i>
    <i name="e_0_energy">   -354.93708580 </i>
   </energy>
  </scstep>
  <scstep>
   <time name="diag">    0.09    0.09</time>
   <time name="diis">    0.96    0.96</time>
   <time name="orth">    0.02    0.02</time>
   <time name="total">    1.13    1.19</time>
   <energy>
    <i name="e_fr_energy">   -354.93244452 </i>
    <i name="e_wo_entrp">   -354.94594440 </i>
    <i name="e_0_energy">   -354.93694448 </i>
   </energy>
  </scstep>
  <scstep>
   <time name="diag">    0.09    0.09</time>
   <time name="diis">    0.96    0.98</time>
   <time name="orth">    0.02    0.02</time>
   <time name="total">    1.13    1.20</time>
   <energy>
    <i name="e_fr_energy">   -354.93242813 </i>
    <i name="e_wo_entrp">   -354.94584372 </i>
    <i name="e_0_energy">   -354.93689999 </i>
   </energy>
  </scstep>
  <scstep>
   <time name="diag">    0.11    0.11</time>
   <time name="diis">    0.96    0.97</time>
   <time name="orth">    0.03    0.03</time>
   <time name="total">    1.27    1.33</time>
   <energy>
    <i name="e_fr_energy">   -354.93240519 </i>
    <i name="e_wo_entrp">   -354.94589937 </i>
    <i name="e_0_energy">   -354.93690325 </i>
   </energy>
  </scstep>
  <scstep>
   <time name="diag">    0.26    0.28</time>
   <time name="diis">    0.81    0.82</time>
   <time name="orth">    0.02    0.02</time>
   <time name="total">    1.22    1.40</time>
   <energy>
    <i name="e_fr_energy">   -354.93239236 </i>
    <i name="e_wo_entrp">   -354.94588189 </i>
    <i name="e_0_energy">   -354.93688887 </i>
   </energy>
  </scstep>
  <scstep>
   <time name="diag">    0.60    0.60</time>
   <time name="diis">    1.21    1.22</time>
   <time name="orth">    0.02    0.02</time>
   <time name="total">    2.06    2.14</time>
   <energy>
    <i name="alphaZ">   1697.43719824 </i>
    <i name="ewald"> -23205.23366015 </i>
    <i name="hartreedc">  -8528.70092560 </i>
    <i name="XCdc">    240.35804096 </i>
    <i name="pawpsdc">  38311.89193212 </i>
    <i name="pawaedc"> -36909.25969948 </i>
    <i name="eentropy">      0.01346960 </i>
    <i name="bandstr">  -3376.43545918 </i>
    <i name="atom">  31414.99671219 </i>
    <i name="e_fr_energy">   -354.93239131 </i>
    <i name="e_wo_entrp">   -354.94586091 </i>
    <i name="e_0_energy">   -354.93688117 </i>
   </energy>
  </scstep>
  <structure>
   <crystal>
    <varray name="basis" >
     <v>       6.98610493       0.01659147      -0.00539674 </v>
     <v>       0.02436334      10.22591526       0.01903657 </v>
     <v>      -0.00799096       0.01834890      10.24677084 </v>
    </varray>
    <i name="volume">    732.01528196 </i>
    <varray name="rec_basis" >
     <v>       0.14314218      -0.00034125       0.00011224 </v>
     <v>      -0.00023238       0.09779164      -0.00017530 </v>
     <v>       0.00007582      -0.00018186       0.09759211 </v>
    </varray>
   </crystal>
   <varray name="positions" >
    <v>       0.72937601       0.49680792       0.17604956 </v>
    <v>       0.53114091       0.66760964       0.01061146 </v>
    <v>       0.04230767       0.00507675       0.66175215 </v>
    <v>       0.51677505       0.66940336       0.33906723 </v>
    <v>       0.76438427       0.49809346       0.48941171 </v>
    <v>       0.98193667       0.66870718       0.32596456 </v>
    <v>       0.25912031       0.16790483       0.17807535 </v>
    <v>       0.98415220       0.00561197       0.01009083 </v>
    <v>       0.76307520       0.16334914       0.50164692 </v>
    <v>       0.76310993       0.17163542       0.82036302 </v>
    <v>       0.51739057       0.99790036       0.99585239 </v>
    <v>       0.72536354       0.17781942       0.17754243 </v>
    <v>       0.74036263       0.49142498       0.82914474 </v>
    <v>       0.48753445       0.66283020       0.65311586 </v>
    <v>       0.48202153       0.33127178       0.66028139 </v>
    <v>       0.76532572       0.83737167       0.81333140 </v>
    <v>       0.26428992       0.50501863       0.17044531 </v>
    <v>       0.00498220       0.33714858       0.00358274 </v>
    <v>       0.97072486       0.66172367       0.01105864 </v>
    <v>       0.25825049       0.82648712       0.16881048 </v>
    <v>       0.46837452       0.00327594       0.66133283 </v>
    <v>       0.76373256       0.83894143       0.50371484 </v>
    <v>       0.23509494       0.49567393       0.47471761 </v>
    <v>       0.02686974       0.65288927       0.66470012 </v>
    <v>       0.25061643       0.82425437       0.85130025 </v>
    <v>       0.00517859       0.99028732       0.33223702 </v>
    <v>       0.49064961       0.98997496       0.34622787 </v>
    <v>       0.74069114       0.83180933       0.18563286 </v>
    <v>       0.23437739       0.16930368       0.48933727 </v>
    <v>       0.50545378       0.33874931       0.34831252 </v>
    <v>       0.26509463       0.50087543       0.84766219 </v>
    <v>       0.98495734       0.34085771       0.32367917 </v>
    <v>       0.01811131       0.33856300       0.66953697 </v>
    <v>       0.24254545       0.83422263       0.48437689 </v>
    <v>       0.47966987       0.33516983       0.98852709 </v>
    <v>       0.23696458       0.17195975       0.83250133 </v>
   </varray>
  </structure>
  <varray name="forces" >
   <v>       0.00020800      -0.00587217       0.00617619 </v>
   <v>       0.01548148      -0.00011685       0.00087371 </v>
   <v>       0.03257807       0.03184876       0.00655622 </v>
   <v>      -0.00006430      -0.00489688      -0.00650670 </v>
   <v>       0.00754385      -0.00952328      -0.00245261 </v>
   <v>      -0.00883349      -0.00585185       0.00735549 </v>
   <v>      -0.02255944       0.00476791       0.02327783 </v>
   <v>       0.02194562       0.00751190      -0.03147748 </v>
   <v>       0.00982791       0.00367237       0.00572240 </v>
   <v>      -0.02491945      -0.00318575       0.02439577 </v>
   <v>      -0.02817733       0.01463230      -0.00461357 </v>
   <v>       0.01088479      -0.00364892      -0.01996283 </v>
   <v>       0.01028055      -0.01912487       0.00050210 </v>
   <v>       0.00920292       0.00154033      -0.01049662 </v>
   <v>      -0.01785355       0.01117317      -0.00848455 </v>
   <v>       0.00263162       0.01696439       0.00974450 </v>
   <v>       0.00400003       0.00499817       0.00927041 </v>
   <v>       0.02809998      -0.02303742      -0.02773160 </v>
   <v>      -0.02583022      -0.00565946       0.00909889 </v>
   <v>       0.00351143      -0.00034178       0.00871994 </v>
   <v>      -0.02849615      -0.00463427      -0.00552785 </v>
   <v>       0.00166969      -0.00285235      -0.00225468 </v>
   <v>      -0.00264668      -0.00856739      -0.00172136 </v>
   <v>      -0.02175390       0.01495470      -0.02399265 </v>
   <v>       0.00716449      -0.03538148      -0.00844652 </v>
   <v>      -0.01039687      -0.00804826      -0.00387285 </v>
   <v>       0.00731428      -0.01817816       0.00966022 </v>
   <v>       0.00025362      -0.00776150       0.00107100 </v>
   <v>       0.00058393      -0.02322253       0.01661122 </v>
   <v>       0.01750624       0.01648859      -0.00892518 </v>
   <v>       0.00387778       0.03587941       0.01903324 </v>
   <v>      -0.01204972       0.01692544      -0.00230930 </v>
   <v>       0.01415130      -0.00568705       0.00816495 </v>
   <v>      -0.00505168       0.00548784      -0.00071311 </v>
   <v>      -0.01342159       0.00512173      -0.00242562 </v>
   <v>       0.01333680       0.00362523       0.00568101 </v>
  </varray>
  <varray name="stress" >
   <v>      -1.24291495       0.31422637       0.07452004 </v>
   <v>       0.31422633      -1.28936687      -0.04970428 </v>
   <v>       0.07451998      -0.04970428      -1.25812131 </v>
  </varray>
  <energy>
   <i name="e_fr_energy">   -354.93239131 </i>
   <i name="e_wo_entrp">   -354.93688117 </i>
   <i name="e_0_energy">      0.01346960 </i>
  </energy>
  <time name="totalsc">   13.85   15.19</time>
 </calculation>
 <calculation>
  <scstep>
   <time name="dav">    1.06    1.07</time>
   <time name="total">    1.14    1.36</time>
   <energy>
    <i name="alphaZ">   1697.11317853 </i>
    <i name="ewald"> -23203.01763755 </i>
    <i name="hartreedc">  -8528.84016067 </i>
    <i name="XCdc">    240.28735527 </i>
    <i name="pawpsdc">  38312.01652339 </i>
    <i name="pawaedc"> -36909.42403713 </i>
    <i name="eentropy">      0.01329853 </i>
    <i name="bandstr">  -3378.07699912 </i>
    <i name="atom">  31414.99671219 </i>
    <i name="e_fr_energy">   -354.93176656 </i>
    <i name="e_wo_entrp">   -354.94506509 </i>
    <i name="e_0_energy">   -354.93619940 </i>
   </energy>
  </scstep>
  <scstep>
   <time name="diag">    0.09    0.09</time>
   <time name="diis">    0.70    0.84</time>
   <time name="orth">    0.02    0.02</time>
   <time name="total">    0.87    1.05</time>
   <energy>
    <i name="e_fr_energy">   -354.93271425 </i>
    <i name="e_wo_entrp">   -354.94608914 </i>
    <i name="e_0_energy">   -354.93717254 </i>
   </energy>
  </scstep>
  <scstep>
   <time name="diag">    0.13    0.13</time>
   <time name="diis">    0.80    0.81</time>
   <time name="orth">    0.02    0.02</time>
   <time name="total">    1.02    1.08</time>
   <energy>
    <i name="e_fr_energy">   -354.93258590 </i>
    <i name="e_wo_entrp">   -354.94590953 </i>
    <i name="e_0_energy">   -354.93702711 </i>
   </energy>
  </scstep>
  <scstep>
   <time name="diag">    0.10    0.11</time>
   <time name="diis">    0.84    0.87</time>
   <time name="orth">    0.02    0.02</time>
   <time name="total">    1.02    1.11</time>
   <energy>
    <i name="e_fr_energy">   -354.93256878 </i>
    <i name="e_wo_entrp">   -354.94593558 </i>
    <i name="e_0_energy">   -354.93702438 </i>
   </energy>
  </scstep>
  <scstep>
   <time name="diag">    0.09    0.09</time>
   <time name="diis">    0.68    0.68</time>
   <time name="orth">    0.02    0.02</time>
   <time name="total">    0.82    0.86</time>
   <energy>
    <i name="alphaZ">   1697.11317853 </i>
    <i name="ewald"> -23203.01763755 </i>
    <i name="hartreedc">  -8529.85548488 </i>
    <i name="XCdc">    240.33243469 </i>
    <i name="pawpsdc">  38302.35142506 </i>
    <i name="pawaedc"> -36899.78774021 </i>
    <i name="eentropy">      0.01333910 </i>
    <i name="bandstr">  -3377.07879386 </i>
    <i name="atom">  31414.99671219 </i>
    <i name="e_fr_energy">   -354.93256693 </i>
    <i name="e_wo_entrp">   -354.94590604 </i>
    <i name="e_0_energy">   -354.93701330 </i>
   </energy>
  </scstep>
  <structure>
   <crystal>
    <varray name="basis" >
     <v>       6.98674719       0.01613688      -0.00501726 </v>
     <v>       0.02369930      10.22680517       0.01929647 </v>
     <v>      -0.00743682       0.01860989      10.24689033 </v>
    </varray>
    <i name="volume">    732.15504128 </i>
    <varray name="rec_basis" >
     <v>       0.14312896      -0.00033188       0.00010448 </v>
     <v>      -0.00022597       0.09778311      -0.00017775 </v>
     <v>       0.00007051      -0.00018430       0.09759097 </v>
    </varray>
   </crystal>
   <varray name="positions" >
    <v>       0.72940464       0.49678605       0.17603012 </v>
    <v>       0.53114108       0.66758423       0.01061503 </v>
    <v>       0.04217103       0.00511518       0.66178218 </v>
    <v>       0.51677621       0.66938486       0.33909572 </v>
    <v>       0.76437346       0.49805466       0.48945326 </v>
    <v>       0.98195673       0.66869774       0.32595016 </v>
    <v>       0.25909552       0.16789297       0.17832872 </v>
    <v>       0.98420834       0.00559128       0.01004280 </v>
    <v>       0.76310809       0.16333368       0.50174133 </v>
    <v>       0.76277392       0.17166427       0.82034237 </v>
    <v>       0.51729726       0.99793118       0.99584570 </v>
    <v>       0.72534102       0.17781989       0.17750595 </v>
    <v>       0.74040586       0.49134586       0.82913405 </v>
    <v>       0.48752893       0.66282811       0.65310538 </v>
    <v>       0.48194828       0.33121891       0.66034921 </v>
    <v>       0.76534040       0.83745285       0.81334694 </v>
    <v>       0.26429164       0.50496633       0.17039952 </v>
    <v>       0.00505750       0.33713323       0.00352560 </v>
    <v>       0.97072927       0.66172553       0.01109902 </v>
    <v>       0.25822315       0.82654189       0.16878348 </v>
    <v>       0.46843884       0.00329702       0.66136375 </v>
    <v>       0.76370579       0.83895912       0.50371558 </v>
    <v>       0.23512432       0.49564625       0.47474289 </v>
    <v>       0.02687068       0.65290210       0.66465351 </v>
    <v>       0.25059574       0.82405441       0.85129606 </v>
    <v>       0.00515297       0.99026165       0.33223083 </v>
    <v>       0.49064876       0.98995174       0.34622262 </v>
    <v>       0.74069564       0.83186125       0.18559277 </v>
    <v>       0.23443961       0.16930984       0.48915504 </v>
    <v>       0.50547292       0.33878768       0.34826947 </v>
    <v>       0.26510975       0.50117904       0.84767690 </v>
    <v>       0.98496012       0.34088416       0.32369410 </v>
    <v>       0.01814052       0.33843494       0.66960663 </v>
    <v>       0.24253529       0.83425369       0.48441770 </v>
    <v>       0.47958548       0.33509841       0.98849056 </v>
    <v>       0.23735726       0.17205399       0.83239006 </v>
   </varray>
  </structure>
  <varray name="forces" >
   <v>      -0.00060056      -0.00551280       0.00951769 </v>
   <v>       0.01836588       0.00201204       0.00212430 </v>
   <v>       0.04420755       0.03502168       0.00474254 </v>
   <v>      -0.00045536      -0.00487350      -0.01019017 </v>
   <v>       0.01011795      -0.00844783      -0.00720196 </v>
   <v>      -0.01101306      -0.00663297       0.00977371 </v>
   <v>      -0.02666706       0.00594532       0.01035082 </v>
   <v>       0.02277824       0.01016032      -0.03364349 </v>
   <v>       0.01121234       0.00480078       0.00001247 </v>
   <v>      -0.01322558      -0.00675982       0.03123309 </v>
   <v>      -0.02882286       0.01519659      -0.00426211 </v>
   <v>       0.01486693      -0.00499460      -0.02108959 </v>
   <v>       0.01090116      -0.01781929       0.00214614 </v>
   <v>       0.01118292       0.00230339      -0.01253809 </v>
   <v>      -0.01772497       0.01609685      -0.01575418 </v>
   <v>       0.00333086       0.01535858       0.01092991 </v>
   <v>       0.00392100       0.00980605       0.01497519 </v>
   <v>       0.02903186      -0.02709183      -0.02722822 </v>
   <v>      -0.03084042      -0.00705125       0.00919490 </v>
   <v>       0.00475403      -0.00396123       0.01290279 </v>
   <v>      -0.03707518      -0.00714915      -0.00946098 </v>
   <v>       0.00366323      -0.00425897      -0.00397595 </v>
   <v>      -0.00554150      -0.00837420      -0.00572620 </v>
   <v>      -0.02655420       0.01742248      -0.02604490 </v>
   <v>       0.00904850      -0.02741137      -0.00905624 </v>
   <v>      -0.01113538      -0.00773869      -0.00381713 </v>
   <v>       0.00843108      -0.02006017       0.01169028 </v>
   <v>       0.00021990      -0.01263010       0.00362142 </v>
   <v>      -0.00281614      -0.02811351       0.03072359 </v>
   <v>       0.01974909       0.01716171      -0.00856321 </v>
   <v>       0.00423318       0.02551572       0.02389807 </v>
   <v>      -0.01429740       0.01843723      -0.00357886 </v>
   <v>       0.01467574       0.00053417       0.00446846 </v>
   <v>      -0.00616719       0.00507029      -0.00365117 </v>
   <v>      -0.01219775       0.00947284       0.00028457 </v>
   <v>       0.00044315      -0.00143479       0.01319250 </v>
  </varray>
  <varray name="stress" >
   <v>      -1.54182487       0.34957918       0.12358146 </v>
   <v>       0.34957914      -1.56145848      -0.05775669 </v>
   <v>       0.12358150      -0.05775667      -1.55417434 </v>
  </varray>
  <energy>
   <i name="e_fr_energy">   -354.93256693 </i>
   <i name="e_wo_entrp">   -354.93701330 </i>
   <i name="e_0_energy">      0.01333910 </i>
  </energy>
  <time name="totalsc">    6.57    7.33</time>
 </calculation>
 <calculation>
  <scstep>
   <time name="dav">    1.20    1.21</time>
   <time name="total">    1.30    1.56</time>
   <energy>
    <i name="alphaZ">   1699.16822118 </i>
    <i name="ewald"> -23212.89250425 </i>
    <i name="hartreedc">  -8532.78416357 </i>
    <i name="XCdc">    240.77301858 </i>
    <i name="pawpsdc">  38301.81178676 </i>
    <i name="pawaedc"> -36899.25812411 </i>
    <i name="eentropy">      0.01314827 </i>
    <i name="bandstr">  -3366.76469309 </i>
    <i name="atom">  31414.99671219 </i>
    <i name="e_fr_energy">   -354.93659806 </i>
    <i name="e_wo_entrp">   -354.94974632 </i>
    <i name="e_0_energy">   -354.94098081 </i>
   </energy>
  </scstep>
  <scstep>
   <time name="diag">    0.09    0.09</time>
   <time name="diis">    0.82    0.83</time>
   <time name="orth">    0.02    0.02</time>
   <time name="total">    1.02    1.07</time>
   <energy>
    <i name="e_fr_energy">   -354.93548849 </i>
    <i name="e_wo_entrp">   -354.94862936 </i>
    <i name="e_0_energy">   -354.93986878 </i>
   </energy>
  </scstep>
  <scstep>
   <time name="diag">    0.09    0.09</time>
   <time name="diis">    0.85    0.86</time>
   <time name="orth">    0.02    0.02</time>
   <time name="total">    1.02    1.07</time>
   <energy>
    <i name="e_fr_energy">   -354.93433005 </i>
    <i name="e_wo_entrp">   -354.94761241 </i>
    <i name="e_0_energy">   -354.93875750 </i>
   </energy>
  </scstep>
  <scstep>
   <time name="diag">    0.09    0.09</time>
   <time name="diis">    0.83    0.91</time>
   <time name="orth">    0.02    0.03</time>
   <time name="total">    1.02    1.18</time>
   <energy>
    <i name="e_fr_energy">   -354.93367608 </i>
    <i name="e_wo_entrp">   -354.94672059 </i>
    <i name="e_0_energy">   -354.93802425 </i>
   </energy>
  </scstep>
  <scstep>
   <time name="diag">    0.11    0.11</time>
   <time name="diis">    0.89    0.89</time>
   <time name="orth">    0.02    0.02</time>
   <time name="total">    1.08    1.14</time>
   <energy>
    <i name="e_fr_energy">   -354.93359512 </i>
    <i name="e_wo_entrp">   -354.94678050 </i>
    <i name="e_0_energy">   -354.93799024 </i>
   </energy>
  </scstep>
  <scstep>
   <time name="diag">    0.09    0.09</time>
   <time name="diis">    0.76    0.77</time>
   <time name="orth">    0.02    0.02</time>
   <time name="total">    0.93    1.01</time>
   <energy>
    <i name="e_fr_energy">   -354.93361812 </i>
    <i name="e_wo_entrp">   -354.94676526 </i>
    <i name="e_0_energy">   -354.93800050 </i>
   </energy>
  </scstep>
  <scstep>
   <time name="diag">    0.09    0.09</time>
   <time name="diis">    0.67    0.68</time>
   <time name="orth">    0.02    0.02</time>
   <time name="total">    0.85    0.90</time>
   <energy>
    <i name="e_fr_energy">   -354.93363449 </i>
    <i name="e_wo_entrp">   -354.94676584 </i>
    <i name="e_0_energy">   -354.93801161 </i>
   </energy>
  </scstep>
  <scstep>
   <time name="diag">    0.09    0.10</time>
   <time name="diis">    0.50    0.50</time>
   <time name="orth">    0.02    0.02</time>
   <time name="total">    0.72    0.76</time>
   <energy>
    <i name="e_fr_energy">   -354.93364675 </i>
    <i name="e_wo_entrp">   -354.94679860 </i>
    <i name="e_0_energy">   -354.93803070 </i>
   </energy>
  </scstep>
  <scstep>
   <time name="diag">    0.10    0.10</time>
   <time name="diis">    0.43    0.43</time>
   <time name="orth">    0.02    0.02</time>
   <time name="total">    0.57    0.62</time>
   <energy>
    <i name="alphaZ">   1699.16822118 </i>
    <i name="ewald"> -23212.89250425 </i>
    <i name="hartreedc">  -8526.39381318 </i>
    <i name="XCdc">    240.48021748 </i>
    <i name="pawpsdc">  38355.48791960 </i>
    <i name="pawaedc"> -36953.05411554 </i>
    <i name="eentropy">      0.01314491 </i>
    <i name="bandstr">  -3372.73943894 </i>
    <i name="atom">  31414.99671219 </i>
    <i name="e_fr_energy">   -354.93365655 </i>
    <i name="e_wo_entrp">   -354.94680146 </i>
    <i name="e_0_energy">   -354.93803819 </i>
   </energy>
  </scstep>
  <structure>
   <crystal>
    <varray name="basis" >
     <v>       6.98411206       0.01647832      -0.00445665 </v>
     <v>       0.02420084      10.22284858       0.01932484 </v>
     <v>      -0.00661425       0.01863747      10.24232281 </v>
    </varray>
    <i name="volume">    731.26954341 </i>
    <varray name="rec_basis" >
     <v>       0.14318298      -0.00033914       0.00009308 </v>
     <v>      -0.00023091       0.09782098      -0.00017815 </v>
     <v>       0.00006274      -0.00018471       0.09763448 </v>
    </varray>
   </crystal>
   <varray name="positions" >
    <v>       0.72942577       0.49675597       0.17603592 </v>
    <v>       0.53120184       0.66756820       0.01062271 </v>
    <v>       0.04220671       0.00522486       0.66181698 </v>
    <v>       0.51677564       0.66935901       0.33909574 </v>
    <v>       0.76439821       0.49800434       0.48947057 </v>
    <v>       0.98193659       0.66867520       0.32596057 </v>
    <v>       0.25898748       0.16789692       0.17855601 </v>
    <v>       0.98432861       0.00559756       0.00992838 </v>
    <v>       0.76317155       0.16333201       0.50181739 </v>
    <v>       0.76245979       0.17167219       0.82039606 </v>
    <v>       0.51712682       0.99799044       0.99583061 </v>
    <v>       0.72537196       0.17780901       0.17742913 </v>
    <v>       0.74047681       0.49124189       0.82913037 </v>
    <v>       0.48756136       0.66283162       0.65306873 </v>
    <v>       0.48183059       0.33121279       0.66036827 </v>
    <v>       0.76536312       0.83755281       0.81338401 </v>
    <v>       0.26430593       0.50494626       0.17039632 </v>
    <v>       0.00521414       0.33705973       0.00341844 </v>
    <v>       0.97063107       0.66171125       0.01115221 </v>
    <v>       0.25821689       0.82657698       0.16879081 </v>
    <v>       0.46836826       0.00329811       0.66136731 </v>
    <v>       0.76369635       0.83896375       0.50370725 </v>
    <v>       0.23512972       0.49560513       0.47475038 </v>
    <v>       0.02678357       0.65295197       0.66455721 </v>
    <v>       0.25060913       0.82383154       0.85127244 </v>
    <v>       0.00509561       0.99022360       0.33221728 </v>
    <v>       0.49067609       0.98988770       0.34624481 </v>
    <v>       0.74070011       0.83187455       0.18556869 </v>
    <v>       0.23448073       0.16925127       0.48907755 </v>
    <v>       0.50555339       0.33885723       0.34821547 </v>
    <v>       0.26513579       0.50148097       0.84774244 </v>
    <v>       0.98491500       0.34094713       0.32369797 </v>
    <v>       0.01821248       0.33833292       0.66967282 </v>
    <v>       0.24250669       0.83429020       0.48444232 </v>
    <v>       0.47947718       0.33506232       0.98846171 </v>
    <v>       0.23767500       0.17212660       0.83233015 </v>
   </varray>
  </structure>
  <varray name="forces" >
   <v>       0.00002921      -0.00673646       0.00565554 </v>
   <v>       0.01614946       0.00307467      -0.00242470 </v>
   <v>       0.03574459       0.02789656       0.00927421 </v>
   <v>      -0.00460640      -0.00473456      -0.00693825 </v>
   <v>       0.00687799      -0.00608463      -0.00135263 </v>
   <v>      -0.00657106      -0.00718431       0.01163346 </v>
   <v>      -0.02571650       0.00528078      -0.00176906 </v>
   <v>       0.02411321       0.01147979      -0.03328087 </v>
   <v>       0.00801083       0.00595460      -0.00359008 </v>
   <v>      -0.00849249      -0.00735289       0.03152946 </v>
   <v>      -0.02986624       0.01536313      -0.00311459 </v>
   <v>       0.01629976      -0.00718984      -0.02305557 </v>
   <v>       0.00939216      -0.01476888      -0.00189485 </v>
   <v>       0.01543262       0.00185150      -0.00887538 </v>
   <v>      -0.01236476       0.02105708      -0.01598448 </v>
   <v>       0.00094071       0.01328294       0.00934649 </v>
   <v>       0.00166426       0.01097112       0.01329598 </v>
   <v>       0.02686628      -0.02579426      -0.02499900 </v>
   <v>      -0.02602305      -0.00627623       0.00444231 </v>
   <v>       0.00328856      -0.00522377       0.01109925 </v>
   <v>      -0.02836523      -0.01027523      -0.00709587 </v>
   <v>       0.00287460      -0.00393590       0.00088604 </v>
   <v>      -0.00318718      -0.00383120      -0.00148464 </v>
   <v>      -0.02706358       0.01613997      -0.02377430 </v>
   <v>       0.01109601      -0.02324759      -0.01149589 </v>
   <v>      -0.01357771      -0.00504026      -0.00476555 </v>
   <v>       0.01124919      -0.01578638       0.00867005 </v>
   <v>      -0.00088694      -0.00690938       0.00069319 </v>
   <v>      -0.00208525      -0.02260621       0.03552646 </v>
   <v>       0.01951571       0.01106993      -0.00742970 </v>
   <v>       0.00125793       0.01438723       0.01868787 </v>
   <v>      -0.01269864       0.01331647      -0.00432041 </v>
   <v>       0.01141520       0.00612517       0.00455952 </v>
   <v>      -0.00559661       0.00009709      -0.00254875 </v>
   <v>      -0.00756472       0.01050477       0.00454010 </v>
   <v>      -0.00755196      -0.00487481       0.02035463 </v>
  </varray>
  <varray name="stress" >
   <v>      -0.17959701       0.37528284       0.04705338 </v>
   <v>       0.37528286      -0.21592319      -0.09616784 </v>
   <v>       0.04705340      -0.09616787      -0.09432659 </v>
  </varray>
  <energy>
   <i name="e_fr_energy">   -354.93365655 </i>
   <i name="e_wo_entrp">   -354.93803819 </i>
   <i name="e_0_energy">      0.01314491 </i>
  </energy>
  <time name="totalsc">   10.29   11.27</time>
 </calculation>
 <calculation>
  <scstep>
   <time name="dav">    1.19    1.20</time>
   <time name="total">    1.28    1.48</time>
   <energy>
    <i name="alphaZ">   1700.62727745 </i>
    <i name="ewald"> -23219.89139887 </i>
    <i name="hartreedc">  -8528.49704010 </i>
    <i name="XCdc">    240.79365399 </i>
    <i name="pawpsdc">  38355.50223075 </i>
    <i name="pawaedc"> -36953.01431327 </i>
    <i name="eentropy">      0.01299068 </i>
    <i name="bandstr">  -3365.46531698 </i>
    <i name="atom">  31414.99671219 </i>
    <i name="e_fr_energy">   -354.93520417 </i>
    <i name="e_wo_entrp">   -354.94819485 </i>
    <i name="e_0_energy">   -354.93953439 </i>
   </energy>
  </scstep>
  <scstep>
   <time name="diag">    0.11    0.13</time>
   <time name="diis">    0.76    0.81</time>
   <time name="orth">    0.02    0.02</time>
   <time name="total">    0.95    1.08</time>
   <energy>
    <i name="e_fr_energy">   -354.93465812 </i>
    <i name="e_wo_entrp">   -354.94764909 </i>
    <i name="e_0_energy">   -354.93898845 </i>
   </energy>
  </scstep>
  <scstep>
   <time name="diag">    0.10    0.10</time>
   <time name="diis">    0.89    0.92</time>
   <time name="orth">    0.02    0.02</time>
   <time name="total">    1.08    1.15</time>
   <energy>
    <i name="e_fr_energy">   -354.93407837 </i>
    <i name="e_wo_entrp">   -354.94716445 </i>
    <i name="e_0_energy">   -354.93844039 </i>
   </energy>
  </scstep>
  <scstep>
   <time name="diag">    0.09    0.09</time>
   <time name="diis">    0.86    0.88</time>
   <time name="orth">    0.02    0.02</time>
   <time name="total">    1.06    1.13</time>
   <energy>
    <i name="e_fr_energy">   -354.93378155 </i>
    <i name="e_wo_entrp">   -354.94670118 </i>
    <i name="e_0_energy">   -354.93808810 </i>
[...]
    <v>       0.74089481       0.49039448       0.82906316 </v>
    <v>       0.48861576       0.66282091       0.65275493 </v>
    <v>       0.48139334       0.33168981       0.66019279 </v>
    <v>       0.76536713       0.83844391       0.81358328 </v>
    <v>       0.26420175       0.50510227       0.17054544 </v>
    <v>       0.00651296       0.33645614       0.00275420 </v>
    <v>       0.96958097       0.66179535       0.01129726 </v>
    <v>       0.25808127       0.82630225       0.16907116 </v>
    <v>       0.46778679       0.00306008       0.66135109 </v>
    <v>       0.76378619       0.83926380       0.50372291 </v>
    <v>       0.23522905       0.49543792       0.47460909 </v>
    <v>       0.02557497       0.65317197       0.66373045 </v>
    <v>       0.25120527       0.82214996       0.85088595 </v>
    <v>       0.00451389       0.98987596       0.33207625 </v>
    <v>       0.49100092       0.98960124       0.34619175 </v>
    <v>       0.74043618       0.83213164       0.18548519 </v>
    <v>       0.23444412       0.16893582       0.48951637 </v>
    <v>       0.50643621       0.33902456       0.34784568 </v>
    <v>       0.26505457       0.50267260       0.84804431 </v>
    <v>       0.98436441       0.34133026       0.32370018 </v>
    <v>       0.01868191       0.33841505       0.67024253 </v>
    <v>       0.24217410       0.83426785       0.48449208 </v>
    <v>       0.47897366       0.33510467       0.98885763 </v>
    <v>       0.23834145       0.17232596       0.83245424 </v>
   </varray>
  </structure>
  <varray name="forces" >
   <v>       0.00156095       0.00163399      -0.00080293 </v>
   <v>       0.00328982      -0.00101995       0.00380054 </v>
   <v>      -0.00746369      -0.00519061       0.00496041 </v>
   <v>       0.00201865       0.00038299       0.00361636 </v>
   <v>      -0.00164221      -0.00344953      -0.00225288 </v>
   <v>      -0.00066000      -0.00064666       0.00367470 </v>
   <v>      -0.00163215       0.00126068       0.00336540 </v>
   <v>       0.00821383      -0.00380307      -0.00331099 </v>
   <v>       0.00173833      -0.00130916       0.00130503 </v>
   <v>      -0.00314549      -0.00174166       0.00154983 </v>
   <v>      -0.00704781       0.00015032       0.00082134 </v>
   <v>       0.00273843      -0.00150425      -0.00308907 </v>
   <v>      -0.00293527      -0.00325790       0.00249351 </v>
   <v>       0.00517833      -0.00239330      -0.00342970 </v>
   <v>       0.00223898      -0.00010921       0.00210600 </v>
   <v>      -0.00395227       0.00907267      -0.00442255 </v>
   <v>      -0.00306493       0.00061723      -0.00146265 </v>
   <v>       0.00437082       0.00034221       0.00169961 </v>
   <v>      -0.00295026       0.00050714       0.00133369 </v>
   <v>      -0.00237186      -0.00188029       0.00030717 </v>
   <v>       0.00440015      -0.00084393       0.00295425 </v>
   <v>      -0.00131146       0.00687345      -0.00084542 </v>
   <v>       0.00227291       0.00179833       0.00055282 </v>
   <v>      -0.00509281      -0.00495472      -0.00227585 </v>
   <v>       0.00587563      -0.01279720      -0.00505877 </v>
   <v>       0.00183600      -0.00159638       0.00067429 </v>
   <v>      -0.00107996       0.00107929      -0.00262746 </v>
   <v>      -0.00152367       0.00656752      -0.00155315 </v>
   <v>      -0.00145723       0.00396966      -0.00433919 </v>
   <v>       0.00243244      -0.00268310      -0.00132449 </v>
   <v>      -0.00070795       0.00515886      -0.00166838 </v>
   <v>       0.00233909       0.00182829       0.00141663 </v>
   <v>      -0.00286962       0.00233897       0.00119414 </v>
   <v>      -0.00070622       0.00192535       0.00074400 </v>
   <v>      -0.00004377      -0.00255048       0.00142932 </v>
   <v>       0.00115426       0.00622447      -0.00153555 </v>
  </varray>
  <varray name="stress" >
   <v>       0.15607796      -0.16632784      -0.04407205 </v>
   <v>      -0.16632784       0.06636472      -0.04330965 </v>
   <v>      -0.04407205      -0.04330960       0.12997668 </v>
  </varray>
  <energy>
   <i name="e_fr_energy">   -354.93728672 </i>
   <i name="e_wo_entrp">   -354.94142908 </i>
   <i name="e_0_energy">      0.01242708 </i>
  </energy>
  <time name="totalsc">    2.96    3.34</time>
 </calculation>
 <calculation>
  <scstep>
   <time name="dav">    0.79    0.80</time>
   <time name="total">    0.87    1.11</time>
   <energy>
    <i name="alphaZ">   1699.10674750 </i>
    <i name="ewald"> -23223.88954150 </i>
    <i name="hartreedc">  -8515.23975212 </i>
    <i name="XCdc">    240.45960390 </i>
    <i name="pawpsdc">  38347.85359171 </i>
    <i name="pawaedc"> -36945.31402894 </i>
    <i name="eentropy">      0.01242702 </i>
    <i name="bandstr">  -3372.92304648 </i>
    <i name="atom">  31414.99671219 </i>
    <i name="e_fr_energy">   -354.93728672 </i>
    <i name="e_wo_entrp">   -354.94971374 </i>
    <i name="e_0_energy">   -354.94142906 </i>
   </energy>
  </scstep>
  <scstep>
   <time name="diag">    0.09    0.09</time>
   <time name="diis">    0.25    0.26</time>
   <time name="orth">    0.02    0.02</time>
   <time name="total">    0.40    0.45</time>
   <energy>
    <i name="alphaZ">   1699.10674750 </i>
    <i name="ewald"> -23223.88954150 </i>
    <i name="hartreedc">  -8515.23960638 </i>
    <i name="XCdc">    240.45959681 </i>
    <i name="pawpsdc">  38347.85453396 </i>
    <i name="pawaedc"> -36945.31518823 </i>
    <i name="eentropy">      0.01242705 </i>
    <i name="bandstr">  -3372.92296811 </i>
    <i name="atom">  31414.99671219 </i>
    <i name="e_fr_energy">   -354.93728671 </i>
    <i name="e_wo_entrp">   -354.94971376 </i>
    <i name="e_0_energy">   -354.94142906 </i>
   </energy>
  </scstep>
  <structure>
   <crystal>
    <varray name="basis" >
     <v>       6.98541181       0.02107622      -0.00167812 </v>
     <v>       0.03095205      10.21908001       0.01809478 </v>
     <v>      -0.00252448       0.01738170      10.24459244 </v>
    </varray>
    <i name="volume">    731.29600074 </i>
    <varray name="rec_basis" >
     <v>       0.14315680      -0.00043366       0.00003601 </v>
     <v>      -0.00029529       0.09785736      -0.00016610 </v>
     <v>       0.00002397      -0.00017291       0.09761277 </v>
    </varray>
   </crystal>
   <varray name="positions" >
    <v>       0.72960436       0.49655908       0.17608716 </v>
    <v>       0.53205627       0.66760012       0.01076113 </v>
    <v>       0.04264070       0.00571182       0.66248061 </v>
    <v>       0.51663324       0.66921948       0.33910378 </v>
    <v>       0.76449072       0.49774339       0.48943037 </v>
    <v>       0.98167793       0.66852876       0.32629840 </v>
    <v>       0.25823740       0.16803840       0.17922899 </v>
    <v>       0.98591056       0.00569834       0.00869755 </v>
    <v>       0.76360305       0.16339203       0.50190643 </v>
    <v>       0.76126603       0.17164726       0.82109453 </v>
    <v>       0.51504493       0.99850162       0.99592638 </v>
    <v>       0.72618913       0.17758925       0.17651177 </v>
    <v>       0.74089481       0.49039448       0.82906316 </v>
    <v>       0.48861576       0.66282091       0.65275492 </v>
    <v>       0.48139334       0.33168981       0.66019279 </v>
    <v>       0.76536713       0.83844391       0.81358328 </v>
    <v>       0.26420175       0.50510227       0.17054544 </v>
    <v>       0.00651296       0.33645614       0.00275420 </v>
    <v>       0.96958097       0.66179535       0.01129726 </v>
    <v>       0.25808127       0.82630225       0.16907116 </v>
    <v>       0.46778679       0.00306009       0.66135109 </v>
    <v>       0.76378619       0.83926380       0.50372291 </v>
    <v>       0.23522905       0.49543792       0.47460909 </v>
    <v>       0.02557497       0.65317197       0.66373045 </v>
    <v>       0.25120527       0.82214996       0.85088595 </v>
    <v>       0.00451389       0.98987596       0.33207625 </v>
    <v>       0.49100092       0.98960124       0.34619175 </v>
    <v>       0.74043618       0.83213164       0.18548519 </v>
    <v>       0.23444412       0.16893582       0.48951637 </v>
    <v>       0.50643621       0.33902456       0.34784567 </v>
    <v>       0.26505457       0.50267260       0.84804431 </v>
    <v>       0.98436441       0.34133026       0.32370018 </v>
    <v>       0.01868191       0.33841505       0.67024253 </v>
    <v>       0.24217410       0.83426785       0.48449208 </v>
    <v>       0.47897366       0.33510467       0.98885763 </v>
    <v>       0.23834145       0.17232596       0.83245424 </v>
   </varray>
  </structure>
  <varray name="forces" >
   <v>       0.00155969       0.00162750      -0.00079901 </v>
   <v>       0.00329062      -0.00102099       0.00380176 </v>
   <v>      -0.00745561      -0.00519093       0.00495992 </v>
   <v>       0.00201579       0.00038108       0.00361665 </v>
   <v>      -0.00164512      -0.00345304      -0.00225224 </v>
   <v>      -0.00066371      -0.00064693       0.00367862 </v>
   <v>      -0.00163137       0.00126039       0.00337326 </v>
   <v>       0.00823110      -0.00381617      -0.00333660 </v>
   <v>       0.00174035      -0.00131136       0.00131515 </v>
   <v>      -0.00314912      -0.00174224       0.00155621 </v>
   <v>      -0.00706879       0.00014804       0.00081524 </v>
   <v>       0.00274810      -0.00151103      -0.00309686 </v>
   <v>      -0.00293732      -0.00326613       0.00251078 </v>
   <v>       0.00518991      -0.00239871      -0.00343262 </v>
   <v>       0.00223689      -0.00010933       0.00210660 </v>
   <v>      -0.00395505       0.00906691      -0.00442121 </v>
   <v>      -0.00306695       0.00061447      -0.00146196 </v>
   <v>       0.00436789       0.00033638       0.00169930 </v>
   <v>      -0.00295479       0.00051033       0.00133314 </v>
   <v>      -0.00237203      -0.00188683       0.00031038 </v>
   <v>       0.00439199      -0.00084060       0.00295208 </v>
   <v>      -0.00131212       0.00687216      -0.00084784 </v>
   <v>       0.00227715       0.00179324       0.00055216 </v>
   <v>      -0.00509707      -0.00495810      -0.00227940 </v>
   <v>       0.00587884      -0.01281279      -0.00505616 </v>
   <v>       0.00184826      -0.00158905       0.00066594 </v>
   <v>      -0.00109039       0.00109838      -0.00263586 </v>
   <v>      -0.00152491       0.00659453      -0.00156618 </v>
   <v>      -0.00147262       0.00395628      -0.00432048 </v>
   <v>       0.00241806      -0.00268698      -0.00135179 </v>
   <v>      -0.00070741       0.00519951      -0.00167288 </v>
   <v>       0.00233915       0.00182331       0.00142376 </v>
   <v>      -0.00286479       0.00236614       0.00121001 </v>
   <v>      -0.00069535       0.00190796       0.00077620 </v>
   <v>      -0.00004273      -0.00255077       0.00143942 </v>
   <v>       0.00117346       0.00623538      -0.00156547 </v>
  </varray>
  <varray name="stress" >
   <v>       0.15544160      -0.16618518      -0.04401593 </v>
   <v>      -0.16618520       0.06591267      -0.04326268 </v>
   <v>      -0.04401596      -0.04326267       0.12938594 </v>
  </varray>
  <energy>
   <i name="e_fr_energy">   -354.93728671 </i>
   <i name="e_wo_entrp">   -354.94142906 </i>
   <i name="e_0_energy">      0.01242705 </i>
  </energy>
  <time name="totalsc">    2.99    3.48</time>
 </calculation>
 <calculation>
  <scstep>
   <time name="dav">    1.21    1.23</time>
   <time name="total">    1.30    1.50</time>
   <energy>
    <i name="alphaZ">   1699.77520575 </i>
    <i name="ewald"> -23227.27344126 </i>
    <i name="hartreedc">  -8516.03358430 </i>
    <i name="XCdc">    240.60268131 </i>
    <i name="pawpsdc">  38347.85474394 </i>
    <i name="pawaedc"> -36945.31547834 </i>
    <i name="eentropy">      0.01250794 </i>
    <i name="bandstr">  -3369.55687731 </i>
    <i name="atom">  31414.99671219 </i>
    <i name="e_fr_energy">   -354.93753006 </i>
    <i name="e_wo_entrp">   -354.95003801 </i>
    <i name="e_0_energy">   -354.94169938 </i>
   </energy>
  </scstep>
  <scstep>
   <time name="diag">    0.09    0.09</time>
   <time name="diis">    0.82    0.83</time>
   <time name="orth">    0.02    0.02</time>
   <time name="total">    0.99    1.03</time>
   <energy>
    <i name="e_fr_energy">   -354.93737624 </i>
    <i name="e_wo_entrp">   -354.94980480 </i>
    <i name="e_0_energy">   -354.94151909 </i>
   </energy>
  </scstep>
  <scstep>
   <time name="diag">    0.09    0.09</time>
   <time name="diis">    0.91    0.93</time>
   <time name="orth">    0.01    0.02</time>
   <time name="total">    1.09    1.14</time>
   <energy>
    <i name="e_fr_energy">   -354.93720348 </i>
    <i name="e_wo_entrp">   -354.94971009 </i>
    <i name="e_0_energy">   -354.94137235 </i>
   </energy>
  </scstep>
  <scstep>
   <time name="diag">    0.09    0.09</time>
   <time name="diis">    0.83    0.83</time>
   <time name="orth">    0.02    0.02</time>
   <time name="total">    1.00    1.06</time>
   <energy>
    <i name="e_fr_energy">   -354.93707128 </i>
    <i name="e_wo_entrp">   -354.94947679 </i>
    <i name="e_0_energy">   -354.94120645 </i>
   </energy>
  </scstep>
  <scstep>
   <time name="diag">    0.09    0.09</time>
   <time name="diis">    0.72    0.73</time>
   <time name="orth">    0.02    0.02</time>
   <time name="total">    0.89    0.94</time>
   <energy>
    <i name="e_fr_energy">   -354.93705522 </i>
    <i name="e_wo_entrp">   -354.94951709 </i>
    <i name="e_0_energy">   -354.94120918 </i>
   </energy>
  </scstep>
  <scstep>
   <time name="diag">    0.09    0.09</time>
   <time name="diis">    0.47    0.48</time>
   <time name="orth">    0.02    0.02</time>
   <time name="total">    0.61    0.66</time>
   <energy>
    <i name="alphaZ">   1699.77520575 </i>
    <i name="ewald"> -23227.27344126 </i>
    <i name="hartreedc">  -8513.87684418 </i>
    <i name="XCdc">    240.50469296 </i>
    <i name="pawpsdc">  38367.81277466 </i>
    <i name="pawaedc"> -36965.32207908 </i>
    <i name="eentropy">      0.01244116 </i>
    <i name="bandstr">  -3371.56652138 </i>
    <i name="atom">  31414.99671219 </i>
    <i name="e_fr_energy">   -354.93705918 </i>
    <i name="e_wo_entrp">   -354.94950034 </i>
    <i name="e_0_energy">   -354.94120623 </i>
   </energy>
  </scstep>
  <structure>
   <crystal>
    <varray name="basis" >
     <v>       6.98480460       0.01907334      -0.00232141 </v>
     <v>       0.02802184      10.21761990       0.01723158 </v>
     <v>      -0.00347048       0.01652045      10.24289812 </v>
    </varray>
    <i name="volume">    731.00840928 </i>
    <varray name="rec_basis" >
     <v>       0.14316902      -0.00039272       0.00004914 </v>
     <v>      -0.00026731       0.09787115      -0.00015794 </v>
     <v>       0.00003290      -0.00016474       0.09762890 </v>
    </varray>
   </crystal>
   <varray name="positions" >
    <v>       0.72960579       0.49659768       0.17606189 </v>
    <v>       0.53202755       0.66757310       0.01073701 </v>
    <v>       0.04247925       0.00568165       0.66246969 </v>
    <v>       0.51665987       0.66918411       0.33910734 </v>
    <v>       0.76452632       0.49774941       0.48943116 </v>
    <v>       0.98173592       0.66849485       0.32626600 </v>
    <v>       0.25818608       0.16804718       0.17913621 </v>
    <v>       0.98576904       0.00574604       0.00879845 </v>
    <v>       0.76357478       0.16340056       0.50189971 </v>
    <v>       0.76131120       0.17163420       0.82103871 </v>
    <v>       0.51521370       0.99847771       0.99592747 </v>
    <v>       0.72612945       0.17763267       0.17653647 </v>
    <v>       0.74087341       0.49044678       0.82895949 </v>
    <v>       0.48849955       0.66281601       0.65280347 </v>
    <v>       0.48138727       0.33173949       0.66021016 </v>
    <v>       0.76540431       0.83843222       0.81355001 </v>
    <v>       0.26420381       0.50507790       0.17052561 </v>
    <v>       0.00654957       0.33645600       0.00278041 </v>
    <v>       0.96966440       0.66170274       0.01135386 </v>
    <v>       0.25806058       0.82637471       0.16906033 </v>
    <v>       0.46797656       0.00297998       0.66137057 </v>
    <v>       0.76379270       0.83922476       0.50373822 </v>
    <v>       0.23511870       0.49546337       0.47462352 </v>
    <v>       0.02570287       0.65317467       0.66377747 </v>
    <v>       0.25110903       0.82236757       0.85087383 </v>
    <v>       0.00445914       0.98985165       0.33210115 </v>
    <v>       0.49106947       0.98953362       0.34622187 </v>
    <v>       0.74044424       0.83208059       0.18550008 </v>
    <v>       0.23450884       0.16898028       0.48946717 </v>
    <v>       0.50646874       0.33905399       0.34792458 </v>
    <v>       0.26505520       0.50261243       0.84805075 </v>
    <v>       0.98435145       0.34135217       0.32369036 </v>
    <v>       0.01868450       0.33836309       0.67021362 </v>
    <v>       0.24214617       0.83427955       0.48444825 </v>
    <v>       0.47896284       0.33510790       0.98883799 </v>
    <v>       0.23829371       0.17231338       0.83250213 </v>
   </varray>
  </structure>
  <varray name="forces" >
   <v>       0.00009053      -0.00400042       0.00147782 </v>
   <v>       0.00083137       0.00280145       0.00137008 </v>
   <v>       0.00770142       0.00133499       0.00049743 </v>
   <v>      -0.00238059       0.00343037       0.00038886 </v>
   <v>      -0.00308372      -0.00100899       0.00131406 </v>
   <v>      -0.00199581       0.00316399       0.00311160 </v>
   <v>       0.00199051      -0.00121958       0.00842242 </v>
   <v>       0.00812628      -0.00469066      -0.00715368 </v>
   <v>       0.00129740      -0.00155349       0.00190360 </v>
   <v>      -0.00385041      -0.00008126       0.00412759 </v>
   <v>      -0.00838908       0.00188744      -0.00044982 </v>
   <v>       0.00348323      -0.00450252      -0.00199144 </v>
   <v>       0.00058569      -0.00372008       0.00911369 </v>
   <v>       0.00666599       0.00082046      -0.00420779 </v>
   <v>       0.00087437      -0.00482656      -0.00119727 </v>
   <v>      -0.00276124       0.00110254       0.00224793 </v>
   <v>      -0.00082059       0.00151475       0.00103996 </v>
   <v>      -0.00284313      -0.00003738      -0.00166207 </v>
   <v>      -0.00416377       0.00843813      -0.00495474 </v>
   <v>       0.00104969      -0.00479153      -0.00003910 </v>
   <v>      -0.00923660       0.00640072      -0.00133102 </v>
   <v>      -0.00118447       0.00299835      -0.00052874 </v>
   <v>       0.00714505      -0.00138905       0.00042387 </v>
   <v>      -0.00743457      -0.00007689      -0.00377294 </v>
   <v>       0.00621534      -0.01899423       0.00119349 </v>
   <v>       0.00342514       0.00318000      -0.00262164 </v>
   <v>      -0.00345376       0.00645046      -0.00230805 </v>
   <v>       0.00093409       0.00550826      -0.00306049 </v>
   <v>      -0.00328871      -0.00316815       0.00208431 </v>
   <v>      -0.00353649      -0.00302854      -0.00706511 </v>
   <v>      -0.00093804       0.00668037      -0.00091611 </v>
   <v>       0.00202817      -0.00219071       0.00030915 </v>
   <v>      -0.00108484       0.00411105       0.00120978 </v>
   <v>       0.00243049      -0.00088189       0.00538657 </v>
   <v>       0.00071039      -0.00126408       0.00134992 </v>
   <v>       0.00486067       0.00160269      -0.00371215 </v>
  </varray>
  <varray name="stress" >
   <v>       0.56550765       0.05950257       0.01425260 </v>
   <v>       0.05950261       0.57875236       0.02098724 </v>
   <v>       0.01425265       0.02098720       0.59991997 </v>
  </varray>
  <energy>
   <i name="e_fr_energy">   -354.93705918 </i>
   <i name="e_wo_entrp">   -354.94120623 </i>
   <i name="e_0_energy">      0.01244116 </i>
  </energy>
