       N       E                     dE             d eps       ncg     rms          rms(c)
DAV:   1     0.213367785505E+04    0.21337E+04   -0.12069E+05  5776   0.108E+03
DAV:   2    -0.612307321582E+02   -0.21949E+04   -0.21253E+04  5956   0.406E+02
DAV:   3    -0.337829523411E+03   -0.27660E+03   -0.26313E+03  8896   0.998E+01
DAV:   4    -0.371310740938E+03   -0.33481E+02   -0.31871E+02  8936   0.320E+01
DAV:   5    -0.374713721988E+03   -0.34030E+01   -0.33245E+01  8408   0.101E+01    0.626E+01
RMM:   6    -0.364098394377E+03    0.10615E+02   -0.26482E+01  7312   0.105E+01    0.293E+01
RMM:   7    -0.364295771655E+03   -0.19738E+00   -0.24364E+01  7678   0.834E+00    0.106E+01
RMM:   8    -0.360006098217E+03    0.42897E+01   -0.57768E+00  7953   0.359E+00    0.437E+00
RMM:   9    -0.359839202630E+03    0.16690E+00   -0.21374E+00  7904   0.182E+00    0.313E+00
RMM:  10    -0.359753329231E+03    0.85873E-01   -0.42964E-01  7842   0.129E+00    0.131E+00
RMM:  11    -0.359734124833E+03    0.19204E-01   -0.13775E-01  7925   0.597E-01    0.651E-01
RMM:  12    -0.359731832447E+03    0.22924E-02   -0.46539E-02  8022   0.303E-01    0.384E-01
RMM:  13    -0.359731144943E+03    0.68750E-03   -0.17822E-02  8041   0.164E-01    0.246E-01
RMM:  14    -0.359731503524E+03   -0.35858E-03   -0.87741E-03  8107   0.984E-02    0.137E-01
RMM:  15    -0.359731597860E+03   -0.94336E-04   -0.35498E-03  8026   0.682E-02    0.535E-02
RMM:  16    -0.359731685600E+03   -0.87740E-04   -0.16132E-03  6789   0.372E-02    0.249E-02
RMM:  17    -0.359731736108E+03   -0.50507E-04   -0.72316E-04  6088   0.256E-02    0.153E-02
RMM:  18    -0.359731756926E+03   -0.20818E-04   -0.32479E-04  5913   0.185E-02    0.879E-03
RMM:  19    -0.359731766824E+03   -0.98987E-05   -0.14752E-04  5046   0.137E-02    0.506E-03
RMM:  20    -0.359731770307E+03   -0.34827E-05   -0.71071E-05  4647   0.112E-02
   1 F= -.35973177E+03 E0= -.35973699E+03  d E =-.359732E+03
       N       E                     dE             d eps       ncg     rms          rms(c)
DAV:   1    -0.359835502255E+03   -0.10374E+00   -0.33873E+00  6648   0.611E+00    0.225E+00
RMM:   2    -0.359812808725E+03    0.22694E-01   -0.41234E-01  7820   0.163E+00    0.888E-01
RMM:   3    -0.359786766880E+03    0.26042E-01   -0.85657E-02  8074   0.478E-01    0.614E-01
RMM:   4    -0.359777001367E+03    0.97655E-02   -0.26367E-02  8037   0.330E-01    0.318E-01
RMM:   5    -0.359775544613E+03    0.14568E-02   -0.68839E-03  7996   0.177E-01    0.237E-01
RMM:   6    -0.359775848174E+03   -0.30356E-03   -0.29589E-03  8459   0.859E-02    0.169E-01
RMM:   7    -0.359775976849E+03   -0.12868E-03   -0.12799E-03  8390   0.619E-02    0.866E-02
RMM:   8    -0.359776085064E+03   -0.10822E-03   -0.76938E-04  7502   0.407E-02    0.568E-02
RMM:   9    -0.359776186270E+03   -0.10121E-03   -0.29230E-04  6727   0.294E-02    0.402E-02
RMM:  10    -0.359776267018E+03   -0.80749E-04   -0.18508E-04  6376   0.217E-02    0.216E-02
RMM:  11    -0.359776298845E+03   -0.31827E-04   -0.96976E-05  4950   0.171E-02    0.972E-03
RMM:  12    -0.359776305221E+03   -0.63761E-05   -0.37053E-05  4304   0.137E-02
   2 F= -.35977631E+03 E0= -.35978142E+03  d E =-.445349E-01
       N       E                     dE             d eps       ncg     rms          rms(c)
DAV:   1    -0.360020736904E+03   -0.24444E+00   -0.12139E+01  6312   0.116E+01    0.433E+00
RMM:   2    -0.359934517248E+03    0.86220E-01   -0.14523E+00  7799   0.309E+00    0.166E+00
RMM:   3    -0.359846798415E+03    0.87719E-01   -0.30555E-01  8057   0.903E-01    0.117E+00
RMM:   4    -0.359810453553E+03    0.36345E-01   -0.92565E-02  8032   0.628E-01    0.603E-01
RMM:   5    -0.359805668240E+03    0.47853E-02   -0.25280E-02  7997   0.334E-01    0.455E-01
RMM:   6    -0.359806774482E+03   -0.11062E-02   -0.10768E-02  8577   0.165E-01    0.319E-01
RMM:   7    -0.359807118725E+03   -0.34424E-03   -0.47723E-03  9049   0.118E-01    0.166E-01
RMM:   8    -0.359807476111E+03   -0.35739E-03   -0.26624E-03  8858   0.759E-02    0.111E-01
RMM:   9    -0.359807811028E+03   -0.33492E-03   -0.10060E-03  8236   0.533E-02    0.776E-02
RMM:  10    -0.359808061518E+03   -0.25049E-03   -0.65410E-04  7765   0.371E-02    0.414E-02
RMM:  11    -0.359808145811E+03   -0.84293E-04   -0.32299E-04  6405   0.277E-02    0.187E-02
RMM:  12    -0.359808161093E+03   -0.15282E-04   -0.11800E-04  5914   0.191E-02    0.118E-02
RMM:  13    -0.359808165676E+03   -0.45831E-05   -0.36267E-05  4839   0.134E-02
   3 F= -.35980817E+03 E0= -.35981302E+03  d E =-.763954E-01
       N       E                     dE             d eps       ncg     rms          rms(c)
DAV:   1    -0.359839709321E+03   -0.31548E-01   -0.28155E+00  5376   0.443E+00    0.646E-01
RMM:   2    -0.359847118003E+03   -0.74087E-02   -0.12524E-01  7440   0.910E-01    0.330E-01
RMM:   3    -0.359844205911E+03    0.29121E-02   -0.15365E-02  7817   0.258E-01    0.235E-01
RMM:   4    -0.359843553006E+03    0.65291E-03   -0.33268E-03  7903   0.934E-02    0.148E-01
RMM:   5    -0.359843419776E+03    0.13323E-03   -0.15958E-03  8039   0.665E-02    0.928E-02
RMM:   6    -0.359843357302E+03    0.62474E-04   -0.65933E-04  8067   0.449E-02    0.511E-02
RMM:   7    -0.359843351272E+03    0.60298E-05   -0.27060E-04  7105   0.233E-02    0.328E-02
RMM:   8    -0.359843346202E+03    0.50700E-05   -0.94722E-05  5472   0.158E-02
   4 F= -.35984335E+03 E0= -.35984814E+03  d E =-.351805E-01
       N       E                     dE             d eps       ncg     rms          rms(c)
DAV:   1    -0.359869970026E+03   -0.26619E-01   -0.25355E+01  5264   0.133E+01    0.193E+00
RMM:   2    -0.359934993024E+03   -0.65023E-01   -0.11360E+00  7342   0.275E+00    0.940E-01
RMM:   3    -0.359914207984E+03    0.20785E-01   -0.14133E-01  7896   0.798E-01    0.711E-01
RMM:   4    -0.359908020293E+03    0.61877E-02   -0.29638E-02  7975   0.281E-01    0.443E-01
RMM:   5    -0.359907095812E+03    0.92448E-03   -0.14566E-02  8018   0.201E-01    0.283E-01
RMM:   6    -0.359906565047E+03    0.53076E-03   -0.60396E-03  8093   0.137E-01    0.157E-01
RMM:   7    -0.359906576541E+03   -0.11494E-04   -0.25233E-03  8834   0.712E-02    0.101E-01
RMM:   8    -0.359906598548E+03   -0.22006E-04   -0.10382E-03  8066   0.407E-02    0.669E-02
RMM:   9    -0.359906615641E+03   -0.17093E-04   -0.44892E-04  7026   0.308E-02    0.386E-02
RMM:  10    -0.359906622528E+03   -0.68870E-05   -0.22000E-04  6747   0.227E-02    0.227E-02
RMM:  11    -0.359906620962E+03    0.15661E-05   -0.98816E-05  5530   0.165E-02
   5 F= -.35990662E+03 E0= -.35991113E+03  d E =-.984553E-01
       N       E                     dE             d eps       ncg     rms          rms(c)
DAV:   1    -0.359906473314E+03    0.14921E-03   -0.62654E+00  5272   0.661E+00    0.962E-01
RMM:   2    -0.359921854740E+03   -0.15381E-01   -0.27516E-01  7370   0.136E+00    0.464E-01
RMM:   3    -0.359916569805E+03    0.52849E-02   -0.33577E-02  7815   0.385E-01    0.348E-01
RMM:   4    -0.359915097979E+03    0.14718E-02   -0.72188E-03  7945   0.138E-01    0.216E-01
RMM:   5    -0.359914882464E+03    0.21552E-03   -0.35989E-03  8028   0.987E-02    0.138E-01
RMM:   6    -0.359914757156E+03    0.12531E-03   -0.14761E-03  8109   0.668E-02    0.772E-02
RMM:   7    -0.359914757755E+03   -0.59926E-06   -0.61879E-04  7673   0.350E-02    0.499E-02
RMM:   8    -0.359914756568E+03    0.11871E-05   -0.22472E-04  6391   0.218E-02    0.316E-02
RMM:   9    -0.359914758057E+03   -0.14893E-05   -0.12880E-04  5804   0.183E-02    0.179E-02
RMM:  10    -0.359914756281E+03    0.17762E-05   -0.54074E-05  5135   0.141E-02
   6 F= -.35991476E+03 E0= -.35991904E+03  d E =-.106591E+00
       N       E                     dE             d eps       ncg     rms          rms(c)
DAV:   1    -0.359929231130E+03   -0.14473E-01   -0.89427E-01  6040   0.300E+00    0.862E-01
RMM:   2    -0.359927083634E+03    0.21475E-02   -0.72996E-02  7401   0.730E-01    0.308E-01
RMM:   3    -0.359924829144E+03    0.22545E-02   -0.12995E-02  8015   0.222E-01    0.237E-01
RMM:   4    -0.359923283736E+03    0.15454E-02   -0.39081E-03  8020   0.125E-01    0.117E-01
RMM:   5    -0.359923121830E+03    0.16191E-03   -0.11859E-03  7968   0.685E-02    0.883E-02
RMM:   6    -0.359923145583E+03   -0.23753E-04   -0.53211E-04  7813   0.369E-02    0.558E-02
RMM:   7    -0.359923131676E+03    0.13907E-04   -0.20247E-04  6696   0.255E-02    0.310E-02
RMM:   8    -0.359923134416E+03   -0.27395E-05   -0.10842E-04  5456   0.183E-02    0.216E-02
RMM:   9    -0.359923136377E+03   -0.19617E-05   -0.55659E-05  4722   0.148E-02
   7 F= -.35992314E+03 E0= -.35992761E+03  d E =-.838010E-02
       N       E                     dE             d eps       ncg     rms          rms(c)
DAV:   1    -0.359942474806E+03   -0.19340E-01   -0.21612E+00  5792   0.466E+00    0.133E+00
RMM:   2    -0.359937131783E+03    0.53430E-02   -0.17632E-01  7424   0.113E+00    0.479E-01
RMM:   3    -0.359931630280E+03    0.55015E-02   -0.31433E-02  8025   0.346E-01    0.369E-01
RMM:   4    -0.359927938539E+03    0.36917E-02   -0.95511E-03  8040   0.195E-01    0.183E-01
RMM:   5    -0.359927555475E+03    0.38306E-03   -0.29116E-03  7998   0.107E-01    0.138E-01
RMM:   6    -0.359927639618E+03   -0.84143E-04   -0.13241E-03  8576   0.575E-02    0.873E-02
RMM:   7    -0.359927627248E+03    0.12370E-04   -0.52799E-04  7677   0.391E-02    0.488E-02
RMM:   8    -0.359927643926E+03   -0.16677E-04   -0.26194E-04  6604   0.253E-02    0.347E-02
RMM:   9    -0.359927657420E+03   -0.13495E-04   -0.12520E-04  5626   0.207E-02    0.261E-02
RMM:  10    -0.359927661929E+03   -0.45083E-05   -0.69037E-05  5011   0.155E-02
   8 F= -.35992766E+03 E0= -.35993244E+03  d E =-.129056E-01
       N       E                     dE             d eps       ncg     rms          rms(c)
DAV:   1    -0.359934535670E+03   -0.68782E-02   -0.55377E-01  5592   0.224E+00    0.472E-01
RMM:   2    -0.359935031966E+03   -0.49630E-03   -0.36030E-02  7338   0.510E-01    0.208E-01
RMM:   3    -0.359933757675E+03    0.12743E-02   -0.53294E-03  7817   0.160E-01    0.148E-01
RMM:   4    -0.359933295270E+03    0.46240E-03   -0.15610E-03  8043   0.710E-02    0.801E-02
RMM:   5    -0.359933245350E+03    0.49920E-04   -0.51579E-04  7976   0.436E-02    0.569E-02
RMM:   6    -0.359933257603E+03   -0.12252E-04   -0.23217E-04  7082   0.241E-02    0.383E-02
RMM:   7    -0.359933265575E+03   -0.79725E-05   -0.97552E-05  5951   0.169E-02
   9 F= -.35993327E+03 E0= -.35993818E+03  d E =-.560365E-02
       N       E                     dE             d eps       ncg     rms          rms(c)
DAV:   1    -0.359951867891E+03   -0.18610E-01   -0.49701E+00  5432   0.670E+00    0.141E+00
RMM:   2    -0.359956549084E+03   -0.46812E-02   -0.31926E-01  7236   0.151E+00    0.614E-01
RMM:   3    -0.359944851005E+03    0.11698E-01   -0.45550E-02  7837   0.471E-01    0.430E-01
RMM:   4    -0.359940794888E+03    0.40561E-02   -0.13133E-02  8004   0.206E-01    0.235E-01
RMM:   5    -0.359940365524E+03    0.42936E-03   -0.43188E-03  8008   0.127E-01    0.170E-01
RMM:   6    -0.359940452816E+03   -0.87291E-04   -0.20251E-03  8369   0.701E-02    0.117E-01
RMM:   7    -0.359940492869E+03   -0.40053E-04   -0.89507E-04  8190   0.497E-02    0.615E-02
RMM:   8    -0.359940559222E+03   -0.66353E-04   -0.43705E-04  6998   0.306E-02    0.391E-02
RMM:   9    -0.359940598172E+03   -0.38950E-04   -0.21121E-04  6484   0.245E-02    0.281E-02
RMM:  10    -0.359940625973E+03   -0.27801E-04   -0.84363E-05  5458   0.157E-02    0.178E-02
RMM:  11    -0.359940646312E+03   -0.20340E-04   -0.47654E-05  4564   0.140E-02    0.794E-03
RMM:  12    -0.359940652060E+03   -0.57477E-05   -0.27636E-05  4401   0.129E-02
  10 F= -.35994065E+03 E0= -.35994601E+03  d E =-.129901E-01
       N       E                     dE             d eps       ncg     rms          rms(c)
DAV:   1    -0.359942616736E+03   -0.19704E-02   -0.17309E-01  5456   0.115E+00    0.102E-01
RMM:   2    -0.359943059465E+03   -0.44273E-03   -0.59718E-03  7170   0.224E-01    0.609E-02
RMM:   3    -0.359942968265E+03    0.91199E-04   -0.74433E-04  7524   0.617E-02    0.428E-02
RMM:   4    -0.359942956540E+03    0.11725E-04   -0.20870E-04  6858   0.204E-02    0.278E-02
RMM:   5    -0.359942952810E+03    0.37305E-05   -0.73617E-05  5583   0.132E-02
  11 F= -.35994295E+03 E0= -.35994837E+03  d E =-.230075E-02
       N       E                     dE             d eps       ncg     rms          rms(c)
DAV:   1    -0.359945298523E+03   -0.23420E-02   -0.15565E+00  5280   0.346E+00    0.307E-01
RMM:   2    -0.359949254476E+03   -0.39560E-02   -0.53575E-02  7247   0.672E-01    0.184E-01
RMM:   3    -0.359948479795E+03    0.77468E-03   -0.67984E-03  7749   0.183E-01    0.131E-01
RMM:   4    -0.359948362799E+03    0.11700E-03   -0.18048E-03  8902   0.595E-02    0.857E-02
RMM:   5    -0.359948321369E+03    0.41430E-04   -0.69252E-04  8162   0.428E-02    0.448E-02
RMM:   6    -0.359948325598E+03   -0.42296E-05   -0.29562E-04  7538   0.274E-02    0.232E-02
RMM:   7    -0.359948322021E+03    0.35771E-05   -0.87997E-05  5014   0.150E-02
  12 F= -.35994832E+03 E0= -.35995391E+03  d E =-.766996E-02
       N       E                     dE             d eps       ncg     rms          rms(c)
DAV:   1    -0.359940192119E+03    0.81335E-02   -0.62333E+00  5264   0.693E+00    0.612E-01
RMM:   2    -0.359955660606E+03   -0.15468E-01   -0.21364E-01  7216   0.135E+00    0.358E-01
RMM:   3    -0.359952843211E+03    0.28174E-02   -0.26881E-02  7754   0.368E-01    0.260E-01
RMM:   4    -0.359952345043E+03    0.49817E-03   -0.70529E-03  8933   0.118E-01    0.169E-01
RMM:   5    -0.359952175449E+03    0.16959E-03   -0.26897E-03  8452   0.853E-02    0.880E-02
RMM:   6    -0.359952190691E+03   -0.15243E-04   -0.11685E-03  8659   0.544E-02    0.458E-02
RMM:   7    -0.359952182064E+03    0.86268E-05   -0.40912E-04  7462   0.283E-02    0.265E-02
RMM:   8    -0.359952195144E+03   -0.13080E-04   -0.19569E-04  5849   0.201E-02    0.168E-02
RMM:   9    -0.359952203373E+03   -0.82284E-05   -0.88825E-05  5255   0.149E-02
  13 F= -.35995220E+03 E0= -.35995810E+03  d E =-.115513E-01
       N       E                     dE             d eps       ncg     rms          rms(c)
DAV:   1    -0.359963625214E+03   -0.11430E-01   -0.11068E+00  5964   0.331E+00    0.989E-01
RMM:   2    -0.359959576671E+03    0.40485E-02   -0.85402E-02  7438   0.780E-01    0.359E-01
RMM:   3    -0.359956419463E+03    0.31572E-02   -0.17397E-02  8040   0.245E-01    0.280E-01
RMM:   4    -0.359954251416E+03    0.21680E-02   -0.51458E-03  8024   0.148E-01    0.137E-01
RMM:   5    -0.359954064290E+03    0.18713E-03   -0.15989E-03  7983   0.777E-02    0.105E-01
RMM:   6    -0.359954080087E+03   -0.15797E-04   -0.67977E-04  8131   0.412E-02    0.681E-02
RMM:   7    -0.359954065831E+03    0.14255E-04   -0.27289E-04  6842   0.295E-02    0.347E-02
RMM:   8    -0.359954070723E+03   -0.48920E-05   -0.14957E-04  6080   0.204E-02    0.242E-02
RMM:   9    -0.359954074247E+03   -0.35236E-05   -0.69101E-05  5120   0.165E-02
  14 F= -.35995407E+03 E0= -.35996003E+03  d E =-.187087E-02
       N       E                     dE             d eps       ncg     rms          rms(c)
DAV:   1    -0.359954181390E+03   -0.11067E-03   -0.16575E-02  6200   0.407E-01    0.117E-01
RMM:   2    -0.359954130328E+03    0.51062E-04   -0.12472E-03  7141   0.949E-02    0.411E-02
RMM:   3    -0.359954080360E+03    0.49967E-04   -0.23677E-04  7268   0.299E-02    0.307E-02
RMM:   4    -0.359954051708E+03    0.28652E-04   -0.72722E-05  5281   0.190E-02    0.165E-02
RMM:   5    -0.359954047915E+03    0.37932E-05   -0.21613E-05  3236   0.133E-02
  15 F= -.35995405E+03 E0= -.35996001E+03  d E =-.184454E-02
       N       E                     dE             d eps       ncg     rms          rms(c)
DAV:   1    -0.359955346383E+03   -0.12947E-02   -0.75085E-01  5280   0.243E+00    0.291E-01
RMM:   2    -0.359956580207E+03   -0.12338E-02   -0.27936E-02  7771   0.478E-01    0.152E-01
RMM:   3    -0.359956332029E+03    0.24818E-03   -0.36834E-03  7817   0.122E-01    0.111E-01
RMM:   4    -0.359956143197E+03    0.18883E-03   -0.11322E-03  8061   0.553E-02    0.624E-02
RMM:   5    -0.359956112166E+03    0.31031E-04   -0.48892E-04  7908   0.387E-02    0.337E-02
RMM:   6    -0.359956114910E+03   -0.27433E-05   -0.16365E-04  6238   0.204E-02    0.205E-02
RMM:   7    -0.359956117451E+03   -0.25416E-05   -0.68357E-05  4875   0.148E-02
  16 F= -.35995612E+03 E0= -.35996205E+03  d E =-.206954E-02
       N       E                     dE             d eps       ncg     rms          rms(c)
DAV:   1    -0.359955718223E+03    0.39669E-03   -0.12014E+00  5264   0.307E+00    0.365E-01
RMM:   2    -0.359957708984E+03   -0.19908E-02   -0.44723E-02  7760   0.604E-01    0.188E-01
RMM:   3    -0.359957333291E+03    0.37569E-03   -0.58962E-03  7789   0.153E-01    0.136E-01
RMM:   4    -0.359957056455E+03    0.27684E-03   -0.18472E-03  8116   0.694E-02    0.770E-02
RMM:   5    -0.359957021659E+03    0.34796E-04   -0.80580E-04  8045   0.492E-02    0.428E-02
RMM:   6    -0.359957033033E+03   -0.11374E-04   -0.28803E-04  7037   0.265E-02    0.262E-02
RMM:   7    -0.359957040275E+03   -0.72417E-05   -0.12052E-04  5518   0.176E-02    0.172E-02
RMM:   8    -0.359957048937E+03   -0.86622E-05   -0.65580E-05  4932   0.142E-02
  17 F= -.35995705E+03 E0= -.35996294E+03  d E =-.300102E-02
       N       E                     dE             d eps       ncg     rms          rms(c)
DAV:   1    -0.359958472094E+03   -0.14318E-02   -0.15870E-01  5380   0.124E+00    0.298E-01
RMM:   2    -0.359958349873E+03    0.12222E-03   -0.11132E-02  7685   0.281E-01    0.124E-01
RMM:   3    -0.359957890392E+03    0.45948E-03   -0.17437E-03  7925   0.834E-02    0.911E-02
RMM:   4    -0.359957700048E+03    0.19034E-03   -0.54054E-04  7759   0.455E-02    0.491E-02
RMM:   5    -0.359957670409E+03    0.29639E-04   -0.18738E-04  7583   0.263E-02    0.351E-02
RMM:   6    -0.359957679414E+03   -0.90048E-05   -0.84032E-05  5797   0.155E-02
  18 F= -.35995768E+03 E0= -.35996349E+03  d E =-.630477E-03
       N       E                     dE             d eps       ncg     rms          rms(c)
DAV:   1    -0.359958639027E+03   -0.96862E-03   -0.16291E-01  5324   0.126E+00    0.298E-01
RMM:   2    -0.359958498412E+03    0.14062E-03   -0.11346E-02  7697   0.284E-01    0.125E-01
RMM:   3    -0.359958029946E+03    0.46847E-03   -0.17897E-03  7922   0.838E-02    0.919E-02
RMM:   4    -0.359957845746E+03    0.18420E-03   -0.57927E-04  7762   0.468E-02    0.510E-02
RMM:   5    -0.359957819989E+03    0.25757E-04   -0.21432E-04  7709   0.271E-02    0.372E-02
RMM:   6    -0.359957832267E+03   -0.12277E-04   -0.90500E-05  5645   0.163E-02    0.244E-02
RMM:   7    -0.359957839831E+03   -0.75649E-05   -0.50892E-05  4300   0.132E-02
  19 F= -.35995784E+03 E0= -.35996357E+03  d E =-.790894E-03
       N       E                     dE             d eps       ncg     rms          rms(c)
DAV:   1    -0.359958181251E+03   -0.34898E-03   -0.31758E-02  5424   0.528E-01    0.920E-02
RMM:   2    -0.359958232749E+03   -0.51499E-04   -0.16820E-03  7757   0.111E-01    0.445E-02
RMM:   3    -0.359958210092E+03    0.22658E-04   -0.28031E-04  7466   0.334E-02    0.350E-02
RMM:   4    -0.359958187264E+03    0.22828E-04   -0.86404E-05  6456   0.174E-02    0.185E-02
RMM:   5    -0.359958183590E+03    0.36745E-05   -0.30685E-05  3758   0.104E-02
  20 F= -.35995818E+03 E0= -.35996387E+03  d E =-.343758E-03
       N       E                     dE             d eps       ncg     rms          rms(c)
DAV:   1    -0.359958897822E+03   -0.71056E-03   -0.28553E-01  5272   0.158E+00    0.263E-01
RMM:   2    -0.359959228041E+03   -0.33022E-03   -0.14059E-02  7670   0.325E-01    0.121E-01
RMM:   3    -0.359958999325E+03    0.22872E-03   -0.20305E-03  7881   0.951E-02    0.937E-02
RMM:   4    -0.359958809218E+03    0.19011E-03   -0.62685E-04  7769   0.457E-02    0.495E-02
RMM:   5    -0.359958784295E+03    0.24924E-04   -0.25620E-04  7582   0.280E-02    0.326E-02
RMM:   6    -0.359958779840E+03    0.44547E-05   -0.85648E-05  5179   0.159E-02
  21 F= -.35995878E+03 E0= -.35996436E+03  d E =-.940009E-03
       N       E                     dE             d eps       ncg     rms          rms(c)
DAV:   1    -0.359958857233E+03   -0.72938E-04   -0.11422E+00  5264   0.317E+00    0.522E-01
RMM:   2    -0.359960116994E+03   -0.12598E-02   -0.55815E-02  7646   0.648E-01    0.238E-01
RMM:   3    -0.359959227396E+03    0.88960E-03   -0.79828E-03  7898   0.190E-01    0.185E-01
RMM:   4    -0.359958488048E+03    0.73935E-03   -0.24767E-03  7765   0.904E-02    0.973E-02
RMM:   5    -0.359958396980E+03    0.91069E-04   -0.10185E-03  8033   0.557E-02    0.642E-02
RMM:   6    -0.359958398123E+03   -0.11434E-05   -0.38892E-04  7062   0.308E-02    0.386E-02
RMM:   7    -0.359958391113E+03    0.70099E-05   -0.18103E-04  5939   0.217E-02    0.219E-02
RMM:   8    -0.359958391957E+03   -0.84328E-06   -0.10018E-04  5462   0.171E-02    0.130E-02
RMM:   9    -0.359958390981E+03    0.97519E-06   -0.38073E-05  4826   0.136E-02
  22 F= -.35995839E+03 E0= -.35996374E+03  d E =-.551150E-03
       N       E                     dE             d eps       ncg     rms          rms(c)
DAV:   1    -0.359959167473E+03   -0.77552E-03   -0.50787E-01  5272   0.211E+00    0.353E-01
RMM:   2    -0.359959652642E+03   -0.48517E-03   -0.24725E-02  7610   0.434E-01    0.160E-01
RMM:   3    -0.359959250374E+03    0.40227E-03   -0.34192E-03  7822   0.128E-01    0.125E-01
RMM:   4    -0.359958901029E+03    0.34935E-03   -0.10031E-03  7771   0.595E-02    0.660E-02
RMM:   5    -0.359958858456E+03    0.42573E-04   -0.39391E-04  7903   0.363E-02    0.428E-02
RMM:   6    -0.359958866214E+03   -0.77581E-05   -0.14617E-04  6309   0.197E-02    0.254E-02
RMM:   7    -0.359958867822E+03   -0.16080E-05   -0.63536E-05  4772   0.143E-02
  23 F= -.35995887E+03 E0= -.35996437E+03  d E =-.102799E-02
       N       E                     dE             d eps       ncg     rms          rms(c)
DAV:   1    -0.359959070107E+03   -0.20389E-03   -0.18790E-02  5368   0.400E-01    0.549E-02
RMM:   2    -0.359959107009E+03   -0.36902E-04   -0.86314E-04  7786   0.813E-02    0.291E-02
RMM:   3    -0.359959097602E+03    0.94071E-05   -0.11803E-04  6030   0.231E-02    0.217E-02
RMM:   4    -0.359959089641E+03    0.79610E-05   -0.41939E-05  4196   0.140E-02
  24 F= -.35995909E+03 E0= -.35996457E+03  d E =-.221819E-03
       N       E                     dE             d eps       ncg     rms          rms(c)
DAV:   1    -0.359959453466E+03   -0.35586E-03   -0.16810E-01  5272   0.119E+00    0.159E-01
RMM:   2    -0.359959730136E+03   -0.27667E-03   -0.75776E-03  7782   0.241E-01    0.827E-02
RMM:   3    -0.359959638357E+03    0.91779E-04   -0.99917E-04  7836   0.638E-02    0.614E-02
RMM:   4    -0.359959561744E+03    0.76613E-04   -0.32348E-04  7767   0.316E-02    0.302E-02
RMM:   5    -0.359959554414E+03    0.73299E-05   -0.13431E-04  6568   0.200E-02    0.183E-02
RMM:   6    -0.359959551409E+03    0.30050E-05   -0.41698E-05  4171   0.116E-02
  25 F= -.35995955E+03 E0= -.35996498E+03  d E =-.683587E-03
       N       E                     dE             d eps       ncg     rms          rms(c)
DAV:   1    -0.359959326338E+03    0.22808E-03   -0.67385E-01  5264   0.239E+00    0.315E-01
RMM:   2    -0.359960421404E+03   -0.10951E-02   -0.30077E-02  7775   0.481E-01    0.164E-01
RMM:   3    -0.359960048365E+03    0.37304E-03   -0.38774E-03  7819   0.127E-01    0.120E-01
RMM:   4    -0.359959761998E+03    0.28637E-03   -0.12681E-03  7803   0.623E-02    0.589E-02
RMM:   5    -0.359959737651E+03    0.24347E-04   -0.55439E-04  7917   0.393E-02    0.362E-02
RMM:   6    -0.359959731537E+03    0.61144E-05   -0.18067E-04  5980   0.214E-02    0.221E-02
RMM:   7    -0.359959731054E+03    0.48313E-06   -0.92282E-05  5257   0.161E-02
  26 F= -.35995973E+03 E0= -.35996504E+03  d E =-.863232E-03
       N       E                     dE             d eps       ncg     rms          rms(c)
DAV:   1    -0.359959761255E+03   -0.29718E-04   -0.61480E-02  5288   0.723E-01    0.968E-02
RMM:   2    -0.359959849478E+03   -0.88223E-04   -0.26662E-03  7758   0.145E-01    0.495E-02
RMM:   3    -0.359959811862E+03    0.37616E-04   -0.30360E-04  7710   0.380E-02    0.370E-02
RMM:   4    -0.359959780604E+03    0.31258E-04   -0.84191E-05  6548   0.181E-02    0.178E-02
RMM:   5    -0.359959776939E+03    0.36646E-05   -0.31678E-05  3886   0.106E-02
  27 F= -.35995978E+03 E0= -.35996512E+03  d E =-.909117E-03
       N       E                     dE             d eps       ncg     rms          rms(c)
DAV:   1    -0.359960395818E+03   -0.61521E-03   -0.62168E-02  5736   0.786E-01    0.211E-01
RMM:   2    -0.359960250514E+03    0.14530E-03   -0.47506E-03  6998   0.187E-01    0.798E-02
RMM:   3    -0.359960074646E+03    0.17587E-03   -0.81220E-04  7854   0.592E-02    0.602E-02
RMM:   4    -0.359959986127E+03    0.88519E-04   -0.24495E-04  7777   0.309E-02    0.315E-02
RMM:   5    -0.359959979858E+03    0.62683E-05   -0.66307E-05  5332   0.182E-02
  28 F= -.35995998E+03 E0= -.35996529E+03  d E =-.202919E-03
       N       E                     dE             d eps       ncg     rms          rms(c)
DAV:   1    -0.359960613889E+03   -0.62776E-03   -0.10054E-01  5672   0.998E-01    0.263E-01
RMM:   2    -0.359960388010E+03    0.22588E-03   -0.76456E-03  7177   0.238E-01    0.987E-02
RMM:   3    -0.359960114502E+03    0.27351E-03   -0.13189E-03  7882   0.744E-02    0.758E-02
RMM:   4    -0.359959985209E+03    0.12929E-03   -0.41315E-04  7801   0.394E-02    0.415E-02
RMM:   5    -0.359959980539E+03    0.46695E-05   -0.12188E-04  6639   0.237E-02    0.322E-02
RMM:   6    -0.359959996387E+03   -0.15847E-04   -0.57660E-05  4836   0.134E-02    0.219E-02
RMM:   7    -0.359960005687E+03   -0.93002E-05   -0.26509E-05  3599   0.122E-02
  29 F= -.35996001E+03 E0= -.35996527E+03  d E =-.228748E-03
       N       E                     dE             d eps       ncg     rms          rms(c)
DAV:   1    -0.359960108997E+03   -0.11261E-03   -0.88838E-03  6032   0.296E-01    0.842E-02
RMM:   2    -0.359960103354E+03    0.56431E-05   -0.71856E-04  7497   0.713E-02    0.337E-02
RMM:   3    -0.359960078500E+03    0.24853E-04   -0.13722E-04  6599   0.230E-02    0.271E-02
RMM:   4    -0.359960062437E+03    0.16063E-04   -0.38813E-05  3751   0.157E-02    0.147E-02
RMM:   5    -0.359960059084E+03    0.33529E-05   -0.11520E-05  2862   0.108E-02
  30 F= -.35996006E+03 E0= -.35996533E+03  d E =-.282145E-03
       N       E                     dE             d eps       ncg     rms          rms(c)
DAV:   1    -0.359960170743E+03   -0.10831E-03   -0.19008E-02  5588   0.434E-01    0.114E-01
RMM:   2    -0.359960146009E+03    0.24734E-04   -0.14537E-03  7330   0.104E-01    0.436E-02
RMM:   3    -0.359960087580E+03    0.58429E-04   -0.23871E-04  7161   0.322E-02    0.337E-02
RMM:   4    -0.359960057986E+03    0.29593E-04   -0.74133E-05  5606   0.180E-02    0.183E-02
RMM:   5    -0.359960051594E+03    0.63924E-05   -0.17078E-05  2968   0.131E-02
  31 F= -.35996005E+03 E0= -.35996535E+03  d E =-.274655E-03
       N       E                     dE             d eps       ncg     rms          rms(c)
DAV:   1    -0.359960096214E+03   -0.38227E-04   -0.50463E-03  5904   0.221E-01    0.658E-02
RMM:   2    -0.359960078995E+03    0.17218E-04   -0.40585E-04  7200   0.538E-02    0.260E-02
RMM:   3    -0.359960063749E+03    0.15247E-04   -0.73285E-05  5805   0.177E-02    0.193E-02
RMM:   4    -0.359960053348E+03    0.10400E-04   -0.16655E-05  2746   0.125E-02    0.989E-03
RMM:   5    -0.359960052071E+03    0.12778E-05   -0.60333E-06  2730   0.919E-03
  32 F= -.35996005E+03 E0= -.35996534E+03  d E =-.275131E-03
       N       E                     dE             d eps       ncg     rms          rms(c)
DAV:   1    -0.359960056245E+03   -0.28971E-05   -0.66637E-04  5608   0.810E-02    0.197E-02
RMM:   2    -0.359960055468E+03    0.77769E-06   -0.52790E-05  5034   0.188E-02
  33 F= -.35996006E+03 E0= -.35996534E+03  d E =-.278529E-03
       N       E                     dE             d eps       ncg     rms          rms(c)
DAV:   1    -0.359960168589E+03   -0.11234E-03   -0.18647E-02  5296   0.392E-01    0.414E-02
RMM:   2    -0.359960204919E+03   -0.36329E-04   -0.72436E-04  7296   0.782E-02    0.218E-02
RMM:   3    -0.359960200092E+03    0.48265E-05   -0.80715E-05  5284   0.222E-02
  34 F= -.35996020E+03 E0= -.35996546E+03  d E =-.144624E-03
       N       E                     dE             d eps       ncg     rms          rms(c)
DAV:   1    -0.359960267344E+03   -0.62425E-04   -0.16650E-01  5264   0.117E+00    0.127E-01
RMM:   2    -0.359960549665E+03   -0.28232E-03   -0.65849E-03  7615   0.234E-01    0.669E-02
RMM:   3    -0.359960519105E+03    0.30560E-04   -0.92480E-04  7681   0.643E-02    0.466E-02
RMM:   4    -0.359960494249E+03    0.24856E-04   -0.31249E-04  7608   0.281E-02    0.252E-02
RMM:   5    -0.359960489139E+03    0.51096E-05   -0.96046E-05  5439   0.164E-02
  35 F= -.35996049E+03 E0= -.35996569E+03  d E =-.433672E-03
       N       E                     dE             d eps       ncg     rms          rms(c)
DAV:   1    -0.359959572101E+03    0.92215E-03   -0.66610E-01  5264   0.234E+00    0.246E-01
RMM:   2    -0.359960742697E+03   -0.11706E-02   -0.25800E-02  7568   0.468E-01    0.129E-01
RMM:   3    -0.359960642879E+03    0.99817E-04   -0.35362E-03  7753   0.129E-01    0.908E-02
RMM:   4    -0.359960534119E+03    0.10876E-03   -0.11212E-03  8393   0.536E-02    0.495E-02
RMM:   5    -0.359960524608E+03    0.95117E-05   -0.41419E-04  7355   0.323E-02    0.275E-02
RMM:   6    -0.359960520046E+03    0.45621E-05   -0.15979E-04  5762   0.191E-02    0.155E-02
RMM:   7    -0.359960522252E+03   -0.22060E-05   -0.79341E-05  4881   0.143E-02
  36 F= -.35996052E+03 E0= -.35996560E+03  d E =-.466784E-03
       N       E                     dE             d eps       ncg     rms          rms(c)
DAV:   1    -0.359960415058E+03    0.10499E-03   -0.16797E-01  5264   0.118E+00    0.124E-01
RMM:   2    -0.359960678851E+03   -0.26379E-03   -0.62654E-03  7328   0.234E-01    0.629E-02
RMM:   3    -0.359960638622E+03    0.40228E-04   -0.74197E-04  7674   0.638E-02    0.448E-02
RMM:   4    -0.359960603563E+03    0.35060E-04   -0.21922E-04  7133   0.252E-02    0.239E-02
RMM:   5    -0.359960599218E+03    0.43443E-05   -0.77445E-05  5763   0.143E-02
  37 F= -.35996060E+03 E0= -.35996574E+03  d E =-.543750E-03
       N       E                     dE             d eps       ncg     rms          rms(c)
DAV:   1    -0.359960578098E+03    0.25465E-04   -0.83186E-02  5264   0.819E-01    0.754E-02
RMM:   2    -0.359960793509E+03   -0.21541E-03   -0.29892E-03  7265   0.160E-01    0.369E-02
RMM:   3    -0.359960780621E+03    0.12888E-04   -0.29873E-04  7402   0.421E-02    0.266E-02
RMM:   4    -0.359960774411E+03    0.62103E-05   -0.74592E-05  5209   0.139E-02
  38 F= -.35996077E+03 E0= -.35996589E+03  d E =-.175193E-03
       N       E                     dE             d eps       ncg     rms          rms(c)
DAV:   1    -0.359959958370E+03    0.82225E-03   -0.43592E-01  5264   0.187E+00    0.171E-01
RMM:   2    -0.359961081899E+03   -0.11235E-02   -0.15782E-02  7345   0.366E-01    0.908E-02
RMM:   3    -0.359961048531E+03    0.33368E-04   -0.18407E-03  7756   0.957E-02    0.669E-02
RMM:   4    -0.359961014271E+03    0.34260E-04   -0.45854E-04  8203   0.320E-02    0.447E-02
RMM:   5    -0.359961004723E+03    0.95485E-05   -0.18033E-04  7105   0.241E-02    0.232E-02
RMM:   6    -0.359960998352E+03    0.63707E-05   -0.78824E-05  5742   0.151E-02
  39 F= -.35996100E+03 E0= -.35996605E+03  d E =-.399134E-03
       N       E                     dE             d eps       ncg     rms          rms(c)
DAV:   1    -0.359962037753E+03   -0.10330E-02   -0.15769E-01  5568   0.124E+00    0.327E-01
RMM:   2    -0.359961831077E+03    0.20668E-03   -0.12178E-02  7617   0.299E-01    0.131E-01
RMM:   3    -0.359961295871E+03    0.53521E-03   -0.21145E-03  7908   0.908E-02    0.979E-02
RMM:   4    -0.359961083591E+03    0.21228E-03   -0.64641E-04  8011   0.487E-02    0.516E-02
RMM:   5    -0.359961057052E+03    0.26539E-04   -0.19280E-04  7535   0.286E-02    0.373E-02
RMM:   6    -0.359961069253E+03   -0.12201E-04   -0.91849E-05  6163   0.153E-02    0.250E-02
RMM:   7    -0.359961074483E+03   -0.52296E-05   -0.33077E-05  3848   0.123E-02
  40 F= -.35996107E+03 E0= -.35996609E+03  d E =-.761308E-04
       N       E                     dE             d eps       ncg     rms          rms(c)
DAV:   1    -0.359961138633E+03   -0.69379E-04   -0.58885E-03  6040   0.238E-01    0.660E-02
RMM:   2    -0.359961143165E+03   -0.45328E-05   -0.48049E-04  7601   0.573E-02    0.284E-02
RMM:   3    -0.359961121564E+03    0.21601E-04   -0.86998E-05  6043   0.182E-02    0.215E-02
RMM:   4    -0.359961112297E+03    0.92675E-05   -0.20526E-05  2995   0.131E-02
  41 F= -.35996111E+03 E0= -.35996613E+03  d E =-.113945E-03
       N       E                     dE             d eps       ncg     rms          rms(c)
DAV:   1    -0.359961145496E+03   -0.23932E-04   -0.47599E-03  5432   0.215E-01    0.546E-02
RMM:   2    -0.359961144285E+03    0.12114E-05   -0.37847E-04  7591   0.516E-02    0.238E-02
RMM:   3    -0.359961121952E+03    0.22333E-04   -0.56139E-05  5825   0.154E-02    0.179E-02
RMM:   4    -0.359961113422E+03    0.85301E-05   -0.12753E-05  2804   0.105E-02
  42 F= -.35996111E+03 E0= -.35996614E+03  d E =-.115070E-03
       N       E                     dE             d eps       ncg     rms          rms(c)
DAV:   1    -0.359960983175E+03    0.13878E-03   -0.96350E-02  5264   0.876E-01    0.639E-02
RMM:   2    -0.359961243870E+03   -0.26070E-03   -0.32191E-03  6854   0.168E-01    0.365E-02
RMM:   3    -0.359961211914E+03    0.31956E-04   -0.34585E-04  7328   0.477E-02    0.277E-02
RMM:   4    -0.359961205889E+03    0.60255E-05   -0.88429E-05  5476   0.144E-02
  43 F= -.35996121E+03 E0= -.35996621E+03  d E =-.924665E-04
