<?xml version="1.0" encoding="ISO-8859-1"?>
<modeling>
 <generator>
  <i name="program" type="string">vasp </i>
  <i name="version" type="string">5.4.1  </i>
  <i name="subversion" type="string">05Feb16 (build Jan 29 2020 16:04:39) complex                          parallel </i>
  <i name="platform" type="string">IFC91_ompi </i>
  <i name="date" type="string">2020 06 15 </i>
  <i name="time" type="string">11:55:37 </i>
 </generator>
 <incar>
  <i type="string" name="SYSTEM"> automatically generated by mexm</i>
  <i type="int" name="ISTART">     0</i>
  <i type="string" name="PREC">accurate               ! avoid wrap aro</i>
  <i type="string" name="ALGO"> Fast                   ! blocked Davids</i>
  <i type="int" name="ISPIN">     1</i>
  <i type="int" name="ICHARG">     2</i>
  <i type="int" name="NELM">    70</i>
  <i type="int" name="IBRION">     2</i>
  <i name="EDIFF">      0.00001000</i>
  <i name="EDIFFG">     -0.01000000</i>
  <i type="int" name="NSW">   300</i>
  <i type="int" name="ISIF">     3</i>
  <i type="int" name="ISYM">     1</i>
  <i name="ENCUT">    300.00000000</i>
  <i name="POTIM">      0.15000000</i>
  <i type="string" name="LREAL"> Auto                  ! unpublished met</i>
  <i type="int" name="ISMEAR">     1</i>
  <i name="SIGMA">      0.15000000</i>
  <i type="logical" name="LWAVE"> F  </i>
  <i type="logical" name="LCHARG"> F  </i>
  <i type="logical" name="LVTOT"> F  </i>
  <v type="int" name="KPOINT_BSE">    -1     0     0     0</v>
  <i type="int" name="NELM">    70</i>
 </incar>
 <kpoints>
  <generation param="Gamma">
   <v type="int" name="divisions">       3        3        3 </v>
   <v name="usershift">      0.00000000       0.00000000       0.00000000 </v>
   <v name="genvec1">      0.33333333      -0.00000000       0.00000000 </v>
   <v name="genvec2">      0.00000000       0.33333333       0.00000000 </v>
   <v name="genvec3">      0.00000000       0.00000000       0.33333333 </v>
   <v name="shift">      0.00000000       0.00000000       0.00000000 </v>
  </generation>
  <varray name="kpointlist" >
   <v>       0.00000000       0.00000000       0.00000000 </v>
   <v>       0.33333333      -0.00000000      -0.00000000 </v>
   <v>       0.00000000       0.33333333       0.00000000 </v>
   <v>       0.33333333       0.33333333       0.00000000 </v>
   <v>      -0.33333333       0.33333333       0.00000000 </v>
   <v>      -0.00000000      -0.00000000       0.33333333 </v>
   <v>       0.33333333      -0.00000000       0.33333333 </v>
   <v>      -0.33333333       0.00000000       0.33333333 </v>
   <v>       0.00000000       0.33333333       0.33333333 </v>
   <v>       0.33333333       0.33333333       0.33333333 </v>
   <v>      -0.33333333       0.33333333       0.33333333 </v>
   <v>      -0.00000000      -0.33333333       0.33333333 </v>
   <v>       0.33333333      -0.33333333       0.33333333 </v>
   <v>      -0.33333333      -0.33333333       0.33333333 </v>
  </varray>
  <varray name="weights" >
   <v>       0.03703704 </v>
   <v>       0.07407407 </v>
   <v>       0.07407407 </v>
   <v>       0.07407407 </v>
   <v>       0.07407407 </v>
   <v>       0.07407407 </v>
   <v>       0.07407407 </v>
   <v>       0.07407407 </v>
   <v>       0.07407407 </v>
   <v>       0.07407407 </v>
   <v>       0.07407407 </v>
   <v>       0.07407407 </v>
   <v>       0.07407407 </v>
   <v>       0.07407407 </v>
  </varray>
 </kpoints>
 <parameters>
  <separator name="general" >
   <i type="string" name="SYSTEM">automatically generated by mexm</i>
   <i type="logical" name="LCOMPAT"> F  </i>
  </separator>
  <separator name="electronic" >
   <i type="string" name="PREC">accura</i>
   <i name="ENMAX">    300.00000000</i>
   <i name="ENAUG">    461.25700000</i>
   <i name="EDIFF">      0.00001000</i>
   <i type="int" name="IALGO">    68</i>
   <i type="int" name="IWAVPR">    11</i>
   <i type="int" name="NBANDS">   152</i>
   <i name="NELECT">    254.00000000</i>
   <i type="int" name="TURBO">     0</i>
   <i type="int" name="IRESTART">     0</i>
   <i type="int" name="NREBOOT">     0</i>
   <i type="int" name="NMIN">     0</i>
   <i name="EREF">      0.00000000</i>
   <separator name="electronic smearing" >
    <i type="int" name="ISMEAR">     1</i>
    <i name="SIGMA">      0.15000000</i>
    <i name="KSPACING">      0.50000000</i>
    <i type="logical" name="KGAMMA"> T  </i>
   </separator>
   <separator name="electronic projectors" >
    <i type="logical" name="LREAL"> T  </i>
    <v name="ROPT">     -0.00025000     -0.00025000     -0.00025000     -0.00025000</v>
    <i type="int" name="LMAXPAW">  -100</i>
    <i type="int" name="LMAXMIX">     2</i>
    <i type="logical" name="NLSPLINE"> F  </i>
   </separator>
   <separator name="electronic startup" >
    <i type="int" name="ISTART">     0</i>
    <i type="int" name="ICHARG">     2</i>
    <i type="int" name="INIWAV">     1</i>
   </separator>
   <separator name="electronic spin" >
    <i type="int" name="ISPIN">     1</i>
    <i type="logical" name="LNONCOLLINEAR"> F  </i>
    <v name="MAGMOM">      1.00000000      1.00000000      1.00000000      1.00000000      1.00000000      1.00000000      1.00000000      1.00000000      1.00000000      1.00000000      1.00000000      1.00000000      1.00000000      1.00000000      1.00000000      1.00000000      1.00000000      1.00000000      1.00000000      1.00000000
      1.00000000      1.00000000      1.00000000      1.00000000      1.00000000      1.00000000      1.00000000      1.00000000      1.00000000      1.00000000      1.00000000      1.00000000      1.00000000      1.00000000      1.00000000      1.00000000</v>
    <i name="NUPDOWN">     -1.00000000</i>
    <i type="logical" name="LSORBIT"> F  </i>
    <v name="SAXIS">      0.00000000      0.00000000      1.00000000</v>
    <i type="logical" name="LSPIRAL"> F  </i>
    <v name="QSPIRAL">      0.00000000      0.00000000      0.00000000</v>
    <i type="logical" name="LZEROZ"> F  </i>
   </separator>
   <separator name="electronic exchange-correlation" >
    <i type="logical" name="LASPH"> F  </i>
    <i type="logical" name="LMETAGGA"> F  </i>
   </separator>
   <separator name="electronic convergence" >
    <i type="int" name="NELM">    70</i>
    <i type="int" name="NELMDL">    -5</i>
    <i type="int" name="NELMIN">     2</i>
    <i name="ENINI">    300.00000000</i>
    <separator name="electronic convergence detail" >
     <i type="logical" name="LDIAG"> T  </i>
     <i type="logical" name="LSUBROT"> F  </i>
     <i name="WEIMIN">      0.00100000</i>
     <i name="EBREAK">      0.00000002</i>
     <i name="DEPER">      0.30000000</i>
     <i type="int" name="NRMM">     4</i>
     <i name="TIME">      0.40000000</i>
    </separator>
   </separator>
   <separator name="electronic mixer" >
    <i name="AMIX">      0.40000000</i>
    <i name="BMIX">      1.00000000</i>
    <i name="AMIN">      0.10000000</i>
    <i name="AMIX_MAG">      1.60000000</i>
    <i name="BMIX_MAG">      1.00000000</i>
    <separator name="electronic mixer details" >
     <i type="int" name="IMIX">     4</i>
     <i type="logical" name="MIXFIRST"> F  </i>
     <i type="int" name="MAXMIX">   -45</i>
     <i name="WC">    100.00000000</i>
     <i type="int" name="INIMIX">     1</i>
     <i type="int" name="MIXPRE">     1</i>
     <i type="int" name="MREMOVE">     5</i>
    </separator>
   </separator>
   <separator name="electronic dipolcorrection" >
    <i type="logical" name="LDIPOL"> F  </i>
    <i type="logical" name="LMONO"> F  </i>
    <i type="int" name="IDIPOL">     0</i>
    <i name="EPSILON">      1.00000000</i>
    <v name="DIPOL">   -100.00000000   -100.00000000   -100.00000000</v>
    <i name="EFIELD">      0.00000000</i>
   </separator>
  </separator>
  <separator name="grids" >
   <i type="int" name="NGX">    40</i>
   <i type="int" name="NGY">    60</i>
   <i type="int" name="NGZ">    60</i>
   <i type="int" name="NGXF">    80</i>
   <i type="int" name="NGYF">   120</i>
   <i type="int" name="NGZF">   120</i>
   <i type="logical" name="ADDGRID"> F  </i>
  </separator>
  <separator name="ionic" >
   <i type="int" name="NSW">   300</i>
   <i type="int" name="IBRION">     2</i>
   <i type="int" name="ISIF">     3</i>
   <i name="PSTRESS">      0.00000000</i>
   <i name="EDIFFG">     -0.01000000</i>
   <i type="int" name="NFREE">     1</i>
   <i name="POTIM">      0.15000000</i>
   <i name="SMASS">     -3.00000000</i>
   <i name="SCALEE">      1.00000000</i>
  </separator>
  <separator name="ionic md" >
   <i name="TEBEG">      0.00010000</i>
   <i name="TEEND">      0.00010000</i>
   <i type="int" name="NBLOCK">     1</i>
   <i type="int" name="KBLOCK">   300</i>
   <i type="int" name="NPACO">   256</i>
   <i name="APACO">     16.00000000</i>
  </separator>
  <separator name="symmetry" >
   <i type="int" name="ISYM">     1</i>
   <i name="SYMPREC">      0.00001000</i>
  </separator>
  <separator name="dos" >
   <i type="logical" name="LORBIT"> F  </i>
   <v name="RWIGS">     -1.00000000     -1.00000000     -1.00000000     -1.00000000</v>
   <i type="int" name="NEDOS">   301</i>
   <i name="EMIN">     10.00000000</i>
   <i name="EMAX">    -10.00000000</i>
   <i name="EFERMI">      0.00000000</i>
  </separator>
  <separator name="writing" >
   <i type="int" name="NWRITE">     2</i>
   <i type="logical" name="LWAVE"> F  </i>
   <i type="logical" name="LCHARG"> F  </i>
   <i type="logical" name="LPARD"> F  </i>
   <i type="logical" name="LVTOT"> F  </i>
   <i type="logical" name="LVHAR"> F  </i>
   <i type="logical" name="LELF"> F  </i>
   <i type="logical" name="LOPTICS"> F  </i>
   <v name="STM">      0.00000000      0.00000000      0.00000000      0.00000000      0.00000000      0.00000000      0.00000000</v>
  </separator>
  <separator name="performance" >
   <i type="int" name="NPAR">     4</i>
   <i type="int" name="NSIM">     4</i>
   <i type="int" name="NBLK">    -1</i>
   <i type="logical" name="LPLANE"> T  </i>
   <i type="logical" name="LSCALAPACK"> T  </i>
   <i type="logical" name="LSCAAWARE"> F  </i>
   <i type="logical" name="LSCALU"> F  </i>
   <i type="logical" name="LASYNC"> F  </i>
   <i type="logical" name="LORBITALREAL"> F  </i>
  </separator>
  <separator name="miscellaneous" >
   <i type="int" name="IDIOT">     3</i>
   <i type="logical" name="LMUSIC"> F  </i>
   <v name="POMASS">    180.94800000    178.49000000     92.91000000     91.22400000</v>
   <v name="DARWINR">      0.00000000      0.00000000      0.00000000      0.00000000</v>
   <v name="DARWINV">      1.00000000      1.00000000      1.00000000      1.00000000</v>
   <i type="logical" name="LCORR"> T  </i>
  </separator>
  <i type="logical" name="GGA_COMPAT"> T  </i>
  <i type="logical" name="LBERRY"> F  </i>
  <i type="int" name="ICORELEVEL">     0</i>
  <i type="logical" name="LDAU"> F  </i>
  <i type="int" name="I_CONSTRAINED_M">     0</i>
  <separator name="electronic exchange-correlation" >
   <i type="string" name="GGA">--</i>
   <i type="int" name="VOSKOWN">     0</i>
   <i type="logical" name="LHFCALC"> F  </i>
   <i type="string" name="PRECFOCK"></i>
   <i type="logical" name="LSYMGRAD"> F  </i>
   <i type="logical" name="LHFONE"> F  </i>
   <i type="logical" name="LRHFCALC"> F  </i>
   <i type="logical" name="LTHOMAS"> F  </i>
   <i type="logical" name="LMODELHF"> F  </i>
   <i name="ENCUT4O">     -1.00000000</i>
   <i type="int" name="EXXOEP">     0</i>
   <i type="int" name="FOURORBIT">     0</i>
   <i name="AEXX">      0.00000000</i>
   <i name="HFALPHA">      0.00000000</i>
   <i name="MCALPHA">      0.00000000</i>
   <i name="ALDAX">      1.00000000</i>
   <i name="AGGAX">      1.00000000</i>
   <i name="ALDAC">      1.00000000</i>
   <i name="AGGAC">      1.00000000</i>
   <i type="int" name="NKREDX">     1</i>
   <i type="int" name="NKREDY">     1</i>
   <i type="int" name="NKREDZ">     1</i>
   <i type="logical" name="SHIFTRED"> F  </i>
   <i type="logical" name="ODDONLY"> F  </i>
   <i type="logical" name="EVENONLY"> F  </i>
   <i type="int" name="LMAXFOCK">     0</i>
   <i type="int" name="NMAXFOCKAE">     0</i>
   <i type="logical" name="LFOCKAEDFT"> F  </i>
   <i name="HFSCREEN">      0.00000000</i>
   <i name="HFSCREENC">      0.00000000</i>
   <i type="int" name="NBANDSGWLOW">     0</i>
  </separator>
  <separator name="vdW DFT" >
   <i type="logical" name="LUSE_VDW"> F  </i>
   <i name="Zab_VDW">     -0.84910000</i>
   <i name="PARAM1">      0.12340000</i>
   <i name="PARAM2">      1.00000000</i>
   <i name="PARAM3">      0.00000000</i>
  </separator>
  <separator name="model GW" >
   <i type="int" name="MODEL_GW">     0</i>
   <i name="MODEL_EPS0">     12.35096887</i>
   <i name="MODEL_ALPHA">      1.00000000</i>
  </separator>
  <separator name="linear response parameters" >
   <i type="logical" name="LEPSILON"> F  </i>
   <i type="logical" name="LRPA"> F  </i>
   <i type="logical" name="LNABLA"> F  </i>
   <i type="logical" name="LVEL"> F  </i>
   <i type="int" name="KINTER">     0</i>
   <i name="CSHIFT">      0.10000000</i>
   <i name="OMEGAMAX">     -1.00000000</i>
   <i name="DEG_THRESHOLD">      0.00200000</i>
  </separator>
  <separator name="orbital magnetization" >
   <i type="logical" name="NUCIND"> F  </i>
   <v name="MAGPOS">      0.00000000      0.00000000      0.00000000</v>
   <i type="logical" name="LNICSALL"> T  </i>
   <i type="logical" name="ORBITALMAG"> F  </i>
   <i type="logical" name="LMAGBLOCH"> F  </i>
   <i type="logical" name="LCHIMAG"> F  </i>
   <i type="logical" name="LGAUGE"> T  </i>
   <i type="int" name="MAGATOM">     0</i>
   <v name="MAGDIPOL">      0.00000000      0.00000000      0.00000000</v>
   <v name="AVECCONST">      0.00000000      0.00000000      0.00000000</v>
  </separator>
  <separator name="response functions" >
   <i type="logical" name="LADDER"> F  </i>
   <i type="logical" name="LFXC"> F  </i>
   <i type="logical" name="LHARTREE"> T  </i>
   <i type="int" name="IBSE">     0</i>
   <v type="int" name="KPOINT">    -1     0     0     0</v>
   <i type="logical" name="LTCTE"> F  </i>
   <i type="logical" name="LTETE"> F  </i>
   <i type="logical" name="LTRIPLET"> F  </i>
   <i type="logical" name="LFXCEPS"> F  </i>
   <i type="logical" name="LFXHEG"> F  </i>
   <i type="int" name="NATURALO">     0</i>
   <i type="logical" name="L2ORDER"> F  </i>
   <i type="logical" name="LUSEW"> F  </i>
   <i name="ENCUTGW">     -2.00000000</i>
   <i name="ENCUTGWSOFT">     -2.00000000</i>
   <i name="ENCUTLF">     -1.00000000</i>
   <i type="int" name="LMAXMP2">    -1</i>
   <i name="SCISSOR">      0.00000000</i>
   <i type="int" name="NOMEGA">     0</i>
   <i type="int" name="NOMEGAR">     0</i>
   <i type="int" name="NBANDSGW">    -1</i>
   <i type="int" name="NBANDSO">    -1</i>
   <i type="int" name="NBANDSV">    -1</i>
   <i type="int" name="NELM">    70</i>
   <i type="int" name="NELMHF">     1</i>
   <i type="int" name="DIM">     3</i>
   <i type="int" name="ANTIRES">     0</i>
   <i name="OMEGAMAX">    -30.00000000</i>
   <i name="OMEGAMIN">    -30.00000000</i>
   <i name="OMEGATL">   -200.00000000</i>
   <i type="int" name="OMEGAGRID">     0</i>
   <i name="CSHIFT">     -0.10000000</i>
   <i type="logical" name="SELFENERGY"> F  </i>
   <i type="logical" name="LSPECTRAL"> F  </i>
   <i type="logical" name="LSPECTRALGW"> F  </i>
   <i type="logical" name="LSINGLES"> F  </i>
   <i type="logical" name="LFERMIGW"> F  </i>
   <i type="logical" name="ODDONLYGW"> F  </i>
   <i type="logical" name="EVENONLYGW"> F  </i>
   <i type="int" name="NKREDLFX">     1</i>
   <i type="int" name="NKREDLFY">     1</i>
   <i type="int" name="NKREDLFZ">     1</i>
   <i type="int" name="MAXMEM">  1800</i>
   <i type="int" name="TELESCOPE">     0</i>
   <i type="int" name="TAUPAR">     1</i>
   <i type="int" name="OMEGAPAR">    -1</i>
   <i name="LAMBDA">      1.00000000</i>
  </separator>
  <separator name="External order field" >
   <i name="OFIELD_KAPPA">      0.00000000</i>
   <v name="OFIELD_K">      0.00000000      0.00000000      0.00000000</v>
   <i name="OFIELD_Q6_NEAR">      0.00000000</i>
   <i name="OFIELD_Q6_FAR">      0.00000000</i>
   <i name="OFIELD_A">      0.00000000</i>
  </separator>
 </parameters>
 <atominfo>
  <atoms>      36 </atoms>
  <types>       4 </types>
  <array name="atoms" >
   <dimension dim="1">ion</dimension>
   <field type="string">element</field>
   <field type="int">atomtype</field>
   <set>
    <rc><c>Ta</c><c>   1</c></rc>
    <rc><c>Ta</c><c>   1</c></rc>
    <rc><c>Ta</c><c>   1</c></rc>
    <rc><c>Ta</c><c>   1</c></rc>
    <rc><c>Ta</c><c>   1</c></rc>
    <rc><c>Ta</c><c>   1</c></rc>
    <rc><c>Ta</c><c>   1</c></rc>
    <rc><c>Ta</c><c>   1</c></rc>
    <rc><c>Ta</c><c>   1</c></rc>
    <rc><c>Ta</c><c>   1</c></rc>
    <rc><c>Ta</c><c>   1</c></rc>
    <rc><c>Hf</c><c>   2</c></rc>
    <rc><c>Hf</c><c>   2</c></rc>
    <rc><c>Hf</c><c>   2</c></rc>
    <rc><c>Hf</c><c>   2</c></rc>
    <rc><c>Hf</c><c>   2</c></rc>
    <rc><c>Hf</c><c>   2</c></rc>
    <rc><c>Hf</c><c>   2</c></rc>
    <rc><c>Hf</c><c>   2</c></rc>
    <rc><c>Hf</c><c>   2</c></rc>
    <rc><c>Hf</c><c>   2</c></rc>
    <rc><c>Hf</c><c>   2</c></rc>
    <rc><c>Hf</c><c>   2</c></rc>
    <rc><c>Hf</c><c>   2</c></rc>
    <rc><c>Nb</c><c>   3</c></rc>
    <rc><c>Nb</c><c>   3</c></rc>
    <rc><c>Nb</c><c>   3</c></rc>
    <rc><c>Zr</c><c>   4</c></rc>
    <rc><c>Zr</c><c>   4</c></rc>
    <rc><c>Zr</c><c>   4</c></rc>
    <rc><c>Zr</c><c>   4</c></rc>
    <rc><c>Zr</c><c>   4</c></rc>
    <rc><c>Zr</c><c>   4</c></rc>
    <rc><c>Zr</c><c>   4</c></rc>
    <rc><c>Zr</c><c>   4</c></rc>
    <rc><c>Zr</c><c>   4</c></rc>
   </set>
  </array>
  <array name="atomtypes" >
   <dimension dim="1">type</dimension>
   <field type="int">atomspertype</field>
   <field type="string">element</field>
   <field>mass</field>
   <field>valence</field>
   <field type="string">pseudopotential</field>
   <set>
    <rc><c>  11</c><c>Ta</c><c>    180.94800000</c><c>      5.00000000</c><c>  PAW_PBE Ta 17Jan2003                  </c></rc>
    <rc><c>  13</c><c>Hf</c><c>    178.49000000</c><c>      4.00000000</c><c>  PAW_PBE Hf 20Jan2003                  </c></rc>
    <rc><c>   3</c><c>Nb</c><c>     92.91000000</c><c>     13.00000000</c><c>  PAW_PBE Nb_sv 25May2007               </c></rc>
    <rc><c>   9</c><c>Zr</c><c>     91.22400000</c><c>     12.00000000</c><c>  PAW_PBE Zr_sv 04Jan2005               </c></rc>
   </set>
  </array>
 </atominfo>
 <structure name="initialpos" >
  <crystal>
   <varray name="basis" >
    <v>       6.98481124       0.03245394      -0.00227467 </v>
    <v>       0.04849136      10.31057738       0.03316727 </v>
    <v>      -0.00303289       0.03321716      10.29031486 </v>
   </varray>
   <i name="volume">    741.05813236 </i>
   <varray name="rec_basis" >
    <v>       0.14317094      -0.00067349       0.00004437 </v>
    <v>      -0.00045076       0.09699091      -0.00031322 </v>
    <v>       0.00003310      -0.00031277       0.09717978 </v>
   </varray>
  </crystal>
  <varray name="positions" >
   <v>       0.75461200       0.84829700       0.19455600 </v>
   <v>       0.21595000       0.16974100       0.50522400 </v>
   <v>       0.03605000       0.33584400       0.33382900 </v>
   <v>       0.24748100       0.50131500       0.82481900 </v>
   <v>       0.25272100       0.83324200       0.17062300 </v>
   <v>       0.48431300       0.33358400       0.66537100 </v>
   <v>       0.24316000       0.49730200       0.50354500 </v>
   <v>       0.49983600       0.67356700       0.32614100 </v>
   <v>       0.47781000       0.63523400       0.65617100 </v>
   <v>       0.01877400       0.65375500       0.66115500 </v>
   <v>       0.01438400       0.99460600       0.33097200 </v>
   <v>       0.48513200       0.31839900       0.99095400 </v>
   <v>       0.74605800       0.48634800       0.17665100 </v>
   <v>       0.26624100       0.81575200       0.82590800 </v>
   <v>       0.74582900       0.82957500       0.49840700 </v>
   <v>       0.75068600       0.49819300       0.82515100 </v>
   <v>       0.26877500       0.51098400       0.16075000 </v>
   <v>       0.00750300       0.67039300       0.32842500 </v>
   <v>       0.77286200       0.17506800       0.49939300 </v>
   <v>       0.46470300       0.32062200       0.34200800 </v>
   <v>       0.52809100       0.68524900       0.01857300 </v>
   <v>       0.49503500       0.02651200       0.67185600 </v>
   <v>       0.99678800       0.00434700       0.68325400 </v>
   <v>       0.73119200       0.81024800       0.80115900 </v>
   <v>       0.23241400       0.15649500       0.17040100 </v>
   <v>       0.75123700       0.19138500       0.82060100 </v>
   <v>       0.24049700       0.17417400       0.82484000 </v>
   <v>       0.50127800       0.00283100       0.99993900 </v>
   <v>       0.75318200       0.49573300       0.49597800 </v>
   <v>       0.99347700       0.99751700       0.00018000 </v>
   <v>       0.01834500       0.32881900       0.99444800 </v>
   <v>       0.48355600       0.00700800       0.33459900 </v>
   <v>       0.26167500       0.82845200       0.50818700 </v>
   <v>       0.76628600       0.17482400       0.18228300 </v>
   <v>       0.98619300       0.67997600       0.00381100 </v>
   <v>       0.00787500       0.33462300       0.66983600 </v>
  </varray>
 </structure>
 <calculation>
  <scstep>
   <time name="dav">    0.82    0.83</time>
   <time name="total">    0.94    1.36</time>
   <energy>
    <i name="alphaZ">   1245.38165553 </i>
    <i name="ewald"> -14073.30588330 </i>
    <i name="hartreedc">  -5643.12692071 </i>
    <i name="XCdc">   -803.82655576 </i>
    <i name="pawpsdc">  16426.20459494 </i>
    <i name="pawaedc"> -14621.66351334 </i>
    <i name="eentropy">     -0.00555317 </i>
    <i name="bandstr">    138.88067769 </i>
    <i name="atom">  18646.58571768 </i>
    <i name="e_fr_energy">   1315.12421956 </i>
    <i name="e_wo_entrp">   1315.12977273 </i>
    <i name="e_0_energy">   1315.12607062 </i>
   </energy>
  </scstep>
  <scstep>
   <time name="dav">    0.84    0.85</time>
   <time name="total">    0.84    1.05</time>
   <energy>
    <i name="e_fr_energy">   -138.44079230 </i>
    <i name="e_wo_entrp">   -138.45819808 </i>
    <i name="e_0_energy">   -138.44659423 </i>
   </energy>
  </scstep>
  <scstep>
   <time name="dav">    1.26    1.27</time>
   <time name="total">    1.26    1.32</time>
   <energy>
    <i name="e_fr_energy">   -349.27069617 </i>
    <i name="e_wo_entrp">   -349.26860756 </i>
    <i name="e_0_energy">   -349.26999997 </i>
   </energy>
  </scstep>
  <scstep>
   <time name="dav">    1.34    1.36</time>
   <time name="total">    1.34    1.40</time>
   <energy>
    <i name="e_fr_energy">   -375.43813921 </i>
    <i name="e_wo_entrp">   -375.44260411 </i>
    <i name="e_0_energy">   -375.43962751 </i>
   </energy>
  </scstep>
  <scstep>
   <time name="dav">    1.24    1.33</time>
   <time name="total">    1.31    1.44</time>
   <energy>
    <i name="e_fr_energy">   -378.21398179 </i>
    <i name="e_wo_entrp">   -378.21860817 </i>
    <i name="e_0_energy">   -378.21552392 </i>
   </energy>
  </scstep>
  <scstep>
   <time name="diag">    0.09    0.09</time>
   <time name="diis">    0.65    0.67</time>
   <time name="orth">    0.01    0.01</time>
   <time name="total">    0.82    0.88</time>
   <energy>
    <i name="e_fr_energy">   -368.28312382 </i>
    <i name="e_wo_entrp">   -368.28707822 </i>
    <i name="e_0_energy">   -368.28444195 </i>
   </energy>
  </scstep>
  <scstep>
   <time name="diag">    0.12    0.12</time>
   <time name="diis">    0.68    0.69</time>
   <time name="orth">    0.01    0.01</time>
   <time name="total">    0.87    0.93</time>
   <energy>
    <i name="e_fr_energy">   -371.00180717 </i>
    <i name="e_wo_entrp">   -371.01653059 </i>
    <i name="e_0_energy">   -371.00671497 </i>
   </energy>
  </scstep>
  <scstep>
   <time name="diag">    0.10    0.10</time>
   <time name="diis">    0.68    0.69</time>
   <time name="orth">    0.01    0.01</time>
   <time name="total">    0.87    0.91</time>
   <energy>
    <i name="e_fr_energy">   -363.63196236 </i>
    <i name="e_wo_entrp">   -363.65486760 </i>
    <i name="e_0_energy">   -363.63959744 </i>
   </energy>
  </scstep>
  <scstep>
   <time name="diag">    0.07    0.07</time>
   <time name="diis">    0.79    0.79</time>
   <time name="orth">    0.02    0.02</time>
   <time name="total">    0.97    1.02</time>
   <energy>
    <i name="e_fr_energy">   -363.08172661 </i>
    <i name="e_wo_entrp">   -363.10358540 </i>
    <i name="e_0_energy">   -363.08901287 </i>
   </energy>
  </scstep>
  <scstep>
   <time name="diag">    0.07    0.07</time>
   <time name="diis">    0.70    0.71</time>
   <time name="orth">    0.01    0.01</time>
   <time name="total">    0.85    0.96</time>
   <energy>
    <i name="e_fr_energy">   -363.10104715 </i>
    <i name="e_wo_entrp">   -363.12466437 </i>
    <i name="e_0_energy">   -363.10891956 </i>
   </energy>
  </scstep>
  <scstep>
   <time name="diag">    0.07    0.07</time>
   <time name="diis">    0.69    0.69</time>
   <time name="orth">    0.01    0.01</time>
   <time name="total">    0.83    0.88</time>
   <energy>
    <i name="e_fr_energy">   -363.08843322 </i>
    <i name="e_wo_entrp">   -363.11150945 </i>
    <i name="e_0_energy">   -363.09612529 </i>
   </energy>
  </scstep>
  <scstep>
   <time name="diag">    0.10    0.12</time>
   <time name="diis">    0.70    0.71</time>
   <time name="orth">    0.01    0.01</time>
   <time name="total">    0.91    0.97</time>
   <energy>
    <i name="e_fr_energy">   -363.07635801 </i>
    <i name="e_wo_entrp">   -363.10006048 </i>
    <i name="e_0_energy">   -363.08425884 </i>
   </energy>
  </scstep>
  <scstep>
   <time name="diag">    0.07    0.07</time>
   <time name="diis">    0.69    0.70</time>
   <time name="orth">    0.01    0.01</time>
   <time name="total">    0.84    0.90</time>
   <energy>
    <i name="e_fr_energy">   -363.07613381 </i>
    <i name="e_wo_entrp">   -363.09967987 </i>
    <i name="e_0_energy">   -363.08398249 </i>
   </energy>
  </scstep>
  <scstep>
   <time name="diag">    0.06    0.06</time>
   <time name="diis">    0.70    0.71</time>
   <time name="orth">    0.01    0.01</time>
   <time name="total">    0.84    0.90</time>
   <energy>
    <i name="e_fr_energy">   -363.07616252 </i>
    <i name="e_wo_entrp">   -363.09949575 </i>
    <i name="e_0_energy">   -363.08394026 </i>
   </energy>
  </scstep>
  <scstep>
   <time name="diag">    0.06    0.06</time>
   <time name="diis">    0.71    0.72</time>
   <time name="orth">    0.01    0.01</time>
   <time name="total">    0.85    0.90</time>
   <energy>
    <i name="e_fr_energy">   -363.07737062 </i>
    <i name="e_wo_entrp">   -363.10096752 </i>
    <i name="e_0_energy">   -363.08523625 </i>
   </energy>
  </scstep>
  <scstep>
   <time name="diag">    0.07    0.07</time>
   <time name="diis">    0.59    0.69</time>
   <time name="orth">    0.01    0.01</time>
   <time name="total">    0.73    0.93</time>
   <energy>
    <i name="e_fr_energy">   -363.07771031 </i>
    <i name="e_wo_entrp">   -363.10127440 </i>
    <i name="e_0_energy">   -363.08556501 </i>
   </energy>
  </scstep>
  <scstep>
   <time name="diag">    0.06    0.06</time>
   <time name="diis">    0.62    0.62</time>
   <time name="orth">    0.01    0.01</time>
   <time name="total">    0.76    0.81</time>
   <energy>
    <i name="e_fr_energy">   -363.07791600 </i>
    <i name="e_wo_entrp">   -363.10149651 </i>
    <i name="e_0_energy">   -363.08577617 </i>
   </energy>
  </scstep>
  <scstep>
   <time name="diag">    0.08    0.08</time>
   <time name="diis">    0.61    0.61</time>
   <time name="orth">    0.01    0.01</time>
   <time name="total">    0.76    0.80</time>
   <energy>
    <i name="e_fr_energy">   -363.07805079 </i>
    <i name="e_wo_entrp">   -363.10163704 </i>
    <i name="e_0_energy">   -363.08591287 </i>
   </energy>
  </scstep>
  <scstep>
   <time name="diag">    0.12    0.12</time>
   <time name="diis">    0.50    0.50</time>
   <time name="orth">    0.01    0.01</time>
   <time name="total">    0.69    0.74</time>
   <energy>
    <i name="e_fr_energy">   -363.07812232 </i>
    <i name="e_wo_entrp">   -363.10171662 </i>
    <i name="e_0_energy">   -363.08598709 </i>
   </energy>
  </scstep>
  <scstep>
   <time name="diag">    0.06    0.06</time>
   <time name="diis">    0.43    0.43</time>
   <time name="orth">    0.01    0.01</time>
   <time name="total">    0.60    0.65</time>
   <energy>
    <i name="e_fr_energy">   -363.07816061 </i>
    <i name="e_wo_entrp">   -363.10176422 </i>
    <i name="e_0_energy">   -363.08602848 </i>
   </energy>
  </scstep>
  <scstep>
   <time name="diag">    0.12    0.12</time>
   <time name="diis">    0.40    0.40</time>
   <time name="orth">    0.01    0.01</time>
   <time name="total">    0.59    0.64</time>
   <energy>
    <i name="e_fr_energy">   -363.07817793 </i>
    <i name="e_wo_entrp">   -363.10179157 </i>
    <i name="e_0_energy">   -363.08604914 </i>
   </energy>
  </scstep>
  <scstep>
   <time name="diag">    0.06    0.06</time>
   <time name="diis">    0.36    0.37</time>
   <time name="orth">    0.01    0.01</time>
   <time name="total">    0.50    0.55</time>
   <energy>
    <i name="e_fr_energy">   -363.07818917 </i>
    <i name="e_wo_entrp">   -363.10181399 </i>
    <i name="e_0_energy">   -363.08606411 </i>
   </energy>
  </scstep>
  <scstep>
   <time name="diag">    0.07    0.07</time>
   <time name="diis">    0.36    0.36</time>
   <time name="orth">    0.01    0.01</time>
   <time name="total">    0.60    0.66</time>
   <energy>
    <i name="alphaZ">   1245.38165553 </i>
    <i name="ewald"> -14073.30588330 </i>
    <i name="hartreedc">  -5471.03105307 </i>
    <i name="XCdc">   -797.08360999 </i>
    <i name="pawpsdc">  29290.74473029 </i>
    <i name="pawaedc"> -27481.88645560 </i>
    <i name="eentropy">      0.02363186 </i>
    <i name="bandstr">  -1722.50692864 </i>
    <i name="atom">  18646.58571768 </i>
    <i name="e_fr_energy">   -363.07819524 </i>
    <i name="e_wo_entrp">   -363.10182710 </i>
    <i name="e_0_energy">   -363.08607253 </i>
   </energy>
  </scstep>
  <structure>
   <crystal>
    <varray name="basis" >
     <v>       6.98481124       0.03245394      -0.00227467 </v>
     <v>       0.04849136      10.31057738       0.03316727 </v>
     <v>      -0.00303289       0.03321716      10.29031486 </v>
    </varray>
    <i name="volume">    741.05813236 </i>
    <varray name="rec_basis" >
     <v>       0.14317094      -0.00067349       0.00004437 </v>
     <v>      -0.00045076       0.09699091      -0.00031322 </v>
     <v>       0.00003310      -0.00031277       0.09717978 </v>
    </varray>
   </crystal>
   <varray name="positions" >
    <v>       0.75461200       0.84829700       0.19455600 </v>
    <v>       0.21595000       0.16974100       0.50522400 </v>
    <v>       0.03605000       0.33584400       0.33382900 </v>
    <v>       0.24748100       0.50131500       0.82481900 </v>
    <v>       0.25272100       0.83324200       0.17062300 </v>
    <v>       0.48431300       0.33358400       0.66537100 </v>
    <v>       0.24316000       0.49730200       0.50354500 </v>
    <v>       0.49983600       0.67356700       0.32614100 </v>
    <v>       0.47781000       0.63523400       0.65617100 </v>
    <v>       0.01877400       0.65375500       0.66115500 </v>
    <v>       0.01438400       0.99460600       0.33097200 </v>
    <v>       0.48513200       0.31839900       0.99095400 </v>
    <v>       0.74605800       0.48634800       0.17665100 </v>
    <v>       0.26624100       0.81575200       0.82590800 </v>
    <v>       0.74582900       0.82957500       0.49840700 </v>
    <v>       0.75068600       0.49819300       0.82515100 </v>
    <v>       0.26877500       0.51098400       0.16075000 </v>
    <v>       0.00750300       0.67039300       0.32842500 </v>
    <v>       0.77286200       0.17506800       0.49939300 </v>
    <v>       0.46470300       0.32062200       0.34200800 </v>
    <v>       0.52809100       0.68524900       0.01857300 </v>
    <v>       0.49503500       0.02651200       0.67185600 </v>
    <v>       0.99678800       0.00434700       0.68325400 </v>
    <v>       0.73119200       0.81024800       0.80115900 </v>
    <v>       0.23241400       0.15649500       0.17040100 </v>
    <v>       0.75123700       0.19138500       0.82060100 </v>
    <v>       0.24049700       0.17417400       0.82484000 </v>
    <v>       0.50127800       0.00283100       0.99993900 </v>
    <v>       0.75318200       0.49573300       0.49597800 </v>
    <v>       0.99347700       0.99751700       0.00018000 </v>
    <v>       0.01834500       0.32881900       0.99444800 </v>
    <v>       0.48355600       0.00700800       0.33459900 </v>
    <v>       0.26167500       0.82845200       0.50818700 </v>
    <v>       0.76628600       0.17482400       0.18228300 </v>
    <v>       0.98619300       0.67997600       0.00381100 </v>
    <v>       0.00787500       0.33462300       0.66983600 </v>
   </varray>
  </structure>
  <varray name="forces" >
   <v>      -0.01369414      -0.01037379      -0.00400972 </v>
   <v>       0.24912256      -0.41531887      -0.42060036 </v>
   <v>      -0.02484587       0.00552429       0.00767571 </v>
   <v>       0.32997505       0.36115441       0.28278949 </v>
   <v>      -0.01213443      -0.00938489      -0.00335286 </v>
   <v>      -0.07339119      -0.02492809      -0.01060191 </v>
   <v>       0.28832717       0.30854367      -0.26599250 </v>
   <v>       0.01819169      -0.00743150       0.02019181 </v>
   <v>       0.01347586       0.00068193      -0.00751505 </v>
   <v>      -0.02637363      -0.02432039       0.00982031 </v>
   <v>      -0.00191511       0.02847525       0.00159996 </v>
   <v>       0.01577235      -0.05430341       0.00087402 </v>
   <v>      -0.02013561      -0.01109543       0.00705644 </v>
   <v>      -0.00945167      -0.00524576       0.01280410 </v>
   <v>      -0.01600824       0.02099615      -0.01811233 </v>
   <v>      -0.28508434       0.25038644       0.23986394 </v>
   <v>       0.00883904       0.01433875      -0.00305948 </v>
   <v>       0.00452111      -0.01340284      -0.01027024 </v>
   <v>      -0.20022420      -0.27385520      -0.29807087 </v>
   <v>       0.00707303       0.00960465      -0.00509139 </v>
   <v>       0.00206957      -0.02444327      -0.02593238 </v>
   <v>       0.00853814       0.04260563       0.04744110 </v>
   <v>      -0.00387784       0.01925973      -0.00254518 </v>
   <v>      -0.00810625      -0.00020541      -0.00425600 </v>
   <v>       0.01379291      -0.02767513      -0.00836155 </v>
   <v>      -0.43788440      -0.21869201       0.34274956 </v>
   <v>       0.42421912      -0.40132418       0.33422337 </v>
   <v>       0.01488843       0.00719177      -0.02288864 </v>
   <v>      -0.23037269       0.19508024      -0.26465065 </v>
   <v>       0.00357989       0.00237676      -0.00608360 </v>
   <v>      -0.02852124       0.05156216      -0.01687160 </v>
   <v>       0.01560975       0.03136148       0.03572674 </v>
   <v>      -0.00587092       0.00549167      -0.00516255 </v>
   <v>      -0.01898996      -0.01024470      -0.00978844 </v>
   <v>       0.01180468      -0.00610114       0.00852338 </v>
   <v>      -0.01291861       0.18371103       0.06187736 </v>
  </varray>
  <varray name="stress" >
   <v>       8.82839093      -0.16840301      -0.13183818 </v>
   <v>      -0.16840308       7.83798550       0.26330552 </v>
   <v>      -0.13183820       0.26330553       8.47886283 </v>
  </varray>
  <energy>
   <i name="e_fr_energy">   -363.07819524 </i>
   <i name="e_wo_entrp">   -363.08607253 </i>
   <i name="e_0_energy">      0.02363186 </i>
  </energy>
  <time name="totalsc">   21.12   23.30</time>
 </calculation>
 <calculation>
  <scstep>
   <time name="dav">    0.86    0.87</time>
   <time name="total">    0.94    1.16</time>
   <energy>
    <i name="alphaZ">   1239.57673401 </i>
    <i name="ewald"> -14056.54280611 </i>
    <i name="hartreedc">  -5457.77142943 </i>
    <i name="XCdc">   -798.08593962 </i>
    <i name="pawpsdc">  29290.73826475 </i>
    <i name="pawaedc"> -27481.87964685 </i>
    <i name="eentropy">      0.02366299 </i>
    <i name="bandstr">  -1745.79058827 </i>
    <i name="atom">  18646.58571768 </i>
    <i name="e_fr_energy">   -363.14603085 </i>
    <i name="e_wo_entrp">   -363.16969384 </i>
    <i name="e_0_energy">   -363.15391852 </i>
   </energy>
  </scstep>
  <scstep>
   <time name="diag">    0.06    0.06</time>
   <time name="diis">    0.68    0.68</time>
   <time name="orth">    0.01    0.01</time>
   <time name="total">    0.82    0.86</time>
   <energy>
    <i name="e_fr_energy">   -363.13896388 </i>
    <i name="e_wo_entrp">   -363.16354073 </i>
    <i name="e_0_energy">   -363.14715617 </i>
   </energy>
  </scstep>
  <scstep>
   <time name="diag">    0.07    0.07</time>
   <time name="diis">    0.70    0.70</time>
   <time name="orth">    0.01    0.01</time>
   <time name="total">    0.84    0.88</time>
   <energy>
    <i name="e_fr_energy">   -363.12944219 </i>
    <i name="e_wo_entrp">   -363.15361977 </i>
    <i name="e_0_energy">   -363.13750138 </i>
   </energy>
  </scstep>
  <scstep>
   <time name="diag">    0.06    0.06</time>
   <time name="diis">    0.72    0.73</time>
   <time name="orth">    0.01    0.01</time>
   <time name="total">    0.86    0.91</time>
   <energy>
    <i name="e_fr_energy">   -363.12240502 </i>
    <i name="e_wo_entrp">   -363.14657996 </i>
    <i name="e_0_energy">   -363.13046333 </i>
   </energy>
  </scstep>
  <scstep>
   <time name="diag">    0.10    0.10</time>
   <time name="diis">    0.73    0.73</time>
   <time name="orth">    0.01    0.01</time>
   <time name="total">    0.93    0.99</time>
   <energy>
    <i name="e_fr_energy">   -363.12185745 </i>
    <i name="e_wo_entrp">   -363.14620649 </i>
    <i name="e_0_energy">   -363.12997380 </i>
   </energy>
  </scstep>
  <scstep>
   <time name="diag">    0.09    0.09</time>
   <time name="diis">    0.79    0.79</time>
   <time name="orth">    0.01    0.01</time>
   <time name="total">    0.95    1.00</time>
   <energy>
    <i name="e_fr_energy">   -363.12189964 </i>
    <i name="e_wo_entrp">   -363.14617386 </i>
    <i name="e_0_energy">   -363.12999105 </i>
   </energy>
  </scstep>
  <scstep>
   <time name="diag">    0.06    0.06</time>
   <time name="diis">    0.76    0.76</time>
   <time name="orth">    0.01    0.01</time>
   <time name="total">    0.89    0.94</time>
   <energy>
    <i name="e_fr_energy">   -363.12192119 </i>
    <i name="e_wo_entrp">   -363.14618229 </i>
    <i name="e_0_energy">   -363.13000822 </i>
   </energy>
  </scstep>
  <scstep>
   <time name="diag">    0.06    0.06</time>
   <time name="diis">    0.62    0.62</time>
   <time name="orth">    0.01    0.01</time>
   <time name="total">    0.75    0.80</time>
   <energy>
    <i name="e_fr_energy">   -363.12194671 </i>
    <i name="e_wo_entrp">   -363.14622970 </i>
    <i name="e_0_energy">   -363.13004104 </i>
   </energy>
  </scstep>
  <scstep>
   <time name="diag">    0.06    0.06</time>
   <time name="diis">    0.52    0.52</time>
   <time name="orth">    0.01    0.01</time>
   <time name="total">    0.65    0.70</time>
   <energy>
    <i name="e_fr_energy">   -363.12195971 </i>
    <i name="e_wo_entrp">   -363.14622425 </i>
    <i name="e_0_energy">   -363.13004789 </i>
   </energy>
  </scstep>
  <scstep>
   <time name="diag">    0.06    0.06</time>
   <time name="diis">    0.47    0.47</time>
   <time name="orth">    0.01    0.01</time>
   <time name="total">    0.57    0.62</time>
   <energy>
    <i name="alphaZ">   1239.57673401 </i>
    <i name="ewald"> -14056.54280611 </i>
    <i name="hartreedc">  -5470.64836452 </i>
    <i name="XCdc">   -797.57006825 </i>
    <i name="pawpsdc">  29063.37757759 </i>
    <i name="pawaedc"> -27254.68696044 </i>
    <i name="eentropy">      0.02428253 </i>
    <i name="bandstr">  -1733.23807745 </i>
    <i name="atom">  18646.58571768 </i>
    <i name="e_fr_energy">   -363.12196497 </i>
    <i name="e_wo_entrp">   -363.14624750 </i>
    <i name="e_0_energy">   -363.13005915 </i>
   </energy>
  </scstep>
  <structure>
   <crystal>
    <varray name="basis" >
     <v>       6.99627670       0.03228241      -0.00244790 </v>
     <v>       0.04824729      10.32560472       0.03372319 </v>
     <v>      -0.00329118       0.03376949      10.30654056 </v>
    </varray>
    <i name="volume">    744.52849784 </i>
    <varray name="rec_basis" >
     <v>       0.14293627      -0.00066804       0.00004783 </v>
     <v>      -0.00044700       0.09684975      -0.00031747 </v>
     <v>       0.00003541      -0.00031705       0.09702682 </v>
    </varray>
   </crystal>
   <varray name="positions" >
    <v>       0.75458372       0.84828255       0.19455040 </v>
    <v>       0.21646998       0.16915829       0.50463444 </v>
    <v>       0.03599847       0.33585188       0.33383976 </v>
    <v>       0.24816140       0.50181853       0.82521526 </v>
    <v>       0.25269595       0.83322892       0.17061832 </v>
    <v>       0.48416116       0.33354953       0.66535617 </v>
    <v>       0.24375426       0.49773444       0.50316963 </v>
    <v>       0.49987378       0.67355636       0.32616944 </v>
    <v>       0.47783791       0.63523490       0.65616043 </v>
    <v>       0.01871960       0.65372099       0.66116891 </v>
    <v>       0.01437976       0.99464598       0.33097412 </v>
    <v>       0.48516521       0.31832267       0.99095548 </v>
    <v>       0.74601639       0.48633252       0.17666097 </v>
    <v>       0.26622147       0.81574464       0.82592603 </v>
    <v>       0.74579561       0.82960466       0.49838142 </v>
    <v>       0.75009299       0.49854525       0.82548709 </v>
    <v>       0.26879317       0.51100408       0.16074564 </v>
    <v>       0.00751249       0.67037420       0.32841062 </v>
    <v>       0.77244960       0.17468624       0.49897492 </v>
    <v>       0.46471756       0.32063546       0.34200080 </v>
    <v>       0.52809551       0.68521479       0.01853664 </v>
    <v>       0.49505231       0.02657154       0.67192254 </v>
    <v>       0.99677978       0.00437407       0.68325033 </v>
    <v>       0.73117520       0.81024778       0.80115301 </v>
    <v>       0.23244284       0.15645610       0.17038937 </v>
    <v>       0.75033202       0.19107932       0.82108384 </v>
    <v>       0.24138014       0.17360637       0.82531209 </v>
    <v>       0.50130877       0.00284110       0.99990678 </v>
    <v>       0.75270258       0.49600954       0.49560479 </v>
    <v>       0.99348439       0.99752034       0.00017143 </v>
    <v>       0.01828539       0.32889164       0.99442402 </v>
    <v>       0.48358806       0.00705176       0.33464911 </v>
    <v>       0.26166278       0.82845977       0.50817971 </v>
    <v>       0.76624674       0.17480979       0.18226927 </v>
    <v>       0.98621753       0.67996732       0.00382302 </v>
    <v>       0.00784648       0.33488068       0.66992219 </v>
   </varray>
  </structure>
  <varray name="forces" >
   <v>      -0.00415234      -0.00857350       0.02095590 </v>
   <v>       0.17676047      -0.34652513      -0.36204667 </v>
   <v>       0.00397605      -0.00728590       0.02038631 </v>
   <v>       0.30112511       0.32145360       0.22846638 </v>
   <v>      -0.01378145      -0.01097171       0.01135566 </v>
   <v>      -0.07379973      -0.02566649       0.00768946 </v>
   <v>       0.25540663       0.27315808      -0.21848218 </v>
   <v>       0.01497904       0.00720958       0.00176111 </v>
   <v>       0.00559271       0.00201117      -0.00636066 </v>
   <v>      -0.00574631      -0.04212937       0.00717876 </v>
   <v>       0.00557300       0.01581094      -0.02760754 </v>
   <v>      -0.00390760      -0.05100001       0.00615304 </v>
   <v>      -0.01885931      -0.00962987       0.01231043 </v>
   <v>      -0.01257654      -0.00951241       0.00050032 </v>
   <v>      -0.01097167       0.01338473      -0.02003599 </v>
   <v>      -0.26940876       0.21602145       0.19454501 </v>
   <v>       0.01082258       0.01119027       0.00029322 </v>
   <v>       0.00062565      -0.00248574      -0.01909967 </v>
   <v>      -0.14951228      -0.23484837      -0.25848754 </v>
   <v>      -0.01545253       0.00418528      -0.00979566 </v>
   <v>       0.00234111      -0.00345963      -0.00657990 </v>
   <v>       0.00653930       0.04183068       0.04098472 </v>
   <v>      -0.00136856       0.04296297       0.00448522 </v>
   <v>      -0.00565254      -0.00999771      -0.01391772 </v>
   <v>      -0.00427350      -0.01799571       0.00441520 </v>
   <v>      -0.38543428      -0.17267096       0.28439802 </v>
   <v>       0.37541804      -0.35370252       0.29151266 </v>
   <v>       0.01256714      -0.00056156      -0.01092925 </v>
   <v>      -0.21067321       0.16749680      -0.22884069 </v>
   <v>       0.01035654      -0.00286339       0.00375510 </v>
   <v>      -0.00892646       0.03876879      -0.03647296 </v>
   <v>       0.00762017       0.01960082       0.00691861 </v>
   <v>      -0.01019303      -0.00110063      -0.00128112 </v>
   <v>      -0.00458415      -0.01006968      -0.00539570 </v>
   <v>       0.01022068       0.00540578       0.01572228 </v>
   <v>       0.00935004       0.14055936       0.06154587 </v>
  </varray>
  <varray name="stress" >
   <v>       2.45911716      -0.12978798      -0.06979279 </v>
   <v>      -0.12978803       1.32115071       0.15783091 </v>
   <v>      -0.06979276       0.15783087       2.07579174 </v>
  </varray>
  <energy>
   <i name="e_fr_energy">   -363.12196497 </i>
   <i name="e_wo_entrp">   -363.13005915 </i>
   <i name="e_0_energy">      0.02428253 </i>
  </energy>
  <time name="totalsc">    9.67   10.48</time>
 </calculation>
 <calculation>
  <scstep>
   <time name="dav">    0.89    0.89</time>
   <time name="total">    0.96    1.18</time>
   <energy>
    <i name="alphaZ">   1227.99068099 </i>
    <i name="ewald"> -14022.26765831 </i>
    <i name="hartreedc">  -5444.53679667 </i>
    <i name="XCdc">   -799.58311622 </i>
    <i name="pawpsdc">  29062.83590873 </i>
    <i name="pawaedc"> -27254.20185718 </i>
    <i name="eentropy">      0.02376029 </i>
    <i name="bandstr">  -1780.09782653 </i>
    <i name="atom">  18646.58571768 </i>
    <i name="e_fr_energy">   -363.25118720 </i>
    <i name="e_wo_entrp">   -363.27494750 </i>
    <i name="e_0_energy">   -363.25910730 </i>
   </energy>
  </scstep>
  <scstep>
   <time name="diag">    0.06    0.06</time>
   <time name="diis">    0.67    0.68</time>
   <time name="orth">    0.01    0.01</time>
   <time name="total">    0.80    0.84</time>
   <energy>
    <i name="e_fr_energy">   -363.22256143 </i>
    <i name="e_wo_entrp">   -363.24800046 </i>
    <i name="e_0_energy">   -363.23104111 </i>
   </energy>
  </scstep>
  <scstep>
   <time name="diag">    0.07    0.07</time>
   <time name="diis">    0.73    0.76</time>
   <time name="orth">    0.01    0.01</time>
   <time name="total">    0.88    0.96</time>
   <energy>
    <i name="e_fr_energy">   -363.18351052 </i>
    <i name="e_wo_entrp">   -363.20833398 </i>
    <i name="e_0_energy">   -363.19178500 </i>
   </energy>
  </scstep>
  <scstep>
   <time name="diag">    0.07    0.07</time>
   <time name="diis">    0.70    0.71</time>
   <time name="orth">    0.01    0.01</time>
   <time name="total">    0.85    0.90</time>
   <energy>
    <i name="e_fr_energy">   -363.15538078 </i>
    <i name="e_wo_entrp">   -363.18033962 </i>
    <i name="e_0_energy">   -363.16370040 </i>
   </energy>
  </scstep>
  <scstep>
   <time name="diag">    0.07    0.07</time>
   <time name="diis">    0.71    0.72</time>
   <time name="orth">    0.01    0.01</time>
   <time name="total">    0.88    0.94</time>
   <energy>
    <i name="e_fr_energy">   -363.15301335 </i>
    <i name="e_wo_entrp">   -363.17826170 </i>
    <i name="e_0_energy">   -363.16142947 </i>
   </energy>
  </scstep>
  <scstep>
   <time name="diag">    0.09    0.09</time>
   <time name="diis">    0.71    0.72</time>
   <time name="orth">    0.01    0.01</time>
   <time name="total">    0.88    0.93</time>
   <energy>
    <i name="e_fr_energy">   -363.15328882 </i>
    <i name="e_wo_entrp">   -363.17844543 </i>
    <i name="e_0_energy">   -363.16167436 </i>
   </energy>
  </scstep>
  <scstep>
   <time name="diag">    0.10    0.10</time>
   <time name="diis">    0.77    0.78</time>
   <time name="orth">    0.01    0.01</time>
   <time name="total">    0.94    0.99</time>
   <energy>
    <i name="e_fr_energy">   -363.15343303 </i>
    <i name="e_wo_entrp">   -363.17850335 </i>
    <i name="e_0_energy">   -363.16178981 </i>
   </energy>
  </scstep>
  <scstep>
   <time name="diag">    0.07    0.07</time>
   <time name="diis">    0.70    0.71</time>
   <time name="orth">    0.01    0.01</time>
   <time name="total">    0.85    0.93</time>
   <energy>
    <i name="e_fr_energy">   -363.15355694 </i>
    <i name="e_wo_entrp">   -363.17869822 </i>
    <i name="e_0_energy">   -363.16193737 </i>
   </energy>
  </scstep>
  <scstep>
   <time name="diag">    0.06    0.06</time>
   <time name="diis">    0.62    0.63</time>
   <time name="orth">    0.01    0.01</time>
   <time name="total">    0.76    0.81</time>
   <energy>
    <i name="e_fr_energy">   -363.15364380 </i>
    <i name="e_wo_entrp">   -363.17874358 </i>
    <i name="e_0_energy">   -363.16201039 </i>
   </energy>
  </scstep>
  <scstep>
   <time name="diag">    0.07    0.08</time>
   <time name="diis">    0.56    0.65</time>
   <time name="orth">    0.01    0.01</time>
   <time name="total">    0.74    0.89</time>
   <energy>
    <i name="e_fr_energy">   -363.15369947 </i>
    <i name="e_wo_entrp">   -363.17883966 </i>
    <i name="e_0_energy">   -363.16207953 </i>
   </energy>
  </scstep>
  <scstep>
   <time name="diag">    0.06    0.06</time>
   <time name="diis">    0.54    0.54</time>
   <time name="orth">    0.01    0.01</time>
   <time name="total">    0.67    0.74</time>
   <energy>
    <i name="e_fr_energy">   -363.15370036 </i>
    <i name="e_wo_entrp">   -363.17879723 </i>
    <i name="e_0_energy">   -363.16206598 </i>
   </energy>
  </scstep>
  <scstep>
   <time name="diag">    0.06    0.06</time>
   <time name="diis">    0.43    0.44</time>
   <time name="orth">    0.01    0.01</time>
   <time name="total">    0.54    0.58</time>
   <energy>
    <i name="alphaZ">   1227.99068099 </i>
    <i name="ewald"> -14022.26765831 </i>
    <i name="hartreedc">  -5470.15366741 </i>
    <i name="XCdc">   -798.55847451 </i>
    <i name="pawpsdc">  28614.95269716 </i>
    <i name="pawaedc"> -26806.94090263 </i>
    <i name="eentropy">      0.02511356 </i>
    <i name="bandstr">  -1754.78720837 </i>
    <i name="atom">  18646.58571768 </i>
    <i name="e_fr_energy">   -363.15370184 </i>
    <i name="e_wo_entrp">   -363.17881540 </i>
    <i name="e_0_energy">   -363.16207303 </i>
   </energy>
  </scstep>
  <structure>
   <crystal>
    <varray name="basis" >
     <v>       7.01937631       0.03193682      -0.00279691 </v>
     <v>       0.04775554      10.35588050       0.03484322 </v>
     <v>      -0.00381155       0.03488228      10.33923069 </v>
    </varray>
    <i name="volume">    751.55310053 </i>
    <varray name="rec_basis" >
     <v>       0.14246581      -0.00065716       0.00005474 </v>
     <v>      -0.00043949       0.09656662      -0.00032596 </v>
     <v>       0.00004002      -0.00032561       0.09672011 </v>
    </varray>
   </crystal>
   <varray name="positions" >
    <v>       0.75452684       0.84825347       0.19453914 </v>
    <v>       0.21751578       0.16798607       0.50344859 </v>
    <v>       0.03589482       0.33586774       0.33386140 </v>
    <v>       0.24953003       0.50283151       0.82601231 </v>
    <v>       0.25264555       0.83320261       0.17060891 </v>
    <v>       0.48385575       0.33348019       0.66532633 </v>
    <v>       0.24494957       0.49860447       0.50241454 </v>
    <v>       0.49994977       0.67353495       0.32622665 </v>
    <v>       0.47789405       0.63523672       0.65613918 </v>
    <v>       0.01861016       0.65365256       0.66119689 </v>
    <v>       0.01437122       0.99472640       0.33097838 </v>
    <v>       0.48523201       0.31816910       0.99095847 </v>
    <v>       0.74593269       0.48630139       0.17668101 </v>
    <v>       0.26618220       0.81572983       0.82596229 </v>
    <v>       0.74572846       0.82966433       0.49832997 </v>
    <v>       0.74890027       0.49925383       0.82616309 </v>
    <v>       0.26882973       0.51104449       0.16073686 </v>
    <v>       0.00753158       0.67033639       0.32838169 </v>
    <v>       0.77162002       0.17391824       0.49813395 </v>
    <v>       0.46474684       0.32066254       0.34198631 </v>
    <v>       0.52810458       0.68514598       0.01846350 </v>
    <v>       0.49508713       0.02669130       0.67205637 </v>
    <v>       0.99676323       0.00442854       0.68324295 </v>
    <v>       0.73114142       0.81024735       0.80114096 </v>
    <v>       0.23250086       0.15637784       0.17036599 </v>
    <v>       0.74851174       0.19046427       0.82205511 </v>
    <v>       0.24315649       0.17246441       0.82626181 </v>
    <v>       0.50137065       0.00286143       0.99984198 </v>
    <v>       0.75173826       0.49656590       0.49485400 </v>
    <v>       0.99349926       0.99752706       0.00015420 </v>
    <v>       0.01816549       0.32903778       0.99437579 </v>
    <v>       0.48365256       0.00713979       0.33474992 </v>
    <v>       0.26163820       0.82847540       0.50816505 </v>
    <v>       0.76616778       0.17478119       0.18224165 </v>
    <v>       0.98626686       0.67994986       0.00384720 </v>
    <v>       0.00778915       0.33539908       0.67009554 </v>
   </varray>
  </structure>
  <varray name="forces" >
   <v>       0.01494324      -0.00686670       0.06861044 </v>
   <v>       0.04113094      -0.21737894      -0.25348611 </v>
   <v>       0.05848764      -0.03233848       0.04571508 </v>
   <v>       0.24798981       0.24862489       0.12556058 </v>
   <v>      -0.01789137      -0.01475261       0.04047599 </v>
   <v>      -0.07278506      -0.02676680       0.04252295 </v>
   <v>       0.19581118       0.20608054      -0.12994895 </v>
   <v>       0.00892440       0.03455382      -0.03306098 </v>
   <v>      -0.01011145       0.00405729      -0.00466999 </v>
   <v>       0.03431964      -0.07613497       0.00240821 </v>
   <v>       0.02060643      -0.00648591      -0.08294890 </v>
   <v>      -0.04243969      -0.04436606       0.01580152 </v>
   <v>      -0.01695257      -0.00460681       0.02296460 </v>
   <v>      -0.01911742      -0.01860474      -0.02407291 </v>
   <v>      -0.00032223      -0.00318433      -0.02382517 </v>
   <v>      -0.24259921       0.15035245       0.10622018 </v>
   <v>       0.01332464       0.00434769       0.00815325 </v>
   <v>      -0.00674268       0.01579010      -0.03549440 </v>
   <v>      -0.05450787      -0.15999285      -0.18291909 </v>
   <v>      -0.05843017      -0.00569274      -0.01683852 </v>
   <v>       0.00176256       0.03690432       0.03034009 </v>
   <v>       0.00157076       0.04303533       0.02794304 </v>
   <v>       0.00475617       0.08906998       0.01865557 </v>
   <v>      -0.00102992      -0.02833431      -0.03143649 </v>
   <v>      -0.04044595      -0.00020534       0.02672757 </v>
   <v>      -0.28801975      -0.08602362       0.17650331 </v>
   <v>       0.28636637      -0.26619962       0.21491343 </v>
   <v>       0.00785146      -0.01404484       0.01290251 </v>
   <v>      -0.17389160       0.11580632      -0.15778003 </v>
   <v>       0.02368219      -0.01045174       0.02169001 </v>
   <v>       0.02861438       0.01205980      -0.07689768 </v>
   <v>      -0.00794768      -0.00279602      -0.05042970 </v>
   <v>      -0.01842701      -0.01406499       0.00504161 </v>
   <v>       0.02446592      -0.01030505       0.00081490 </v>
   <v>       0.00803615       0.02767836       0.02837743 </v>
   <v>       0.04901775       0.06123657       0.06146666 </v>
  </varray>
  <varray name="stress" >
   <v>     -10.11856792      -0.03992235       0.05641958 </v>
   <v>      -0.03992236     -11.47493849      -0.01718525 </v>
   <v>       0.05641955      -0.01718526     -10.54797638 </v>
  </varray>
  <energy>
   <i name="e_fr_energy">   -363.15370184 </i>
   <i name="e_wo_entrp">   -363.16207303 </i>
   <i name="e_0_energy">      0.02511356 </i>
  </energy>
  <time name="totalsc">   11.20   12.28</time>
 </calculation>
 <calculation>
  <scstep>
   <time name="dav">    0.78    0.79</time>
   <time name="total">    0.86    1.07</time>
   <energy>
    <i name="alphaZ">   1230.11552115 </i>
    <i name="ewald"> -14035.93322687 </i>
    <i name="hartreedc">  -5468.06373075 </i>
    <i name="XCdc">   -798.22271443 </i>
    <i name="pawpsdc">  28614.48155419 </i>
    <i name="pawaedc"> -26806.49270391 </i>
    <i name="eentropy">      0.02552180 </i>
    <i name="bandstr">  -1745.68090809 </i>
    <i name="atom">  18646.58571768 </i>
    <i name="e_fr_energy">   -363.18496922 </i>
    <i name="e_wo_entrp">   -363.21049102 </i>
    <i name="e_0_energy">   -363.19347649 </i>
   </energy>
  </scstep>
  <scstep>
   <time name="diag">    0.06    0.06</time>
   <time name="diis">    0.66    0.66</time>
   <time name="orth">    0.01    0.01</time>
   <time name="total">    0.80    0.84</time>
   <energy>
    <i name="e_fr_energy">   -363.19283288 </i>
    <i name="e_wo_entrp">   -363.21685828 </i>
    <i name="e_0_energy">   -363.20084135 </i>
   </energy>
  </scstep>
  <scstep>
   <time name="diag">    0.06    0.06</time>
   <time name="diis">    0.76    0.76</time>
   <time name="orth">    0.01    0.01</time>
   <time name="total">    0.89    0.94</time>
   <energy>
    <i name="e_fr_energy">   -363.18930868 </i>
    <i name="e_wo_entrp">   -363.21428782 </i>
    <i name="e_0_energy">   -363.19763506 </i>
   </energy>
  </scstep>
  <scstep>
   <time name="diag">    0.06    0.06</time>
   <time name="diis">    0.74    0.74</time>
   <time name="orth">    0.01    0.01</time>
   <time name="total">    0.90    0.95</time>
   <energy>
    <i name="e_fr_energy">   -363.18834595 </i>
    <i name="e_wo_entrp">   -363.21315357 </i>
    <i name="e_0_energy">   -363.19661516 </i>
   </energy>
  </scstep>
  <scstep>
   <time name="diag">    0.07    0.07</time>
   <time name="diis">    0.70    0.70</time>
   <time name="orth">    0.01    0.01</time>
   <time name="total">    0.84    0.89</time>
   <energy>
    <i name="e_fr_energy">   -363.18823998 </i>
    <i name="e_wo_entrp">   -363.21298792 </i>
    <i name="e_0_energy">   -363.19648929 </i>
   </energy>
  </scstep>
  <scstep>
   <time name="diag">    0.06    0.06</time>
   <time name="diis">    0.70    0.71</time>
   <time name="orth">    0.01    0.01</time>
   <time name="total">    0.83    0.89</time>
   <energy>
    <i name="e_fr_energy">   -363.18827082 </i>
    <i name="e_wo_entrp">   -363.21306055 </i>
    <i name="e_0_energy">   -363.19653406 </i>
   </energy>
  </scstep>
  <scstep>
   <time name="diag">    0.06    0.06</time>
   <time name="diis">    0.63    0.63</time>
   <time name="orth">    0.01    0.01</time>
   <time name="total">    0.76    0.81</time>
   <energy>
    <i name="e_fr_energy">   -363.18827982 </i>
    <i name="e_wo_entrp">   -363.21307246 </i>
    <i name="e_0_energy">   -363.19654403 </i>
   </energy>
  </scstep>
  <scstep>
   <time name="diag">    0.06    0.06</time>
   <time name="diis">    0.59    0.65</time>
   <time name="orth">    0.01    0.01</time>
   <time name="total">    0.72    0.83</time>
   <energy>
    <i name="e_fr_energy">   -363.18829816 </i>
    <i name="e_wo_entrp">   -363.21308825 </i>
    <i name="e_0_energy">   -363.19656152 </i>
   </energy>
  </scstep>
  <scstep>
   <time name="diag">    0.06    0.06</time>
   <time name="diis">    0.45    0.45</time>
   <time name="orth">    0.01    0.01</time>
   <time name="total">    0.55    0.60</time>
   <energy>
    <i name="alphaZ">   1230.11552115 </i>
    <i name="ewald"> -14035.93322687 </i>
    <i name="hartreedc">  -5462.47800518 </i>
    <i name="XCdc">   -798.43865488 </i>
    <i name="pawpsdc">  28665.50984012 </i>
    <i name="pawaedc"> -26857.66109650 </i>
    <i name="eentropy">      0.02478235 </i>
    <i name="bandstr">  -1750.91318419 </i>
    <i name="atom">  18646.58571768 </i>
    <i name="e_fr_energy">   -363.18830632 </i>
    <i name="e_wo_entrp">   -363.21308867 </i>
    <i name="e_0_energy">   -363.19656710 </i>
   </energy>
  </scstep>
  <structure>
   <crystal>
    <varray name="basis" >
     <v>       7.01651700       0.03168622      -0.00286532 </v>
     <v>       0.04740331      10.34772024       0.03520283 </v>
     <v>      -0.00391581       0.03523298      10.33371971 </v>
    </varray>
    <i name="volume">    750.25490521 </i>
    <varray name="rec_basis" >
     <v>       0.14252383      -0.00065310       0.00005623 </v>
     <v>      -0.00043657       0.09664277      -0.00032967 </v>
     <v>       0.00004101      -0.00032940       0.09677171 </v>
    </varray>
   </crystal>
   <varray name="positions" >
    <v>       0.75453221       0.84823276       0.19462185 </v>
    <v>       0.21801184       0.16724314       0.50265411 </v>
    <v>       0.03596321       0.33583251       0.33392828 </v>
    <v>       0.25053846       0.50354942       0.82648910 </v>
    <v>       0.25259211       0.83317332       0.17065663 </v>
    <v>       0.48359789       0.33341878       0.66536851 </v>
    <v>       0.24579130       0.49921278       0.50194719 </v>
    <v>       0.49999649       0.67357032       0.32620735 </v>
    <v>       0.47789750       0.63524268       0.65612474 </v>
    <v>       0.01863136       0.65352845       0.66121147 </v>
    <v>       0.01440638       0.99475053       0.33087473 </v>
    <v>       0.48517964       0.31805168       0.99097992 </v>
    <v>       0.74586762       0.48628311       0.17671820 </v>
    <v>       0.26613089       0.81570053       0.82594626 </v>
    <v>       0.74570106       0.82968422       0.49827917 </v>
    <v>       0.74796898       0.49972841       0.82656712 </v>
    <v>       0.26886923       0.51106603       0.16074370 </v>
    <v>       0.00752642       0.67034151       0.32832498 </v>
    <v>       0.77118805       0.17340972       0.49756649 </v>
    <v>       0.46464923       0.32066654       0.34195913 </v>
    <v>       0.52811119       0.68516517       0.01847269 </v>
    <v>       0.49510363       0.02679359       0.67214511 </v>
    <v>       0.99676478       0.00456316       0.68326332 </v>
    <v>       0.73112622       0.81021137       0.80109634 </v>
    <v>       0.23244835       0.15634645       0.17039059 </v>
    <v>       0.74724698       0.19011037       0.82266734 </v>
    <v>       0.24440393       0.17166814       0.82691538 </v>
    <v>       0.50141017       0.00285163       0.99983256 </v>
    <v>       0.75102678       0.49693666       0.49435319 </v>
    <v>       0.99354961       0.99751626       0.00017494 </v>
    <v>       0.01817102       0.32911160       0.99425879 </v>
    <v>       0.48366343       0.00717166       0.33472610 </v>
    <v>       0.26159402       0.82846389       0.50816565 </v>
    <v>       0.76618214       0.17475656       0.18223172 </v>
    <v>       0.98630137       0.67997782       0.00389280 </v>
    <v>       0.00785753       0.33568322       0.67024258 </v>
   </varray>
  </structure>
  <varray name="forces" >
   <v>       0.02161668      -0.00440401       0.06138116 </v>
   <v>      -0.00991885      -0.16093722      -0.17647856 </v>
   <v>       0.05152153      -0.03048927       0.04301887 </v>
   <v>       0.21301022       0.19505751       0.10832163 </v>
   <v>      -0.01813779      -0.01011235       0.03806402 </v>
   <v>      -0.05335317      -0.02972344       0.04727571 </v>
   <v>       0.15659989       0.15468136      -0.09891151 </v>
   <v>       0.00146814       0.03086934      -0.02960896 </v>
   <v>       0.01974236       0.04192632      -0.00718852 </v>
   <v>       0.02164139      -0.07222043      -0.00360762 </v>
   <v>       0.01571737      -0.01720729      -0.07931779 </v>
   <v>      -0.05012004      -0.02134810       0.03651069 </v>
   <v>      -0.00500864      -0.00220938       0.01418062 </v>
   <v>      -0.02826098      -0.00394979      -0.02099533 </v>
   <v>       0.01011005       0.00236107      -0.01029439 </v>
   <v>      -0.22057265       0.10856003       0.07843047 </v>
   <v>       0.00556265      -0.00856302      -0.00150258 </v>
   <v>      -0.01339660       0.01184262      -0.03654207 </v>
   <v>      -0.02061338      -0.12001190      -0.13549338 </v>
   <v>      -0.04893031      -0.00255241      -0.02356462 </v>
   <v>      -0.00198765       0.04403113       0.03103321 </v>
   <v>       0.00415356       0.01568982       0.00393626 </v>
   <v>       0.00118033       0.08811978       0.01782195 </v>
   <v>       0.01157808      -0.01729542      -0.02988557 </v>
   <v>      -0.03876001       0.01309544       0.01428572 </v>
   <v>      -0.21906223      -0.05448374       0.13061560 </v>
   <v>       0.22324437      -0.22754435       0.18658336 </v>
   <v>       0.01470857      -0.02454291       0.01998910 </v>
   <v>      -0.14658089       0.07595236      -0.12123413 </v>
   <v>       0.02023298      -0.01797259       0.01945965 </v>
   <v>       0.03367380       0.01241868      -0.08097535 </v>
   <v>      -0.00441199      -0.01773478      -0.06583654 </v>
   <v>      -0.02410990      -0.00295622       0.00704805 </v>
   <v>       0.02246572      -0.00395771      -0.01388602 </v>
   <v>       0.00938054       0.02890427       0.02594098 </v>
   <v>       0.04561684       0.02670660       0.05142591 </v>
  </varray>
  <varray name="stress" >
   <v>      -8.20223691       0.02405821       0.15745854 </v>
   <v>       0.02405820      -9.42860401       0.02290783 </v>
   <v>       0.15745853       0.02290787      -8.57673036 </v>
  </varray>
  <energy>
   <i name="e_fr_energy">   -363.18830632 </i>
   <i name="e_wo_entrp">   -363.19656710 </i>
   <i name="e_0_energy">      0.02478235 </i>
  </energy>
  <time name="totalsc">    8.54    9.34</time>
 </calculation>
 <calculation>
  <scstep>
   <time name="dav">    0.75    0.75</time>
   <time name="total">    0.83    1.03</time>
   <energy>
    <i name="alphaZ">   1236.14514528 </i>
    <i name="ewald"> -14072.64538784 </i>
    <i name="hartreedc">  -5458.40595701 </i>
    <i name="XCdc">   -797.47596533 </i>
    <i name="pawpsdc">  28665.76732371 </i>
    <i name="pawaedc"> -26857.89429976 </i>
    <i name="eentropy">      0.02491208 </i>
    <i name="bandstr">  -1725.31697277 </i>
    <i name="atom">  18646.58571768 </i>
    <i name="e_fr_energy">   -363.21548396 </i>
    <i name="e_wo_entrp">   -363.24039604 </i>
    <i name="e_0_energy">   -363.22378799 </i>
   </energy>
  </scstep>
  <scstep>
   <time name="diag">    0.06    0.07</time>
   <time name="diis">    0.66    0.67</time>
   <time name="orth">    0.01    0.01</time>
   <time name="total">    0.80    0.84</time>
   <energy>
    <i name="e_fr_energy">   -363.28375955 </i>
    <i name="e_wo_entrp">   -363.30420955 </i>
    <i name="e_0_energy">   -363.29057622 </i>
   </energy>
  </scstep>
  <scstep>
   <time name="diag">    0.06    0.06</time>
   <time name="diis">    0.67    0.68</time>
   <time name="orth">    0.01    0.01</time>
   <time name="total">    0.80    0.86</time>
   <energy>
    <i name="e_fr_energy">   -363.24812643 </i>
    <i name="e_wo_entrp">   -363.27139881 </i>
    <i name="e_0_energy">   -363.25588389 </i>
   </energy>
  </scstep>
  <scstep>
   <time name="diag">    0.06    0.06</time>
   <time name="diis">    0.78    0.78</time>
   <time name="orth">    0.01    0.01</time>
   <time name="total">    0.91    0.96</time>
   <energy>
    <i name="e_fr_energy">   -363.24138535 </i>
    <i name="e_wo_entrp">   -363.26433694 </i>
    <i name="e_0_energy">   -363.24903588 </i>
   </energy>
  </scstep>
  <scstep>
   <time name="diag">    0.06    0.06</time>
   <time name="diis">    0.79    0.79</time>
   <time name="orth">    0.01    0.01</time>
   <time name="total">    0.92    0.97</time>
   <energy>
    <i name="e_fr_energy">   -363.24050020 </i>
    <i name="e_wo_entrp">   -363.26331436 </i>
    <i name="e_0_energy">   -363.24810492 </i>
   </energy>
  </scstep>
  <scstep>
   <time name="diag">    0.06    0.06</time>
   <time name="diis">    0.71    0.71</time>
   <time name="orth">    0.01    0.01</time>
   <time name="total">    0.84    0.90</time>
   <energy>
    <i name="e_fr_energy">   -363.24082052 </i>
    <i name="e_wo_entrp">   -363.26367571 </i>
    <i name="e_0_energy">   -363.24843891 </i>
   </energy>
  </scstep>
  <scstep>
   <time name="diag">    0.06    0.06</time>
   <time name="diis">    0.72    0.72</time>
   <time name="orth">    0.01    0.01</time>
   <time name="total">    0.85    0.89</time>
   <energy>
    <i name="e_fr_energy">   -363.24085573 </i>
    <i name="e_wo_entrp">   -363.26375300 </i>
    <i name="e_0_energy">   -363.24848816 </i>
   </energy>
  </scstep>
  <scstep>
   <time name="diag">    0.06    0.06</time>
   <time name="diis">    0.70    0.71</time>
   <time name="orth">    0.02    0.02</time>
   <time name="total">    0.85    0.90</time>
   <energy>
    <i name="e_fr_energy">   -363.24098045 </i>
    <i name="e_wo_entrp">   -363.26386997 </i>
    <i name="e_0_energy">   -363.24861029 </i>
   </energy>
  </scstep>
  <scstep>
   <time name="diag">    0.06    0.07</time>
   <time name="diis">    0.69    0.69</time>
   <time name="orth">    0.01    0.01</time>
   <time name="total">    0.82    0.87</time>
   <energy>
    <i name="e_fr_energy">   -363.24101688 </i>
    <i name="e_wo_entrp">   -363.26388585 </i>
    <i name="e_0_energy">   -363.24863987 </i>
   </energy>
  </scstep>
  <scstep>
   <time name="diag">    0.06    0.06</time>
   <time name="diis">    0.60    0.60</time>
   <time name="orth">    0.01    0.01</time>
   <time name="total">    0.74    0.78</time>
   <energy>
    <i name="e_fr_energy">   -363.24104358 </i>
    <i name="e_wo_entrp">   -363.26392225 </i>
    <i name="e_0_energy">   -363.24866980 </i>
   </energy>
  </scstep>
  <scstep>
   <time name="diag">    0.07    0.07</time>
   <time name="diis">    0.50    0.51</time>
   <time name="orth">    0.01    0.01</time>
   <time name="total">    0.64    0.69</time>
   <energy>
    <i name="e_fr_energy">   -363.24105536 </i>
    <i name="e_wo_entrp">   -363.26392282 </i>
    <i name="e_0_energy">   -363.24867785 </i>
   </energy>
  </scstep>
  <scstep>
   <time name="diag">    0.07    0.07</time>
   <time name="diis">    0.39    0.41</time>
   <time name="orth">    0.01    0.01</time>
   <time name="total">    0.50    0.57</time>
   <energy>
    <i name="alphaZ">   1236.14514528 </i>
    <i name="ewald"> -14072.64538784 </i>
    <i name="hartreedc">  -5443.25313739 </i>
    <i name="XCdc">   -798.06368648 </i>
    <i name="pawpsdc">  28831.73540924 </i>
    <i name="pawaedc"> -27023.71733040 </i>
    <i name="eentropy">      0.02287875 </i>
    <i name="bandstr">  -1740.05066858 </i>
    <i name="atom">  18646.58571768 </i>
    <i name="e_fr_energy">   -363.24105974 </i>
    <i name="e_wo_entrp">   -363.26393848 </i>
    <i name="e_0_energy">   -363.24868599 </i>
   </energy>
  </scstep>
  <structure>
   <crystal>
    <varray name="basis" >
     <v>       7.00843963       0.03097831      -0.00305858 </v>
     <v>       0.04640828      10.32466801       0.03621872 </v>
     <v>      -0.00421031       0.03622369      10.31815154 </v>
    </varray>
    <i name="volume">    746.59533894 </i>
    <varray name="rec_basis" >
     <v>       0.14268798      -0.00064158       0.00006048 </v>
     <v>      -0.00042828       0.09685853      -0.00034021 </v>
     <v>       0.00004380      -0.00034018       0.09691780 </v>
    </varray>
   </crystal>
   <varray name="positions" >
    <v>       0.75454738       0.84817422       0.19485562 </v>
    <v>       0.21941363       0.16514286       0.50040866 </v>
    <v>       0.03615648       0.33573292       0.33411734 </v>
    <v>       0.25338848       0.50557910       0.82783665 </v>
    <v>       0.25244107       0.83309050       0.17079151 </v>
    <v>       0.48286913       0.33324515       0.66548775 </v>
    <v>       0.24817016       0.50093269       0.50062618 </v>
    <v>       0.50012851       0.67367031       0.32615279 </v>
    <v>       0.47790725       0.63525951       0.65608392 </v>
    <v>       0.01869125       0.65317757       0.66125268 </v>
    <v>       0.01450572       0.99481875       0.33058178 </v>
    <v>       0.48503163       0.31771970       0.99104054 </v>
    <v>       0.74568370       0.48623142       0.17682332 </v>
    <v>       0.26598588       0.81561769       0.82590093 </v>
    <v>       0.74562363       0.82974047       0.49813558 </v>
    <v>       0.74533715       0.50107002       0.82770901 </v>
    <v>       0.26898085       0.51112693       0.16076303 </v>
    <v>       0.00751183       0.67035599       0.32816468 </v>
    <v>       0.76996718       0.17197209       0.49596262 </v>
    <v>       0.46437336       0.32067785       0.34188230 </v>
    <v>       0.52812989       0.68521943       0.01849867 </v>
    <v>       0.49515026       0.02708275       0.67239594 </v>
    <v>       0.99676916       0.00494376       0.68332089 </v>
    <v>       0.73108328       0.81010967       0.80097020 </v>
    <v>       0.23229994       0.15625770       0.17046013 </v>
    <v>       0.74367266       0.18910972       0.82439778 </v>
    <v>       0.24792922       0.16941697       0.82876276 </v>
    <v>       0.50152187       0.00282395       0.99980594 </v>
    <v>       0.74901611       0.49798487       0.49293759 </v>
    <v>       0.99369193       0.99748572       0.00023355 </v>
    <v>       0.01818665       0.32932032       0.99392809 </v>
    <v>       0.48369414       0.00726175       0.33465877 </v>
    <v>       0.26146919       0.82843134       0.50816735 </v>
    <v>       0.76622269       0.17468692       0.18220364 </v>
    <v>       0.98639891       0.68005689       0.00402167 </v>
    <v>       0.00805082       0.33648651       0.67065816 </v>
   </varray>
  </structure>
  <varray name="forces" >
   <v>       0.04041891       0.00294232       0.03815210 </v>
   <v>      -0.14667528      -0.00546402       0.04362116 </v>
   <v>       0.02725598      -0.02688330       0.03441227 </v>
   <v>       0.11137049       0.03830838       0.06514022 </v>
   <v>      -0.01838262       0.00271365       0.03291086 </v>
   <v>       0.00251057      -0.03374930       0.05857317 </v>
   <v>       0.04734065       0.00650304      -0.01748586 </v>
   <v>      -0.02064542       0.02297559      -0.02353434 </v>
   <v>       0.10660789       0.15332117      -0.01551235 </v>
   <v>      -0.01415400      -0.06320073      -0.02167587 </v>
   <v>       0.00184908      -0.04878393      -0.07230464 </v>
   <v>      -0.07108768       0.04864359       0.10037643 </v>
   <v>       0.02795482       0.00386002      -0.01108810 </v>
   <v>      -0.05264786       0.04063686      -0.01307147 </v>
   <v>       0.03745707       0.01936521       0.02878338 </v>
   <v>      -0.15723420      -0.01310726       0.00252820 </v>
   <v>      -0.01718949      -0.04691920      -0.02792039 </v>
   <v>      -0.03163361      -0.00137474      -0.03957333 </v>
   <v>       0.07088306      -0.00754267      -0.00497534 </v>
   <v>      -0.02058461       0.00783509      -0.04143849 </v>
   <v>      -0.01420288       0.06729312       0.03470369 </v>
   <v>       0.01247785      -0.06504598      -0.06864470 </v>
   <v>      -0.01138269       0.08374104       0.01790874 </v>
   <v>       0.04781452       0.01759218      -0.02212814 </v>
   <v>      -0.03472160       0.05570602      -0.02422281 </v>
   <v>      -0.01929633       0.03259105       0.00587096 </v>
   <v>       0.04486840      -0.12093946       0.11067584 </v>
   <v>       0.03640622      -0.06022531       0.04664528 </v>
   <v>      -0.06605975      -0.03926485      -0.01408518 </v>
   <v>       0.00964894      -0.03856607       0.01047636 </v>
   <v>       0.04304192       0.01379955      -0.09116298 </v>
   <v>       0.00770192      -0.06420368      -0.11228666 </v>
   <v>      -0.03915947       0.03048094       0.01320523 </v>
   <v>       0.01671022       0.01658051      -0.05782141 </v>
   <v>       0.01218850       0.02960698       0.01602348 </v>
   <v>       0.03055048      -0.05922582       0.01892465 </v>
  </varray>
  <varray name="stress" >
   <v>      -2.13430600       0.17670602       0.43349617 </v>
   <v>       0.17670601      -2.90889110       0.19138155 </v>
   <v>       0.43349619       0.19138155      -2.33482715 </v>
  </varray>
  <energy>
   <i name="e_fr_energy">   -363.24105974 </i>
   <i name="e_wo_entrp">   -363.24868599 </i>
   <i name="e_0_energy">      0.02287875 </i>
  </energy>
  <time name="totalsc">   10.93   11.94</time>
 </calculation>
 <calculation>
  <scstep>
   <time name="dav">    0.81    0.82</time>
   <time name="total">    0.89    1.09</time>
   <energy>
    <i name="alphaZ">   1237.84840335 </i>
    <i name="ewald"> -14082.47303741 </i>
    <i name="hartreedc">  -5442.59082974 </i>
    <i name="XCdc">   -797.78923625 </i>
    <i name="pawpsdc">  28832.00804139 </i>
    <i name="pawaedc"> -27023.97972151 </i>
    <i name="eentropy">      0.02274247 </i>
    <i name="bandstr">  -1732.87355421 </i>
    <i name="atom">  18646.58571768 </i>
    <i name="e_fr_energy">   -363.24147424 </i>
    <i name="e_wo_entrp">   -363.26421670 </i>
    <i name="e_0_energy">   -363.24905506 </i>
   </energy>
  </scstep>
  <scstep>
   <time name="diag">    0.11    0.11</time>
   <time name="diis">    0.68    0.69</time>
   <time name="orth">    0.01    0.01</time>
   <time name="total">    0.87    0.91</time>
   <energy>
    <i name="e_fr_energy">   -363.24680826 </i>
    <i name="e_wo_entrp">   -363.26835383 </i>
    <i name="e_0_energy">   -363.25399012 </i>
   </energy>
  </scstep>
  <scstep>
   <time name="diag">    0.08    0.08</time>
   <time name="diis">    0.75    0.75</time>
   <time name="orth">    0.01    0.01</time>
   <time name="total">    0.90    0.95</time>
   <energy>
    <i name="e_fr_energy">   -363.24440737 </i>
    <i name="e_wo_entrp">   -363.26665650 </i>
    <i name="e_0_energy">   -363.25182375 </i>
   </energy>
  </scstep>
  <scstep>
   <time name="diag">    0.06    0.06</time>
   <time name="diis">    0.70    0.70</time>
   <time name="orth">    0.01    0.01</time>
   <time name="total">    0.83    0.88</time>
   <energy>
    <i name="e_fr_energy">   -363.24381478 </i>
    <i name="e_wo_entrp">   -363.26595830 </i>
    <i name="e_0_energy">   -363.25119596 </i>
   </energy>
  </scstep>
  <scstep>
   <time name="diag">    0.07    0.07</time>
   <time name="diis">    0.70    0.70</time>
   <time name="orth">    0.01    0.01</time>
   <time name="total">    0.85    0.92</time>
   <energy>
    <i name="e_fr_energy">   -363.24376072 </i>
    <i name="e_wo_entrp">   -363.26586441 </i>
    <i name="e_0_energy">   -363.25112861 </i>
   </energy>
  </scstep>
  <scstep>
   <time name="diag">    0.06    0.06</time>
   <time name="diis">    0.65    0.70</time>
   <time name="orth">    0.01    0.02</time>
   <time name="total">    0.79    0.92</time>
   <energy>
    <i name="e_fr_energy">   -363.24378615 </i>
    <i name="e_wo_entrp">   -363.26590129 </i>
    <i name="e_0_energy">   -363.25115787 </i>
   </energy>
  </scstep>
  <scstep>
[...]
       <r>    5.8666    1.0000 </r>
       <r>    5.8839    1.0000 </r>
       <r>    5.9272    1.0000 </r>
       <r>    5.9521    1.0000 </r>
       <r>    5.9950    1.0000 </r>
       <r>    6.0282    1.0000 </r>
       <r>    6.0740    1.0000 </r>
       <r>    6.1202    1.0000 </r>
       <r>    6.1972    1.0000 </r>
       <r>    6.2183    1.0000 </r>
       <r>    6.2574    1.0000 </r>
       <r>    6.2784    1.0000 </r>
       <r>    6.3060    1.0001 </r>
       <r>    6.3590    1.0005 </r>
       <r>    6.3791    1.0010 </r>
       <r>    6.4028    1.0020 </r>
       <r>    6.4379    1.0049 </r>
       <r>    6.4771    1.0116 </r>
       <r>    6.5017    1.0179 </r>
       <r>    6.5730    1.0354 </r>
       <r>    6.5861    1.0346 </r>
       <r>    6.6342    0.9979 </r>
       <r>    6.6408    0.9871 </r>
       <r>    6.6990    0.8108 </r>
       <r>    6.7383    0.6161 </r>
       <r>    6.7734    0.4194 </r>
       <r>    6.7935    0.3115 </r>
       <r>    6.8367    0.1204 </r>
       <r>    6.8897   -0.0060 </r>
       <r>    6.9600   -0.0337 </r>
       <r>    6.9953   -0.0242 </r>
       <r>    7.0310   -0.0139 </r>
       <r>    7.0663   -0.0068 </r>
       <r>    7.0864   -0.0042 </r>
       <r>    7.1301   -0.0013 </r>
       <r>    7.1518   -0.0007 </r>
       <r>    7.1906   -0.0002 </r>
       <r>    7.2250   -0.0001 </r>
       <r>    7.2533   -0.0000 </r>
       <r>    7.3137   -0.0000 </r>
       <r>    7.3758   -0.0000 </r>
       <r>    7.4119   -0.0000 </r>
       <r>    7.4606   -0.0000 </r>
       <r>    7.5069   -0.0000 </r>
       <r>    7.5423   -0.0000 </r>
       <r>    7.6204   -0.0000 </r>
       <r>    7.6583   -0.0000 </r>
       <r>    7.7083   -0.0000 </r>
       <r>    7.8127   -0.0000 </r>
      </set>
     </set>
    </set>
   </array>
  </eigenvalues>
  <separator name="orbital magnetization" >
   <v name="MAGDIPOLOUT">      0.00000000      0.00000000      0.00000000</v>
  </separator>
  <dos>
   <i name="efermi">      6.75907490 </i>
   <total>
    <array>
     <dimension dim="1">gridpoints</dimension>
     <dimension dim="2">spin</dimension>
     <field>energy</field>
     <field>total</field>
     <field>integrated</field>
     <set>
      <set comment="spin 1">
       <r>   -50.1896     0.0000     0.0000 </r>
       <r>   -49.9859     0.0000     0.0000 </r>
       <r>   -49.7822     0.0000     0.0000 </r>
       <r>   -49.5785     0.0000     0.0000 </r>
       <r>   -49.3747     0.0000     0.0000 </r>
       <r>   -49.1710     0.0000     0.0000 </r>
       <r>   -48.9673     0.0000     0.0000 </r>
       <r>   -48.7636    -0.0000    -0.0000 </r>
       <r>   -48.5598    -0.0000    -0.0000 </r>
       <r>   -48.3561    -0.0000    -0.0000 </r>
       <r>   -48.1524    -0.0000    -0.0000 </r>
       <r>   -47.9487    -0.0000    -0.0000 </r>
       <r>   -47.7449    -0.0559    -0.0114 </r>
       <r>   -47.5412    -0.2663    -0.0656 </r>
       <r>   -47.3375    16.1724     3.2291 </r>
       <r>   -47.1338    11.5936     5.5909 </r>
       <r>   -46.9301     2.1951     6.0381 </r>
       <r>   -46.7263    -0.1864     6.0001 </r>
       <r>   -46.5226    -0.0007     6.0000 </r>
       <r>   -46.3189    -0.0000     6.0000 </r>
       <r>   -46.1152    -0.0000     6.0000 </r>
       <r>   -45.9114     0.0000     6.0000 </r>
       <r>   -45.7077     0.0000     6.0000 </r>
       <r>   -45.5040     0.0000     6.0000 </r>
       <r>   -45.3003     0.0000     6.0000 </r>
       <r>   -45.0965     0.0000     6.0000 </r>
       <r>   -44.8928     0.0000     6.0000 </r>
       <r>   -44.6891     0.0000     6.0000 </r>
       <r>   -44.4854     0.0000     6.0000 </r>
       <r>   -44.2817     0.0000     6.0000 </r>
       <r>   -44.0779     0.0000     6.0000 </r>
       <r>   -43.8742     0.0000     6.0000 </r>
       <r>   -43.6705     0.0000     6.0000 </r>
       <r>   -43.4668     0.0000     6.0000 </r>
       <r>   -43.2630     0.0000     6.0000 </r>
       <r>   -43.0593     0.0000     6.0000 </r>
       <r>   -42.8556    -0.0000     6.0000 </r>
       <r>   -42.6519    -0.0000     6.0000 </r>
       <r>   -42.4481    -0.0000     6.0000 </r>
       <r>   -42.2444    -0.0000     6.0000 </r>
       <r>   -42.0407    -0.0008     5.9998 </r>
       <r>   -41.8370    -0.3834     5.9217 </r>
       <r>   -41.6333     2.8431     6.5009 </r>
       <r>   -41.4295    48.1403    16.3082 </r>
       <r>   -41.2258    37.2936    23.9058 </r>
       <r>   -41.0221     0.6720    24.0427 </r>
       <r>   -40.8184    -0.2092    24.0001 </r>
       <r>   -40.6146    -0.0003    24.0000 </r>
       <r>   -40.4109    -0.0000    24.0000 </r>
       <r>   -40.2072    -0.0000    24.0000 </r>
       <r>   -40.0035     0.0000    24.0000 </r>
       <r>   -39.7998     0.0000    24.0000 </r>
       <r>   -39.5960     0.0000    24.0000 </r>
       <r>   -39.3923     0.0000    24.0000 </r>
       <r>   -39.1886     0.0000    24.0000 </r>
       <r>   -38.9849     0.0000    24.0000 </r>
       <r>   -38.7811     0.0000    24.0000 </r>
       <r>   -38.5774     0.0000    24.0000 </r>
       <r>   -38.3737     0.0000    24.0000 </r>
       <r>   -38.1700     0.0000    24.0000 </r>
       <r>   -37.9662     0.0000    24.0000 </r>
       <r>   -37.7625     0.0000    24.0000 </r>
       <r>   -37.5588     0.0000    24.0000 </r>
       <r>   -37.3551     0.0000    24.0000 </r>
       <r>   -37.1514     0.0000    24.0000 </r>
       <r>   -36.9476     0.0000    24.0000 </r>
       <r>   -36.7439     0.0000    24.0000 </r>
       <r>   -36.5402     0.0000    24.0000 </r>
       <r>   -36.3365     0.0000    24.0000 </r>
       <r>   -36.1327     0.0000    24.0000 </r>
       <r>   -35.9290     0.0000    24.0000 </r>
       <r>   -35.7253     0.0000    24.0000 </r>
       <r>   -35.5216     0.0000    24.0000 </r>
       <r>   -35.3178     0.0000    24.0000 </r>
       <r>   -35.1141     0.0000    24.0000 </r>
       <r>   -34.9104     0.0000    24.0000 </r>
       <r>   -34.7067     0.0000    24.0000 </r>
       <r>   -34.5030     0.0000    24.0000 </r>
       <r>   -34.2992     0.0000    24.0000 </r>
       <r>   -34.0955     0.0000    24.0000 </r>
       <r>   -33.8918     0.0000    24.0000 </r>
       <r>   -33.6881     0.0000    24.0000 </r>
       <r>   -33.4843     0.0000    24.0000 </r>
       <r>   -33.2806     0.0000    24.0000 </r>
       <r>   -33.0769     0.0000    24.0000 </r>
       <r>   -32.8732     0.0000    24.0000 </r>
       <r>   -32.6694     0.0000    24.0000 </r>
       <r>   -32.4657     0.0000    24.0000 </r>
       <r>   -32.2620     0.0000    24.0000 </r>
       <r>   -32.0583     0.0000    24.0000 </r>
       <r>   -31.8546     0.0000    24.0000 </r>
       <r>   -31.6508     0.0000    24.0000 </r>
       <r>   -31.4471     0.0000    24.0000 </r>
       <r>   -31.2434     0.0000    24.0000 </r>
       <r>   -31.0397     0.0000    24.0000 </r>
       <r>   -30.8359     0.0000    24.0000 </r>
       <r>   -30.6322     0.0000    24.0000 </r>
       <r>   -30.4285     0.0000    24.0000 </r>
       <r>   -30.2248     0.0000    24.0000 </r>
       <r>   -30.0211     0.0000    24.0000 </r>
       <r>   -29.8173     0.0000    24.0000 </r>
       <r>   -29.6136     0.0000    24.0000 </r>
       <r>   -29.4099     0.0000    24.0000 </r>
       <r>   -29.2062     0.0000    24.0000 </r>
       <r>   -29.0024     0.0000    24.0000 </r>
       <r>   -28.7987     0.0000    24.0000 </r>
       <r>   -28.5950     0.0000    24.0000 </r>
       <r>   -28.3913     0.0000    24.0000 </r>
       <r>   -28.1875     0.0000    24.0000 </r>
       <r>   -27.9838     0.0000    24.0000 </r>
       <r>   -27.7801     0.0000    24.0000 </r>
       <r>   -27.5764     0.0000    24.0000 </r>
       <r>   -27.3727     0.0000    24.0000 </r>
       <r>   -27.1689     0.0000    24.0000 </r>
       <r>   -26.9652     0.0000    24.0000 </r>
       <r>   -26.7615     0.0000    24.0000 </r>
       <r>   -26.5578     0.0000    24.0000 </r>
       <r>   -26.3540     0.0000    24.0000 </r>
       <r>   -26.1503     0.0000    24.0000 </r>
       <r>   -25.9466     0.0000    24.0000 </r>
       <r>   -25.7429     0.0000    24.0000 </r>
       <r>   -25.5391     0.0000    24.0000 </r>
       <r>   -25.3354     0.0000    24.0000 </r>
       <r>   -25.1317     0.0000    24.0000 </r>
       <r>   -24.9280    -0.0000    24.0000 </r>
       <r>   -24.7243    -0.0000    24.0000 </r>
       <r>   -24.5205    -0.0000    24.0000 </r>
       <r>   -24.3168    -0.0000    24.0000 </r>
       <r>   -24.1131    -0.0001    24.0000 </r>
       <r>   -23.9094    -0.1123    23.9771 </r>
       <r>   -23.7056    -1.3261    23.7070 </r>
       <r>   -23.5019    42.5519    32.3758 </r>
       <r>   -23.2982    40.2087    40.5672 </r>
       <r>   -23.0945     7.6805    42.1319 </r>
       <r>   -22.8908    -0.6438    42.0007 </r>
       <r>   -22.6870    -0.0036    42.0000 </r>
       <r>   -22.4833    -0.0000    42.0000 </r>
       <r>   -22.2796    -0.0000    42.0000 </r>
       <r>   -22.0759     0.0000    42.0000 </r>
       <r>   -21.8721     0.0000    42.0000 </r>
       <r>   -21.6684     0.0000    42.0000 </r>
       <r>   -21.4647     0.0000    42.0000 </r>
       <r>   -21.2610    -0.0000    42.0000 </r>
       <r>   -21.0572    -0.0000    42.0000 </r>
       <r>   -20.8535    -0.0000    42.0000 </r>
       <r>   -20.6498    -0.0000    42.0000 </r>
       <r>   -20.4461    -0.0000    42.0000 </r>
       <r>   -20.2424    -0.0333    41.9932 </r>
       <r>   -20.0386    -0.6962    41.8514 </r>
       <r>   -19.8349    13.1695    44.5343 </r>
       <r>   -19.6312    63.5427    57.4794 </r>
       <r>   -19.4275   131.9857    84.3679 </r>
       <r>   -19.2237    51.6951    94.8994 </r>
       <r>   -19.0200     5.9743    96.1165 </r>
       <r>   -18.8163    -0.5642    96.0016 </r>
       <r>   -18.6126    -0.0077    96.0000 </r>
       <r>   -18.4088    -0.0000    96.0000 </r>
       <r>   -18.2051    -0.0000    96.0000 </r>
       <r>   -18.0014     0.0000    96.0000 </r>
       <r>   -17.7977     0.0000    96.0000 </r>
       <r>   -17.5940     0.0000    96.0000 </r>
       <r>   -17.3902     0.0000    96.0000 </r>
       <r>   -17.1865     0.0000    96.0000 </r>
       <r>   -16.9828     0.0000    96.0000 </r>
       <r>   -16.7791     0.0000    96.0000 </r>
       <r>   -16.5753     0.0000    96.0000 </r>
       <r>   -16.3716     0.0000    96.0000 </r>
       <r>   -16.1679     0.0000    96.0000 </r>
       <r>   -15.9642     0.0000    96.0000 </r>
       <r>   -15.7604     0.0000    96.0000 </r>
       <r>   -15.5567     0.0000    96.0000 </r>
       <r>   -15.3530     0.0000    96.0000 </r>
       <r>   -15.1493     0.0000    96.0000 </r>
       <r>   -14.9456     0.0000    96.0000 </r>
       <r>   -14.7418     0.0000    96.0000 </r>
       <r>   -14.5381     0.0000    96.0000 </r>
       <r>   -14.3344     0.0000    96.0000 </r>
       <r>   -14.1307     0.0000    96.0000 </r>
       <r>   -13.9269     0.0000    96.0000 </r>
       <r>   -13.7232     0.0000    96.0000 </r>
       <r>   -13.5195     0.0000    96.0000 </r>
       <r>   -13.3158     0.0000    96.0000 </r>
       <r>   -13.1121     0.0000    96.0000 </r>
       <r>   -12.9083     0.0000    96.0000 </r>
       <r>   -12.7046     0.0000    96.0000 </r>
       <r>   -12.5009     0.0000    96.0000 </r>
       <r>   -12.2972     0.0000    96.0000 </r>
       <r>   -12.0934     0.0000    96.0000 </r>
       <r>   -11.8897     0.0000    96.0000 </r>
       <r>   -11.6860     0.0000    96.0000 </r>
       <r>   -11.4823     0.0000    96.0000 </r>
       <r>   -11.2785     0.0000    96.0000 </r>
       <r>   -11.0748     0.0000    96.0000 </r>
       <r>   -10.8711     0.0000    96.0000 </r>
       <r>   -10.6674     0.0000    96.0000 </r>
       <r>   -10.4637     0.0000    96.0000 </r>
       <r>   -10.2599     0.0000    96.0000 </r>
       <r>   -10.0562     0.0000    96.0000 </r>
       <r>    -9.8525     0.0000    96.0000 </r>
       <r>    -9.6488     0.0000    96.0000 </r>
       <r>    -9.4450     0.0000    96.0000 </r>
       <r>    -9.2413     0.0000    96.0000 </r>
       <r>    -9.0376     0.0000    96.0000 </r>
       <r>    -8.8339     0.0000    96.0000 </r>
       <r>    -8.6301     0.0000    96.0000 </r>
       <r>    -8.4264     0.0000    96.0000 </r>
       <r>    -8.2227     0.0000    96.0000 </r>
       <r>    -8.0190     0.0000    96.0000 </r>
       <r>    -7.8153     0.0000    96.0000 </r>
       <r>    -7.6115     0.0000    96.0000 </r>
       <r>    -7.4078     0.0000    96.0000 </r>
       <r>    -7.2041     0.0000    96.0000 </r>
       <r>    -7.0004     0.0000    96.0000 </r>
       <r>    -6.7966     0.0000    96.0000 </r>
       <r>    -6.5929     0.0000    96.0000 </r>
       <r>    -6.3892     0.0000    96.0000 </r>
       <r>    -6.1855     0.0000    96.0000 </r>
       <r>    -5.9818     0.0000    96.0000 </r>
       <r>    -5.7780     0.0000    96.0000 </r>
       <r>    -5.5743     0.0000    96.0000 </r>
       <r>    -5.3706     0.0000    96.0000 </r>
       <r>    -5.1669     0.0000    96.0000 </r>
       <r>    -4.9631     0.0000    96.0000 </r>
       <r>    -4.7594     0.0000    96.0000 </r>
       <r>    -4.5557     0.0000    96.0000 </r>
       <r>    -4.3520     0.0000    96.0000 </r>
       <r>    -4.1482     0.0000    96.0000 </r>
       <r>    -3.9445     0.0000    96.0000 </r>
       <r>    -3.7408     0.0000    96.0000 </r>
       <r>    -3.5371     0.0000    96.0000 </r>
       <r>    -3.3334     0.0000    96.0000 </r>
       <r>    -3.1296     0.0000    96.0000 </r>
       <r>    -2.9259     0.0000    96.0000 </r>
       <r>    -2.7222     0.0000    96.0000 </r>
       <r>    -2.5185     0.0000    96.0000 </r>
       <r>    -2.3147     0.0000    96.0000 </r>
       <r>    -2.1110     0.0000    96.0000 </r>
       <r>    -1.9073     0.0000    96.0000 </r>
       <r>    -1.7036     0.0000    96.0000 </r>
       <r>    -1.4998    -0.0000    96.0000 </r>
       <r>    -1.2961    -0.0000    96.0000 </r>
       <r>    -1.0924    -0.0000    96.0000 </r>
       <r>    -0.8887    -0.0000    96.0000 </r>
       <r>    -0.6850    -0.0000    96.0000 </r>
       <r>    -0.4812    -0.0022    95.9995 </r>
       <r>    -0.2775     0.0077    96.0011 </r>
       <r>    -0.0738     0.3352    96.0694 </r>
       <r>     0.1299     1.2807    96.3303 </r>
       <r>     0.3337     1.7472    96.6863 </r>
       <r>     0.5374     2.2213    97.1388 </r>
       <r>     0.7411     3.6031    97.8728 </r>
       <r>     0.9448     3.4779    98.5813 </r>
       <r>     1.1486     2.4277    99.0759 </r>
       <r>     1.3523     4.9721   100.0889 </r>
       <r>     1.5560     3.1715   100.7350 </r>
       <r>     1.7597     4.0605   101.5622 </r>
       <r>     1.9634     6.0402   102.7927 </r>
       <r>     2.1672     8.7634   104.5780 </r>
       <r>     2.3709     7.1562   106.0359 </r>
       <r>     2.5746     8.3438   107.7357 </r>
       <r>     2.7783     6.6936   109.0994 </r>
       <r>     2.9821    11.1303   111.3669 </r>
       <r>     3.1858    18.4573   115.1270 </r>
       <r>     3.3895    21.2076   119.4475 </r>
       <r>     3.5932    25.0908   124.5591 </r>
       <r>     3.7969    27.2250   130.1054 </r>
       <r>     4.0007    30.5118   136.3214 </r>
       <r>     4.2044    33.8702   143.2215 </r>
       <r>     4.4081    39.7174   151.3129 </r>
       <r>     4.6118    35.2669   158.4976 </r>
       <r>     4.8156    32.4517   165.1087 </r>
       <r>     5.0193    33.4447   171.9222 </r>
       <r>     5.2230    21.1214   176.2251 </r>
       <r>     5.4267    24.0103   181.1165 </r>
       <r>     5.6305    51.3588   191.5795 </r>
       <r>     5.8342    59.9797   203.7987 </r>
       <r>     6.0379    58.7652   215.7705 </r>
       <r>     6.2416    54.0241   226.7765 </r>
       <r>     6.4453    56.7502   238.3378 </r>
       <r>     6.6491    52.6068   249.0550 </r>
       <r>     6.8528    43.8510   257.9885 </r>
       <r>     7.0565    47.6184   267.6894 </r>
       <r>     7.2602    48.6189   277.5942 </r>
       <r>     7.4640    43.2192   286.3990 </r>
       <r>     7.6677    35.8532   293.7031 </r>
       <r>     7.8714    27.3533   299.2756 </r>
       <r>     8.0751    18.5949   303.0638 </r>
       <r>     8.2789     4.9187   304.0658 </r>
       <r>     8.4826    -0.3162   304.0014 </r>
       <r>     8.6863    -0.0070   304.0000 </r>
       <r>     8.8900    -0.0000   304.0000 </r>
       <r>     9.0937    -0.0000   304.0000 </r>
       <r>     9.2975     0.0000   304.0000 </r>
       <r>     9.5012     0.0000   304.0000 </r>
       <r>     9.7049     0.0000   304.0000 </r>
       <r>     9.9086     0.0000   304.0000 </r>
       <r>    10.1124     0.0000   304.0000 </r>
       <r>    10.3161     0.0000   304.0000 </r>
       <r>    10.5198     0.0000   304.0000 </r>
       <r>    10.7235     0.0000   304.0000 </r>
       <r>    10.9273     0.0000   304.0000 </r>
      </set>
     </set>
    </array>
   </total>
  </dos>
 </calculation>
 <structure name="finalpos" >
  <crystal>
   <varray name="basis" >
    <v>       7.01735637       0.04560385       0.00228043 </v>
    <v>       0.06811675      10.30590765       0.03625278 </v>
    <v>       0.00375243       0.03620330      10.31059714 </v>
   </varray>
   <i name="volume">    745.62340677 </i>
   <varray name="rec_basis" >
    <v>       0.14250994      -0.00094175      -0.00004856 </v>
    <v>      -0.00063051       0.09703709      -0.00034049 </v>
    <v>      -0.00002930      -0.00034098       0.09698880 </v>
   </varray>
  </crystal>
  <varray name="positions" >
   <v>       0.75876908       0.84575630       0.19526351 </v>
   <v>       0.21458575       0.16250891       0.49963384 </v>
   <v>       0.03595647       0.33856176       0.33466176 </v>
   <v>       0.27115339       0.50941138       0.82566202 </v>
   <v>       0.25100842       0.82997856       0.17383507 </v>
   <v>       0.48023666       0.32932765       0.66649714 </v>
   <v>       0.25639965       0.50182123       0.50215479 </v>
   <v>       0.50435068       0.67572724       0.33007146 </v>
   <v>       0.48128457       0.64912324       0.65108518 </v>
   <v>       0.02012644       0.64641093       0.66403812 </v>
   <v>       0.01283115       0.99501976       0.32699553 </v>
   <v>       0.47924922       0.31837764       0.99286854 </v>
   <v>       0.74230412       0.48537783       0.17498615 </v>
   <v>       0.25990299       0.81953178       0.82513798 </v>
   <v>       0.75090074       0.83016112       0.49919895 </v>
   <v>       0.73021356       0.50118578       0.82729829 </v>
   <v>       0.27607278       0.51122978       0.16296308 </v>
   <v>       0.00428997       0.66330373       0.32756654 </v>
   <v>       0.77181229       0.17320609       0.49525168 </v>
   <v>       0.46273678       0.31773313       0.34174734 </v>
   <v>       0.52908163       0.68931488       0.01861073 </v>
   <v>       0.49676710       0.02376782       0.66787333 </v>
   <v>       0.99117620       0.01130353       0.68636721 </v>
   <v>       0.74017379       0.81128902       0.80197181 </v>
   <v>       0.22581645       0.15898724       0.16938189 </v>
   <v>       0.73855897       0.18977323       0.82663081 </v>
   <v>       0.25156094       0.16152219       0.83201820 </v>
   <v>       0.50121941       0.00148682       0.00128347 </v>
   <v>       0.74365894       0.49481644       0.49432176 </v>
   <v>       0.99274506       0.99481781       0.00086474 </v>
   <v>       0.02055287       0.33281465       0.99090325 </v>
   <v>       0.48486702       0.00542283       0.33275400 </v>
   <v>       0.24929830       0.83080016       0.50563992 </v>
   <v>       0.76747327       0.17700914       0.17830016 </v>
   <v>       0.99140082       0.67580410       0.00349837 </v>
   <v>       0.01146554       0.33733031       0.67266135 </v>
  </varray>
 </structure>
</modeling>
