       N       E                     dE             d eps       ncg     rms          rms(c)
DAV:   1     0.133979465202E+04    0.13398E+04   -0.91552E+04  4728   0.101E+03
DAV:   2    -0.151137596978E+03   -0.14909E+04   -0.14336E+04  4940   0.340E+02
DAV:   3    -0.357033091716E+03   -0.20590E+03   -0.19466E+03  7576   0.945E+01
DAV:   4    -0.381016704854E+03   -0.23984E+02   -0.22642E+02  7312   0.278E+01
DAV:   5    -0.383468165345E+03   -0.24515E+01   -0.23826E+01  7152   0.966E+00    0.668E+01
RMM:   6    -0.373104655094E+03    0.10364E+02   -0.19151E+01  6062   0.917E+00    0.327E+01
RMM:   7    -0.371438843180E+03    0.16658E+01   -0.21738E+01  5927   0.841E+00    0.741E+00
RMM:   8    -0.368789462078E+03    0.26494E+01   -0.37836E+00  6940   0.338E+00    0.378E+00
RMM:   9    -0.368664053795E+03    0.12541E+00   -0.12382E+00  6913   0.142E+00    0.258E+00
RMM:  10    -0.368627241964E+03    0.36812E-01   -0.27297E-01  6857   0.109E+00    0.103E+00
RMM:  11    -0.368616109109E+03    0.11133E-01   -0.96109E-02  6950   0.484E-01    0.553E-01
RMM:  12    -0.368612795033E+03    0.33141E-02   -0.34799E-02  6969   0.249E-01    0.335E-01
RMM:  13    -0.368612445463E+03    0.34957E-03   -0.13345E-02  6927   0.150E-01    0.216E-01
RMM:  14    -0.368612852244E+03   -0.40678E-03   -0.60366E-03  7167   0.870E-02    0.927E-02
RMM:  15    -0.368613002806E+03   -0.15056E-03   -0.25103E-03  6891   0.511E-02    0.386E-02
RMM:  16    -0.368613074186E+03   -0.71380E-04   -0.11346E-03  5886   0.322E-02    0.240E-02
RMM:  17    -0.368613107745E+03   -0.33559E-04   -0.52292E-04  5262   0.233E-02    0.127E-02
RMM:  18    -0.368613123825E+03   -0.16080E-04   -0.24344E-04  4428   0.163E-02    0.641E-03
RMM:  19    -0.368613129989E+03   -0.61640E-05   -0.10881E-04  3968   0.132E-02    0.409E-03
RMM:  20    -0.368613132661E+03   -0.26718E-05   -0.39638E-05  3495   0.118E-02
   1 F= -.36861313E+03 E0= -.36861883E+03  d E =-.368613E+03
       N       E                     dE             d eps       ncg     rms          rms(c)
DAV:   1    -0.368614095231E+03   -0.96524E-03   -0.42151E-02  4892   0.575E-01    0.691E-02
RMM:   2    -0.368614225638E+03   -0.13041E-03   -0.19940E-03  6618   0.118E-01    0.315E-02
RMM:   3    -0.368614209696E+03    0.15941E-04   -0.21550E-04  6016   0.313E-02    0.233E-02
RMM:   4    -0.368614206023E+03    0.36728E-05   -0.53315E-05  3885   0.138E-02
   2 F= -.36861421E+03 E0= -.36861993E+03  d E =-.107336E-02
       N       E                     dE             d eps       ncg     rms          rms(c)
DAV:   1    -0.368615868979E+03   -0.16593E-02   -0.37868E-01  4608   0.172E+00    0.207E-01
RMM:   2    -0.368616955436E+03   -0.10865E-02   -0.17113E-02  6690   0.350E-01    0.979E-02
RMM:   3    -0.368616837666E+03    0.11777E-03   -0.19221E-03  6748   0.874E-02    0.718E-02
RMM:   4    -0.368616812350E+03    0.25316E-04   -0.54322E-04  6634   0.368E-02    0.479E-02
RMM:   5    -0.368616800573E+03    0.11777E-04   -0.19369E-04  6261   0.225E-02    0.264E-02
RMM:   6    -0.368616794009E+03    0.65640E-05   -0.84066E-05  5101   0.155E-02
   3 F= -.36861679E+03 E0= -.36862260E+03  d E =-.366135E-02
       N       E                     dE             d eps       ncg     rms          rms(c)
DAV:   1    -0.368615645389E+03    0.11552E-02   -0.15160E+00  4464   0.345E+00    0.412E-01
RMM:   2    -0.368619947087E+03   -0.43017E-02   -0.68161E-02  6669   0.700E-01    0.191E-01
RMM:   3    -0.368619435415E+03    0.51167E-03   -0.73417E-03  6758   0.175E-01    0.139E-01
RMM:   4    -0.368619365411E+03    0.70004E-04   -0.21035E-03  7004   0.727E-02    0.922E-02
RMM:   5    -0.368619329453E+03    0.35957E-04   -0.72780E-04  6914   0.425E-02    0.523E-02
RMM:   6    -0.368619309417E+03    0.20036E-04   -0.32241E-04  6658   0.301E-02    0.294E-02
RMM:   7    -0.368619306666E+03    0.27511E-05   -0.11536E-04  5091   0.166E-02    0.174E-02
RMM:   8    -0.368619306958E+03   -0.29134E-06   -0.49417E-05  3614   0.132E-02
   4 F= -.36861931E+03 E0= -.36862527E+03  d E =-.617430E-02
       N       E                     dE             d eps       ncg     rms          rms(c)
DAV:   1    -0.368621890074E+03   -0.25834E-02   -0.15206E-01  4736   0.125E+00    0.391E-01
RMM:   2    -0.368621350604E+03    0.53947E-03   -0.13611E-02  6741   0.306E-01    0.142E-01
RMM:   3    -0.368620884128E+03    0.46648E-03   -0.29079E-03  6933   0.101E-01    0.107E-01
RMM:   4    -0.368620624163E+03    0.25997E-03   -0.80140E-04  6918   0.559E-02    0.582E-02
RMM:   5    -0.368620576924E+03    0.47239E-04   -0.26477E-04  6793   0.337E-02    0.394E-02
RMM:   6    -0.368620591979E+03   -0.15055E-04   -0.99968E-05  5107   0.173E-02    0.252E-02
RMM:   7    -0.368620597997E+03   -0.60184E-05   -0.30578E-05  3317   0.132E-02
   5 F= -.36862060E+03 E0= -.36862658E+03  d E =-.129104E-02
       N       E                     dE             d eps       ncg     rms          rms(c)
DAV:   1    -0.368623204465E+03   -0.26125E-02   -0.25767E-01  4704   0.163E+00    0.504E-01
RMM:   2    -0.368622283284E+03    0.92118E-03   -0.22372E-02  6609   0.396E-01    0.180E-01
RMM:   3    -0.368621503382E+03    0.77990E-03   -0.46222E-03  6903   0.130E-01    0.134E-01
RMM:   4    -0.368621090324E+03    0.41306E-03   -0.12780E-03  6929   0.710E-02    0.728E-02
RMM:   5    -0.368621024714E+03    0.65610E-04   -0.42151E-04  6834   0.422E-02    0.511E-02
RMM:   6    -0.368621053967E+03   -0.29253E-04   -0.16424E-04  5895   0.217E-02    0.335E-02
RMM:   7    -0.368621067677E+03   -0.13710E-04   -0.63141E-05  4369   0.158E-02    0.188E-02
RMM:   8    -0.368621079216E+03   -0.11539E-04   -0.37943E-05  3682   0.137E-02    0.112E-02
RMM:   9    -0.368621087355E+03   -0.81384E-05   -0.20533E-05  3179   0.120E-02
   6 F= -.36862109E+03 E0= -.36862708E+03  d E =-.178040E-02
       N       E                     dE             d eps       ncg     rms          rms(c)
DAV:   1    -0.368621693112E+03   -0.61390E-03   -0.14719E-01  4472   0.106E+00    0.730E-02
RMM:   2    -0.368622055208E+03   -0.36210E-03   -0.45835E-03  6415   0.188E-01    0.427E-02
RMM:   3    -0.368622029308E+03    0.25900E-04   -0.62669E-04  6420   0.542E-02    0.314E-02
RMM:   4    -0.368622030918E+03   -0.16096E-05   -0.16150E-04  5633   0.171E-02    0.222E-02
RMM:   5    -0.368622028957E+03    0.19611E-05   -0.44213E-05  3571   0.110E-02
   7 F= -.36862203E+03 E0= -.36862806E+03  d E =-.941602E-03
       N       E                     dE             d eps       ncg     rms          rms(c)
DAV:   1    -0.368621001723E+03    0.10292E-02   -0.13234E+00  4376   0.317E+00    0.220E-01
RMM:   2    -0.368624225691E+03   -0.32240E-02   -0.40839E-02  6435   0.562E-01    0.128E-01
RMM:   3    -0.368623990164E+03    0.23553E-03   -0.54967E-03  6612   0.160E-01    0.939E-02
RMM:   4    -0.368623988122E+03    0.20421E-05   -0.13395E-03  7430   0.493E-02    0.655E-02
RMM:   5    -0.368623972183E+03    0.15939E-04   -0.48860E-04  6616   0.330E-02    0.347E-02
RMM:   6    -0.368623972263E+03   -0.79119E-07   -0.19283E-04  6140   0.231E-02    0.145E-02
RMM:   7    -0.368623970904E+03    0.13586E-05   -0.49102E-05  3503   0.121E-02
   8 F= -.36862397E+03 E0= -.36863009E+03  d E =-.288355E-02
       N       E                     dE             d eps       ncg     rms          rms(c)
DAV:   1    -0.368612112801E+03    0.11859E-01   -0.52951E+00  4368   0.633E+00    0.446E-01
RMM:   2    -0.368624925730E+03   -0.12813E-01   -0.16288E-01  6407   0.112E+00    0.250E-01
RMM:   3    -0.368624047362E+03    0.87837E-03   -0.21646E-02  6623   0.320E-01    0.187E-01
RMM:   4    -0.368624014888E+03    0.32474E-04   -0.52293E-03  7610   0.985E-02    0.130E-01
RMM:   5    -0.368623952359E+03    0.62530E-04   -0.19038E-03  7165   0.652E-02    0.702E-02
RMM:   6    -0.368623948755E+03    0.36036E-05   -0.74850E-04  6905   0.460E-02    0.292E-02
RMM:   7    -0.368623946383E+03    0.23718E-05   -0.24341E-04  5796   0.208E-02    0.166E-02
RMM:   8    -0.368623955001E+03   -0.86181E-05   -0.11951E-04  4125   0.163E-02    0.109E-02
RMM:   9    -0.368623958729E+03   -0.37276E-05   -0.51716E-05  3927   0.123E-02
   9 F= -.36862396E+03 E0= -.36863021E+03  d E =-.287137E-02
       N       E                     dE             d eps       ncg     rms          rms(c)
DAV:   1    -0.368621004606E+03    0.29504E-02   -0.16862E+00  4368   0.358E+00    0.248E-01
RMM:   2    -0.368625029105E+03   -0.40245E-02   -0.51428E-02  6277   0.638E-01    0.145E-01
RMM:   3    -0.368624668066E+03    0.36104E-03   -0.64760E-03  6586   0.181E-01    0.108E-01
RMM:   4    -0.368624650037E+03    0.18029E-04   -0.15185E-03  7488   0.528E-02    0.772E-02
RMM:   5    -0.368624622546E+03    0.27490E-04   -0.53714E-04  6681   0.357E-02    0.422E-02
RMM:   6    -0.368624615390E+03    0.71562E-05   -0.22005E-04  6167   0.257E-02    0.166E-02
RMM:   7    -0.368624611469E+03    0.39208E-05   -0.57215E-05  3671   0.127E-02
  10 F= -.36862461E+03 E0= -.36863080E+03  d E =-.352411E-02
       N       E                     dE             d eps       ncg     rms          rms(c)
DAV:   1    -0.368635747314E+03   -0.11132E-01   -0.55942E-01  4736   0.257E+00    0.961E-01
RMM:   2    -0.368630604067E+03    0.51432E-02   -0.64260E-02  6824   0.674E-01    0.346E-01
RMM:   3    -0.368627420640E+03    0.31834E-02   -0.15246E-02  6935   0.226E-01    0.246E-01
RMM:   4    -0.368625970964E+03    0.14497E-02   -0.40586E-03  6977   0.134E-01    0.138E-01
RMM:   5    -0.368625610502E+03    0.36046E-03   -0.12643E-03  6839   0.742E-02    0.941E-02
RMM:   6    -0.368625634582E+03   -0.24080E-04   -0.52762E-04  6838   0.384E-02    0.621E-02
RMM:   7    -0.368625618528E+03    0.16054E-04   -0.20521E-04  5974   0.272E-02    0.322E-02
RMM:   8    -0.368625620556E+03   -0.20280E-05   -0.11004E-04  4958   0.183E-02    0.225E-02
RMM:   9    -0.368625622026E+03   -0.14695E-05   -0.47465E-05  3629   0.149E-02
  11 F= -.36862562E+03 E0= -.36863188E+03  d E =-.101056E-02
       N       E                     dE             d eps       ncg     rms          rms(c)
DAV:   1    -0.368626534332E+03   -0.91378E-03   -0.42542E-02  4776   0.707E-01    0.267E-01
RMM:   2    -0.368626146553E+03    0.38778E-03   -0.50329E-03  6838   0.186E-01    0.977E-02
RMM:   3    -0.368625916468E+03    0.23008E-03   -0.12417E-03  6885   0.647E-02    0.714E-02
RMM:   4    -0.368625801543E+03    0.11493E-03   -0.33166E-04  6760   0.377E-02    0.400E-02
RMM:   5    -0.368625774520E+03    0.27023E-04   -0.97077E-05  5313   0.226E-02    0.257E-02
RMM:   6    -0.368625781038E+03   -0.65176E-05   -0.35636E-05  2803   0.136E-02
  12 F= -.36862578E+03 E0= -.36863202E+03  d E =-.116957E-02
       N       E                     dE             d eps       ncg     rms          rms(c)
DAV:   1    -0.368626430881E+03   -0.65636E-03   -0.17929E-01  4416   0.118E+00    0.902E-02
RMM:   2    -0.368626809092E+03   -0.37821E-03   -0.51011E-03  6338   0.209E-01    0.452E-02
RMM:   3    -0.368626767071E+03    0.42020E-04   -0.60321E-04  6544   0.607E-02    0.322E-02
RMM:   4    -0.368626766882E+03    0.18898E-06   -0.14741E-04  5824   0.182E-02    0.224E-02
RMM:   5    -0.368626767931E+03   -0.10481E-05   -0.43206E-05  3567   0.115E-02
  13 F= -.36862677E+03 E0= -.36863304E+03  d E =-.986893E-03
       N       E                     dE             d eps       ncg     rms          rms(c)
DAV:   1    -0.368625345687E+03    0.14212E-02   -0.16131E+00  4368   0.353E+00    0.270E-01
RMM:   2    -0.368628764019E+03   -0.34183E-02   -0.46439E-02  6516   0.625E-01    0.143E-01
RMM:   3    -0.368628399756E+03    0.36426E-03   -0.57201E-03  6681   0.177E-01    0.981E-02
RMM:   4    -0.368628389735E+03    0.10021E-04   -0.14375E-03  7456   0.554E-02    0.663E-02
RMM:   5    -0.368628391085E+03   -0.13496E-05   -0.50655E-04  6991   0.349E-02    0.366E-02
RMM:   6    -0.368628387830E+03    0.32551E-05   -0.20601E-04  6557   0.239E-02    0.176E-02
RMM:   7    -0.368628388326E+03   -0.49637E-06   -0.61602E-05  4021   0.140E-02
  14 F= -.36862839E+03 E0= -.36863476E+03  d E =-.260729E-02
       N       E                     dE             d eps       ncg     rms          rms(c)
DAV:   1    -0.368628258968E+03    0.12886E-03   -0.11136E-01  4480   0.930E-01    0.718E-02
RMM:   2    -0.368628506774E+03   -0.24781E-03   -0.33355E-03  6575   0.166E-01    0.385E-02
RMM:   3    -0.368628488036E+03    0.18737E-04   -0.46125E-04  6425   0.475E-02    0.265E-02
RMM:   4    -0.368628490469E+03   -0.24324E-05   -0.12558E-04  5003   0.161E-02    0.188E-02
RMM:   5    -0.368628491147E+03   -0.67793E-06   -0.39530E-05  3416   0.112E-02
  15 F= -.36862849E+03 E0= -.36863489E+03  d E =-.271011E-02
       N       E                     dE             d eps       ncg     rms          rms(c)
DAV:   1    -0.368629513772E+03   -0.10233E-02   -0.30510E-01  4488   0.162E+00    0.297E-01
RMM:   2    -0.368629734728E+03   -0.22096E-03   -0.14725E-02  6816   0.333E-01    0.128E-01
RMM:   3    -0.368629461299E+03    0.27343E-03   -0.20606E-03  6807   0.868E-02    0.882E-02
RMM:   4    -0.368629334250E+03    0.12705E-03   -0.64889E-04  6975   0.452E-02    0.507E-02
RMM:   5    -0.368629309718E+03    0.24532E-04   -0.24183E-04  6867   0.293E-02    0.324E-02
RMM:   6    -0.368629317301E+03   -0.75829E-05   -0.78289E-05  4574   0.152E-02
  16 F= -.36862932E+03 E0= -.36863561E+03  d E =-.826154E-03
       N       E                     dE             d eps       ncg     rms          rms(c)
DAV:   1    -0.368629502124E+03   -0.19241E-03   -0.11467E-01  4384   0.996E-01    0.178E-01
RMM:   2    -0.368629604215E+03   -0.10209E-03   -0.55578E-03  6796   0.203E-01    0.788E-02
RMM:   3    -0.368629501782E+03    0.10243E-03   -0.79253E-04  6757   0.524E-02    0.549E-02
RMM:   4    -0.368629459193E+03    0.42590E-04   -0.24756E-04  6604   0.272E-02    0.331E-02
RMM:   5    -0.368629452677E+03    0.65159E-05   -0.99269E-05  6043   0.182E-02
  17 F= -.36862945E+03 E0= -.36863569E+03  d E =-.961530E-03
       N       E                     dE             d eps       ncg     rms          rms(c)
DAV:   1    -0.368629830106E+03   -0.37091E-03   -0.47203E-02  4552   0.623E-01    0.987E-02
RMM:   2    -0.368629917808E+03   -0.87702E-04   -0.20085E-03  6803   0.124E-01    0.478E-02
RMM:   3    -0.368629891779E+03    0.26029E-04   -0.33175E-04  6556   0.336E-02    0.341E-02
RMM:   4    -0.368629876770E+03    0.15009E-04   -0.98846E-05  5727   0.176E-02    0.195E-02
RMM:   5    -0.368629872315E+03    0.44552E-05   -0.33707E-05  3240   0.116E-02
  18 F= -.36862987E+03 E0= -.36863607E+03  d E =-.419638E-03
       N       E                     dE             d eps       ncg     rms          rms(c)
DAV:   1    -0.368630336387E+03   -0.45962E-03   -0.42378E-01  4368   0.187E+00    0.265E-01
RMM:   2    -0.368631046102E+03   -0.70971E-03   -0.16815E-02  6822   0.363E-01    0.128E-01
RMM:   3    -0.368630789915E+03    0.25619E-03   -0.22932E-03  6798   0.911E-02    0.885E-02
RMM:   4    -0.368630686743E+03    0.10317E-03   -0.63259E-04  6840   0.451E-02    0.537E-02
RMM:   5    -0.368630655524E+03    0.31219E-04   -0.27240E-04  6762   0.286E-02    0.321E-02
RMM:   6    -0.368630645543E+03    0.99808E-05   -0.98358E-05  5291   0.167E-02
  19 F= -.36863065E+03 E0= -.36863676E+03  d E =-.119287E-02
       N       E                     dE             d eps       ncg     rms          rms(c)
DAV:   1    -0.368629053802E+03    0.16017E-02   -0.16953E+00  4368   0.374E+00    0.526E-01
RMM:   2    -0.368631853766E+03   -0.28000E-02   -0.66914E-02  6819   0.724E-01    0.254E-01
RMM:   3    -0.368630827777E+03    0.10260E-02   -0.89758E-03  6814   0.181E-01    0.176E-01
RMM:   4    -0.368630415040E+03    0.41274E-03   -0.24696E-03  6907   0.891E-02    0.107E-01
RMM:   5    -0.368630294435E+03    0.12061E-03   -0.10698E-03  6941   0.575E-02    0.633E-02
RMM:   6    -0.368630266220E+03    0.28214E-04   -0.38124E-04  6744   0.327E-02    0.389E-02
RMM:   7    -0.368630265102E+03    0.11184E-05   -0.16215E-04  5405   0.202E-02    0.230E-02
RMM:   8    -0.368630264182E+03    0.92013E-06   -0.76680E-05  4369   0.163E-02
  20 F= -.36863026E+03 E0= -.36863621E+03  d E =-.811505E-03
       N       E                     dE             d eps       ncg     rms          rms(c)
DAV:   1    -0.368630391302E+03   -0.12620E-03   -0.68259E-01  4368   0.237E+00    0.341E-01
RMM:   2    -0.368631454139E+03   -0.10628E-02   -0.26856E-02  6827   0.461E-01    0.161E-01
RMM:   3    -0.368631023904E+03    0.43024E-03   -0.34699E-03  6812   0.115E-01    0.113E-01
RMM:   4    -0.368630840476E+03    0.18343E-03   -0.90703E-04  6903   0.564E-02    0.682E-02
RMM:   5    -0.368630788645E+03    0.51831E-04   -0.38184E-04  6893   0.356E-02    0.401E-02
RMM:   6    -0.368630781629E+03    0.70158E-05   -0.12893E-04  6293   0.201E-02    0.238E-02
RMM:   7    -0.368630785784E+03   -0.41544E-05   -0.48684E-05  3713   0.127E-02
  21 F= -.36863079E+03 E0= -.36863684E+03  d E =-.133311E-02
       N       E                     dE             d eps       ncg     rms          rms(c)
DAV:   1    -0.368631019712E+03   -0.23808E-03   -0.43289E-02  4432   0.585E-01    0.418E-02
RMM:   2    -0.368631122512E+03   -0.10280E-03   -0.12315E-03  6166   0.103E-01    0.236E-02
RMM:   3    -0.368631109047E+03    0.13464E-04   -0.13551E-04  5711   0.299E-02    0.173E-02
RMM:   4    -0.368631107775E+03    0.12727E-05   -0.27317E-05  3023   0.987E-03
  22 F= -.36863111E+03 E0= -.36863718E+03  d E =-.321991E-03
       N       E                     dE             d eps       ncg     rms          rms(c)
DAV:   1    -0.368631015319E+03    0.93729E-04   -0.38957E-01  4368   0.175E+00    0.125E-01
RMM:   2    -0.368631911812E+03   -0.89649E-03   -0.11201E-02  6189   0.306E-01    0.691E-02
RMM:   3    -0.368631840436E+03    0.71376E-04   -0.15075E-03  6657   0.882E-02    0.531E-02
RMM:   4    -0.368631839060E+03    0.13760E-05   -0.35456E-04  6591   0.257E-02    0.375E-02
RMM:   5    -0.368631835215E+03    0.38450E-05   -0.12168E-04  5704   0.170E-02    0.193E-02
RMM:   6    -0.368631829901E+03    0.53135E-05   -0.43944E-05  3805   0.136E-02
  23 F= -.36863183E+03 E0= -.36863795E+03  d E =-.104412E-02
       N       E                     dE             d eps       ncg     rms          rms(c)
DAV:   1    -0.368629061142E+03    0.27741E-02   -0.15587E+00  4368   0.350E+00    0.249E-01
RMM:   2    -0.368632658558E+03   -0.35974E-02   -0.44782E-02  6103   0.611E-01    0.132E-01
RMM:   3    -0.368632342089E+03    0.31647E-03   -0.58428E-03  6657   0.177E-01    0.102E-01
RMM:   4    -0.368632351247E+03   -0.91587E-05   -0.14036E-03  7491   0.501E-02    0.729E-02
RMM:   5    -0.368632343601E+03    0.76468E-05   -0.46386E-04  6839   0.344E-02    0.399E-02
RMM:   6    -0.368632326406E+03    0.17195E-04   -0.19879E-04  6415   0.258E-02    0.156E-02
RMM:   7    -0.368632325225E+03    0.11804E-05   -0.52249E-05  3636   0.128E-02
  24 F= -.36863233E+03 E0= -.36863855E+03  d E =-.153944E-02
       N       E                     dE             d eps       ncg     rms          rms(c)
DAV:   1    -0.368633196671E+03   -0.87027E-03   -0.29409E-01  4480   0.163E+00    0.337E-01
RMM:   2    -0.368633340494E+03   -0.14382E-03   -0.16706E-02  6787   0.347E-01    0.142E-01
RMM:   3    -0.368632888575E+03    0.45192E-03   -0.25834E-03  6831   0.973E-02    0.100E-01
RMM:   4    -0.368632704145E+03    0.18443E-03   -0.77848E-04  6966   0.502E-02    0.570E-02
RMM:   5    -0.368632668659E+03    0.35486E-04   -0.27039E-04  6914   0.326E-02    0.373E-02
RMM:   6    -0.368632679186E+03   -0.10527E-04   -0.10206E-04  5094   0.163E-02    0.251E-02
RMM:   7    -0.368632684209E+03   -0.50230E-05   -0.35336E-05  3506   0.129E-02
  25 F= -.36863268E+03 E0= -.36863891E+03  d E =-.358984E-03
       N       E                     dE             d eps       ncg     rms          rms(c)
DAV:   1    -0.368632692323E+03   -0.13137E-04   -0.33005E-03  4864   0.171E-01    0.339E-02
RMM:   2    -0.368632696999E+03   -0.46751E-05   -0.19583E-04  6105   0.362E-02    0.143E-02
RMM:   3    -0.368632692833E+03    0.41653E-05   -0.25078E-05  3035   0.130E-02
  26 F= -.36863269E+03 E0= -.36863892E+03  d E =-.367608E-03
       N       E                     dE             d eps       ncg     rms          rms(c)
DAV:   1    -0.368633040647E+03   -0.34365E-03   -0.18438E-01  4368   0.122E+00    0.167E-01
RMM:   2    -0.368633330232E+03   -0.28958E-03   -0.70481E-03  6822   0.236E-01    0.802E-02
RMM:   3    -0.368633255448E+03    0.74783E-04   -0.99672E-04  6828   0.606E-02    0.541E-02
RMM:   4    -0.368633228182E+03    0.27266E-04   -0.31196E-04  6669   0.314E-02    0.312E-02
RMM:   5    -0.368633218433E+03    0.97487E-05   -0.11627E-04  5593   0.170E-02    0.187E-02
RMM:   6    -0.368633213533E+03    0.48998E-05   -0.37620E-05  3490   0.111E-02
  27 F= -.36863321E+03 E0= -.36863944E+03  d E =-.520700E-03
       N       E                     dE             d eps       ncg     rms          rms(c)
DAV:   1    -0.368633324147E+03   -0.10571E-03   -0.57885E-02  4384   0.682E-01    0.920E-02
RMM:   2    -0.368633412081E+03   -0.87934E-04   -0.22461E-03  6799   0.132E-01    0.442E-02
RMM:   3    -0.368633386806E+03    0.25276E-04   -0.32863E-04  6437   0.341E-02    0.296E-02
RMM:   4    -0.368633380212E+03    0.65937E-05   -0.10855E-04  5426   0.188E-02    0.174E-02
RMM:   5    -0.368633376013E+03    0.41993E-05   -0.33403E-05  3198   0.109E-02
  28 F= -.36863338E+03 E0= -.36863960E+03  d E =-.683180E-03
       N       E                     dE             d eps       ncg     rms          rms(c)
DAV:   1    -0.368633214665E+03    0.16555E-03   -0.23141E-01  4368   0.136E+00    0.183E-01
RMM:   2    -0.368633566130E+03   -0.35147E-03   -0.87969E-03  6819   0.263E-01    0.876E-02
RMM:   3    -0.368633466994E+03    0.99136E-04   -0.12238E-03  6783   0.673E-02    0.583E-02
RMM:   4    -0.368633437026E+03    0.29968E-04   -0.38965E-04  6746   0.353E-02    0.336E-02
RMM:   5    -0.368633427251E+03    0.97758E-05   -0.14400E-04  5691   0.189E-02    0.213E-02
RMM:   6    -0.368633421994E+03    0.52564E-05   -0.52314E-05  3782   0.127E-02
  29 F= -.36863342E+03 E0= -.36863964E+03  d E =-.729161E-03
       N       E                     dE             d eps       ncg     rms          rms(c)
DAV:   1    -0.368633417651E+03    0.96000E-05   -0.37975E-02  4392   0.553E-01    0.758E-02
RMM:   2    -0.368633469885E+03   -0.52234E-04   -0.13966E-03  6758   0.107E-01    0.347E-02
RMM:   3    -0.368633450784E+03    0.19101E-04   -0.16069E-04  6246   0.275E-02    0.235E-02
RMM:   4    -0.368633442574E+03    0.82099E-05   -0.37850E-05  3719   0.150E-02
  30 F= -.36863344E+03 E0= -.36863966E+03  d E =-.749741E-03
       N       E                     dE             d eps       ncg     rms          rms(c)
DAV:   1    -0.368633407656E+03    0.43128E-04   -0.12913E-01  4368   0.101E+00    0.105E-01
RMM:   2    -0.368633702119E+03   -0.29446E-03   -0.43810E-03  6491   0.191E-01    0.550E-02
RMM:   3    -0.368633651409E+03    0.50709E-04   -0.51170E-04  6636   0.498E-02    0.404E-02
RMM:   4    -0.368633642340E+03    0.90693E-05   -0.12439E-04  5471   0.179E-02    0.279E-02
RMM:   5    -0.368633640446E+03    0.18941E-05   -0.44195E-05  3605   0.124E-02
  31 F= -.36863364E+03 E0= -.36863987E+03  d E =-.197872E-03
       N       E                     dE             d eps       ncg     rms          rms(c)
DAV:   1    -0.368633592853E+03    0.49486E-04   -0.46593E-02  4368   0.603E-01    0.636E-02
RMM:   2    -0.368633706602E+03   -0.11375E-03   -0.16398E-03  6529   0.116E-01    0.348E-02
RMM:   3    -0.368633694132E+03    0.12470E-04   -0.24102E-04  6206   0.309E-02    0.253E-02
RMM:   4    -0.368633692485E+03    0.16475E-05   -0.51199E-05  3806   0.129E-02
  32 F= -.36863369E+03 E0= -.36863993E+03  d E =-.249911E-03
       N       E                     dE             d eps       ncg     rms          rms(c)
DAV:   1    -0.368634034635E+03   -0.34050E-03   -0.98305E-02  4368   0.945E-01    0.190E-01
RMM:   2    -0.368634119558E+03   -0.84923E-04   -0.57798E-03  6805   0.200E-01    0.835E-02
RMM:   3    -0.368633962928E+03    0.15663E-03   -0.92460E-04  6818   0.580E-02    0.583E-02
RMM:   4    -0.368633899946E+03    0.62982E-04   -0.26176E-04  6589   0.283E-02    0.344E-02
RMM:   5    -0.368633879336E+03    0.20610E-04   -0.94199E-05  5948   0.181E-02    0.215E-02
RMM:   6    -0.368633875291E+03    0.40458E-05   -0.29151E-05  2958   0.108E-02
  33 F= -.36863388E+03 E0= -.36864014E+03  d E =-.182806E-03
       N       E                     dE             d eps       ncg     rms          rms(c)
DAV:   1    -0.368633882535E+03   -0.31988E-05   -0.34761E-03  4560   0.178E-01    0.343E-02
RMM:   2    -0.368633886880E+03   -0.43451E-05   -0.21912E-04  6589   0.374E-02    0.166E-02
RMM:   3    -0.368633877419E+03    0.94617E-05   -0.29995E-05  3305   0.120E-02
  34 F= -.36863388E+03 E0= -.36864014E+03  d E =-.184934E-03
       N       E                     dE             d eps       ncg     rms          rms(c)
DAV:   1    -0.368633946772E+03   -0.59891E-04   -0.67108E-02  4376   0.767E-01    0.118E-01
RMM:   2    -0.368634056469E+03   -0.10970E-03   -0.30830E-03  6736   0.154E-01    0.535E-02
RMM:   3    -0.368634017112E+03    0.39357E-04   -0.39136E-04  6703   0.405E-02    0.349E-02
RMM:   4    -0.368634005674E+03    0.11438E-04   -0.11909E-04  5774   0.194E-02    0.214E-02
RMM:   5    -0.368634001152E+03    0.45225E-05   -0.37085E-05  3472   0.112E-02
  35 F= -.36863400E+03 E0= -.36864025E+03  d E =-.123733E-03
