 vasp.5.4.1 05Feb16 (build Jan 29 2020 16:04:39) complex                        
  
 executed on           IFC91_ompi date 2020.06.15  11:55:33
 running on  160 total cores
 distrk:  each k-point on   20 cores,    8 groups
 distr:  one band on NCORES_PER_BAND=   5 cores,    4 groups


--------------------------------------------------------------------------------------------------------


 INCAR:
 POTCAR:    PAW_PBE Ta 17Jan2003                  
 POTCAR:    PAW_PBE Hf 20Jan2003                  
 POTCAR:    PAW_PBE Nb_sv 25May2007               
 POTCAR:    PAW_PBE Zr_sv 04Jan2005               

 ----------------------------------------------------------------------------- 
|                                                                             |
|           W    W    AA    RRRRR   N    N  II  N    N   GGGG   !!!           |
|           W    W   A  A   R    R  NN   N  II  NN   N  G    G  !!!           |
|           W    W  A    A  R    R  N N  N  II  N N  N  G       !!!           |
|           W WW W  AAAAAA  RRRRR   N  N N  II  N  N N  G  GGG   !            |
|           WW  WW  A    A  R   R   N   NN  II  N   NN  G    G                |
|           W    W  A    A  R    R  N    N  II  N    N   GGGG   !!!           |
|                                                                             |
|      For optimal performance we recommend to set                            |
|        NCORE= 4 - approx SQRT( number of cores)                             |
|      NCORE specifies how many cores store one orbital (NPAR=cpu/NCORE).     |
|      This setting can  greatly improve the performance of VASP for DFT.     |
|      The default, NPAR=number of cores might be grossly inefficient         |
|      on modern multi-core architectures or massively parallel machines.     |
|      Do your own testing !!!!                                               |
|      Unfortunately you need to use the default for GW and RPA calculations. |
|      (for HF NCORE is supported but not extensively tested yet)             |
|                                                                             |
 ----------------------------------------------------------------------------- 


 ----------------------------------------------------------------------------- 
|                                                                             |
|           W    W    AA    RRRRR   N    N  II  N    N   GGGG   !!!           |
|           W    W   A  A   R    R  NN   N  II  NN   N  G    G  !!!           |
|           W    W  A    A  R    R  N N  N  II  N N  N  G       !!!           |
|           W WW W  AAAAAA  RRRRR   N  N N  II  N  N N  G  GGG   !            |
|           WW  WW  A    A  R   R   N   NN  II  N   NN  G    G                |
|           W    W  A    A  R    R  N    N  II  N    N   GGGG   !!!           |
|                                                                             |
|      You have enabled k-point parallelism (KPAR>1).                         |
|      This developmental code was originally  written by Paul Kent at ORNL,  |
|      and carefully double checked in Vienna.                                |
|      GW as well as linear response parallelism added by Martijn Marsman     |
|      and Georg Kresse.                                                      |
|      Carefully verify results versus KPAR=1.                                |
|      Report problems to Paul Kent and Vienna.                               |
|                                                                             |
 ----------------------------------------------------------------------------- 

 POTCAR:    PAW_PBE Ta 17Jan2003                  
   VRHFIN =Ta:  6s5d                                                            
   LEXCH  = PE                                                                  
   EATOM  =   130.6506 eV,    9.6025 Ry                                         
                                                                                
   TITEL  = PAW_PBE Ta 17Jan2003                                                
   LULTRA =        F    use ultrasoft PP ?                                      
   IUNSCR =        1    unscreen: 0-lin 1-nonlin 2-no                           
   RPACOR =    2.330    partial core radius                                     
   POMASS =  180.948; ZVAL   =    5.000    mass and valenz                      
   RCORE  =    2.900    outmost cutoff radius                                   
   RWIGS  =    2.840; RWIGS  =    1.503    wigner-seitz radius (au A)           
   ENMAX  =  223.667; ENMIN  =  167.750 eV                                      
   RCLOC  =    2.205    cutoff for local pot                                    
   LCOR   =        T    correct aug charges                                     
   LPAW   =        T    paw PP                                                  
   EAUG   =  332.075                                                            
   DEXC   =    0.000                                                            
   RMAX   =    2.970    core radius for proj-oper                               
   RAUG   =    1.300    factor for augmentation sphere                          
   RDEP   =    3.060    radius for radial grids                                 
   RDEPT  =    2.354    core radius for aug-charge                              
                                                                                
   Atomic configuration                                                         
   16 entries                                                                   
     n  l   j            E        occ.                                          
     1  0  0.50    -67341.2807   2.0000                                         
     2  0  0.50    -11566.9376   2.0000                                         
     2  1  1.50    -10134.1182   6.0000                                         
     3  0  0.50     -2648.5620   2.0000                                         
     3  1  1.50     -2222.6012   6.0000                                         
     3  2  2.50     -1726.3120  10.0000                                         
     4  0  0.50      -538.6961   2.0000                                         
     4  1  1.50      -399.0129   6.0000                                         
     4  2  2.50      -220.3959  10.0000                                         
     4  3  3.50       -23.0374  14.0000                                         
     5  0  0.50       -71.2901   2.0000                                         
     5  1  1.50       -37.8225   6.0000                                         
     5  2  2.50        -2.6455   4.0000                                         
     6  0  0.50        -4.9623   1.0000                                         
     6  1  1.50        -1.3606   0.0000                                         
     5  3  2.50        -1.3606   0.0000                                         
   Description                                                                  
     l       E           TYP  RCUT    TYP  RCUT                                 
     2     -2.6455043     23  2.500                                             
     2     -0.6258895     23  2.500                                             
     0     -4.9622780     23  2.500                                             
     0      4.7531321     23  2.500                                             
     1     -1.3605826     23  2.900                                             
     1     27.2116520     23  2.900                                             
  local pseudopotential read in
  partial core-charges read in
  partial kinetic energy density read in
  atomic valenz-charges read in
  non local Contribution for L=           2  read in
    real space projection operators read in
  non local Contribution for L=           2  read in
    real space projection operators read in
  non local Contribution for L=           0  read in
    real space projection operators read in
  non local Contribution for L=           0  read in
    real space projection operators read in
  non local Contribution for L=           1  read in
    real space projection operators read in
  non local Contribution for L=           1  read in
    real space projection operators read in
    PAW grid and wavefunctions read in
 
   number of l-projection  operators is LMAX  =           6
   number of lm-projection operators is LMMAX =          18
 
 POTCAR:    PAW_PBE Hf 20Jan2003                  
   VRHFIN =Hf: 6s5d                                                             
   LEXCH  = PE                                                                  
   EATOM  =    75.9011 eV,    5.5786 Ry                                         
                                                                                
   TITEL  = PAW_PBE Hf 20Jan2003                                                
   LULTRA =        F    use ultrasoft PP ?                                      
   IUNSCR =        1    unscreen: 0-lin 1-nonlin 2-no                           
   RPACOR =    2.500    partial core radius                                     
   POMASS =  178.490; ZVAL   =    4.000    mass and valenz                      
   RCORE  =    3.000    outmost cutoff radius                                   
   RWIGS  =    3.050; RWIGS  =    1.614    wigner-seitz radius (au A)           
   ENMAX  =  220.334; ENMIN  =  165.250 eV                                      
   RCLOC  =    2.212    cutoff for local pot                                    
   LCOR   =        T    correct aug charges                                     
   LPAW   =        T    paw PP                                                  
   EAUG   =  335.116                                                            
   DEXC   =    0.000                                                            
   RMAX   =    3.077    core radius for proj-oper                               
   RAUG   =    1.300    factor for augmentation sphere                          
   RDEP   =    3.047    radius for radial grids                                 
   RDEPT  =    2.344    core radius for aug-charge                              
                                                                                
   Atomic configuration                                                         
   16 entries                                                                   
     n  l   j            E        occ.                                          
     1  0  0.50    -65259.4397   2.0000                                         
     2  0  0.50    -11157.9882   2.0000                                         
     2  1  1.50     -9795.2113   6.0000                                         
     3  0  0.50     -2541.4058   2.0000                                         
     3  1  1.50     -2134.4770   6.0000                                         
     3  2  2.50     -1653.5418  10.0000                                         
     4  0  0.50      -510.9575   2.0000                                         
     4  1  1.50      -377.5023   6.0000                                         
     4  2  2.50      -205.2085  10.0000                                         
     4  3  3.50       -15.4905  14.0000                                         
     5  0  0.50       -65.6020   2.0000                                         
     5  1  1.50       -34.2798   6.0000                                         
     5  2  2.50        -1.9877   3.0000                                         
     6  0  0.50        -4.7357   1.0000                                         
     6  1  1.50        -1.3606   0.0000                                         
     5  3  2.50        -1.3606   0.0000                                         
   Description                                                                  
     l       E           TYP  RCUT    TYP  RCUT                                 
     2     -1.9876627     23  2.500                                             
     2      0.0744703     23  2.500                                             
     0     -4.7356889     23  2.600                                             
     0      3.2364747     23  2.600                                             
     1     -1.3605826     23  3.000                                             
     1     27.2116520     23  3.000                                             
  local pseudopotential read in
  partial core-charges read in
  partial kinetic energy density read in
  atomic valenz-charges read in
  non local Contribution for L=           2  read in
    real space projection operators read in
  non local Contribution for L=           2  read in
    real space projection operators read in
  non local Contribution for L=           0  read in
    real space projection operators read in
  non local Contribution for L=           0  read in
    real space projection operators read in
  non local Contribution for L=           1  read in
    real space projection operators read in
  non local Contribution for L=           1  read in
    real space projection operators read in
    PAW grid and wavefunctions read in
 
   number of l-projection  operators is LMAX  =           6
   number of lm-projection operators is LMMAX =          18
 
 POTCAR:    PAW_PBE Nb_sv 25May2007               
   VRHFIN =Nb: 4p5s4d                                                           
   LEXCH  = PE                                                                  
   EATOM  =  1555.1913 eV,  114.3033 Ry                                         
                                                                                
   TITEL  = PAW_PBE Nb_sv 25May2007                                             
   LULTRA =        F    use ultrasoft PP ?                                      
   IUNSCR =        1    unscreen: 0-lin 1-nonlin 2-no                           
   RPACOR =    1.800    partial core radius                                     
   POMASS =   92.910; ZVAL   =   13.000    mass and valenz                      
   RCORE  =    2.400    outmost cutoff radius                                   
   RWIGS  =    2.400; RWIGS  =    1.270    wigner-seitz radius (au A)           
   ENMAX  =  293.235; ENMIN  =  219.927 eV                                      
   ICORE  =        3    local potential                                         
   LCOR   =        T    correct aug charges                                     
   LPAW   =        T    paw PP                                                  
   EAUG   =  455.659                                                            
   DEXC   =    0.000                                                            
   RMAX   =    2.456    core radius for proj-oper                               
   RAUG   =    1.300    factor for augmentation sphere                          
   RDEP   =    2.451    radius for radial grids                                 
   RDEPT  =    1.956    core radius for aug-charge                              
                                                                                
   Atomic configuration                                                         
   11 entries                                                                   
     n  l   j            E        occ.                                          
     1  0  0.50    -18805.2457   2.0000                                         
     2  0  0.50     -2630.2869   2.0000                                         
     2  1  1.50     -2348.4046   6.0000                                         
     3  0  0.50      -438.8757   2.0000                                         
     3  1  1.50      -346.7588   6.0000                                         
     3  2  2.50      -196.2560  10.0000                                         
     4  0  0.50       -58.3859   2.0000                                         
     5  0  0.50        -3.9816   1.0000                                         
     4  1  1.50       -34.5141   6.0000                                         
     4  2  2.50        -3.0408   4.0000                                         
     4  3  2.50        -1.3606   0.0000                                         
   Description                                                                  
     l       E           TYP  RCUT    TYP  RCUT                                 
     0    -58.3859094     23  2.200                                             
     0     -3.9816262     23  2.200                                             
     1    -34.5140738     23  2.200                                             
     1     13.6058260     23  2.200                                             
     2     -3.0408010     23  2.200                                             
     2     -0.1283038     23  2.200                                             
     3     -1.3605826     23  2.400                                             
  local pseudopotential read in
  partial core-charges read in
  partial kinetic energy density read in
  atomic valenz-charges read in
  non local Contribution for L=           0  read in
    real space projection operators read in
  non local Contribution for L=           0  read in
    real space projection operators read in
  non local Contribution for L=           1  read in
    real space projection operators read in
  non local Contribution for L=           1  read in
    real space projection operators read in
  non local Contribution for L=           2  read in
    real space projection operators read in
  non local Contribution for L=           2  read in
    real space projection operators read in
    PAW grid and wavefunctions read in
 
   number of l-projection  operators is LMAX  =           6
   number of lm-projection operators is LMMAX =          18
 
 POTCAR:    PAW_PBE Zr_sv 04Jan2005               
   VRHFIN =Zr: 4s4p5s4d                                                         
   LEXCH  = PE                                                                  
   EATOM  =  1284.2219 eV,   94.3876 Ry                                         
                                                                                
   TITEL  = PAW_PBE Zr_sv 04Jan2005                                             
   LULTRA =        F    use ultrasoft PP ?                                      
   IUNSCR =        1    unscreen: 0-lin 1-nonlin 2-no                           
   RPACOR =    2.200    partial core radius                                     
   POMASS =   91.224; ZVAL   =   12.000    mass and valenz                      
   RCORE  =    2.500    outmost cutoff radius                                   
   RWIGS  =    3.070; RWIGS  =    1.625    wigner-seitz radius (au A)           
   ENMAX  =  229.898; ENMIN  =  172.424 eV                                      
   ICORE  =        3    local potential                                         
   LCOR   =        T    correct aug charges                                     
   LPAW   =        T    paw PP                                                  
   EAUG   =  461.257                                                            
   DEXC   =    0.000                                                            
   RMAX   =    2.561    core radius for proj-oper                               
   RAUG   =    1.300    factor for augmentation sphere                          
   RDEP   =    2.597    radius for radial grids                                 
   RDEPT  =    2.007    core radius for aug-charge                              
                                                                                
   Atomic configuration                                                         
   11 entries                                                                   
     n  l   j            E        occ.                                          
     1  0  0.50    -17820.0161   2.0000                                         
     2  0  0.50     -2467.0882   2.0000                                         
     2  1  1.50     -2199.6095   6.0000                                         
     3  0  0.50      -402.4863   2.0000                                         
     3  1  1.50      -315.3675   6.0000                                         
     3  2  2.50      -172.4472  10.0000                                         
     4  0  0.50       -52.4146   2.0000                                         
     5  0  0.50        -3.8421   1.0000                                         
     4  1  1.50       -30.5054   6.0000                                         
     4  2  2.50        -2.3341   3.0000                                         
     4  3  2.50        -1.3606   0.0000                                         
   Description                                                                  
     l       E           TYP  RCUT    TYP  RCUT                                 
     0    -52.4145962     23  2.200                                             
     0     -3.8421270     23  2.500                                             
     1    -30.5053914     23  2.200                                             
     1     20.4087390     23  2.200                                             
     2     -2.3340816     23  2.500                                             
     2     -0.6120942     23  2.500                                             
     3     -4.0817478     23  2.500                                             
  local pseudopotential read in
  partial core-charges read in
  partial kinetic energy density read in
  atomic valenz-charges read in
  non local Contribution for L=           0  read in
    real space projection operators read in
  non local Contribution for L=           0  read in
    real space projection operators read in
  non local Contribution for L=           1  read in
    real space projection operators read in
  non local Contribution for L=           1  read in
    real space projection operators read in
  non local Contribution for L=           2  read in
    real space projection operators read in
  non local Contribution for L=           2  read in
    real space projection operators read in
    PAW grid and wavefunctions read in
 
   number of l-projection  operators is LMAX  =           6
   number of lm-projection operators is LMMAX =          18
 
 Optimization of the real space projectors (new method)

 maximal supplied QI-value         = 12.85
 optimisation between [QCUT,QGAM] = [  8.87, 17.73] = [ 22.01, 88.06] Ry 
 Optimized for a Real-space Cutoff    1.90 Angstroem

   l    n(q)    QCUT    max X(q) W(low)/X(q) W(high)/X(q)  e(spline) 
   2      9     8.867    62.315    0.23E-03    0.62E-04    0.11E-05
   2      9     8.867    52.185    0.23E-03    0.62E-04    0.11E-05
   0     10     8.867   103.837    0.15E-04    0.23E-04    0.98E-07
   0     10     8.867    59.728    0.12E-04    0.21E-04    0.89E-07
   1     10     8.867    13.958    0.50E-04    0.22E-04    0.14E-06
   1     10     8.867     8.441    0.36E-04    0.19E-04    0.98E-07
 Optimization of the real space projectors (new method)

 maximal supplied QI-value         = 12.47
 optimisation between [QCUT,QGAM] = [  8.86, 17.71] = [ 21.96, 87.83] Ry 
 Optimized for a Real-space Cutoff    1.90 Angstroem

   l    n(q)    QCUT    max X(q) W(low)/X(q) W(high)/X(q)  e(spline) 
   2      9     8.855    48.111    0.22E-03    0.80E-04    0.10E-05
   2      9     8.855    40.545    0.21E-03    0.76E-04    0.95E-06
   0     10     8.855   121.658    0.27E-04    0.12E-04    0.11E-06
   0     10     8.855    71.177    0.22E-04    0.11E-04    0.99E-07
   1     10     8.855    14.183    0.65E-04    0.10E-03    0.98E-07
   1     10     8.855     8.257    0.43E-04    0.73E-04    0.72E-07
 Optimization of the real space projectors (new method)

 maximal supplied QI-value         = 15.68
 optimisation between [QCUT,QGAM] = [  8.78, 17.72] = [ 21.60, 87.97] Ry 
 Optimized for a Real-space Cutoff    1.96 Angstroem

   l    n(q)    QCUT    max X(q) W(low)/X(q) W(high)/X(q)  e(spline) 
   0     10     8.783    10.201    0.29E-04    0.25E-05    0.69E-07
   0     10     8.783     8.174    0.45E-04    0.57E-05    0.14E-06
   1     10     8.783     3.488    0.76E-05    0.24E-04    0.95E-07
   1     10     8.783     4.917    0.78E-04    0.14E-03    0.46E-06
   2      9     8.783   153.744    0.22E-03    0.34E-04    0.15E-05
   2      9     8.783   126.342    0.22E-03    0.35E-04    0.15E-05
 Optimization of the real space projectors (new method)

 maximal supplied QI-value         = 15.12
 optimisation between [QCUT,QGAM] = [  8.77, 17.69] = [ 21.53, 87.61] Ry 
 Optimized for a Real-space Cutoff    1.74 Angstroem

   l    n(q)    QCUT    max X(q) W(low)/X(q) W(high)/X(q)  e(spline) 
   0      9     8.768    12.107    0.28E-04    0.53E-06    0.29E-07
   0      9     8.768     9.948    0.36E-04    0.50E-05    0.64E-07
   1      9     8.768     3.563    0.14E-04    0.16E-04    0.88E-07
   1      9     8.768     4.524    0.21E-03    0.33E-03    0.19E-06
   2      8     8.768    87.261    0.19E-03    0.25E-03    0.24E-06
   2      8     8.768    70.950    0.19E-03    0.24E-03    0.24E-06
  PAW_PBE Ta 17Jan2003                  :
 energy of atom  1       EATOM= -130.6506
 kinetic energy error for atom=    0.0121 (will be added to EATOM!!)
  PAW_PBE Hf 20Jan2003                  :
 energy of atom  2       EATOM=  -75.9011
 kinetic energy error for atom=    0.0071 (will be added to EATOM!!)
  PAW_PBE Nb_sv 25May2007               :
 energy of atom  3       EATOM=-1555.1913
 kinetic energy error for atom=    0.0655 (will be added to EATOM!!)
  PAW_PBE Zr_sv 04Jan2005               :
 energy of atom  4       EATOM=-1284.2219
 kinetic energy error for atom=    0.0483 (will be added to EATOM!!)
 
 
 POSCAR: generated by pypospack                  
  positions in direct lattice
  No initial velocities read in
 exchange correlation table for  LEXCH =        8
   RHO(1)=    0.500       N(1)  =     2000
   RHO(2)=  100.500       N(2)  =     4000
 


--------------------------------------------------------------------------------------------------------


 ion  position               nearest neighbor table
   1  0.738  0.835  0.157-  24 2.76   5 2.83   2 2.84  16 2.93  31 2.95  13 2.96  29 3.03  15 3.06
                            36 3.35   3 3.36   9 3.39  33 3.62
   2  0.984  0.985  0.316-   4 2.84   1 2.84   3 2.86  20 2.87  30 2.94  33 2.99  10 3.02  35 3.08
                            15 3.26  13 3.28  16 3.33  28 3.73  16 3.73
   3  0.260  0.847  0.166-  24 2.85   2 2.86   5 2.88  16 2.93  13 2.99  29 3.00  31 3.02  15 3.03
                            35 3.24   1 3.36  10 3.42  27 3.72
   4  0.784  0.154  0.488-   2 2.84  28 2.95  16 2.96  26 2.99  14 3.00  30 3.01  25 3.03  11 3.07
                            17 3.09  20 3.30  33 3.35
   5  0.492  0.676  0.009-   9 2.83   1 2.83  22 2.85   3 2.88  27 2.90  36 2.91  19 3.01  34 3.06
                            24 3.27  29 3.34  31 3.42   6 3.58  31 3.62
   6  0.465  0.677  0.661-   7 2.76  22 2.77  10 2.81  34 2.94  32 2.98  36 2.98  33 3.03   8 3.05
                            19 3.10  29 3.37  11 3.38   5 3.58  17 3.66
   7  0.241  0.514  0.514-   6 2.76   8 2.80  29 3.01  15 3.01  17 3.05  26 3.09  28 3.14  25 3.19
                            10 3.28  34 3.28  32 3.40  32 3.64  30 3.70  27 3.73
   8  0.032  0.681  0.674-  10 2.79   7 2.80  22 2.83  33 2.97  34 2.97  32 2.99  36 3.03   6 3.05
                            19 3.13  14 3.27  31 3.44  15 3.61  26 3.67
   9  0.727  0.504  0.153-  23 2.73   5 2.83  18 2.98  29 2.99  31 2.99  28 3.01  25 3.02  15 3.13
                            27 3.19  19 3.31   1 3.39
  10  0.238  0.832  0.498-   8 2.79   6 2.81  15 2.96  29 2.98  11 3.02   2 3.02  14 3.04  16 3.06
                             7 3.28  30 3.32  33 3.36   3 3.42  33 3.68
  11  0.494  0.006  0.655-  21 2.97  33 3.00  10 3.02  12 3.02  22 3.04  30 3.06   4 3.07  36 3.09
                            17 3.24  16 3.28   6 3.38  14 3.46  14 3.61
  12  0.282  0.173  0.850-  23 2.88  24 2.91  17 3.00  11 3.02  18 3.08  21 3.09  13 3.11  26 3.13
                            14 3.15  35 3.22  34 3.32  30 3.80
  13  0.993  0.999  0.997-  20 2.96   1 2.96   3 2.99  21 3.00  35 3.03  22 3.06  36 3.09  12 3.11
                            14 3.21   2 3.28  18 3.37  31 3.37  24 3.39
  14  0.005  0.999  0.685-  22 2.97  30 2.99   4 3.00  36 3.03  10 3.04  33 3.05  21 3.06  12 3.15
                            13 3.21   8 3.27  26 3.34  11 3.46  11 3.61
  15  0.006  0.668  0.324-  10 2.96   7 3.01   3 3.03  33 3.06   1 3.06  32 3.08   9 3.13  27 3.20
                            31 3.23   2 3.26  28 3.28  29 3.43   8 3.61  29 3.62
  16  0.512  0.997  0.335-  20 2.91   1 2.93   3 2.93   4 2.96  33 3.03  35 3.05  10 3.06  30 3.07
                            11 3.28   2 3.33  29 3.38  24 3.38  25 3.45   2 3.73
  17  0.506  0.322  0.650-  21 2.97  12 3.00  32 3.01   7 3.05   4 3.09  34 3.12  25 3.16  19 3.18
                            30 3.19  11 3.24  26 3.44  26 3.62   6 3.66
  18  0.973  0.327  0.998-  20 2.93  21 2.94   9 2.98  19 3.05  23 3.07  12 3.08  35 3.11  27 3.12
                            34 3.15  26 3.32  13 3.37  28 3.40  31 3.53
  19  0.739  0.514  0.831-  23 2.96   5 3.01  18 3.05  31 3.08  26 3.09   6 3.10   8 3.13  17 3.18
                            32 3.18  36 3.18   9 3.31  34 3.38  34 3.67
  20  0.747  0.159  0.168-  23 2.83   2 2.87  24 2.90  16 2.91  18 2.93  13 2.96  25 3.01  28 3.06
                             4 3.30  35 3.46
  21  0.721  0.162  0.841-  23 2.71  24 2.83  18 2.94  17 2.97  11 2.97  13 3.00  14 3.06  26 3.06
                            12 3.09  36 3.47
  22  0.268  0.832  0.837-   6 2.77   8 2.83   5 2.85  24 2.97  14 2.97  31 3.04  11 3.04  13 3.06
                            36 3.27  34 3.44
  23  0.538  0.328  0.003-  21 2.71   9 2.73  20 2.83  12 2.88  27 2.88  19 2.96  18 3.07  35 3.08
                            34 3.14
  24  0.511  0.995  0.006-   1 2.76  21 2.83   3 2.85  20 2.90  12 2.91  36 2.95  35 2.96  22 2.97
                             5 3.27  16 3.38  13 3.39
  25  0.515  0.333  0.343-  27 3.01  20 3.01   9 3.02   4 3.03  35 3.15  30 3.15  17 3.16  32 3.18
                             7 3.19  28 3.32  29 3.44  16 3.45  28 3.73
  26  0.993  0.325  0.675-   4 2.99  32 3.03  30 3.03  34 3.06  21 3.06   7 3.09  19 3.09  12 3.13
                            18 3.32  14 3.34  17 3.44  28 3.58  17 3.62   8 3.67
  27  0.276  0.484  0.153-  23 2.88   5 2.90  25 3.01  28 3.05  29 3.06  31 3.07  18 3.12   9 3.19
                            15 3.20  34 3.29  35 3.31   3 3.72   7 3.73
  28  0.986  0.348  0.327-   4 2.95  30 3.00   9 3.01  27 3.05  20 3.06  32 3.11   7 3.14  35 3.18
                            15 3.28  25 3.32  18 3.40  26 3.58   2 3.73  25 3.73
  29  0.492  0.668  0.333-  10 2.98   9 2.99   3 3.00   7 3.01   1 3.03  27 3.06  32 3.09  33 3.11
                             5 3.34   6 3.37  16 3.38  15 3.43  25 3.44  15 3.62
  30  0.212  0.155  0.484-   2 2.94  14 2.99  28 3.00   4 3.01  26 3.03  11 3.06  16 3.07  25 3.15
                            17 3.19  35 3.32  10 3.32   7 3.70  12 3.80
  31  0.006  0.670  0.009-   1 2.95   9 2.99   3 3.02  22 3.04  27 3.07  19 3.08  36 3.09  34 3.10
                            15 3.23  13 3.37   5 3.42   8 3.44  18 3.53   5 3.62
  32  0.758  0.520  0.522-   6 2.98   8 2.99  17 3.01  26 3.03  15 3.08  29 3.09  28 3.11  33 3.17
                            25 3.18  19 3.18   7 3.40   7 3.64
  33  0.761  0.829  0.509-   8 2.97   2 2.99  11 3.00   6 3.03  16 3.03  14 3.05  15 3.06  29 3.11
                            32 3.17  36 3.31   4 3.35  10 3.36   1 3.62  10 3.68
  34  0.260  0.496  0.833-   6 2.94   8 2.97  26 3.06   5 3.06  31 3.10  17 3.12  23 3.14  18 3.15
                             7 3.28  27 3.29  12 3.32  19 3.38  22 3.44  19 3.67
  35  0.256  0.162  0.162-  24 2.96  13 3.03  16 3.05   2 3.08  23 3.08  18 3.11  25 3.15  28 3.18
                            12 3.22   3 3.24  27 3.31  30 3.32  20 3.46
  36  0.732  0.824  0.831-   5 2.91  24 2.95   6 2.98   8 3.03  14 3.03  31 3.09  11 3.09  13 3.09
                            19 3.18  22 3.27  33 3.31   1 3.35  21 3.47
 
  Warning from LATTYP: Got some problem with cell dimensions!
  Tried to take original basis but could not verify dimensions!
  LATTYP: Found a triclinic cell.
 ALAT       =     7.0399127204
 B/A-ratio  =     1.7663684526
 C/A-ratio  =     1.4577491610
 COS(alpha) =     0.0000492363
 COS(beta)  =     0.0037448623
 COS(gamma) =     0.5635966824
  
  Lattice vectors:
  
 A1 = (   7.0398921602,   0.0130145008,   0.0109593171)
 A2 = (   7.0243635512,   0.0002544038, -10.2610684011)
 A3 = (   0.0194394441,  10.2624002799,   0.0129496528)


Analysis of symmetry for initial positions (statically):
=====================================================================
 Subroutine PRICEL returns:
 Original cell was already a primitive cell.
 

 Routine SETGRP: Setting up the symmetry group for a 
 triclinic supercell.


 Subroutine GETGRP returns: Found  1 space group operations
 (whereof  1 operations were pure point group operations)
 out of a pool of  2 trial point group operations.


The static configuration has the point symmetry C_1 .


Analysis of symmetry for dynamics (positions and initial velocities):
=====================================================================
 Subroutine PRICEL returns:
 Original cell was already a primitive cell.
 

 Routine SETGRP: Setting up the symmetry group for a 
 triclinic supercell.


 Subroutine GETGRP returns: Found  1 space group operations
 (whereof  1 operations were pure point group operations)
 out of a pool of  2 trial point group operations.


The dynamic configuration has the point symmetry C_1 .


 Subroutine INISYM returns: Found  1 space group operations
 (whereof  1 operations are pure point group operations),
 and found     1 'primitive' translations

 
 
 KPOINTS: k-points                                

Automatic generation of k-mesh.
Space group operators:
 irot       det(A)        alpha          n_x          n_y          n_z        tau_x        tau_y        tau_z
    1     1.000000     0.000000     1.000000     0.000000     0.000000     0.000000     0.000000     0.000000
 
 Subroutine IBZKPT returns following result:
 ===========================================
 
 Found     14 irreducible k-points:
 
 Following reciprocal coordinates:
            Coordinates               Weight
  0.000000  0.000000  0.000000      1.000000
  0.333333  0.000000  0.000000      2.000000
 -0.000000  0.333333  0.000000      2.000000
  0.333333  0.333333  0.000000      2.000000
 -0.333333  0.333333 -0.000000      2.000000
  0.000000 -0.000000  0.333333      2.000000
  0.333333 -0.000000  0.333333      2.000000
 -0.333333  0.000000  0.333333      2.000000
 -0.000000  0.333333  0.333333      2.000000
  0.333333  0.333333  0.333333      2.000000
 -0.333333  0.333333  0.333333      2.000000
  0.000000 -0.333333  0.333333      2.000000
  0.333333 -0.333333  0.333333      2.000000
 -0.333333 -0.333333  0.333333      2.000000
 
 Following cartesian coordinates:
            Coordinates               Weight
  0.000000  0.000000  0.000000      1.000000
  0.236194 -0.000447 -0.000357      2.000000
 -0.000299  0.162026 -0.000201      2.000000
  0.235895  0.161579 -0.000557      2.000000
 -0.236493  0.162473  0.000156      2.000000
 -0.000252 -0.000204  0.161874      2.000000
  0.235942 -0.000651  0.161518      2.000000
 -0.236446  0.000243  0.162231      2.000000
 -0.000551  0.161822  0.161673      2.000000
  0.235643  0.161376  0.161317      2.000000
 -0.236745  0.162269  0.162030      2.000000
  0.000048 -0.162230  0.162075      2.000000
  0.236242 -0.162677  0.161719      2.000000
 -0.236146 -0.161783  0.162432      2.000000
 


--------------------------------------------------------------------------------------------------------




 Dimension of arrays:
   k-points           NKPTS =     14   k-points in BZ     NKDIM =     14   number of bands    NBANDS=    180
   number of dos      NEDOS =    301   number of ions     NIONS =     36
   non local maximal  LDIM  =      6   non local SUM 2l+1 LMDIM =     18
   total plane-waves  NPLWV = 144000
   max r-space proj   IRMAX =   6175   max aug-charges    IRDMAX=  13407
   dimension x,y,z NGX =    40 NGY =   60 NGZ =   60
   dimension x,y,z NGXF=    80 NGYF=  120 NGZF=  120
   support grid    NGXF=    80 NGYF=  120 NGZF=  120
   ions per type =              10   9   5  12
 NGX,Y,Z   is equivalent  to a cutoff of   9.45,  9.72,  9.71 a.u.
 NGXF,Y,Z  is equivalent  to a cutoff of  18.89, 19.44, 19.42 a.u.


 I would recommend the setting:
   dimension x,y,z NGX =    40 NGY =   58 NGZ =   58
 SYSTEM =  automatically generated by mexm         
 POSCAR =  generated by pypospack                  

 Startparameter for this run:
   NWRITE =      2    write-flag & timer
   PREC   = accura    normal or accurate (medium, high low for compatibility)
   ISTART =      0    job   : 0-new  1-cont  2-samecut
   ICHARG =      2    charge: 1-file 2-atom 10-const
   ISPIN  =      1    spin polarized calculation?
   LNONCOLLINEAR =      F non collinear calculations
   LSORBIT =      F    spin-orbit coupling
   INIWAV =      1    electr: 0-lowe 1-rand  2-diag
   LASPH  =      F    aspherical Exc in radial PAW
   METAGGA=      F    non-selfconsistent MetaGGA calc.

 Electronic Relaxation 1
   ENCUT  =  300.0 eV  22.05 Ry    4.70 a.u.   9.94 14.49 14.51*2*pi/ulx,y,z
   ENINI  =  300.0     initial cutoff
   ENAUG  =  461.3 eV  augmentation charge cutoff
   NELM   =     70;   NELMIN=  2; NELMDL= -5     # of ELM steps 
   EDIFF  = 0.1E-04   stopping-criterion for ELM
   LREAL  =      T    real-space projection
   NLSPLINE    = F    spline interpolate recip. space projectors
   LCOMPAT=      F    compatible to vasp.4.4
   GGA_COMPAT  = T    GGA compatible to vasp.4.4-vasp.4.6
   LMAXPAW     = -100 max onsite density
   LMAXMIX     =    2 max onsite mixed and CHGCAR
   VOSKOWN=      0    Vosko Wilk Nusair interpolation
   ROPT   =   -0.00025  -0.00025  -0.00025  -0.00025
 Ionic relaxation
   EDIFFG = -.1E-01   stopping-criterion for IOM
   NSW    =    300    number of steps for IOM
   NBLOCK =      1;   KBLOCK =    300    inner block; outer block 
   IBRION =      2    ionic relax: 0-MD 1-quasi-New 2-CG
   NFREE  =      1    steps in history (QN), initial steepest desc. (CG)
   ISIF   =      3    stress and relaxation
   IWAVPR =     11    prediction:  0-non 1-charg 2-wave 3-comb
   ISYM   =      1    0-nonsym 1-usesym 2-fastsym
   LCORR  =      T    Harris-Foulkes like correction to forces

   POTIM  = 0.1500    time-step for ionic-motion
   TEIN   =    0.0    initial temperature
   TEBEG  =    0.0;   TEEND  =   0.0 temperature during run
   SMASS  =  -3.00    Nose mass-parameter (am)
   estimated Nose-frequenzy (Omega)   =  0.10E-29 period in steps =****** mass=  -0.113E-26a.u.
   SCALEE = 1.0000    scale energy and forces
   NPACO  =    256;   APACO  = 16.0  distance and # of slots for P.C.
   PSTRESS=    0.0 pullay stress

  Mass of Ions in am
   POMASS = 180.95178.49 92.91 91.22
  Ionic Valenz
   ZVAL   =   5.00  4.00 13.00 12.00
  Atomic Wigner-Seitz radii
   RWIGS  =  -1.00 -1.00 -1.00 -1.00
  virtual crystal weights 
   VCA    =   1.00  1.00  1.00  1.00
   NELECT =     295.0000    total number of electrons
   NUPDOWN=      -1.0000    fix difference up-down

 DOS related values:
   EMIN   =  10.00;   EMAX   =-10.00  energy-range for DOS
   EFERMI =   0.00
   ISMEAR =     1;   SIGMA  =   0.15  broadening in eV -4-tet -1-fermi 0-gaus

 Electronic relaxation 2 (details)
   IALGO  =     68    algorithm
   LDIAG  =      T    sub-space diagonalisation (order eigenvalues)
   LSUBROT=      F    optimize rotation matrix (better conditioning)
   TURBO    =      0    0=normal 1=particle mesh
   IRESTART =      0    0=no restart 2=restart with 2 vectors
   NREBOOT  =      0    no. of reboots
   NMIN     =      0    reboot dimension
   EREF     =   0.00    reference energy to select bands
   IMIX   =      4    mixing-type and parameters
     AMIX     =   0.40;   BMIX     =  1.00
     AMIX_MAG =   1.60;   BMIX_MAG =  1.00
     AMIN     =   0.10
     WC   =   100.;   INIMIX=   1;  MIXPRE=   1;  MAXMIX= -45

 Intra band minimization:
   WEIMIN = 0.0010     energy-eigenvalue tresh-hold
   EBREAK =  0.14E-07  absolut break condition
   DEPER  =   0.30     relativ break condition  

   TIME   =   0.40     timestep for ELM

  volume/ion in A,a.u.               =      20.61       139.11
  Fermi-wavevector in a.u.,A,eV,Ry     =   1.203722  2.274705 19.714116  1.448947
  Thomas-Fermi vector in A             =   2.339467
 
 Write flags
   LWAVE  =      F    write WAVECAR
   LCHARG =      F    write CHGCAR
   LVTOT  =      F    write LOCPOT, total local potential
   LVHAR  =      F    write LOCPOT, Hartree potential only
   LELF   =      F    write electronic localiz. function (ELF)
   LORBIT =      0    0 simple, 1 ext, 2 COOP (PROOUT)


 Dipole corrections
   LMONO  =      F    monopole corrections only (constant potential shift)
   LDIPOL =      F    correct potential (dipole corrections)
   IDIPOL =      0    1-x, 2-y, 3-z, 4-all directions 
   EPSILON=  1.0000000 bulk dielectric constant

 Exchange correlation treatment:
   GGA     =    --    GGA type
   LEXCH   =     8    internal setting for exchange type
   VOSKOWN=      0    Vosko Wilk Nusair interpolation
   LHFCALC =     F    Hartree Fock is set to
   LHFONE  =     F    Hartree Fock one center treatment
   AEXX    =    0.0000 exact exchange contribution

 Linear response parameters
   LEPSILON=     F    determine dielectric tensor
   LRPA    =     F    only Hartree local field effects (RPA)
   LNABLA  =     F    use nabla operator in PAW spheres
   LVEL    =     F    velocity operator in full k-point grid
   LINTERFAST=   F  fast interpolation
   KINTER  =     0    interpolate to denser k-point grid
   CSHIFT  =0.1000    complex shift for real part using Kramers Kronig
   OMEGAMAX=  -1.0    maximum frequency
   DEG_THRESHOLD= 0.2000000E-02 threshold for treating states as degnerate
   RTIME   =    0.100 relaxation time in fs

 Orbital magnetization related:
   ORBITALMAG=     F  switch on orbital magnetization
   LCHIMAG   =     F  perturbation theory with respect to B field
   DQ        =  0.001000  dq finite difference perturbation B field



--------------------------------------------------------------------------------------------------------


 conjugate gradient relaxation of ions
 charge density and potential will be updated during run
 non-spin polarized calculation
 RMM-DIIS sequential band-by-band and
  variant of blocked Davidson during initial phase
 perform sub-space diagonalisation
    before iterative eigenvector-optimisation
 modified Broyden-mixing scheme, WC =      100.0
 initial mixing is a Kerker type mixing with AMIX =  0.4000 and BMIX =      1.0000
 Hartree-type preconditioning will be used
 using additional bands           32
 real space projection scheme for non local part
 use partial core corrections
 calculate Harris-corrections to forces 
   (improved forces if not selfconsistent)
 use gradient corrections 
 use of overlap-Matrix (Vanderbilt PP)
 Methfessel and Paxton  Order N= 1 SIGMA  =   0.15


--------------------------------------------------------------------------------------------------------


  energy-cutoff  :      300.00
  volume of cell :      742.11
      direct lattice vectors                 reciprocal lattice vectors
     7.039892160  0.013014501  0.010959317     0.142048461 -0.000268803 -0.000214406
     0.019439444 10.262400280  0.012949653    -0.000179954  0.097443584 -0.000120774
     0.015528609  0.012760097 10.272027718    -0.000151326 -0.000122558  0.097352143

  length of vectors
     7.039912720 10.262426862 10.272047381     0.142048877  0.097443825  0.097352338


 
 k-points in units of 2pi/SCALE and weight: k-points                                
   0.00000000  0.00000000  0.00000000       0.037
   0.23619392 -0.00044696 -0.00035651       0.074
  -0.00029922  0.16202627 -0.00020082       0.074
   0.23589470  0.16157931 -0.00055733       0.074
  -0.23649314  0.16247323  0.00015569       0.074
  -0.00025162 -0.00020379  0.16187422       0.074
   0.23594230 -0.00065074  0.16151772       0.074
  -0.23644554  0.00024317  0.16223073       0.074
  -0.00055084  0.16182248  0.16167340       0.074
   0.23564308  0.16137552  0.16131690       0.074
  -0.23674476  0.16226944  0.16202991       0.074
   0.00004760 -0.16223005  0.16207504       0.074
   0.23624152 -0.16267701  0.16171853       0.074
  -0.23614632 -0.16178309  0.16243155       0.074
 
 k-points in reciprocal lattice and weights: k-points                                
   0.00000000  0.00000000  0.00000000       0.037
   0.33333333  0.00000000  0.00000000       0.074
  -0.00000000  0.33333333  0.00000000       0.074
   0.33333333  0.33333333  0.00000000       0.074
  -0.33333333  0.33333333 -0.00000000       0.074
   0.00000000 -0.00000000  0.33333333       0.074
   0.33333333 -0.00000000  0.33333333       0.074
  -0.33333333  0.00000000  0.33333333       0.074
  -0.00000000  0.33333333  0.33333333       0.074
   0.33333333  0.33333333  0.33333333       0.074
  -0.33333333  0.33333333  0.33333333       0.074
   0.00000000 -0.33333333  0.33333333       0.074
   0.33333333 -0.33333333  0.33333333       0.074
  -0.33333333 -0.33333333  0.33333333       0.074
 
 position of ions in fractional coordinates (direct lattice) 
   0.73767800  0.83470300  0.15749300
   0.98354600  0.98520800  0.31630100
   0.26006100  0.84664800  0.16577800
   0.78441400  0.15411400  0.48774700
   0.49207300  0.67596700  0.00851200
   0.46463800  0.67749400  0.66100500
   0.24132100  0.51372300  0.51401800
   0.03182200  0.68146300  0.67434200
   0.72702000  0.50432800  0.15332100
   0.23753900  0.83248400  0.49766900
   0.49418300  0.00623900  0.65478000
   0.28248200  0.17302400  0.84993700
   0.99279800  0.99889000  0.99739600
   0.00525800  0.99909300  0.68453300
   0.00554600  0.66769000  0.32365800
   0.51214200  0.99671300  0.33548500
   0.50615700  0.32159800  0.65041100
   0.97331900  0.32698600  0.99757300
   0.73851200  0.51392300  0.83141400
   0.74697100  0.15878300  0.16800000
   0.72125700  0.16162000  0.84106300
   0.26787400  0.83170500  0.83729200
   0.53778900  0.32769000  0.00348700
   0.51105000  0.99467700  0.00617300
   0.51462800  0.33279100  0.34311000
   0.99294100  0.32469500  0.67457400
   0.27566400  0.48418100  0.15286900
   0.98553200  0.34829700  0.32733000
   0.49195400  0.66764900  0.33349300
   0.21193600  0.15549500  0.48392300
   0.00590100  0.67034900  0.00895000
   0.75839100  0.52013600  0.52227800
   0.76063500  0.82926500  0.50943400
   0.25968800  0.49627900  0.83306300
   0.25558100  0.16213900  0.16237800
   0.73168300  0.82396400  0.83120600
 
 position of ions in cartesian coordinates  (Angst):
   5.21184538  8.57766644  1.63666602
   6.94812138 10.12743525  3.27258973
   1.84983406  8.69414058  1.71669010
   5.53275989  1.59801201  5.02074307
   3.47741346  6.94355663  0.10158182
   3.29443601  6.96719613  6.80372711
   1.71684229  5.28173065  5.28930439
   0.24774230  7.00246490  6.93603317
   5.13032712  5.18703400  1.58941608
   1.69616008  8.55272579  5.12545341
   3.48928413  0.07881372  6.73141501
   2.00520465  1.79016319  8.73591283
   7.02409690 10.27665666 10.26909502
   0.06706741 10.26189542  7.04453748
   0.05704872  6.85630413  3.33333108
   3.63000961 10.23961386  3.46463103
   3.57964236  3.31525409  6.69075154
   6.87390814  3.38105761 10.26199877
   5.22194592  5.29430383  8.55505636
   5.26429075  1.64135985  1.73594313
   5.09377384  1.67872798  8.64941986
   1.91497394  8.54945980  8.61439264
   3.79240082  3.36992950  0.04595583
   3.61716871 10.21450335  0.08189071
   3.63472292  3.42631019  3.53438493
   7.00698465  3.35368032  6.94432947
   1.95243088  4.97439748  1.57956567
   6.94989268  3.59136620  3.37765392
   3.48146052  6.86233922  3.43968664
   1.50254397  1.60468508  4.97520675
   0.05471260  6.87958077  0.10068011
   5.35721226  5.35437823  5.37990112
   5.37881963  8.52664908  5.25199490
   1.85075921  5.10702342  8.56651887
   1.80493607  1.66933354  1.67285195
   5.17989429  8.47597714  8.55685987
 


--------------------------------------------------------------------------------------------------------


 k-point  1 :   0.0000 0.0000 0.0000  plane waves:    8763
 k-point  2 :   0.3333 0.0000 0.0000  plane waves:    8772
 k-point  3 :  -0.0000 0.3333 0.0000  plane waves:    8751
 k-point  4 :   0.3333 0.3333 0.0000  plane waves:    8768
 k-point  5 :  -0.3333 0.3333-0.0000  plane waves:    8764
 k-point  6 :   0.0000-0.0000 0.3333  plane waves:    8750
 k-point  7 :   0.3333-0.0000 0.3333  plane waves:    8769
 k-point  8 :  -0.3333 0.0000 0.3333  plane waves:    8765
 k-point  9 :  -0.0000 0.3333 0.3333  plane waves:    8731
 k-point 10 :   0.3333 0.3333 0.3333  plane waves:    8761
 k-point 11 :  -0.3333 0.3333 0.3333  plane waves:    8776
 k-point 12 :   0.0000-0.3333 0.3333  plane waves:    8719
 k-point 13 :   0.3333-0.3333 0.3333  plane waves:    8761
 k-point 14 :  -0.3333-0.3333 0.3333  plane waves:    8761

 maximum and minimum number of plane-waves per node :      1775     1725

 maximum number of plane-waves:      8776
 maximum index in each direction: 
   IXMAX=   10   IYMAX=   14   IZMAX=   14
   IXMIN=  -10   IYMIN=  -14   IZMIN=  -14

 WARNING: aliasing errors must be expected set NGX to  42 to avoid them
 NGY is ok and might be reduce to  58
 NGZ is ok and might be reduce to  58
 aliasing errors are usually negligible using standard VASP settings
 and one can safely disregard these warnings

 real space projection operators:
  total allocation   :      25732.55 KBytes
  max/ min on nodes  :       5209.88       5070.23


 parallel 3D FFT for wavefunctions:
    minimum data exchange during FFTs selected (reduces bandwidth)
 parallel 3D FFT for charge:
    minimum data exchange during FFTs selected (reduces bandwidth)


 total amount of memory used by VASP on root node    67610. kBytes
========================================================================

   base      :      30000. kBytes
   nonlr-proj:       9999. kBytes
   fftplans  :       2814. kBytes
   grid      :       5360. kBytes
   one-center:        124. kBytes
   wavefun   :      19313. kBytes
 
     INWAV:  cpu time    0.0000: real time    0.0000
 Broyden mixing: mesh for mixing (old mesh)
   NGX = 19   NGY = 29   NGZ = 29
  (NGX  = 80   NGY  =120   NGZ  =120)
  gives a total of  15979 points

 initial charge density was supplied:
 charge density of overlapping atoms calculated
 number of electron     295.0000000 magnetization 
 keeping initial charge density in first step


--------------------------------------------------------------------------------------------------------


 Maximum index for non-local projection operator         1185
 Maximum index for augmentation-charges          674 (set IRDMAX)


--------------------------------------------------------------------------------------------------------


 First call to EWALD:  gamma=   0.196
 Maximum number of real-space cells 3x 2x 2
 Maximum number of reciprocal cells 2x 3x 3

 FEWALD executed in parallel
    FEWALD:  cpu time    0.0714: real time    0.0718


----------------------------------------- Iteration    1(   1)  ---------------------------------------


    POTLOK:  cpu time    0.0531: real time    0.0689
    SETDIJ:  cpu time    0.1278: real time    0.1282
     EDDAV:  cpu time    1.0131: real time    1.0174
       DOS:  cpu time    0.0016: real time    0.0016
    --------------------------------------------
      LOOP:  cpu time    1.2024: real time    1.3176

 eigenvalue-minimisations  :  5472
 total energy-change (2. order) : 0.1843747E+04  (-0.1094893E+05)
 number of electron     295.0000000 magnetization 
 augmentation part      295.0000000 magnetization 

 Free energy of the ion-electron system (eV)
  ---------------------------------------------------
  alpha Z        PSCENC =      1492.23084573
  Ewald energy   TEWEN  =    -19680.95829385
  -Hartree energ DENC   =     -6329.43246814
  -exchange      EXHF   =         0.00000000
  -V(xc)+E(xc)   XCENC  =      -260.96912625
  PAW double counting   =     21222.44937796   -19630.83424102
  entropy T*S    EENTRO =         0.00359475
  eigenvalues    EBANDS =      -143.88583880
  atomic energy  EATOM  =     25175.14332663
  Solvation  Ediel_sol  =         0.00000000
  ---------------------------------------------------
  free energy    TOTEN  =      1843.74717701 eV

  energy without entropy =     1843.74358226  energy(sigma->0) =     1843.74597876


--------------------------------------------------------------------------------------------------------




----------------------------------------- Iteration    1(   2)  ---------------------------------------


     EDDAV:  cpu time    1.1574: real time    1.1637
       DOS:  cpu time    0.0014: real time    0.0014
    --------------------------------------------
      LOOP:  cpu time    1.1604: real time    1.2099

 eigenvalue-minimisations  :  5456
 total energy-change (2. order) :-0.1912897E+04  (-0.1833872E+04)
 number of electron     295.0000000 magnetization 
 augmentation part      295.0000000 magnetization 

 Free energy of the ion-electron system (eV)
  ---------------------------------------------------
  alpha Z        PSCENC =      1492.23084573
  Ewald energy   TEWEN  =    -19680.95829385
  -Hartree energ DENC   =     -6329.43246814
  -exchange      EXHF   =         0.00000000
  -V(xc)+E(xc)   XCENC  =      -260.96912625
  PAW double counting   =     21222.44937796   -19630.83424102
  entropy T*S    EENTRO =         0.00563511
  eigenvalues    EBANDS =     -2056.78490277
  atomic energy  EATOM  =     25175.14332663
  Solvation  Ediel_sol  =         0.00000000
  ---------------------------------------------------
  free energy    TOTEN  =       -69.14984661 eV

  energy without entropy =      -69.15548172  energy(sigma->0) =      -69.15172498


--------------------------------------------------------------------------------------------------------




----------------------------------------- Iteration    1(   3)  ---------------------------------------


     EDDAV:  cpu time    1.6284: real time    1.6477
       DOS:  cpu time    0.0016: real time    0.0016
    --------------------------------------------
      LOOP:  cpu time    1.6304: real time    1.6577

 eigenvalue-minimisations  :  8728
 total energy-change (2. order) :-0.2667046E+03  (-0.2525394E+03)
 number of electron     295.0000000 magnetization 
 augmentation part      295.0000000 magnetization 

 Free energy of the ion-electron system (eV)
  ---------------------------------------------------
  alpha Z        PSCENC =      1492.23084573
  Ewald energy   TEWEN  =    -19680.95829385
  -Hartree energ DENC   =     -6329.43246814
  -exchange      EXHF   =         0.00000000
  -V(xc)+E(xc)   XCENC  =      -260.96912625
  PAW double counting   =     21222.44937796   -19630.83424102
  entropy T*S    EENTRO =         0.00263078
  eigenvalues    EBANDS =     -2323.48648400
  atomic energy  EATOM  =     25175.14332663
  Solvation  Ediel_sol  =         0.00000000
  ---------------------------------------------------
  free energy    TOTEN  =      -335.85443216 eV

  energy without entropy =     -335.85706294  energy(sigma->0) =     -335.85530909


--------------------------------------------------------------------------------------------------------




----------------------------------------- Iteration    1(   4)  ---------------------------------------


     EDDAV:  cpu time    1.7796: real time    1.8273
       DOS:  cpu time    0.0013: real time    0.0013
    --------------------------------------------
      LOOP:  cpu time    1.7812: real time    1.8388

 eigenvalue-minimisations  :  8456
 total energy-change (2. order) :-0.3340320E+02  (-0.3194068E+02)
 number of electron     295.0000000 magnetization 
 augmentation part      295.0000000 magnetization 

 Free energy of the ion-electron system (eV)
  ---------------------------------------------------
  alpha Z        PSCENC =      1492.23084573
  Ewald energy   TEWEN  =    -19680.95829385
  -Hartree energ DENC   =     -6329.43246814
  -exchange      EXHF   =         0.00000000
  -V(xc)+E(xc)   XCENC  =      -260.96912625
  PAW double counting   =     21222.44937796   -19630.83424102
  entropy T*S    EENTRO =         0.00869104
  eigenvalues    EBANDS =     -2356.89574129
  atomic energy  EATOM  =     25175.14332663
  Solvation  Ediel_sol  =         0.00000000
  ---------------------------------------------------
  free energy    TOTEN  =      -369.25762920 eV

  energy without entropy =     -369.26632023  energy(sigma->0) =     -369.26052621


--------------------------------------------------------------------------------------------------------




----------------------------------------- Iteration    1(   5)  ---------------------------------------


     EDDAV:  cpu time    1.3799: real time    1.4030
       DOS:  cpu time    0.0014: real time    0.0015
    CHARGE:  cpu time    0.0332: real time    0.0333
    MIXING:  cpu time    0.0013: real time    0.0014
    --------------------------------------------
      LOOP:  cpu time    1.4162: real time    1.4504

 eigenvalue-minimisations  :  7856
 total energy-change (2. order) :-0.3335834E+01  (-0.3281728E+01)
 number of electron     295.0000001 magnetization 
 augmentation part       13.5818054 magnetization 

 Broyden mixing:
  rms(total) = 0.65600E+01    rms(broyden)= 0.65597E+01
  rms(prec ) = 0.68404E+01
  weight for this iteration     100.00

 Free energy of the ion-electron system (eV)
  ---------------------------------------------------
  alpha Z        PSCENC =      1492.23084573
  Ewald energy   TEWEN  =    -19680.95829385
  -Hartree energ DENC   =     -6329.43246814
  -exchange      EXHF   =         0.00000000
  -V(xc)+E(xc)   XCENC  =      -260.96912625
  PAW double counting   =     21222.44937796   -19630.83424102
  entropy T*S    EENTRO =         0.01026572
  eigenvalues    EBANDS =     -2360.23314979
  atomic energy  EATOM  =     25175.14332663
  Solvation  Ediel_sol  =         0.00000000
  ---------------------------------------------------
  free energy    TOTEN  =      -372.59346302 eV

  energy without entropy =     -372.60372874  energy(sigma->0) =     -372.59688492


--------------------------------------------------------------------------------------------------------




----------------------------------------- Iteration    1(   6)  ---------------------------------------


    POTLOK:  cpu time    0.0311: real time    0.0311
    SETDIJ:  cpu time    0.0159: real time    0.0159
    EDDIAG:  cpu time    0.0857: real time    0.0860
  RMM-DIIS:  cpu time    0.7984: real time    0.8014
    ORTHCH:  cpu time    0.0125: real time    0.0125
       DOS:  cpu time    0.0017: real time    0.0017
    CHARGE:  cpu time    0.0325: real time    0.0326
    MIXING:  cpu time    0.0018: real time    0.0027
    --------------------------------------------
      LOOP:  cpu time    0.9800: real time    0.9944

 eigenvalue-minimisations  :  7281
 total energy-change (2. order) : 0.1006961E+02  (-0.2361140E+01)
 number of electron     295.0000001 magnetization 
 augmentation part       14.1765815 magnetization 

 Broyden mixing:
  rms(total) = 0.31326E+01    rms(broyden)= 0.31326E+01
  rms(prec ) = 0.34792E+01
  weight for this iteration     100.00

 eigenvalues of (default mixing * dielectric matrix)
  average eigenvalue GAMMA=   1.8210
  1.8210

 Free energy of the ion-electron system (eV)
  ---------------------------------------------------
  alpha Z        PSCENC =      1492.23084573
  Ewald energy   TEWEN  =    -19680.95829385
  -Hartree energ DENC   =     -6152.50669545
  -exchange      EXHF   =         0.00000000
  -V(xc)+E(xc)   XCENC  =      -264.86816612
  PAW double counting   =     26908.34353995   -25327.75245415
  entropy T*S    EENTRO =         0.00946076
  eigenvalues    EBANDS =     -2512.16541486
  atomic energy  EATOM  =     25175.14332663
  Solvation  Ediel_sol  =         0.00000000
  ---------------------------------------------------
  free energy    TOTEN  =      -362.52385135 eV

  energy without entropy =     -362.53331211  energy(sigma->0) =     -362.52700494


--------------------------------------------------------------------------------------------------------




----------------------------------------- Iteration    1(   7)  ---------------------------------------


    POTLOK:  cpu time    0.0297: real time    0.0298
    SETDIJ:  cpu time    0.0273: real time    0.0274
    EDDIAG:  cpu time    0.1051: real time    0.1054
  RMM-DIIS:  cpu time    0.8259: real time    0.8290
    ORTHCH:  cpu time    0.0124: real time    0.0124
       DOS:  cpu time    0.0052: real time    0.0053
    CHARGE:  cpu time    0.0673: real time    0.0675
    MIXING:  cpu time    0.0024: real time    0.0024
    --------------------------------------------
      LOOP:  cpu time    1.0759: real time    1.0903

 eigenvalue-minimisations  :  7567
 total energy-change (2. order) :-0.2948063E+01  (-0.2714521E+01)
 number of electron     295.0000002 magnetization 
 augmentation part       14.5189859 magnetization 

 Broyden mixing:
  rms(total) = 0.13047E+01    rms(broyden)= 0.13043E+01
  rms(prec ) = 0.38475E+01
  weight for this iteration     100.00

 eigenvalues of (default mixing * dielectric matrix)
  average eigenvalue GAMMA=   1.1476
  1.8203  0.4749

 Free energy of the ion-electron system (eV)
  ---------------------------------------------------
  alpha Z        PSCENC =      1492.23084573
  Ewald energy   TEWEN  =    -19680.95829385
  -Hartree energ DENC   =     -6080.70090525
  -exchange      EXHF   =         0.00000000
  -V(xc)+E(xc)   XCENC  =      -263.82349958
  PAW double counting   =     32079.99754967   -30493.54042966
  entropy T*S    EENTRO =         0.00583622
  eigenvalues    EBANDS =     -2593.82634407
  atomic energy  EATOM  =     25175.14332663
  Solvation  Ediel_sol  =         0.00000000
  ---------------------------------------------------
  free energy    TOTEN  =      -365.47191415 eV

  energy without entropy =     -365.47775037  energy(sigma->0) =     -365.47385956


--------------------------------------------------------------------------------------------------------




----------------------------------------- Iteration    1(   8)  ---------------------------------------


    POTLOK:  cpu time    0.0286: real time    0.0447
    SETDIJ:  cpu time    0.0038: real time    0.0056
    EDDIAG:  cpu time    0.1514: real time    0.1571
  RMM-DIIS:  cpu time    0.7849: real time    0.7883
    ORTHCH:  cpu time    0.0124: real time    0.0124
       DOS:  cpu time    0.0029: real time    0.0029
    CHARGE:  cpu time    0.0315: real time    0.0316
    MIXING:  cpu time    0.0012: real time    0.0013
    --------------------------------------------
      LOOP:  cpu time    1.0173: real time    1.0554

 eigenvalue-minimisations  :  7566
 total energy-change (2. order) : 0.7144958E+01  (-0.7997694E+00)
 number of electron     295.0000001 magnetization 
 augmentation part       14.3006514 magnetization 

 Broyden mixing:
  rms(total) = 0.42187E+00    rms(broyden)= 0.42120E+00
  rms(prec ) = 0.74314E+00
  weight for this iteration     100.00

 eigenvalues of (default mixing * dielectric matrix)
  average eigenvalue GAMMA=   1.0637
  1.8322  0.9842  0.3748

 Free energy of the ion-electron system (eV)
  ---------------------------------------------------
  alpha Z        PSCENC =      1492.23084573
  Ewald energy   TEWEN  =    -19680.95829385
  -Hartree energ DENC   =     -6068.10182162
  -exchange      EXHF   =         0.00000000
  -V(xc)+E(xc)   XCENC  =      -263.29620715
  PAW double counting   =     33399.75126767   -31811.15780559
  entropy T*S    EENTRO =         0.02780776
  eigenvalues    EBANDS =     -2601.96607533
  atomic energy  EATOM  =     25175.14332663
  Solvation  Ediel_sol  =         0.00000000
  ---------------------------------------------------
  free energy    TOTEN  =      -358.32695575 eV

  energy without entropy =     -358.35476351  energy(sigma->0) =     -358.33622501


--------------------------------------------------------------------------------------------------------




----------------------------------------- Iteration    1(   9)  ---------------------------------------


    POTLOK:  cpu time    0.0297: real time    0.0298
    SETDIJ:  cpu time    0.0036: real time    0.0036
    EDDIAG:  cpu time    0.0839: real time    0.0842
  RMM-DIIS:  cpu time    0.8005: real time    0.8037
    ORTHCH:  cpu time    0.0123: real time    0.0124
       DOS:  cpu time    0.0022: real time    0.0022
    CHARGE:  cpu time    0.0315: real time    0.0317
    MIXING:  cpu time    0.0013: real time    0.0013
    --------------------------------------------
      LOOP:  cpu time    0.9657: real time    0.9807

 eigenvalue-minimisations  :  7629
 total energy-change (2. order) : 0.3760908E+00  (-0.2497231E+00)
 number of electron     295.0000001 magnetization 
 augmentation part       14.1379439 magnetization 

 Broyden mixing:
  rms(total) = 0.27827E+00    rms(broyden)= 0.27815E+00
  rms(prec ) = 0.36451E+00
  weight for this iteration     100.00

 eigenvalues of (default mixing * dielectric matrix)
  average eigenvalue GAMMA=   1.0915
  1.7401  1.7401  0.5091  0.3768

 Free energy of the ion-electron system (eV)
  ---------------------------------------------------
  alpha Z        PSCENC =      1492.23084573
  Ewald energy   TEWEN  =    -19680.95829385
  -Hartree energ DENC   =     -6067.17059072
  -exchange      EXHF   =         0.00000000
  -V(xc)+E(xc)   XCENC  =      -263.04504436
  PAW double counting   =     33663.92255320   -32071.96146669
  entropy T*S    EENTRO =         0.02217692
  eigenvalues    EBANDS =     -2606.13437182
  atomic energy  EATOM  =     25175.14332663
  Solvation  Ediel_sol  =         0.00000000
  ---------------------------------------------------
  free energy    TOTEN  =      -357.95086497 eV

  energy without entropy =     -357.97304188  energy(sigma->0) =     -357.95825727


--------------------------------------------------------------------------------------------------------




----------------------------------------- Iteration    1(  10)  ---------------------------------------


    POTLOK:  cpu time    0.0295: real time    0.0296
    SETDIJ:  cpu time    0.0037: real time    0.0037
    EDDIAG:  cpu time    0.0834: real time    0.0836
  RMM-DIIS:  cpu time    0.7985: real time    0.8018
    ORTHCH:  cpu time    0.0124: real time    0.0125
       DOS:  cpu time    0.0024: real time    0.0024
    CHARGE:  cpu time    0.0309: real time    0.0310
    MIXING:  cpu time    0.0014: real time    0.0014
    --------------------------------------------
      LOOP:  cpu time    0.9626: real time    0.9768

 eigenvalue-minimisations  :  7656
 total energy-change (2. order) : 0.1609237E-01  (-0.4828527E-01)
 number of electron     295.0000001 magnetization 
 augmentation part       14.0303262 magnetization 

 Broyden mixing:
  rms(total) = 0.15488E+00    rms(broyden)= 0.15484E+00
  rms(prec ) = 0.24995E+00
  weight for this iteration     100.00

 eigenvalues of (default mixing * dielectric matrix)
  average eigenvalue GAMMA=   1.1160
  1.9528  1.9528  0.7856  0.3762  0.5128

 Free energy of the ion-electron system (eV)
  ---------------------------------------------------
  alpha Z        PSCENC =      1492.23084573
  Ewald energy   TEWEN  =    -19680.95829385
  -Hartree energ DENC   =     -6074.72951443
  -exchange      EXHF   =         0.00000000
  -V(xc)+E(xc)   XCENC  =      -262.25257999
  PAW double counting   =     33929.97209110   -32330.97970592
  entropy T*S    EENTRO =         0.02469336
  eigenvalues    EBANDS =     -2606.38563523
  atomic energy  EATOM  =     25175.14332663
  Solvation  Ediel_sol  =         0.00000000
  ---------------------------------------------------
  free energy    TOTEN  =      -357.93477260 eV

  energy without entropy =     -357.95946596  energy(sigma->0) =     -357.94300372


--------------------------------------------------------------------------------------------------------




----------------------------------------- Iteration    1(  11)  ---------------------------------------


    POTLOK:  cpu time    0.0294: real time    0.0295
    SETDIJ:  cpu time    0.0037: real time    0.0037
    EDDIAG:  cpu time    0.0846: real time    0.0849
  RMM-DIIS:  cpu time    0.8542: real time    0.9008
    ORTHCH:  cpu time    0.0124: real time    0.0141
       DOS:  cpu time    0.0011: real time    0.0011
    CHARGE:  cpu time    0.0291: real time    0.0316
    MIXING:  cpu time    0.0014: real time    0.0015
    --------------------------------------------
      LOOP:  cpu time    1.0164: real time    1.0785

 eigenvalue-minimisations  :  7582
 total energy-change (2. order) : 0.2343197E-01  (-0.1462516E-01)
 number of electron     295.0000001 magnetization 
 augmentation part       13.9876092 magnetization 

 Broyden mixing:
  rms(total) = 0.80129E-01    rms(broyden)= 0.80072E-01
  rms(prec ) = 0.15256E+00
  weight for this iteration     100.00

 eigenvalues of (default mixing * dielectric matrix)
  average eigenvalue GAMMA=   1.0869
  2.2379  1.8777  1.0569  0.5304  0.3774  0.4411

 Free energy of the ion-electron system (eV)
  ---------------------------------------------------
  alpha Z        PSCENC =      1492.23084573
  Ewald energy   TEWEN  =    -19680.95829385
  -Hartree energ DENC   =     -6082.27083389
  -exchange      EXHF   =         0.00000000
  -V(xc)+E(xc)   XCENC  =      -261.71735621
  PAW double counting   =     34102.79409895   -32499.68222956
  entropy T*S    EENTRO =         0.02428639
  eigenvalues    EBANDS =     -2603.47518482
  atomic energy  EATOM  =     25175.14332663
  Solvation  Ediel_sol  =         0.00000000
  ---------------------------------------------------
  free energy    TOTEN  =      -357.91134063 eV

  energy without entropy =     -357.93562702  energy(sigma->0) =     -357.91943609


--------------------------------------------------------------------------------------------------------




----------------------------------------- Iteration    1(  12)  ---------------------------------------


    POTLOK:  cpu time    0.0290: real time    0.0321
    SETDIJ:  cpu time    0.0037: real time    0.0038
    EDDIAG:  cpu time    0.0799: real time    0.1355
  RMM-DIIS:  cpu time    0.7931: real time    0.8088
    ORTHCH:  cpu time    0.0124: real time    0.0124
       DOS:  cpu time    0.0027: real time    0.0027
    CHARGE:  cpu time    0.0309: real time    0.0310
    MIXING:  cpu time    0.0014: real time    0.0014
    --------------------------------------------
      LOOP:  cpu time    0.9538: real time    1.0395

 eigenvalue-minimisations  :  7719
 total energy-change (2. order) : 0.4323842E-02  (-0.6287140E-02)
 number of electron     295.0000001 magnetization 
 augmentation part       13.9793501 magnetization 

 Broyden mixing:
  rms(total) = 0.42636E-01    rms(broyden)= 0.42604E-01
  rms(prec ) = 0.80009E-01
  weight for this iteration     100.00

 eigenvalues of (default mixing * dielectric matrix)
  average eigenvalue GAMMA=   1.0341
  2.2784  1.8851  1.1757  0.5888  0.5673  0.3847  0.3591

 Free energy of the ion-electron system (eV)
  ---------------------------------------------------
  alpha Z        PSCENC =      1492.23084573
  Ewald energy   TEWEN  =    -19680.95829385
  -Hartree energ DENC   =     -6085.52612589
  -exchange      EXHF   =         0.00000000
  -V(xc)+E(xc)   XCENC  =      -261.45962462
  PAW double counting   =     34231.87303893   -32626.25127857
  entropy T*S    EENTRO =         0.02531139
  eigenvalues    EBANDS =     -2602.98421655
  atomic energy  EATOM  =     25175.14332663
  Solvation  Ediel_sol  =         0.00000000
  ---------------------------------------------------
  free energy    TOTEN  =      -357.90701679 eV

  energy without entropy =     -357.93232818  energy(sigma->0) =     -357.91545392


--------------------------------------------------------------------------------------------------------




----------------------------------------- Iteration    1(  13)  ---------------------------------------


    POTLOK:  cpu time    0.0292: real time    0.0293
    SETDIJ:  cpu time    0.0037: real time    0.0037
    EDDIAG:  cpu time    0.0837: real time    0.0841
  RMM-DIIS:  cpu time    0.8105: real time    0.8139
    ORTHCH:  cpu time    0.0323: real time    0.0324
       DOS:  cpu time    0.0640: real time    0.0642
    CHARGE:  cpu time    0.0459: real time    0.0460
    MIXING:  cpu time    0.0015: real time    0.0015
    --------------------------------------------
      LOOP:  cpu time    1.0714: real time    1.0857

 eigenvalue-minimisations  :  7689
 total energy-change (2. order) : 0.2588708E-02  (-0.2011173E-02)
 number of electron     295.0000001 magnetization 
 augmentation part       13.9755967 magnetization 

 Broyden mixing:
  rms(total) = 0.24104E-01    rms(broyden)= 0.24093E-01
  rms(prec ) = 0.32041E-01
  weight for this iteration     100.00

 eigenvalues of (default mixing * dielectric matrix)
  average eigenvalue GAMMA=   1.0598
  2.3214  1.9695  1.3010  1.1075  0.5611  0.4902  0.3742  0.3532

 Free energy of the ion-electron system (eV)
  ---------------------------------------------------
  alpha Z        PSCENC =      1492.23084573
  Ewald energy   TEWEN  =    -19680.95829385
  -Hartree energ DENC   =     -6085.79063375
  -exchange      EXHF   =         0.00000000
  -V(xc)+E(xc)   XCENC  =      -261.42839917
  PAW double counting   =     34293.39756229   -32686.79008092
  entropy T*S    EENTRO =         0.02543610
  eigenvalues    EBANDS =     -2603.73419114
  atomic energy  EATOM  =     25175.14332663
  Solvation  Ediel_sol  =         0.00000000
  ---------------------------------------------------
  free energy    TOTEN  =      -357.90442808 eV

  energy without entropy =     -357.92986418  energy(sigma->0) =     -357.91290678


--------------------------------------------------------------------------------------------------------




----------------------------------------- Iteration    1(  14)  ---------------------------------------


    POTLOK:  cpu time    0.0311: real time    0.0312
    SETDIJ:  cpu time    0.0143: real time    0.0144
    EDDIAG:  cpu time    0.1358: real time    0.1362
  RMM-DIIS:  cpu time    0.8661: real time    0.8779
    ORTHCH:  cpu time    0.0130: real time    0.0131
       DOS:  cpu time    0.0248: real time    0.0250
    CHARGE:  cpu time    0.0321: real time    0.0335
    MIXING:  cpu time    0.0016: real time    0.0017
    --------------------------------------------
      LOOP:  cpu time    1.1194: real time    1.1654

 eigenvalue-minimisations  :  7744
 total energy-change (2. order) :-0.1115445E-03  (-0.7604942E-03)
 number of electron     295.0000001 magnetization 
 augmentation part       13.9738662 magnetization 

 Broyden mixing:
  rms(total) = 0.14318E-01    rms(broyden)= 0.14315E-01
  rms(prec ) = 0.20088E-01
  weight for this iteration     100.00

 eigenvalues of (default mixing * dielectric matrix)
  average eigenvalue GAMMA=   1.0731
  2.4993  2.0552  1.4946  1.2483  0.5890  0.5890  0.4575  0.3772  0.3479

 Free energy of the ion-electron system (eV)
  ---------------------------------------------------
  alpha Z        PSCENC =      1492.23084573
  Ewald energy   TEWEN  =    -19680.95829385
  -Hartree energ DENC   =     -6085.51277049
  -exchange      EXHF   =         0.00000000
  -V(xc)+E(xc)   XCENC  =      -261.44229721
  PAW double counting   =     34322.58076582   -32715.48888265
  entropy T*S    EENTRO =         0.02533181
  eigenvalues    EBANDS =     -2604.48256542
  atomic energy  EATOM  =     25175.14332663
  Solvation  Ediel_sol  =         0.00000000
  ---------------------------------------------------
  free energy    TOTEN  =      -357.90453963 eV

  energy without entropy =     -357.92987144  energy(sigma->0) =     -357.91298356


--------------------------------------------------------------------------------------------------------




----------------------------------------- Iteration    1(  15)  ---------------------------------------


    POTLOK:  cpu time    0.0291: real time    0.0327
    SETDIJ:  cpu time    0.0036: real time    0.0036
    EDDIAG:  cpu time    0.0877: real time    0.0935
  RMM-DIIS:  cpu time    0.8285: real time    0.8338
    ORTHCH:  cpu time    0.0238: real time    0.0250
       DOS:  cpu time    0.0008: real time    0.0008
    CHARGE:  cpu time    0.0436: real time    0.0477
    MIXING:  cpu time    0.0017: real time    0.0017
    --------------------------------------------
      LOOP:  cpu time    1.0194: real time    1.0513

 eigenvalue-minimisations  :  7737
 total energy-change (2. order) :-0.1612656E-03  (-0.3530167E-03)
 number of electron     295.0000001 magnetization 
 augmentation part       13.9705518 magnetization 

 Broyden mixing:
  rms(total) = 0.71160E-02    rms(broyden)= 0.71120E-02
  rms(prec ) = 0.13326E-01
  weight for this iteration     100.00

 eigenvalues of (default mixing * dielectric matrix)
  average eigenvalue GAMMA=   1.0627
  2.5975  2.0642  1.7145  1.1762  0.7013  0.7013  0.4750  0.4750  0.3736  0.3486

 Free energy of the ion-electron system (eV)
  ---------------------------------------------------
  alpha Z        PSCENC =      1492.23084573
  Ewald energy   TEWEN  =    -19680.95829385
  -Hartree energ DENC   =     -6086.14302796
  -exchange      EXHF   =         0.00000000
  -V(xc)+E(xc)   XCENC  =      -261.42553767
  PAW double counting   =     34346.14442417   -32738.61108916
  entropy T*S    EENTRO =         0.02526283
  eigenvalues    EBANDS =     -2604.31061161
  atomic energy  EATOM  =     25175.14332663
  Solvation  Ediel_sol  =         0.00000000
  ---------------------------------------------------
  free energy    TOTEN  =      -357.90470089 eV

  energy without entropy =     -357.92996372  energy(sigma->0) =     -357.91312184


--------------------------------------------------------------------------------------------------------




----------------------------------------- Iteration    1(  16)  ---------------------------------------


    POTLOK:  cpu time    0.0290: real time    0.0297
    SETDIJ:  cpu time    0.0061: real time    0.0062
    EDDIAG:  cpu time    0.0854: real time    0.0943
  RMM-DIIS:  cpu time    0.6754: real time    0.7276
    ORTHCH:  cpu time    0.0132: real time    0.0133
       DOS:  cpu time    0.0017: real time    0.0017
    CHARGE:  cpu time    0.0317: real time    0.0318
    MIXING:  cpu time    0.0017: real time    0.0017
    --------------------------------------------
      LOOP:  cpu time    0.8448: real time    0.9173

 eigenvalue-minimisations  :  6870
 total energy-change (2. order) :-0.3524278E-04  (-0.1390859E-03)
 number of electron     295.0000001 magnetization 
 augmentation part       13.9691016 magnetization 

 Broyden mixing:
  rms(total) = 0.40005E-02    rms(broyden)= 0.39991E-02
  rms(prec ) = 0.79890E-02
  weight for this iteration     100.00

 eigenvalues of (default mixing * dielectric matrix)
  average eigenvalue GAMMA=   1.0397
  2.6572  2.0563  1.7292  1.2467  0.8465  0.7384  0.5170  0.5170  0.3463  0.3791
  0.4026

 Free energy of the ion-electron system (eV)
[...]
    102       5.4241      2.00000
    103       5.4574      2.00000
    104       5.5146      2.00000
    105       5.5557      2.00000
    106       5.5942      2.00000
    107       5.6468      2.00000
    108       5.7059      2.00000
    109       5.8406      2.00000
    110       5.9559      2.00000
    111       5.9923      2.00000
    112       6.0190      2.00000
    113       6.0863      2.00000
    114       6.1357      2.00000
    115       6.1605      2.00000
    116       6.1715      2.00000
    117       6.2144      2.00000
    118       6.2819      2.00000
    119       6.3246      2.00000
    120       6.3341      2.00000
    121       6.3492      2.00000
    122       6.4038      2.00000
    123       6.4440      2.00000
    124       6.4762      2.00000
    125       6.5114      2.00000
    126       6.5618      2.00000
    127       6.5853      2.00000
    128       6.6097      2.00000
    129       6.6773      2.00000
    130       6.7214      2.00000
    131       6.7398      2.00000
    132       6.7849      2.00000
    133       6.8197      2.00000
    134       6.8859      2.00001
    135       6.9095      2.00001
    136       6.9399      2.00005
    137       6.9785      2.00023
    138       7.0075      2.00065
    139       7.0536      2.00277
    140       7.0835      2.00631
    141       7.1391      2.02245
    142       7.1697      2.03834
    143       7.2148      2.06460
    144       7.2367      2.07085
    145       7.2761      2.04509
    146       7.3200      1.90826
    147       7.3577      1.66149
    148       7.3848      1.41128
    149       7.4252      0.97042
    150       7.4663      0.52879
    151       7.5199      0.11853
    152       7.5665     -0.04085
    153       7.5946     -0.06884
    154       7.6281     -0.06559
    155       7.6455     -0.05652
    156       7.6619     -0.04653
    157       7.7389     -0.01109
    158       7.7605     -0.00649
    159       7.7893     -0.00295
    160       7.8142     -0.00139
    161       7.8550     -0.00035
    162       7.9057     -0.00005
    163       7.9441     -0.00001
    164       7.9599     -0.00000
    165       8.0352     -0.00000
    166       8.0855     -0.00000
    167       8.1156     -0.00000
    168       8.1595     -0.00000
    169       8.2260     -0.00000
    170       8.2740     -0.00000
    171       8.3109     -0.00000
    172       8.3764     -0.00000
    173       8.5964     -0.00000
    174       8.7017     -0.00000
    175       8.7683     -0.00000
    176       9.2578     -0.00000
    177       9.3039     -0.00000
    178       9.3484     -0.00000
    179       9.4127     -0.00000
    180       9.4613     -0.00000


--------------------------------------------------------------------------------------------------------


 soft charge-density along one line, spin component           1
         0         1         2         3         4         5         6         7         8         9
 total charge-density along one line
 
 pseudopotential strength for first ion, spin component:           1
 -6.386   0.006  -0.002   0.002   0.000  -7.586   0.007  -0.002
  0.006  -6.390   0.000   0.002  -0.000   0.007  -7.590   0.000
 -0.002   0.000  -6.396   0.001   0.002  -0.002   0.000  -7.598
  0.002   0.002   0.001  -6.389   0.002   0.003   0.003   0.001
  0.000  -0.000   0.002   0.002  -6.395   0.000  -0.001   0.002
 -7.586   0.007  -0.002   0.003   0.000  -8.988   0.009  -0.002
  0.007  -7.590   0.000   0.003  -0.001   0.009  -8.993   0.000
 -0.002   0.000  -7.598   0.001   0.002  -0.002   0.000  -9.003
  0.003   0.003   0.001  -7.589   0.003   0.003   0.003   0.001
  0.000  -0.001   0.002   0.003  -7.596   0.000  -0.001   0.003
 -0.001  -0.001   0.000  -0.003   0.000  -0.002  -0.001   0.000
 -0.002  -0.002   0.001  -0.005   0.001  -0.003  -0.002   0.001
  0.002   0.001   0.000   0.001   0.002   0.003   0.001   0.000
  0.001  -0.001   0.003   0.002  -0.000   0.001  -0.001   0.004
  0.000   0.001  -0.004   0.001   0.006   0.000   0.001  -0.005
 -0.002   0.000   0.001  -0.001  -0.000  -0.002  -0.000   0.001
 -0.001  -0.001  -0.003  -0.001   0.000  -0.001  -0.001  -0.004
 -0.003  -0.001   0.005   0.000  -0.008  -0.003  -0.001   0.006
 total augmentation occupancy for first ion, spin component:           1
  5.154   0.412  -0.008   0.170  -0.007  -2.655  -0.226   0.010  -0.084   0.007   0.061  -0.030  -0.017   0.012   0.036  -0.002
  0.412   4.848   0.005   0.104  -0.027  -0.226  -2.497  -0.010  -0.054   0.031   0.117  -0.028  -0.026   0.097   0.015  -0.001
 -0.008   0.005   4.757   0.022   0.078   0.009  -0.010  -2.598  -0.035  -0.035  -0.032   0.015  -0.002  -0.028   0.028  -0.001
  0.170   0.104   0.022   5.121   0.091  -0.084  -0.054  -0.035  -2.633  -0.076   0.200  -0.065   0.014  -0.029  -0.032  -0.000
 -0.007  -0.027   0.078   0.091   4.766   0.007   0.031  -0.035  -0.075  -2.636  -0.020   0.008  -0.046  -0.005  -0.065  -0.003
 -2.655  -0.226   0.009  -0.084   0.007   1.393   0.125  -0.008   0.039  -0.006  -0.041   0.015   0.010  -0.004  -0.021   0.001
 -0.226  -2.497  -0.010  -0.054   0.031   0.125   1.310   0.009   0.025  -0.024  -0.071   0.015   0.016  -0.049  -0.005   0.001
  0.010  -0.010  -2.598  -0.035  -0.035  -0.008   0.009   1.430   0.030   0.015   0.025  -0.009   0.005   0.017  -0.016   0.001
 -0.084  -0.054  -0.035  -2.633  -0.075   0.039   0.025   0.030   1.377   0.055  -0.124   0.035  -0.005   0.016   0.017  -0.000
  0.007   0.031  -0.035  -0.076  -2.636  -0.006  -0.024   0.015   0.055   1.469   0.010  -0.004   0.028   0.002   0.036   0.001
  0.061   0.117  -0.032   0.200  -0.020  -0.041  -0.071   0.025  -0.124   0.010   2.212  -0.233   0.021  -0.020  -0.022   0.000
 -0.030  -0.028   0.015  -0.065   0.008   0.015   0.015  -0.009   0.035  -0.004  -0.233   0.027  -0.000  -0.000  -0.000   0.000
 -0.017  -0.026  -0.002   0.014  -0.046   0.010   0.016   0.005  -0.005   0.028   0.021  -0.000   0.306   0.005   0.008   0.008
  0.012   0.097  -0.028  -0.029  -0.005  -0.004  -0.049   0.017   0.016   0.002  -0.020  -0.000   0.005   0.283   0.016   0.000
  0.036   0.015   0.028  -0.032  -0.065  -0.021  -0.005  -0.016   0.017   0.036  -0.022  -0.000   0.008   0.016   0.291   0.000
 -0.002  -0.001  -0.001  -0.000  -0.003   0.001   0.001   0.001  -0.000   0.001   0.000   0.000   0.008   0.000   0.000   0.000
 -0.000   0.002  -0.003  -0.002  -0.000  -0.000  -0.001   0.002   0.001   0.000  -0.000   0.000  -0.000   0.007   0.000  -0.000
  0.001  -0.000   0.003  -0.001  -0.005  -0.001  -0.000  -0.002   0.001   0.003  -0.001   0.000   0.000   0.000   0.007  -0.000


------------------------ aborting loop because EDIFF is reached ----------------------------------------


    CHARGE:  cpu time    0.0292: real time    0.0293
    FORLOC:  cpu time    0.0133: real time    0.0133
    FORNL :  cpu time    0.3048: real time    0.3065
    STRESS:  cpu time    0.9346: real time    0.9388
    FORCOR:  cpu time    0.0427: real time    0.0430
    FORHAR:  cpu time    0.0181: real time    0.0182
    MIXING:  cpu time    0.0012: real time    0.0012
    OFIELD:  cpu time    0.0000: real time    0.0000

  FORCE on cell =-STRESS in cart. coord.  units (eV):
  Direction    XX          YY          ZZ          XY          YZ          ZX
  --------------------------------------------------------------------------------------
  Alpha Z  1489.92836  1489.92836  1489.92836
  Ewald   -6466.57963 -6519.09198 -6691.48488  -118.21572   381.56128   -43.12413
  Hartree  2147.67156  2043.13018  1891.98290   -87.25921   341.96222   -31.70629
  E(xc)   -1274.24542 -1274.02056 -1274.21600    -0.02544    -0.22779    -0.30553
  Local    -709.30552  -559.37778  -233.44951   204.02441  -722.62636    76.04968
  n-local  -313.60380  -315.97333  -317.01993     1.01254     1.95332     1.37705
  augment   159.59848   160.83051   160.86307    -0.05873    -0.40508    -0.27736
  Kinetic  4966.41367  4974.45398  4973.28535     0.51372    -2.24212    -2.02710
  Fock        0.00000     0.00000     0.00000     0.00000     0.00000     0.00000
  -------------------------------------------------------------------------------------
  Total      -0.12231    -0.12063    -0.11065    -0.00843    -0.02452    -0.01368
  in kB      -0.26366    -0.26003    -0.23852    -0.01818    -0.05287    -0.02949
  external pressure =       -0.25 kB  Pullay stress =        0.00 kB


 VOLUME and BASIS-vectors are now :
 -----------------------------------------------------------------------------
  energy-cutoff  :      300.00
  volume of cell :      743.26
      direct lattice vectors                 reciprocal lattice vectors
     7.043224105  0.010645332  0.011076181     0.141981106 -0.000220893 -0.000216228
     0.015990095 10.263237336  0.014882842    -0.000147049  0.097435574 -0.000138875
     0.015681966  0.014678890 10.282190057    -0.000152732 -0.000140794  0.097255979

  length of vectors
     7.043240859 10.263260583 10.282212494     0.141981442  0.097435784  0.097256201


 FORCES acting on ions
    electron-ion (+dipol)            ewald-force                    non-local-force                 convergence-correction
 -----------------------------------------------------------------------------------------------
   -.453E+02 0.344E+02 -.709E+02   0.448E+02 -.340E+02 0.706E+02   0.461E+00 -.361E+00 0.230E+00   -.773E-03 -.682E-02 0.563E-03
   -.186E+02 0.958E+02 -.398E+02   0.180E+02 -.962E+02 0.392E+02   0.610E+00 0.426E+00 0.556E+00   0.231E-02 -.744E-02 -.701E-02
   0.470E+02 0.118E+02 -.837E+02   -.465E+02 -.115E+02 0.834E+02   -.506E+00 -.277E+00 0.322E+00   0.119E-02 -.679E-02 -.310E-03
   0.424E+02 0.815E+02 -.634E+02   -.418E+02 -.820E+02 0.630E+02   -.588E+00 0.519E+00 0.431E+00   -.104E-02 -.171E-02 -.771E-02
   -.408E+02 0.216E+00 -.143E+02   0.408E+02 0.444E+00 0.150E+02   -.540E-01 -.662E+00 -.732E+00   0.217E-03 -.531E-03 0.869E-02
   0.389E+01 0.333E+01 0.406E+02   -.526E+01 -.291E+01 -.412E+02   0.137E+01 -.415E+00 0.646E+00   -.910E-04 0.729E-03 -.343E-03
   -.575E+00 -.451E+02 -.266E+02   0.336E+00 0.457E+02 0.272E+02   0.244E+00 -.621E+00 -.588E+00   0.197E-02 0.583E-02 -.719E-02
   -.104E+01 -.116E+02 0.527E+02   0.243E+01 0.121E+02 -.530E+02   -.139E+01 -.462E+00 0.315E+00   0.859E-04 -.434E-03 -.188E-03
   -.599E+02 -.951E+02 0.310E+01   0.592E+02 0.952E+02 -.370E+01   0.722E+00 -.165E+00 0.601E+00   -.151E-02 0.756E-02 -.604E-03
   0.124E+02 -.249E+02 0.107E+02   -.126E+02 0.247E+02 -.105E+02   0.209E+00 0.166E+00 -.214E+00   0.100E-02 -.432E-02 -.840E-02
   0.212E+02 -.932E+01 0.579E+02   -.214E+02 0.918E+01 -.580E+02   0.181E+00 0.145E+00 0.148E+00   -.773E-03 -.480E-02 -.185E-02
   0.628E+02 0.191E+02 0.830E+02   -.621E+02 -.192E+02 -.828E+02   -.724E+00 0.652E-01 -.214E+00   -.970E-04 -.698E-04 0.578E-02
   -.346E+02 0.225E+02 0.851E+01   0.341E+02 -.227E+02 -.802E+01   0.464E+00 0.196E+00 -.490E+00   0.857E-03 -.607E-02 0.677E-02
   -.215E+02 0.169E+01 0.304E+02   0.217E+02 -.201E+01 -.303E+02   -.243E+00 0.327E+00 -.399E-01   0.826E-03 -.462E-02 -.298E-04
   -.109E+02 -.527E+02 -.140E+02   0.114E+02 0.531E+02 0.140E+02   -.456E+00 -.426E+00 0.142E-01   0.337E-03 0.112E-02 -.681E-02
   0.121E+02 0.594E+02 -.705E+02   -.115E+02 -.598E+02 0.701E+02   -.586E+00 0.385E+00 0.431E+00   -.122E-02 -.568E-02 -.551E-02
   0.164E+02 0.103E+02 0.727E+01   -.162E+02 -.106E+02 -.724E+01   -.169E+00 0.300E+00 -.288E-01   0.130E-04 0.348E-02 -.263E-05
   -.286E+02 -.216E+02 0.435E+02   0.274E+02 0.215E+02 -.433E+02   0.115E+01 0.139E+00 -.171E+00   0.171E-03 0.539E-02 0.584E-02
   -.229E+01 -.211E+02 0.292E+02   0.202E+01 0.213E+02 -.290E+02   0.270E+00 -.122E+00 -.152E+00   -.701E-03 0.470E-02 0.663E-02
   -.179E+03 0.181E+03 -.151E+03   0.179E+03 -.181E+03 0.151E+03   0.261E+00 0.624E+00 0.127E+00   -.266E-03 -.393E-03 0.312E-02
   -.134E+03 0.454E+02 0.328E+03   0.133E+03 -.453E+02 -.328E+03   0.115E+01 -.328E-01 -.755E+00   -.152E-02 0.765E-02 0.195E-01
   0.766E+02 -.801E+02 0.174E+03   -.760E+02 0.796E+02 -.174E+03   -.540E+00 0.499E+00 0.199E+00   -.407E-02 -.140E-01 0.261E-01
   0.642E+01 -.190E+03 0.192E+03   -.496E+01 0.189E+03 -.192E+03   -.146E+01 0.292E+00 -.315E+00   0.637E-03 0.234E-01 0.229E-01
   0.896E+02 0.185E+03 -.117E+02   -.891E+02 -.185E+03 0.125E+02   -.507E+00 0.360E+00 -.837E+00   -.572E-02 -.211E-01 0.252E-01
   0.230E+01 -.495E+01 -.250E+03   -.146E+01 0.486E+01 0.250E+03   -.835E+00 0.783E-01 0.441E-01   -.206E-02 0.144E-01 -.217E-01
   -.314E+02 0.285E+02 -.330E+02   0.310E+02 -.288E+02 0.331E+02   0.338E+00 0.366E+00 -.113E+00   0.102E-02 0.142E-01 0.149E-02
   0.115E+03 -.179E+03 -.381E+02   -.114E+03 0.179E+03 0.375E+02   -.116E+01 0.298E-01 0.681E+00   0.323E-02 0.175E-01 -.136E-02
   -.258E+01 -.983E+02 -.822E+02   0.175E+01 0.984E+02 0.822E+02   0.824E+00 -.105E+00 0.789E-01   0.166E-02 0.160E-01 -.191E-01
   0.473E+02 -.171E+03 -.496E+02   -.478E+02 0.172E+03 0.494E+02   0.496E+00 -.418E+00 0.219E+00   -.146E-02 0.327E-02 -.225E-01
   -.767E+02 0.204E+03 -.169E+03   0.754E+02 -.205E+03 0.169E+03   0.132E+01 0.748E+00 0.151E+00   0.248E-02 -.884E-02 -.195E-01
   0.954E+02 -.348E+02 -.804E+02   -.953E+02 0.353E+02 0.808E+02   -.336E-01 -.495E+00 -.421E+00   0.767E-03 0.423E-03 0.200E-01
   -.771E+00 -.769E+02 -.975E+02   0.106E+01 0.777E+02 0.983E+02   -.299E+00 -.776E+00 -.823E+00   0.106E-02 0.153E-01 -.159E-01
   -.422E+02 -.107E+03 0.251E+02   0.427E+02 0.107E+03 -.247E+02   -.544E+00 0.179E+00 -.414E+00   -.459E-02 -.150E-01 -.186E-01
   -.109E+02 0.102E+02 0.155E+03   0.112E+02 -.101E+02 -.155E+03   -.326E+00 -.121E+00 0.172E+00   0.296E-02 0.143E-01 0.223E-01
   0.159E+03 0.175E+03 -.280E+02   -.159E+03 -.176E+03 0.277E+02   -.286E+00 0.427E+00 0.279E+00   0.132E-02 -.295E-02 0.134E-02
   -.684E+02 0.527E+02 0.133E+03   0.677E+02 -.529E+02 -.133E+03   0.693E+00 0.243E+00 -.138E+00   -.579E-03 -.165E-01 0.204E-01
 -----------------------------------------------------------------------------------------------
   -.517E-01 -.108E+01 0.774E+00   -.426E-13 -.185E-12 0.171E-12   0.520E-01 0.106E+01 -.804E+00   -.236E-02 0.270E-01 0.319E-01
 
 
 POSITION                                       TOTAL-FORCE (eV/Angst)
 -----------------------------------------------------------------------------------
      5.20452      8.58120      1.66701        -0.000145      0.002996     -0.000639
      6.95634     10.13211      3.27619         0.005175      0.001461      0.000296
      1.85518      8.69204      1.71225         0.001974      0.001308     -0.002535
      5.53153      1.59291      5.02613         0.000888     -0.001721     -0.000206
      3.47567      6.94834      0.10033         0.000060     -0.002323     -0.001496
      3.29072      6.97495      6.80856        -0.005273      0.002276      0.001782
      1.72167      5.27444      5.29182         0.007004      0.001642      0.001785
      0.25168      6.98650      6.91760         0.004820     -0.003014     -0.002818
      5.12885      5.18470      1.58465        -0.002810      0.000079     -0.002423
      1.69103      8.55736      5.13904        -0.003426     -0.002465      0.002913
      3.48475      0.07520      6.73860        -0.000104     -0.002245      0.000360
      2.00800      1.78009      8.74481        -0.000279     -0.001152     -0.000080
      7.01954     10.27658     10.28534         0.000255     -0.001298      0.000748
      0.04782      0.01267      7.03383         0.000878     -0.002424      0.001361
      0.05777      6.85593      3.34150         0.000219     -0.001317      0.002016
      3.61830     10.24506      3.47507        -0.002865      0.001184      0.000323
      3.57911      3.31353      6.69709         0.003393     -0.004964      0.002530
      6.88070      3.37939     10.27259        -0.003968     -0.001053      0.000760
      5.22517      5.27950      8.56903         0.000247      0.001766     -0.000995
      5.26596      1.63830      1.73704        -0.000303     -0.001822     -0.000823
      5.09192      1.69265      8.66037         0.000135     -0.004229      0.000692
      1.88546      8.55128      8.62306         0.001511     -0.001181     -0.000567
      3.79178      3.36705      0.04595         0.000031     -0.001950     -0.001978
      3.62193     10.21012      0.08609         0.001193      0.000536     -0.000455
      3.63955      3.42825      3.53919         0.002499     -0.000157      0.000091
      7.00897      3.35401      6.95167        -0.003918      0.000560      0.002275
      1.95641      4.97616      1.58346         0.002157      0.001407      0.001459
      6.94473      3.58921      3.37980        -0.004096      0.000863     -0.002194
      3.47844      6.85844      3.45003         0.001666      0.003442     -0.002135
      1.50243      1.61779      4.97798         0.000178      0.008889      0.002469
      0.05611      6.87673      0.12699        -0.000427     -0.001483     -0.000202
      5.35169      5.35794      5.39291        -0.008974     -0.000639     -0.000458
      5.38319      8.53780      5.23606         0.004426      0.004171      0.000237
      1.84899      5.11401      8.57717        -0.000794      0.000990     -0.002277
      1.80513      1.66953      1.67387        -0.000217      0.001243      0.000129
      5.20889      8.46624      8.56180        -0.001112      0.000621      0.000054
 -----------------------------------------------------------------------------------
    total drift:                               -0.001984      0.002800      0.002054


--------------------------------------------------------------------------------------------------------



  FREE ENERGIE OF THE ION-ELECTRON SYSTEM (eV)
  ---------------------------------------------------
  free  energy   TOTEN  =      -357.91501527 eV

  energy  without entropy=     -357.94094551  energy(sigma->0) =     -357.92365868
 
 d Force = 0.4781939E-04[ 0.427E-04, 0.530E-04]  d Energy = 0.4437641E-04 0.344E-05
 d Force = 0.6869560E-01[ 0.685E-01, 0.689E-01]  d Ewald  = 0.5121161E-01 0.175E-01


--------------------------------------------------------------------------------------------------------


    POTLOK:  cpu time    0.0660: real time    0.0663


--------------------------------------------------------------------------------------------------------


 Conjugate gradient step on ions:
 trial-energy change:   -0.000044  1 .order   -0.000048   -0.000053   -0.000043
  (g-gl).g = 0.228E-04      g.g   = 0.220E-04  gl.gl    = 0.506E-04
 g(Force)  = 0.164E-04   g(Stress)= 0.564E-05 ortho     = 0.208E-06
 gamma     =   0.45025
 trial     =   2.40124
 opt step  =   9.60496  (harmonic =  13.09314) maximal distance =0.00254711
 next E    =  -357.915116   (d E  =  -0.00014)


--------------------------------------------------------------------------------------------------------


  
 reached required accuracy - stopping structural energy minimisation
     LOOP+:  cpu time    4.0890: real time    4.2565
    4ORBIT:  cpu time    0.0000: real time    0.0000

 total amount of memory used by VASP on root node    67610. kBytes
========================================================================

   base      :      30000. kBytes
   nonlr-proj:       9999. kBytes
   fftplans  :       2814. kBytes
   grid      :       5360. kBytes
   one-center:        124. kBytes
   wavefun   :      19313. kBytes
 
  
  
 General timing and accounting informations for this job:
 ========================================================
  
                  Total CPU time used (sec):      196.394
                            User time (sec):      195.364
                          System time (sec):        1.029
                         Elapsed time (sec):      205.844
  
                   Maximum memory used (kb):      276932.
                   Average memory used (kb):           0.
  
                          Minor page faults:       130232
                          Major page faults:           41
                 Voluntary context switches:         8645
