<?xml version="1.0" encoding="ISO-8859-1"?>
<modeling>
 <generator>
  <i name="program" type="string">vasp </i>
  <i name="version" type="string">5.4.1  </i>
  <i name="subversion" type="string">05Feb16 (build Jan 29 2020 16:04:39) complex                          parallel </i>
  <i name="platform" type="string">IFC91_ompi </i>
  <i name="date" type="string">2020 06 15 </i>
  <i name="time" type="string">03:25:34 </i>
 </generator>
 <incar>
  <i type="string" name="SYSTEM"> automatically generated by mexm</i>
  <i type="int" name="ISTART">     0</i>
  <i type="string" name="PREC">accurate               ! avoid wrap aro</i>
  <i type="string" name="ALGO"> Fast                   ! blocked Davids</i>
  <i type="int" name="ISPIN">     1</i>
  <i type="int" name="ICHARG">     2</i>
  <i type="int" name="NELM">    70</i>
  <i type="int" name="IBRION">     2</i>
  <i name="EDIFF">      0.00001000</i>
  <i name="EDIFFG">     -0.01000000</i>
  <i type="int" name="NSW">   300</i>
  <i type="int" name="ISIF">     3</i>
  <i type="int" name="ISYM">     1</i>
  <i name="ENCUT">    300.00000000</i>
  <i name="POTIM">      0.15000000</i>
  <i type="string" name="LREAL"> Auto                  ! unpublished met</i>
  <i type="int" name="ISMEAR">     1</i>
  <i name="SIGMA">      0.15000000</i>
  <i type="logical" name="LWAVE"> F  </i>
  <i type="logical" name="LCHARG"> F  </i>
  <i type="logical" name="LVTOT"> F  </i>
  <v type="int" name="KPOINT_BSE">    -1     0     0     0</v>
  <i type="int" name="NELM">    70</i>
 </incar>
 <kpoints>
  <generation param="Gamma">
   <v type="int" name="divisions">       3        3        3 </v>
   <v name="usershift">      0.00000000       0.00000000       0.00000000 </v>
   <v name="genvec1">      0.33333333      -0.00000000       0.00000000 </v>
   <v name="genvec2">     -0.00000000       0.33333333       0.00000000 </v>
   <v name="genvec3">      0.00000000       0.00000000       0.33333333 </v>
   <v name="shift">      0.00000000       0.00000000       0.00000000 </v>
  </generation>
  <varray name="kpointlist" >
   <v>       0.00000000       0.00000000       0.00000000 </v>
   <v>       0.33333333      -0.00000000       0.00000000 </v>
   <v>      -0.00000000       0.33333333       0.00000000 </v>
   <v>       0.33333333       0.33333333       0.00000000 </v>
   <v>      -0.33333333       0.33333333       0.00000000 </v>
   <v>      -0.00000000       0.00000000       0.33333333 </v>
   <v>       0.33333333      -0.00000000       0.33333333 </v>
   <v>      -0.33333333       0.00000000       0.33333333 </v>
   <v>      -0.00000000       0.33333333       0.33333333 </v>
   <v>       0.33333333       0.33333333       0.33333333 </v>
   <v>      -0.33333333       0.33333333       0.33333333 </v>
   <v>      -0.00000000      -0.33333333       0.33333333 </v>
   <v>       0.33333333      -0.33333333       0.33333333 </v>
   <v>      -0.33333333      -0.33333333       0.33333333 </v>
  </varray>
  <varray name="weights" >
   <v>       0.03703704 </v>
   <v>       0.07407407 </v>
   <v>       0.07407407 </v>
   <v>       0.07407407 </v>
   <v>       0.07407407 </v>
   <v>       0.07407407 </v>
   <v>       0.07407407 </v>
   <v>       0.07407407 </v>
   <v>       0.07407407 </v>
   <v>       0.07407407 </v>
   <v>       0.07407407 </v>
   <v>       0.07407407 </v>
   <v>       0.07407407 </v>
   <v>       0.07407407 </v>
  </varray>
 </kpoints>
 <parameters>
  <separator name="general" >
   <i type="string" name="SYSTEM">automatically generated by mexm</i>
   <i type="logical" name="LCOMPAT"> F  </i>
  </separator>
  <separator name="electronic" >
   <i type="string" name="PREC">accura</i>
   <i name="ENMAX">    300.00000000</i>
   <i name="ENAUG">    461.25700000</i>
   <i name="EDIFF">      0.00001000</i>
   <i type="int" name="IALGO">    68</i>
   <i type="int" name="IWAVPR">    11</i>
   <i type="int" name="NBANDS">   168</i>
   <i name="NELECT">    279.00000000</i>
   <i type="int" name="TURBO">     0</i>
   <i type="int" name="IRESTART">     0</i>
   <i type="int" name="NREBOOT">     0</i>
   <i type="int" name="NMIN">     0</i>
   <i name="EREF">      0.00000000</i>
   <separator name="electronic smearing" >
    <i type="int" name="ISMEAR">     1</i>
    <i name="SIGMA">      0.15000000</i>
    <i name="KSPACING">      0.50000000</i>
    <i type="logical" name="KGAMMA"> T  </i>
   </separator>
   <separator name="electronic projectors" >
    <i type="logical" name="LREAL"> T  </i>
    <v name="ROPT">     -0.00025000     -0.00025000     -0.00025000     -0.00025000</v>
    <i type="int" name="LMAXPAW">  -100</i>
    <i type="int" name="LMAXMIX">     2</i>
    <i type="logical" name="NLSPLINE"> F  </i>
   </separator>
   <separator name="electronic startup" >
    <i type="int" name="ISTART">     0</i>
    <i type="int" name="ICHARG">     2</i>
    <i type="int" name="INIWAV">     1</i>
   </separator>
   <separator name="electronic spin" >
    <i type="int" name="ISPIN">     1</i>
    <i type="logical" name="LNONCOLLINEAR"> F  </i>
    <v name="MAGMOM">      1.00000000      1.00000000      1.00000000      1.00000000      1.00000000      1.00000000      1.00000000      1.00000000      1.00000000      1.00000000      1.00000000      1.00000000      1.00000000      1.00000000      1.00000000      1.00000000      1.00000000      1.00000000      1.00000000      1.00000000
      1.00000000      1.00000000      1.00000000      1.00000000      1.00000000      1.00000000      1.00000000      1.00000000      1.00000000      1.00000000      1.00000000      1.00000000      1.00000000      1.00000000      1.00000000      1.00000000</v>
    <i name="NUPDOWN">     -1.00000000</i>
    <i type="logical" name="LSORBIT"> F  </i>
    <v name="SAXIS">      0.00000000      0.00000000      1.00000000</v>
    <i type="logical" name="LSPIRAL"> F  </i>
    <v name="QSPIRAL">      0.00000000      0.00000000      0.00000000</v>
    <i type="logical" name="LZEROZ"> F  </i>
   </separator>
   <separator name="electronic exchange-correlation" >
    <i type="logical" name="LASPH"> F  </i>
    <i type="logical" name="LMETAGGA"> F  </i>
   </separator>
   <separator name="electronic convergence" >
    <i type="int" name="NELM">    70</i>
    <i type="int" name="NELMDL">    -5</i>
    <i type="int" name="NELMIN">     2</i>
    <i name="ENINI">    300.00000000</i>
    <separator name="electronic convergence detail" >
     <i type="logical" name="LDIAG"> T  </i>
     <i type="logical" name="LSUBROT"> F  </i>
     <i name="WEIMIN">      0.00100000</i>
     <i name="EBREAK">      0.00000001</i>
     <i name="DEPER">      0.30000000</i>
     <i type="int" name="NRMM">     4</i>
     <i name="TIME">      0.40000000</i>
    </separator>
   </separator>
   <separator name="electronic mixer" >
    <i name="AMIX">      0.40000000</i>
    <i name="BMIX">      1.00000000</i>
    <i name="AMIN">      0.10000000</i>
    <i name="AMIX_MAG">      1.60000000</i>
    <i name="BMIX_MAG">      1.00000000</i>
    <separator name="electronic mixer details" >
     <i type="int" name="IMIX">     4</i>
     <i type="logical" name="MIXFIRST"> F  </i>
     <i type="int" name="MAXMIX">   -45</i>
     <i name="WC">    100.00000000</i>
     <i type="int" name="INIMIX">     1</i>
     <i type="int" name="MIXPRE">     1</i>
     <i type="int" name="MREMOVE">     5</i>
    </separator>
   </separator>
   <separator name="electronic dipolcorrection" >
    <i type="logical" name="LDIPOL"> F  </i>
    <i type="logical" name="LMONO"> F  </i>
    <i type="int" name="IDIPOL">     0</i>
    <i name="EPSILON">      1.00000000</i>
    <v name="DIPOL">   -100.00000000   -100.00000000   -100.00000000</v>
    <i name="EFIELD">      0.00000000</i>
   </separator>
  </separator>
  <separator name="grids" >
   <i type="int" name="NGX">    40</i>
   <i type="int" name="NGY">    60</i>
   <i type="int" name="NGZ">    60</i>
   <i type="int" name="NGXF">    80</i>
   <i type="int" name="NGYF">   120</i>
   <i type="int" name="NGZF">   120</i>
   <i type="logical" name="ADDGRID"> F  </i>
  </separator>
  <separator name="ionic" >
   <i type="int" name="NSW">   300</i>
   <i type="int" name="IBRION">     2</i>
   <i type="int" name="ISIF">     3</i>
   <i name="PSTRESS">      0.00000000</i>
   <i name="EDIFFG">     -0.01000000</i>
   <i type="int" name="NFREE">     1</i>
   <i name="POTIM">      0.15000000</i>
   <i name="SMASS">     -3.00000000</i>
   <i name="SCALEE">      1.00000000</i>
  </separator>
  <separator name="ionic md" >
   <i name="TEBEG">      0.00010000</i>
   <i name="TEEND">      0.00010000</i>
   <i type="int" name="NBLOCK">     1</i>
   <i type="int" name="KBLOCK">   300</i>
   <i type="int" name="NPACO">   256</i>
   <i name="APACO">     16.00000000</i>
  </separator>
  <separator name="symmetry" >
   <i type="int" name="ISYM">     1</i>
   <i name="SYMPREC">      0.00001000</i>
  </separator>
  <separator name="dos" >
   <i type="logical" name="LORBIT"> F  </i>
   <v name="RWIGS">     -1.00000000     -1.00000000     -1.00000000     -1.00000000</v>
   <i type="int" name="NEDOS">   301</i>
   <i name="EMIN">     10.00000000</i>
   <i name="EMAX">    -10.00000000</i>
   <i name="EFERMI">      0.00000000</i>
  </separator>
  <separator name="writing" >
   <i type="int" name="NWRITE">     2</i>
   <i type="logical" name="LWAVE"> F  </i>
   <i type="logical" name="LCHARG"> F  </i>
   <i type="logical" name="LPARD"> F  </i>
   <i type="logical" name="LVTOT"> F  </i>
   <i type="logical" name="LVHAR"> F  </i>
   <i type="logical" name="LELF"> F  </i>
   <i type="logical" name="LOPTICS"> F  </i>
   <v name="STM">      0.00000000      0.00000000      0.00000000      0.00000000      0.00000000      0.00000000      0.00000000</v>
  </separator>
  <separator name="performance" >
   <i type="int" name="NPAR">     4</i>
   <i type="int" name="NSIM">     4</i>
   <i type="int" name="NBLK">    -1</i>
   <i type="logical" name="LPLANE"> T  </i>
   <i type="logical" name="LSCALAPACK"> T  </i>
   <i type="logical" name="LSCAAWARE"> F  </i>
   <i type="logical" name="LSCALU"> F  </i>
   <i type="logical" name="LASYNC"> F  </i>
   <i type="logical" name="LORBITALREAL"> F  </i>
  </separator>
  <separator name="miscellaneous" >
   <i type="int" name="IDIOT">     3</i>
   <i type="logical" name="LMUSIC"> F  </i>
   <v name="POMASS">    180.94800000     92.91000000    178.49000000     91.22400000</v>
   <v name="DARWINR">      0.00000000      0.00000000      0.00000000      0.00000000</v>
   <v name="DARWINV">      1.00000000      1.00000000      1.00000000      1.00000000</v>
   <i type="logical" name="LCORR"> T  </i>
  </separator>
  <i type="logical" name="GGA_COMPAT"> T  </i>
  <i type="logical" name="LBERRY"> F  </i>
  <i type="int" name="ICORELEVEL">     0</i>
  <i type="logical" name="LDAU"> F  </i>
  <i type="int" name="I_CONSTRAINED_M">     0</i>
  <separator name="electronic exchange-correlation" >
   <i type="string" name="GGA">--</i>
   <i type="int" name="VOSKOWN">     0</i>
   <i type="logical" name="LHFCALC"> F  </i>
   <i type="string" name="PRECFOCK"></i>
   <i type="logical" name="LSYMGRAD"> F  </i>
   <i type="logical" name="LHFONE"> F  </i>
   <i type="logical" name="LRHFCALC"> F  </i>
   <i type="logical" name="LTHOMAS"> F  </i>
   <i type="logical" name="LMODELHF"> F  </i>
   <i name="ENCUT4O">     -1.00000000</i>
   <i type="int" name="EXXOEP">     0</i>
   <i type="int" name="FOURORBIT">     0</i>
   <i name="AEXX">      0.00000000</i>
   <i name="HFALPHA">      0.00000000</i>
   <i name="MCALPHA">      0.00000000</i>
   <i name="ALDAX">      1.00000000</i>
   <i name="AGGAX">      1.00000000</i>
   <i name="ALDAC">      1.00000000</i>
   <i name="AGGAC">      1.00000000</i>
   <i type="int" name="NKREDX">     1</i>
   <i type="int" name="NKREDY">     1</i>
   <i type="int" name="NKREDZ">     1</i>
   <i type="logical" name="SHIFTRED"> F  </i>
   <i type="logical" name="ODDONLY"> F  </i>
   <i type="logical" name="EVENONLY"> F  </i>
   <i type="int" name="LMAXFOCK">     0</i>
   <i type="int" name="NMAXFOCKAE">     0</i>
   <i type="logical" name="LFOCKAEDFT"> F  </i>
   <i name="HFSCREEN">      0.00000000</i>
   <i name="HFSCREENC">      0.00000000</i>
   <i type="int" name="NBANDSGWLOW">     0</i>
  </separator>
  <separator name="vdW DFT" >
   <i type="logical" name="LUSE_VDW"> F  </i>
   <i name="Zab_VDW">     -0.84910000</i>
   <i name="PARAM1">      0.12340000</i>
   <i name="PARAM2">      1.00000000</i>
   <i name="PARAM3">      0.00000000</i>
  </separator>
  <separator name="model GW" >
   <i type="int" name="MODEL_GW">     0</i>
   <i name="MODEL_EPS0">     12.34086214</i>
   <i name="MODEL_ALPHA">      1.00000000</i>
  </separator>
  <separator name="linear response parameters" >
   <i type="logical" name="LEPSILON"> F  </i>
   <i type="logical" name="LRPA"> F  </i>
   <i type="logical" name="LNABLA"> F  </i>
   <i type="logical" name="LVEL"> F  </i>
   <i type="int" name="KINTER">     0</i>
   <i name="CSHIFT">      0.10000000</i>
   <i name="OMEGAMAX">     -1.00000000</i>
   <i name="DEG_THRESHOLD">      0.00200000</i>
  </separator>
  <separator name="orbital magnetization" >
   <i type="logical" name="NUCIND"> F  </i>
   <v name="MAGPOS">      0.00000000      0.00000000      0.00000000</v>
   <i type="logical" name="LNICSALL"> T  </i>
   <i type="logical" name="ORBITALMAG"> F  </i>
   <i type="logical" name="LMAGBLOCH"> F  </i>
   <i type="logical" name="LCHIMAG"> F  </i>
   <i type="logical" name="LGAUGE"> T  </i>
   <i type="int" name="MAGATOM">     0</i>
   <v name="MAGDIPOL">      0.00000000      0.00000000      0.00000000</v>
   <v name="AVECCONST">      0.00000000      0.00000000      0.00000000</v>
  </separator>
  <separator name="response functions" >
   <i type="logical" name="LADDER"> F  </i>
   <i type="logical" name="LFXC"> F  </i>
   <i type="logical" name="LHARTREE"> T  </i>
   <i type="int" name="IBSE">     0</i>
   <v type="int" name="KPOINT">    -1     0     0     0</v>
   <i type="logical" name="LTCTE"> F  </i>
   <i type="logical" name="LTETE"> F  </i>
   <i type="logical" name="LTRIPLET"> F  </i>
   <i type="logical" name="LFXCEPS"> F  </i>
   <i type="logical" name="LFXHEG"> F  </i>
   <i type="int" name="NATURALO">     0</i>
   <i type="logical" name="L2ORDER"> F  </i>
   <i type="logical" name="LUSEW"> F  </i>
   <i name="ENCUTGW">     -2.00000000</i>
   <i name="ENCUTGWSOFT">     -2.00000000</i>
   <i name="ENCUTLF">     -1.00000000</i>
   <i type="int" name="LMAXMP2">    -1</i>
   <i name="SCISSOR">      0.00000000</i>
   <i type="int" name="NOMEGA">     0</i>
   <i type="int" name="NOMEGAR">     0</i>
   <i type="int" name="NBANDSGW">    -1</i>
   <i type="int" name="NBANDSO">    -1</i>
   <i type="int" name="NBANDSV">    -1</i>
   <i type="int" name="NELM">    70</i>
   <i type="int" name="NELMHF">     1</i>
   <i type="int" name="DIM">     3</i>
   <i type="int" name="ANTIRES">     0</i>
   <i name="OMEGAMAX">    -30.00000000</i>
   <i name="OMEGAMIN">    -30.00000000</i>
   <i name="OMEGATL">   -200.00000000</i>
   <i type="int" name="OMEGAGRID">     0</i>
   <i name="CSHIFT">     -0.10000000</i>
   <i type="logical" name="SELFENERGY"> F  </i>
   <i type="logical" name="LSPECTRAL"> F  </i>
   <i type="logical" name="LSPECTRALGW"> F  </i>
   <i type="logical" name="LSINGLES"> F  </i>
   <i type="logical" name="LFERMIGW"> F  </i>
   <i type="logical" name="ODDONLYGW"> F  </i>
   <i type="logical" name="EVENONLYGW"> F  </i>
   <i type="int" name="NKREDLFX">     1</i>
   <i type="int" name="NKREDLFY">     1</i>
   <i type="int" name="NKREDLFZ">     1</i>
   <i type="int" name="MAXMEM">  1800</i>
   <i type="int" name="TELESCOPE">     0</i>
   <i type="int" name="TAUPAR">     1</i>
   <i type="int" name="OMEGAPAR">    -1</i>
   <i name="LAMBDA">      1.00000000</i>
  </separator>
  <separator name="External order field" >
   <i name="OFIELD_KAPPA">      0.00000000</i>
   <v name="OFIELD_K">      0.00000000      0.00000000      0.00000000</v>
   <i name="OFIELD_Q6_NEAR">      0.00000000</i>
   <i name="OFIELD_Q6_FAR">      0.00000000</i>
   <i name="OFIELD_A">      0.00000000</i>
  </separator>
 </parameters>
 <atominfo>
  <atoms>      36 </atoms>
  <types>       4 </types>
  <array name="atoms" >
   <dimension dim="1">ion</dimension>
   <field type="string">element</field>
   <field type="int">atomtype</field>
   <set>
    <rc><c>Ta</c><c>   1</c></rc>
    <rc><c>Ta</c><c>   1</c></rc>
    <rc><c>Ta</c><c>   1</c></rc>
    <rc><c>Ta</c><c>   1</c></rc>
    <rc><c>Ta</c><c>   1</c></rc>
    <rc><c>Ta</c><c>   1</c></rc>
    <rc><c>Ta</c><c>   1</c></rc>
    <rc><c>Ta</c><c>   1</c></rc>
    <rc><c>Ta</c><c>   1</c></rc>
    <rc><c>Ta</c><c>   1</c></rc>
    <rc><c>Nb</c><c>   2</c></rc>
    <rc><c>Nb</c><c>   2</c></rc>
    <rc><c>Nb</c><c>   2</c></rc>
    <rc><c>Nb</c><c>   2</c></rc>
    <rc><c>Nb</c><c>   2</c></rc>
    <rc><c>Hf</c><c>   3</c></rc>
    <rc><c>Hf</c><c>   3</c></rc>
    <rc><c>Hf</c><c>   3</c></rc>
    <rc><c>Hf</c><c>   3</c></rc>
    <rc><c>Hf</c><c>   3</c></rc>
    <rc><c>Hf</c><c>   3</c></rc>
    <rc><c>Hf</c><c>   3</c></rc>
    <rc><c>Hf</c><c>   3</c></rc>
    <rc><c>Hf</c><c>   3</c></rc>
    <rc><c>Hf</c><c>   3</c></rc>
    <rc><c>Hf</c><c>   3</c></rc>
    <rc><c>Zr</c><c>   4</c></rc>
    <rc><c>Zr</c><c>   4</c></rc>
    <rc><c>Zr</c><c>   4</c></rc>
    <rc><c>Zr</c><c>   4</c></rc>
    <rc><c>Zr</c><c>   4</c></rc>
    <rc><c>Zr</c><c>   4</c></rc>
    <rc><c>Zr</c><c>   4</c></rc>
    <rc><c>Zr</c><c>   4</c></rc>
    <rc><c>Zr</c><c>   4</c></rc>
    <rc><c>Zr</c><c>   4</c></rc>
   </set>
  </array>
  <array name="atomtypes" >
   <dimension dim="1">type</dimension>
   <field type="int">atomspertype</field>
   <field type="string">element</field>
   <field>mass</field>
   <field>valence</field>
   <field type="string">pseudopotential</field>
   <set>
    <rc><c>  10</c><c>Ta</c><c>    180.94800000</c><c>      5.00000000</c><c>  PAW_PBE Ta 17Jan2003                  </c></rc>
    <rc><c>   5</c><c>Nb</c><c>     92.91000000</c><c>     13.00000000</c><c>  PAW_PBE Nb_sv 25May2007               </c></rc>
    <rc><c>  11</c><c>Hf</c><c>    178.49000000</c><c>      4.00000000</c><c>  PAW_PBE Hf 20Jan2003                  </c></rc>
    <rc><c>  10</c><c>Zr</c><c>     91.22400000</c><c>     12.00000000</c><c>  PAW_PBE Zr_sv 04Jan2005               </c></rc>
   </set>
  </array>
 </atominfo>
 <structure name="initialpos" >
  <crystal>
   <varray name="basis" >
    <v>       6.95614841       0.00994170       0.00300296 </v>
    <v>       0.01479034      10.29377675      -0.01077475 </v>
    <v>       0.00398566      -0.01117381      10.34081152 </v>
   </varray>
   <i name="volume">    740.45172822 </i>
   <varray name="rec_basis" >
    <v>       0.14375803      -0.00020661      -0.00005563 </v>
    <v>      -0.00013889       0.09714638       0.00010503 </v>
    <v>      -0.00004189       0.00010128       0.09670433 </v>
   </varray>
  </crystal>
  <varray name="positions" >
   <v>       0.99541400       0.34654700       0.99435800 </v>
   <v>       0.98324800       0.00000500       0.33633100 </v>
   <v>       0.25422600       0.47912700       0.15162000 </v>
   <v>       0.97895300       0.32998600       0.67603300 </v>
   <v>       0.23864000       0.48902800       0.83279000 </v>
   <v>       0.23585300       0.84211000       0.20302700 </v>
   <v>       0.24704000       0.82890100       0.49074000 </v>
   <v>       0.48313800       0.00036300       0.65038700 </v>
   <v>       0.74064600       0.48511700       0.14764600 </v>
   <v>       0.76969700       0.15796400       0.50551100 </v>
   <v>       0.75977500       0.84584400       0.17049600 </v>
   <v>       0.02358500       0.67364900       0.68362300 </v>
   <v>       0.26478800       0.83203700       0.81709100 </v>
   <v>       0.50065700       0.35033800       0.99092500 </v>
   <v>       0.76220200       0.49969600       0.83647400 </v>
   <v>       0.74809100       0.16828500       0.15437700 </v>
   <v>       0.24728200       0.17721400       0.16169200 </v>
   <v>       0.02565600       0.99915300       0.66639400 </v>
   <v>       0.98053700       0.34056800       0.32708700 </v>
   <v>       0.22763100       0.50184500       0.51212100 </v>
   <v>       0.99646600       0.66047500       0.31471900 </v>
   <v>       0.48011600       0.97461000       0.01596900 </v>
   <v>       0.51061000       0.00228500       0.33909700 </v>
   <v>       0.49674300       0.66517500       0.00262300 </v>
   <v>       0.52125000       0.33647000       0.66091400 </v>
   <v>       0.74267100       0.83987300       0.82536400 </v>
   <v>       0.50083300       0.66405100       0.31828300 </v>
   <v>       0.74304700       0.15924900       0.83643400 </v>
   <v>       0.02167200       0.98241800       0.00157900 </v>
   <v>       0.22609900       0.17451600       0.49653700 </v>
   <v>       0.26149400       0.17493800       0.83933900 </v>
   <v>       0.00595500       0.66557500       0.00421900 </v>
   <v>       0.50781100       0.34060800       0.33846500 </v>
   <v>       0.77504100       0.52065500       0.51224000 </v>
   <v>       0.48711700       0.66082100       0.67693200 </v>
   <v>       0.75602400       0.83051300       0.50856600 </v>
  </varray>
 </structure>
 <calculation>
  <scstep>
   <time name="dav">    0.93    1.26</time>
   <time name="total">    1.22    1.87</time>
   <energy>
    <i name="alphaZ">   1393.21450662 </i>
    <i name="ewald"> -17653.75369890 </i>
    <i name="hartreedc">  -6009.42780108 </i>
    <i name="XCdc">   -467.44243135 </i>
    <i name="pawpsdc">  19461.45806710 </i>
    <i name="pawaedc"> -17790.93837943 </i>
    <i name="eentropy">     -0.00488530 </i>
    <i name="bandstr">    -67.63000837 </i>
    <i name="atom">  22758.58424561 </i>
    <i name="e_fr_energy">   1624.05961491 </i>
    <i name="e_wo_entrp">   1624.06450021 </i>
    <i name="e_0_energy">   1624.06124334 </i>
   </energy>
  </scstep>
  <scstep>
   <time name="dav">    0.87    1.06</time>
   <time name="total">    0.87    1.23</time>
   <energy>
    <i name="e_fr_energy">   -100.46907419 </i>
    <i name="e_wo_entrp">   -100.46643290 </i>
    <i name="e_0_energy">   -100.46819376 </i>
   </energy>
  </scstep>
  <scstep>
   <time name="dav">    1.26    1.37</time>
   <time name="total">    1.26    1.39</time>
   <energy>
    <i name="e_fr_energy">   -342.11027466 </i>
    <i name="e_wo_entrp">   -342.10696847 </i>
    <i name="e_0_energy">   -342.10917260 </i>
   </energy>
  </scstep>
  <scstep>
   <time name="dav">    1.31    1.37</time>
   <time name="total">    1.31    1.40</time>
   <energy>
    <i name="e_fr_energy">   -372.14890292 </i>
    <i name="e_wo_entrp">   -372.15200909 </i>
    <i name="e_0_energy">   -372.14993831 </i>
   </energy>
  </scstep>
  <scstep>
   <time name="dav">    1.26    1.27</time>
   <time name="total">    1.29    1.35</time>
   <energy>
    <i name="e_fr_energy">   -375.30130147 </i>
    <i name="e_wo_entrp">   -375.30451815 </i>
    <i name="e_0_energy">   -375.30237370 </i>
   </energy>
  </scstep>
  <scstep>
   <time name="diag">    0.07    0.08</time>
   <time name="diis">    0.67    0.68</time>
   <time name="orth">    0.01    0.01</time>
   <time name="total">    0.82    0.88</time>
   <energy>
    <i name="e_fr_energy">   -364.75999746 </i>
    <i name="e_wo_entrp">   -364.77664229 </i>
    <i name="e_0_energy">   -364.76554573 </i>
   </energy>
  </scstep>
  <scstep>
   <time name="diag">    0.07    0.07</time>
   <time name="diis">    0.64    0.70</time>
   <time name="orth">    0.01    0.01</time>
   <time name="total">    0.79    0.89</time>
   <energy>
    <i name="e_fr_energy">   -362.33032651 </i>
    <i name="e_wo_entrp">   -362.33913811 </i>
    <i name="e_0_energy">   -362.33326371 </i>
   </energy>
  </scstep>
  <scstep>
   <time name="diag">    0.08    0.09</time>
   <time name="diis">    0.80    0.86</time>
   <time name="orth">    0.02    0.02</time>
   <time name="total">    1.00    1.10</time>
   <energy>
    <i name="e_fr_energy">   -360.68351957 </i>
    <i name="e_wo_entrp">   -360.69784991 </i>
    <i name="e_0_energy">   -360.68829635 </i>
   </energy>
  </scstep>
  <scstep>
   <time name="diag">    0.08    0.12</time>
   <time name="diis">    0.78    0.84</time>
   <time name="orth">    0.01    0.01</time>
   <time name="total">    0.94    1.11</time>
   <energy>
    <i name="e_fr_energy">   -360.60799622 </i>
    <i name="e_wo_entrp">   -360.62348532 </i>
    <i name="e_0_energy">   -360.61315925 </i>
   </energy>
  </scstep>
  <scstep>
   <time name="diag">    0.10    0.11</time>
   <time name="diis">    0.77    0.81</time>
   <time name="orth">    0.01    0.01</time>
   <time name="total">    0.95    1.20</time>
   <energy>
    <i name="e_fr_energy">   -360.55581208 </i>
    <i name="e_wo_entrp">   -360.57032353 </i>
    <i name="e_0_energy">   -360.56064923 </i>
   </energy>
  </scstep>
  <scstep>
   <time name="diag">    0.08    0.08</time>
   <time name="diis">    0.74    0.78</time>
   <time name="orth">    0.01    0.01</time>
   <time name="total">    0.89    0.97</time>
   <energy>
    <i name="e_fr_energy">   -360.54855026 </i>
    <i name="e_wo_entrp">   -360.56290145 </i>
    <i name="e_0_energy">   -360.55333399 </i>
   </energy>
  </scstep>
  <scstep>
   <time name="diag">    0.07    0.08</time>
   <time name="diis">    0.76    0.76</time>
   <time name="orth">    0.01    0.01</time>
   <time name="total">    0.90    0.96</time>
   <energy>
    <i name="e_fr_energy">   -360.54678821 </i>
    <i name="e_wo_entrp">   -360.56045990 </i>
    <i name="e_0_energy">   -360.55134544 </i>
   </energy>
  </scstep>
  <scstep>
   <time name="diag">    0.09    0.09</time>
   <time name="diis">    0.75    0.76</time>
   <time name="orth">    0.01    0.01</time>
   <time name="total">    0.91    0.98</time>
   <energy>
    <i name="e_fr_energy">   -360.54677516 </i>
    <i name="e_wo_entrp">   -360.56116737 </i>
    <i name="e_0_energy">   -360.55157256 </i>
   </energy>
  </scstep>
  <scstep>
   <time name="diag">    0.07    0.08</time>
   <time name="diis">    0.76    0.77</time>
   <time name="orth">    0.01    0.01</time>
   <time name="total">    0.90    0.99</time>
   <energy>
    <i name="e_fr_energy">   -360.54717656 </i>
    <i name="e_wo_entrp">   -360.56154611 </i>
    <i name="e_0_energy">   -360.55196641 </i>
   </energy>
  </scstep>
  <scstep>
   <time name="diag">    0.07    0.07</time>
   <time name="diis">    0.71    0.75</time>
   <time name="orth">    0.01    0.01</time>
   <time name="total">    0.86    0.94</time>
   <energy>
    <i name="e_fr_energy">   -360.54735891 </i>
    <i name="e_wo_entrp">   -360.56163863 </i>
    <i name="e_0_energy">   -360.55211882 </i>
   </energy>
  </scstep>
  <scstep>
   <time name="diag">    0.07    0.08</time>
   <time name="diis">    0.59    0.64</time>
   <time name="orth">    0.01    0.01</time>
   <time name="total">    0.74    0.84</time>
   <energy>
    <i name="e_fr_energy">   -360.54747281 </i>
    <i name="e_wo_entrp">   -360.56174293 </i>
    <i name="e_0_energy">   -360.55222952 </i>
   </energy>
  </scstep>
  <scstep>
   <time name="diag">    0.07    0.08</time>
   <time name="diis">    0.54    0.59</time>
   <time name="orth">    0.01    0.01</time>
   <time name="total">    0.69    0.79</time>
   <energy>
    <i name="e_fr_energy">   -360.54751457 </i>
    <i name="e_wo_entrp">   -360.56181452 </i>
    <i name="e_0_energy">   -360.55228122 </i>
   </energy>
  </scstep>
  <scstep>
   <time name="diag">    0.07    0.08</time>
   <time name="diis">    0.54    0.57</time>
   <time name="orth">    0.01    0.01</time>
   <time name="total">    0.69    0.75</time>
   <energy>
    <i name="e_fr_energy">   -360.54753710 </i>
    <i name="e_wo_entrp">   -360.56183845 </i>
    <i name="e_0_energy">   -360.55230422 </i>
   </energy>
  </scstep>
  <scstep>
   <time name="diag">    0.10    0.10</time>
   <time name="diis">    0.42    0.60</time>
   <time name="orth">    0.01    0.01</time>
   <time name="total">    0.59    0.81</time>
   <energy>
    <i name="e_fr_energy">   -360.54754355 </i>
    <i name="e_wo_entrp">   -360.56185051 </i>
    <i name="e_0_energy">   -360.55231253 </i>
   </energy>
  </scstep>
  <scstep>
   <time name="diag">    0.12    0.13</time>
   <time name="diis">    0.50    0.50</time>
   <time name="orth">    0.01    0.01</time>
   <time name="total">    0.67    0.71</time>
   <energy>
    <i name="alphaZ">   1393.21450662 </i>
    <i name="ewald"> -17653.75369890 </i>
    <i name="hartreedc">  -5795.23291709 </i>
    <i name="XCdc">   -464.96118562 </i>
    <i name="pawpsdc">  32219.44935355 </i>
    <i name="pawaedc"> -30536.77298801 </i>
    <i name="eentropy">      0.01430870 </i>
    <i name="bandstr">  -2281.08917341 </i>
    <i name="atom">  22758.58424561 </i>
    <i name="e_fr_energy">   -360.54754856 </i>
    <i name="e_wo_entrp">   -360.56185726 </i>
    <i name="e_0_energy">   -360.55231813 </i>
   </energy>
  </scstep>
  <structure>
   <crystal>
    <varray name="basis" >
     <v>       6.95614841       0.00994170       0.00300296 </v>
     <v>       0.01479034      10.29377675      -0.01077475 </v>
     <v>       0.00398566      -0.01117381      10.34081152 </v>
    </varray>
    <i name="volume">    740.45172822 </i>
    <varray name="rec_basis" >
     <v>       0.14375803      -0.00020661      -0.00005563 </v>
     <v>      -0.00013889       0.09714638       0.00010503 </v>
     <v>      -0.00004189       0.00010128       0.09670433 </v>
    </varray>
   </crystal>
   <varray name="positions" >
    <v>       0.99541400       0.34654700       0.99435800 </v>
    <v>       0.98324800       0.00000500       0.33633100 </v>
    <v>       0.25422600       0.47912700       0.15162000 </v>
    <v>       0.97895300       0.32998600       0.67603300 </v>
    <v>       0.23864000       0.48902800       0.83279000 </v>
    <v>       0.23585300       0.84211000       0.20302700 </v>
    <v>       0.24704000       0.82890100       0.49074000 </v>
    <v>       0.48313800       0.00036300       0.65038700 </v>
    <v>       0.74064600       0.48511700       0.14764600 </v>
    <v>       0.76969700       0.15796400       0.50551100 </v>
    <v>       0.75977500       0.84584400       0.17049600 </v>
    <v>       0.02358500       0.67364900       0.68362300 </v>
    <v>       0.26478800       0.83203700       0.81709100 </v>
    <v>       0.50065700       0.35033800       0.99092500 </v>
    <v>       0.76220200       0.49969600       0.83647400 </v>
    <v>       0.74809100       0.16828500       0.15437700 </v>
    <v>       0.24728200       0.17721400       0.16169200 </v>
    <v>       0.02565600       0.99915300       0.66639400 </v>
    <v>       0.98053700       0.34056800       0.32708700 </v>
    <v>       0.22763100       0.50184500       0.51212100 </v>
    <v>       0.99646600       0.66047500       0.31471900 </v>
    <v>       0.48011600       0.97461000       0.01596900 </v>
    <v>       0.51061000       0.00228500       0.33909700 </v>
    <v>       0.49674300       0.66517500       0.00262300 </v>
    <v>       0.52125000       0.33647000       0.66091400 </v>
    <v>       0.74267100       0.83987300       0.82536400 </v>
    <v>       0.50083300       0.66405100       0.31828300 </v>
    <v>       0.74304700       0.15924900       0.83643400 </v>
    <v>       0.02167200       0.98241800       0.00157900 </v>
    <v>       0.22609900       0.17451600       0.49653700 </v>
    <v>       0.26149400       0.17493800       0.83933900 </v>
    <v>       0.00595500       0.66557500       0.00421900 </v>
    <v>       0.50781100       0.34060800       0.33846500 </v>
    <v>       0.77504100       0.52065500       0.51224000 </v>
    <v>       0.48711700       0.66082100       0.67693200 </v>
    <v>       0.75602400       0.83051300       0.50856600 </v>
   </varray>
  </structure>
  <varray name="forces" >
   <v>       0.00433744       0.00732969       0.01008460 </v>
   <v>       0.01133080      -0.01031161      -0.00294805 </v>
   <v>      -0.06392358      -0.03149047      -0.03629971 </v>
   <v>      -0.00957073       0.00618951      -0.00628900 </v>
   <v>       0.00169022       0.00023570      -0.00020292 </v>
   <v>       0.00068218       0.02046578      -0.05947131 </v>
   <v>      -0.04249568       0.04125445       0.06947810 </v>
   <v>       0.00121183      -0.01066303      -0.01388751 </v>
   <v>       0.03995109      -0.03116035      -0.02847704 </v>
   <v>       0.00842053       0.01201361      -0.00913362 </v>
   <v>       0.00133987       0.02608211       0.00821446 </v>
   <v>      -0.00039058      -0.00092832      -0.01155630 </v>
   <v>      -0.00793095       0.00288058       0.00183519 </v>
   <v>       0.00882656       0.00532107      -0.00238069 </v>
   <v>      -0.00551751       0.00884896      -0.00437755 </v>
   <v>       0.00035874       0.01023371      -0.00668407 </v>
   <v>      -0.00027962      -0.00272881      -0.00335422 </v>
   <v>       0.00480949      -0.01214477      -0.00345922 </v>
   <v>       0.00932181       0.01459037      -0.00125198 </v>
   <v>      -0.02719763      -0.02248185       0.01572783 </v>
   <v>       0.00105968       0.00680472      -0.00196026 </v>
   <v>      -0.00760346      -0.01140607       0.00129954 </v>
   <v>      -0.01369600       0.07556857       0.00984400 </v>
   <v>      -0.00532885      -0.01068032      -0.10042217 </v>
   <v>       0.00582157       0.00527801      -0.00791171 </v>
   <v>       0.00882228       0.00349810      -0.00380023 </v>
   <v>       0.04659133       0.01701616       0.07651059 </v>
   <v>       0.00575292      -0.00472249       0.00060289 </v>
   <v>       0.00273959       0.00306530       0.01633352 </v>
   <v>      -0.01381548       0.00251845      -0.00575741 </v>
   <v>      -0.00586818       0.00941505       0.00469297 </v>
   <v>       0.00860938      -0.01728308       0.01158618 </v>
   <v>       0.00467747      -0.09888765       0.01879654 </v>
   <v>       0.00752612      -0.02637139       0.01840409 </v>
   <v>       0.00506190      -0.00260587       0.02805869 </v>
   <v>       0.01467543       0.01525621       0.01815578 </v>
  </varray>
  <varray name="stress" >
   <v>       1.39552751       0.06826875      -0.04178008 </v>
   <v>       0.06826882       1.40145508       0.31069428 </v>
   <v>      -0.04178008       0.31069430       1.48259235 </v>
  </varray>
  <energy>
   <i name="e_fr_energy">   -360.54754856 </i>
   <i name="e_wo_entrp">   -360.55231813 </i>
   <i name="e_0_energy">      0.01430870 </i>
  </energy>
  <time name="totalsc">   19.99   22.95</time>
 </calculation>
 <calculation>
  <scstep>
   <time name="dav">    0.96    1.03</time>
   <time name="total">    1.13    1.35</time>
   <energy>
    <i name="alphaZ">   1392.10731553 </i>
    <i name="ewald"> -17649.23822660 </i>
    <i name="hartreedc">  -5793.55256740 </i>
    <i name="XCdc">   -465.16762055 </i>
    <i name="pawpsdc">  32219.33825647 </i>
    <i name="pawaedc"> -30536.65749688 </i>
    <i name="eentropy">      0.01435824 </i>
    <i name="bandstr">  -2285.97809872 </i>
    <i name="atom">  22758.58424561 </i>
    <i name="e_fr_energy">   -360.54983430 </i>
    <i name="e_wo_entrp">   -360.56419254 </i>
    <i name="e_0_energy">   -360.55462038 </i>
   </energy>
  </scstep>
  <scstep>
   <time name="diag">    0.07    0.08</time>
   <time name="diis">    0.67    0.73</time>
   <time name="orth">    0.01    0.01</time>
   <time name="total">    0.98    1.08</time>
   <energy>
    <i name="e_fr_energy">   -360.54923466 </i>
    <i name="e_wo_entrp">   -360.56349189 </i>
    <i name="e_0_energy">   -360.55398707 </i>
   </energy>
  </scstep>
  <scstep>
   <time name="diag">    0.08    0.08</time>
   <time name="diis">    0.70    0.75</time>
   <time name="orth">    0.01    0.01</time>
   <time name="total">    0.85    0.96</time>
   <energy>
    <i name="e_fr_energy">   -360.54905021 </i>
    <i name="e_wo_entrp">   -360.56336697 </i>
    <i name="e_0_energy">   -360.55382246 </i>
   </energy>
  </scstep>
  <scstep>
   <time name="diag">    0.07    0.07</time>
   <time name="diis">    0.73    0.80</time>
   <time name="orth">    0.02    0.02</time>
   <time name="total">    0.91    1.03</time>
   <energy>
    <i name="e_fr_energy">   -360.54883469 </i>
    <i name="e_wo_entrp">   -360.56314678 </i>
    <i name="e_0_energy">   -360.55360538 </i>
   </energy>
  </scstep>
  <scstep>
   <time name="diag">    0.09    0.09</time>
   <time name="diis">    0.66    0.67</time>
   <time name="orth">    0.01    0.01</time>
   <time name="total">    0.83    0.87</time>
   <energy>
    <i name="e_fr_energy">   -360.54881374 </i>
    <i name="e_wo_entrp">   -360.56311705 </i>
    <i name="e_0_energy">   -360.55358151 </i>
   </energy>
  </scstep>
  <scstep>
   <time name="diag">    0.08    0.08</time>
   <time name="diis">    0.41    0.41</time>
   <time name="orth">    0.01    0.01</time>
   <time name="total">    0.53    0.57</time>
   <energy>
    <i name="alphaZ">   1392.10731553 </i>
    <i name="ewald"> -17649.23822660 </i>
    <i name="hartreedc">  -5796.52132338 </i>
    <i name="XCdc">   -465.04177065 </i>
    <i name="pawpsdc">  32180.98374887 </i>
    <i name="pawaedc"> -30498.20296842 </i>
    <i name="eentropy">      0.01430612 </i>
    <i name="bandstr">  -2283.23413399 </i>
    <i name="atom">  22758.58424561 </i>
    <i name="e_fr_energy">   -360.54880691 </i>
    <i name="e_wo_entrp">   -360.56311303 </i>
    <i name="e_0_energy">   -360.55357562 </i>
   </energy>
  </scstep>
  <structure>
   <crystal>
    <varray name="basis" >
     <v>       6.95795213       0.01003270       0.00295037 </v>
     <v>       0.01492482      10.29645666      -0.01018362 </v>
     <v>       0.00390628      -0.01057974      10.34365932 </v>
    </varray>
    <i name="volume">    741.04063509 </i>
    <varray name="rec_basis" >
     <v>       0.14372077      -0.00020838      -0.00005449 </v>
     <v>      -0.00014008       0.09712109       0.00009939 </v>
     <v>      -0.00004113       0.00009568       0.09667770 </v>
    </varray>
   </crystal>
   <varray name="positions" >
    <v>       0.99542299       0.34655731       0.99437212 </v>
    <v>       0.98327161      -0.00000953       0.33632685 </v>
    <v>       0.25409313       0.47908280       0.15156919 </v>
    <v>       0.97893307       0.32999471       0.67602421 </v>
    <v>       0.23864352       0.48902833       0.83278972 </v>
    <v>       0.23585441       0.84213868       0.20294379 </v>
    <v>       0.24695141       0.82895919       0.49083733 </v>
    <v>       0.48314056       0.00034798       0.65036755 </v>
    <v>       0.74072924       0.48507307       0.14760607 </v>
    <v>       0.76971449       0.15798086       0.50549823 </v>
    <v>       0.75977770       0.84588068       0.17050753 </v>
    <v>       0.02358420       0.67364768       0.68360682 </v>
    <v>       0.26477149       0.83204107       0.81709358 </v>
    <v>       0.50067535       0.35034546       0.99092167 </v>
    <v>       0.76219050       0.49970845       0.83646789 </v>
    <v>       0.74809172       0.16829938       0.15436766 </v>
    <v>       0.24728143       0.17721016       0.16168730 </v>
    <v>       0.02566605       0.99913591       0.66638914 </v>
    <v>       0.98055635       0.34058849       0.32708526 </v>
    <v>       0.22757447       0.50181347       0.51214300 </v>
    <v>       0.99646819       0.66048456       0.31471627 </v>
    <v>       0.48010021       0.97459398       0.01597081 </v>
    <v>       0.51058127       0.00239129       0.33911090 </v>
    <v>       0.49673203       0.66515984       0.00248244 </v>
    <v>       0.52126210       0.33647740       0.66090293 </v>
    <v>       0.74268935       0.83987789       0.82535868 </v>
    <v>       0.50092982       0.66407495       0.31839008 </v>
    <v>       0.74305898       0.15924235       0.83643483 </v>
    <v>       0.02167768       0.98242233       0.00160186 </v>
    <v>       0.22607025       0.17451956       0.49652895 </v>
    <v>       0.26148176       0.17495126       0.83934559 </v>
    <v>       0.00597295       0.66555070       0.00423519 </v>
    <v>       0.50782101       0.34046899       0.33849116 </v>
    <v>       0.77505672       0.52061794       0.51226571 </v>
    <v>       0.48712752       0.66081737       0.67697126 </v>
    <v>       0.75605447       0.83053445       0.50859142 </v>
   </varray>
  </structure>
  <varray name="forces" >
   <v>       0.00294362       0.00865997       0.00672759 </v>
   <v>       0.00997579      -0.01177058      -0.00464967 </v>
   <v>      -0.05387133      -0.03021749      -0.03334739 </v>
   <v>      -0.01132885       0.00589174      -0.00457117 </v>
   <v>       0.00012625      -0.00109221      -0.00075843 </v>
   <v>       0.00064017       0.01898781      -0.04546007 </v>
   <v>      -0.03757602       0.03728528       0.05807023 </v>
   <v>      -0.00116946      -0.00943343      -0.01276708 </v>
   <v>       0.03575130      -0.02956161      -0.02793773 </v>
   <v>       0.01097102       0.01069932      -0.00764373 </v>
   <v>       0.00192650       0.02594263       0.01016474 </v>
   <v>       0.00163594      -0.00042619      -0.00906464 </v>
   <v>      -0.00693791       0.00222400      -0.00108173 </v>
   <v>       0.00707148       0.00894179      -0.00201468 </v>
   <v>      -0.00432970       0.00574582      -0.00490883 </v>
   <v>       0.00065975       0.00873846      -0.00563516 </v>
   <v>       0.00011179      -0.00217337      -0.00399360 </v>
   <v>       0.00554924      -0.00928449      -0.00075558 </v>
   <v>       0.00712795       0.01566979      -0.00326382 </v>
   <v>      -0.02541001      -0.02077693       0.01729032 </v>
   <v>       0.00226442       0.00846523      -0.00343776 </v>
   <v>      -0.00587009      -0.01216310       0.00194109 </v>
   <v>      -0.01329159       0.06715884       0.00872796 </v>
   <v>      -0.00420882      -0.01413576      -0.08810683 </v>
   <v>       0.00663816       0.00470945      -0.00556780 </v>
   <v>       0.00781509       0.00389662      -0.00394450 </v>
   <v>       0.03924613       0.01780010       0.06644021 </v>
   <v>       0.00521012      -0.00334492      -0.00093942 </v>
   <v>       0.00230852       0.00102046       0.01526209 </v>
   <v>      -0.01542518       0.00166043      -0.00337541 </v>
   <v>      -0.00497536       0.00940775       0.00270620 </v>
   <v>       0.00686324      -0.01642245       0.00997632 </v>
   <v>       0.00402505      -0.09113208       0.01405546 </v>
   <v>       0.00887308      -0.02455195       0.01889454 </v>
   <v>       0.00242980      -0.00179203       0.02663223 </v>
   <v>       0.01422990       0.01537310       0.01633606 </v>
  </varray>
  <varray name="stress" >
   <v>       0.49365076       0.06101501      -0.04404608 </v>
   <v>       0.06101496       0.48396911       0.27323029 </v>
   <v>      -0.04404609       0.27323030       0.56443120 </v>
  </varray>
  <energy>
   <i name="e_fr_energy">   -360.54880691 </i>
   <i name="e_wo_entrp">   -360.55357562 </i>
   <i name="e_0_energy">      0.01430612 </i>
  </energy>
  <time name="totalsc">    6.80    7.78</time>
 </calculation>
 <calculation>
  <scstep>
   <time name="dav">    1.06    1.14</time>
   <time name="total">    1.20    1.42</time>
   <energy>
    <i name="alphaZ">   1389.49316170 </i>
    <i name="ewald"> -17638.55142000 </i>
    <i name="hartreedc">  -5792.47924933 </i>
    <i name="XCdc">   -465.53293862 </i>
    <i name="pawpsdc">  32183.13549708 </i>
    <i name="pawaedc"> -30500.38358781 </i>
    <i name="eentropy">      0.01441801 </i>
    <i name="bandstr">  -2294.83575300 </i>
    <i name="atom">  22758.58424561 </i>
    <i name="e_fr_energy">   -360.55562635 </i>
    <i name="e_wo_entrp">   -360.57004436 </i>
    <i name="e_0_energy">   -360.56043235 </i>
   </energy>
  </scstep>
  <scstep>
   <time name="diag">    0.07    0.07</time>
   <time name="diis">    0.75    0.76</time>
   <time name="orth">    0.01    0.01</time>
   <time name="total">    0.93    0.99</time>
   <energy>
    <i name="e_fr_energy">   -360.55208497 </i>
    <i name="e_wo_entrp">   -360.56625226 </i>
    <i name="e_0_energy">   -360.55680740 </i>
   </energy>
  </scstep>
  <scstep>
   <time name="diag">    0.08    0.09</time>
   <time name="diis">    0.74    0.75</time>
   <time name="orth">    0.01    0.01</time>
   <time name="total">    0.90    0.96</time>
   <energy>
    <i name="e_fr_energy">   -360.55103087 </i>
    <i name="e_wo_entrp">   -360.56534623 </i>
    <i name="e_0_energy">   -360.55580265 </i>
   </energy>
  </scstep>
  <scstep>
   <time name="diag">    0.11    0.11</time>
   <time name="diis">    0.79    0.80</time>
   <time name="orth">    0.01    0.01</time>
   <time name="total">    0.98    1.04</time>
   <energy>
    <i name="e_fr_energy">   -360.54986869 </i>
    <i name="e_wo_entrp">   -360.56416895 </i>
    <i name="e_0_energy">   -360.55463544 </i>
   </energy>
  </scstep>
  <scstep>
   <time name="diag">    0.09    0.09</time>
   <time name="diis">    0.74    0.74</time>
   <time name="orth">    0.01    0.01</time>
   <time name="total">    0.90    0.95</time>
   <energy>
    <i name="e_fr_energy">   -360.54977743 </i>
    <i name="e_wo_entrp">   -360.56405724 </i>
    <i name="e_0_energy">   -360.55453737 </i>
   </energy>
  </scstep>
  <scstep>
   <time name="diag">    0.07    0.07</time>
   <time name="diis">    0.67    0.68</time>
   <time name="orth">    0.01    0.01</time>
   <time name="total">    0.82    0.88</time>
   <energy>
    <i name="e_fr_energy">   -360.54977690 </i>
    <i name="e_wo_entrp">   -360.56406521 </i>
    <i name="e_0_energy">   -360.55453967 </i>
   </energy>
  </scstep>
  <scstep>
   <time name="diag">    0.07    0.07</time>
   <time name="diis">    0.62    0.62</time>
   <time name="orth">    0.01    0.01</time>
   <time name="total">    0.76    0.80</time>
   <energy>
    <i name="e_fr_energy">   -360.54977620 </i>
    <i name="e_wo_entrp">   -360.56408197 </i>
    <i name="e_0_energy">   -360.55454479 </i>
   </energy>
  </scstep>
  <scstep>
   <time name="diag">    0.07    0.07</time>
   <time name="diis">    0.45    0.46</time>
   <time name="orth">    0.01    0.01</time>
   <time name="total">    0.57    0.61</time>
   <energy>
    <i name="alphaZ">   1389.49316170 </i>
    <i name="ewald"> -17638.55142000 </i>
    <i name="hartreedc">  -5799.18926476 </i>
    <i name="XCdc">   -465.24791661 </i>
    <i name="pawpsdc">  32098.64962078 </i>
    <i name="pawaedc"> -30415.91536338 </i>
    <i name="eentropy">      0.01428772 </i>
    <i name="bandstr">  -2288.38712837 </i>
    <i name="atom">  22758.58424561 </i>
    <i name="e_fr_energy">   -360.54977730 </i>
    <i name="e_wo_entrp">   -360.56406502 </i>
    <i name="e_0_energy">   -360.55453987 </i>
   </energy>
  </scstep>
  <structure>
   <crystal>
    <varray name="basis" >
     <v>       6.96221849       0.01024793       0.00282596 </v>
     <v>       0.01524293      10.30279549      -0.00878540 </v>
     <v>       0.00371852      -0.00917457      10.35039528 </v>
    </varray>
    <i name="volume">    742.43480835 </i>
    <varray name="rec_basis" >
     <v>       0.14363271      -0.00021255      -0.00005179 </v>
     <v>      -0.00014290       0.09706132       0.00008609 </v>
     <v>      -0.00003934       0.00008244       0.09661475 </v>
    </varray>
   </crystal>
   <varray name="positions" >
    <v>       0.99544426       0.34658169       0.99440552 </v>
    <v>       0.98332743      -0.00004387       0.33631705 </v>
    <v>       0.25377892       0.47897828       0.15144904 </v>
    <v>       0.97888595       0.33001531       0.67600343 </v>
    <v>       0.23865183       0.48902910       0.83278904 </v>
    <v>       0.23585773       0.84220652       0.20274704 </v>
    <v>       0.24674190       0.82909679       0.49106746 </v>
    <v>       0.48314663       0.00031248       0.65032155 </v>
    <v>       0.74092607       0.48496918       0.14751167 </v>
    <v>       0.76975585       0.15802073       0.50546803 </v>
    <v>       0.75978409       0.84596742       0.17053480 </v>
    <v>       0.02358231       0.67364455       0.68356858 </v>
    <v>       0.26473245       0.83205069       0.81709967 </v>
    <v>       0.50071874       0.35036310       0.99091380 </v>
    <v>       0.76216330       0.49973788       0.83645344 </v>
    <v>       0.74809343       0.16833338       0.15434557 </v>
    <v>       0.24728008       0.17720108       0.16167619 </v>
    <v>       0.02568980       0.99909550       0.66637764 </v>
    <v>       0.98060211       0.34063695       0.32708115 </v>
    <v>       0.22744079       0.50173891       0.51219501 </v>
    <v>       0.99647335       0.66050717       0.31470980 </v>
    <v>       0.48006288       0.97455610       0.01597508 </v>
    <v>       0.51051333       0.00264263       0.33914374 </v>
    <v>       0.49670607       0.66512402       0.00215006 </v>
    <v>       0.52129072       0.33649489       0.66087676 </v>
    <v>       0.74273274       0.83988947       0.82534610 </v>
    <v>       0.50115879       0.66413156       0.31864328 </v>
    <v>       0.74308732       0.15922662       0.83643681 </v>
    <v>       0.02169110       0.98243256       0.00165593 </v>
    <v>       0.22600227       0.17452798       0.49650993 </v>
    <v>       0.26145281       0.17498260       0.83936116 </v>
    <v>       0.00601541       0.66549324       0.00427346 </v>
    <v>       0.50784470       0.34014025       0.33855304 </v>
    <v>       0.77509390       0.52053028       0.51232653 </v>
    <v>       0.48715239       0.66080878       0.67706411 </v>
    <v>       0.75612653       0.83058516       0.50865154 </v>
   </varray>
  </structure>
  <varray name="forces" >
   <v>       0.00105464       0.01114054       0.00033331 </v>
   <v>       0.00761169      -0.01629863      -0.00602179 </v>
   <v>      -0.03005810      -0.02650163      -0.02704416 </v>
   <v>      -0.01613526       0.00288127      -0.00048428 </v>
   <v>      -0.00363055      -0.00385307      -0.00143110 </v>
   <v>      -0.00030453       0.01420178      -0.01351537 </v>
   <v>      -0.02603292       0.02962410       0.03297515 </v>
   <v>      -0.00530563      -0.00834052      -0.00912625 </v>
   <v>       0.02464669      -0.02627303      -0.02725692 </v>
   <v>       0.01672410       0.00618150      -0.00388724 </v>
   <v>       0.00213955       0.02700071       0.01401282 </v>
   <v>       0.00655929       0.00201658      -0.00582414 </v>
   <v>      -0.00601497       0.00077989      -0.00728799 </v>
   <v>       0.00250421       0.01641447       0.00077015 </v>
   <v>      -0.00157543      -0.00188496      -0.00514483 </v>
   <v>       0.00092625       0.00620899      -0.00359590 </v>
   <v>       0.00140000       0.00055039      -0.00521638 </v>
   <v>       0.00674739      -0.00438634       0.00512338 </v>
   <v>       0.00285167       0.01803156      -0.00788522 </v>
   <v>      -0.02066125      -0.01581570       0.02006623 </v>
   <v>       0.00565677       0.01320007      -0.00539171 </v>
   <v>      -0.00374884      -0.01318609       0.00116592 </v>
   <v>      -0.01225961       0.04746926       0.00942553 </v>
   <v>      -0.00328472      -0.02278484      -0.06075038 </v>
   <v>       0.00958569       0.00112799      -0.00034439 </v>
   <v>       0.00698897       0.00648334      -0.00693896 </v>
   <v>       0.02148187       0.02036958       0.04318941 </v>
   <v>       0.00356908      -0.00094295      -0.00520903 </v>
   <v>       0.00181095      -0.00236523       0.01216207 </v>
   <v>      -0.01903084      -0.00158295       0.00272909 </v>
   <v>      -0.00252903       0.00926315      -0.00293916 </v>
   <v>       0.00262869      -0.01507902       0.00730591 </v>
   <v>       0.00223708      -0.07393468       0.00276514 </v>
   <v>       0.01335198      -0.02017563       0.01880563 </v>
   <v>      -0.00332120       0.00285006       0.02303513 </v>
   <v>       0.01341631       0.01761003       0.01143029 </v>
  </varray>
  <varray name="stress" >
   <v>      -1.80582998       0.03030645      -0.04250012 </v>
   <v>       0.03030647      -1.89642170       0.13127082 </v>
   <v>      -0.04250007       0.13127089      -1.78134337 </v>
  </varray>
  <energy>
   <i name="e_fr_energy">   -360.54977730 </i>
   <i name="e_wo_entrp">   -360.55453987 </i>
   <i name="e_0_energy">      0.01428772 </i>
  </energy>
  <time name="totalsc">    8.56    9.34</time>
 </calculation>
 <calculation>
  <scstep>
   <time name="dav">    1.03    1.05</time>
   <time name="total">    1.17    1.35</time>
   <energy>
    <i name="alphaZ">   1389.85485944 </i>
    <i name="ewald"> -17640.31421717 </i>
    <i name="hartreedc">  -5799.41855545 </i>
    <i name="XCdc">   -465.18205911 </i>
    <i name="pawpsdc">  32098.89033767 </i>
    <i name="pawaedc"> -30416.22048415 </i>
    <i name="eentropy">      0.01421393 </i>
    <i name="bandstr">  -2286.75915169 </i>
    <i name="atom">  22758.58424561 </i>
    <i name="e_fr_energy">   -360.55081093 </i>
    <i name="e_wo_entrp">   -360.56502485 </i>
    <i name="e_0_energy">   -360.55554890 </i>
   </energy>
  </scstep>
  <scstep>
   <time name="diag">    0.08    0.08</time>
   <time name="diis">    0.74    0.74</time>
   <time name="orth">    0.01    0.01</time>
   <time name="total">    0.90    0.96</time>
   <energy>
    <i name="e_fr_energy">   -360.55089946 </i>
    <i name="e_wo_entrp">   -360.56515215 </i>
    <i name="e_0_energy">   -360.55565036 </i>
   </energy>
  </scstep>
  <scstep>
   <time name="diag">    0.07    0.08</time>
   <time name="diis">    0.70    0.70</time>
   <time name="orth">    0.01    0.01</time>
   <time name="total">    0.86    0.89</time>
   <energy>
    <i name="e_fr_energy">   -360.55083747 </i>
    <i name="e_wo_entrp">   -360.56507137 </i>
    <i name="e_0_energy">   -360.55558210 </i>
   </energy>
  </scstep>
  <scstep>
   <time name="diag">    0.07    0.07</time>
   <time name="diis">    0.69    0.69</time>
   <time name="orth">    0.01    0.01</time>
   <time name="total">    0.84    0.88</time>
   <energy>
    <i name="e_fr_energy">   -360.55080944 </i>
    <i name="e_wo_entrp">   -360.56503763 </i>
    <i name="e_0_energy">   -360.55555217 </i>
   </energy>
  </scstep>
  <scstep>
   <time name="diag">    0.08    0.08</time>
   <time name="diis">    0.43    0.47</time>
   <time name="orth">    0.01    0.01</time>
   <time name="total">    0.56    0.64</time>
   <energy>
    <i name="alphaZ">   1389.85485944 </i>
    <i name="ewald"> -17640.31421717 </i>
    <i name="hartreedc">  -5798.26997809 </i>
    <i name="XCdc">   -465.23062723 </i>
    <i name="pawpsdc">  32110.65155880 </i>
    <i name="pawaedc"> -30428.15036630 </i>
    <i name="eentropy">      0.01422329 </i>
    <i name="bandstr">  -2287.69050201 </i>
    <i name="atom">  22758.58424561 </i>
    <i name="e_fr_energy">   -360.55080366 </i>
    <i name="e_wo_entrp">   -360.56502695 </i>
    <i name="e_0_energy">   -360.55554476 </i>
   </energy>
  </scstep>
  <structure>
   <crystal>
    <varray name="basis" >
     <v>       6.96160721       0.01035496       0.00273263 </v>
     <v>       0.01540135      10.30174400      -0.00806989 </v>
     <v>       0.00357855      -0.00845518      10.34966573 </v>
    </varray>
    <i name="volume">    742.24159609 </i>
    <varray name="rec_basis" >
     <v>       0.14364533      -0.00021479      -0.00004984 </v>
     <v>      -0.00014442       0.09707122       0.00007935 </v>
     <v>      -0.00003804       0.00007575       0.09662155 </v>
    </varray>
   </crystal>
   <varray name="positions" >
    <v>       0.99545359       0.34660418       0.99441756 </v>
    <v>       0.98336106      -0.00007634       0.33630608 </v>
    <v>       0.25361379       0.47890864       0.15137339 </v>
    <v>       0.97883953       0.33002613       0.67599561 </v>
    <v>       0.23864798       0.48902453       0.83278701 </v>
    <v>       0.23585828       0.84224797       0.20266171 </v>
    <v>       0.24662049       0.82918198       0.49118881 </v>
    <v>       0.48313889       0.00028964       0.65029412 </v>
    <v>       0.74104049       0.48489993       0.14744468 </v>
    <v>       0.76980135       0.15804234       0.50545266 </v>
    <v>       0.75979021       0.84603155       0.17056185 </v>
    <v>       0.02359385       0.67364599       0.68354798 </v>
    <v>       0.26470767       0.83205502       0.81709267 </v>
    <v>       0.50073845       0.35038988       0.99091204 </v>
    <v>       0.76215091       0.49974574       0.83644197 </v>
    <v>       0.74809573       0.16835301       0.15433339 </v>
    <v>       0.24728222       0.17719860       0.16166580 </v>
    <v>       0.02571063       0.99907592       0.66638005 </v>
    <v>       0.98062329       0.34067647       0.32706987 </v>
    <v>       0.22735587       0.50169314       0.51223822 </v>
    <v>       0.99648565       0.66053162       0.31470081 </v>
    <v>       0.48004296       0.97452635       0.01597802 </v>
    <v>       0.51046674       0.00278978       0.33916701 </v>
    <v>       0.49669103       0.66508285       0.00195840 </v>
    <v>       0.52131851       0.33650238       0.66086722 </v>
    <v>       0.74276082       0.83990163       0.82533304 </v>
    <v>       0.50127831       0.66417686       0.31878542 </v>
    <v>       0.74310382       0.15921996       0.83643097 </v>
    <v>       0.02169914       0.98243315       0.00168995 </v>
    <v>       0.22594321       0.17452896       0.49650674 </v>
    <v>       0.26143801       0.17500516       0.83936290 </v>
    <v>       0.00603511       0.66545429       0.00429590 </v>
    <v>       0.50785730       0.33993294       0.33857795 </v>
    <v>       0.77513173       0.52047442       0.51237119 </v>
    <v>       0.48715483       0.66080940       0.67712524 </v>
    <v>       0.75617651       0.83062493       0.50868677 </v>
   </varray>
  </structure>
  <varray name="forces" >
   <v>      -0.00043996       0.00369285      -0.00463823 </v>
   <v>       0.00772669      -0.01459267      -0.00600575 </v>
   <v>      -0.01852504      -0.01846672      -0.01731188 </v>
   <v>      -0.01424809       0.00007267       0.00028508 </v>
   <v>      -0.00236590      -0.00260493      -0.00342581 </v>
   <v>       0.00310961       0.01032793      -0.00398156 </v>
   <v>      -0.01886602       0.02236784       0.02187566 </v>
   <v>      -0.00403518      -0.00414367      -0.00518461 </v>
   <v>       0.01909982      -0.01883644      -0.01986738 </v>
   <v>       0.01593815       0.00623985      -0.00292735 </v>
   <v>       0.00026411       0.02362243       0.01470905 </v>
   <v>       0.00381008       0.00232329      -0.00503480 </v>
   <v>      -0.00647755      -0.00228523      -0.00620647 </v>
   <v>       0.00160471       0.01266486      -0.00195693 </v>
   <v>      -0.00386463       0.00013022      -0.00674002 </v>
   <v>       0.00049946       0.00375726      -0.00280573 </v>
   <v>       0.00254431      -0.00127566      -0.00470183 </v>
   <v>       0.00423510       0.00071047       0.00943386 </v>
   <v>       0.00228048       0.01774696      -0.00709975 </v>
   <v>      -0.01375278      -0.01376313       0.01740274 </v>
   <v>       0.00528740       0.01338564      -0.00313775 </v>
   <v>       0.00035591      -0.01028978      -0.00135163 </v>
   <v>      -0.01282245       0.03979797       0.00916517 </v>
   <v>      -0.00238658      -0.02349682      -0.04521369 </v>
   <v>       0.00732388      -0.00172244       0.00063877 </v>
   <v>       0.00709366       0.00713560      -0.00626004 </v>
   <v>       0.01364089       0.01865204       0.03225821 </v>
   <v>       0.00308262      -0.00166579      -0.00478697 </v>
   <v>      -0.00072200      -0.00231672       0.00993276 </v>
   <v>      -0.01825523      -0.00170710       0.00362459 </v>
   <v>      -0.00200353       0.00746288      -0.00458270 </v>
   <v>       0.00117910      -0.01095626       0.00492966 </v>
   <v>      -0.00009135      -0.06318234      -0.00096854 </v>
   <v>       0.01063565      -0.01726462       0.01543491 </v>
   <v>      -0.00216978       0.00417898       0.01662693 </v>
   <v>       0.01131444       0.01430057       0.00787206 </v>
  </varray>
  <varray name="stress" >
   <v>      -1.68466104       0.00926668      -0.03001457 </v>
   <v>       0.00926671      -1.80224326       0.09033771 </v>
   <v>      -0.03001460       0.09033774      -1.64867823 </v>
  </varray>
  <energy>
   <i name="e_fr_energy">   -360.55080366 </i>
   <i name="e_wo_entrp">   -360.55554476 </i>
   <i name="e_0_energy">      0.01422329 </i>
  </energy>
  <time name="totalsc">    5.79    6.38</time>
 </calculation>
 <calculation>
  <scstep>
   <time name="dav">    0.87    0.91</time>
   <time name="total">    1.02    1.20</time>
   <energy>
    <i name="alphaZ">   1390.94079786 </i>
    <i name="ewald"> -17645.55739677 </i>
    <i name="hartreedc">  -5799.09105161 </i>
    <i name="XCdc">   -465.02840583 </i>
    <i name="pawpsdc">  32109.85628980 </i>
    <i name="pawaedc"> -30427.37083037 </i>
    <i name="eentropy">      0.01399741 </i>
    <i name="bandstr">  -2282.89999163 </i>
    <i name="atom">  22758.58424561 </i>
    <i name="e_fr_energy">   -360.55234552 </i>
    <i name="e_wo_entrp">   -360.56634294 </i>
    <i name="e_0_energy">   -360.55701133 </i>
   </energy>
  </scstep>
  <scstep>
   <time name="diag">    0.07    0.08</time>
   <time name="diis">    0.69    0.74</time>
   <time name="orth">    0.01    0.01</time>
   <time name="total">    0.84    0.92</time>
   <energy>
    <i name="e_fr_energy">   -360.55317256 </i>
    <i name="e_wo_entrp">   -360.56730756 </i>
    <i name="e_0_energy">   -360.55788422 </i>
   </energy>
  </scstep>
  <scstep>
   <time name="diag">    0.07    0.08</time>
   <time name="diis">    0.72    0.74</time>
   <time name="orth">    0.01    0.01</time>
   <time name="total">    0.87    0.93</time>
   <energy>
    <i name="e_fr_energy">   -360.55263071 </i>
    <i name="e_wo_entrp">   -360.56670020 </i>
    <i name="e_0_energy">   -360.55732054 </i>
   </energy>
  </scstep>
  <scstep>
   <time name="diag">    0.07    0.07</time>
   <time name="diis">    0.68    0.88</time>
   <time name="orth">    0.01    0.01</time>
   <time name="total">    0.88    1.11</time>
   <energy>
    <i name="e_fr_energy">   -360.55243017 </i>
    <i name="e_wo_entrp">   -360.56647852 </i>
    <i name="e_0_energy">   -360.55711295 </i>
   </energy>
  </scstep>
  <scstep>
   <time name="diag">    0.13    0.13</time>
   <time name="diis">    0.82    0.84</time>
   <time name="orth">    0.01    0.01</time>
   <time name="total">    1.03    1.08</time>
   <energy>
    <i name="e_fr_energy">   -360.55241329 </i>
    <i name="e_wo_entrp">   -360.56645507 </i>
    <i name="e_0_energy">   -360.55709388 </i>
   </energy>
  </scstep>
  <scstep>
   <time name="diag">    0.07    0.07</time>
   <time name="diis">    0.58    0.63</time>
   <time name="orth">    0.01    0.01</time>
   <time name="total">    0.72    0.81</time>
   <energy>
    <i name="e_fr_energy">   -360.55242258 </i>
    <i name="e_wo_entrp">   -360.56648969 </i>
    <i name="e_0_energy">   -360.55711161 </i>
   </energy>
  </scstep>
  <scstep>
   <time name="diag">    0.07    0.07</time>
   <time name="diis">    0.47    0.50</time>
   <time name="orth">    0.01    0.01</time>
   <time name="total">    0.58    0.65</time>
   <energy>
    <i name="alphaZ">   1390.94079786 </i>
    <i name="ewald"> -17645.55739677 </i>
    <i name="hartreedc">  -5796.15691198 </i>
    <i name="XCdc">   -465.15204978 </i>
    <i name="pawpsdc">  32144.22923264 </i>
    <i name="pawaedc"> -30461.79689245 </i>
    <i name="eentropy">      0.01403441 </i>
    <i name="bandstr">  -2285.65749197 </i>
    <i name="atom">  22758.58424561 </i>
    <i name="e_fr_energy">   -360.55243244 </i>
    <i name="e_wo_entrp">   -360.56646684 </i>
    <i name="e_0_energy">   -360.55711057 </i>
   </energy>
  </scstep>
  <structure>
   <crystal>
    <varray name="basis" >
     <v>       6.95977336       0.01067605       0.00245265 </v>
     <v>       0.01587661      10.29858954      -0.00592335 </v>
     <v>       0.00315863      -0.00629699      10.34747708 </v>
    </varray>
    <i name="volume">    741.66211157 </i>
    <varray name="rec_basis" >
     <v>       0.14368320      -0.00022153      -0.00004399 </v>
     <v>      -0.00014897       0.09710094       0.00005914 </v>
     <v>      -0.00003414       0.00005564       0.09664196 </v>
    </varray>
   </crystal>
   <varray name="positions" >
    <v>       0.99548158       0.34667165       0.99445367 </v>
    <v>       0.98346197      -0.00017374       0.33627318 </v>
    <v>       0.25311838       0.47869970       0.15114643 </v>
    <v>       0.97870023       0.33005860       0.67597214 </v>
    <v>       0.23863641       0.48901081       0.83278093 </v>
    <v>       0.23585994       0.84237235       0.20240569 </v>
    <v>       0.24625622       0.82943755       0.49155287 </v>
    <v>       0.48311568       0.00022114       0.65021184 </v>
    <v>       0.74138377       0.48469218       0.14724372 </v>
    <v>       0.76993785       0.15810716       0.50540653 </v>
    <v>       0.75980857       0.84622397       0.17064300 </v>
    <v>       0.02362850       0.67365029       0.68348620 </v>
    <v>       0.26463335       0.83206801       0.81707166 </v>
    <v>       0.50079757       0.35047022       0.99090676 </v>
    <v>       0.76211376       0.49976933       0.83640756 </v>
    <v>       0.74810263       0.16841190       0.15429685 </v>
    <v>       0.24728863       0.17719118       0.16163461 </v>
    <v>       0.02577313       0.99901718       0.66638729 </v>
    <v>       0.98068682       0.34079504       0.32703600 </v>
    <v>       0.22710112       0.50155583       0.51236786 </v>
    <v>       0.99652253       0.66060498       0.31467384 </v>
    <v>       0.47998319       0.97443709       0.01598683 </v>
    <v>       0.51032696       0.00323126       0.33923679 </v>
    <v>       0.49664590       0.66495939       0.00138337 </v>
    <v>       0.52140189       0.33652483       0.66083860 </v>
    <v>       0.74284507       0.83993811       0.82529386 </v>
    <v>       0.50163692       0.66431275       0.31921184 </v>
    <v>       0.74315334       0.15919995       0.83641345 </v>
    <v>       0.02172326       0.98243492       0.00179203 </v>
    <v>       0.22576602       0.17453189       0.49649716 </v>
    <v>       0.26139362       0.17507282       0.83936813 </v>
    <v>       0.00609421       0.66533743       0.00436325 </v>
    <v>       0.50789514       0.33931091       0.33865275 </v>
    <v>       0.77524523       0.52030680       0.51250522 </v>
    <v>       0.48716217       0.66081126       0.67730865 </v>
    <v>       0.75632644       0.83074425       0.50879244 </v>
   </varray>
  </structure>
  <varray name="forces" >
   <v>      -0.00368880      -0.01824730      -0.01861785 </v>
   <v>       0.01038854      -0.00955947      -0.00631909 </v>
   <v>       0.01379920       0.00669541       0.01104825 </v>
   <v>      -0.00973289      -0.00719971       0.00247062 </v>
   <v>       0.00117358       0.00371812      -0.00787982 </v>
   <v>       0.01224800      -0.00188839       0.02259593 </v>
   <v>       0.00163375       0.00020329      -0.01124563 </v>
   <v>      -0.00063454       0.00688903       0.00491543 </v>
   <v>       0.00381581       0.00371237       0.00109087 </v>
   <v>       0.01428244       0.00513755      -0.00236486 </v>
   <v>      -0.00757059       0.01356156       0.01719631 </v>
   <v>      -0.00450859       0.00395400      -0.00471211 </v>
   <v>      -0.00711692      -0.00572219      -0.00297823 </v>
   <v>      -0.00212579       0.00231968      -0.00747294 </v>
   <v>      -0.00957725       0.00299647      -0.01173095 </v>
   <v>       0.00041577      -0.00380247       0.00078353 </v>
   <v>       0.00437548      -0.00687967      -0.00268802 </v>
   <v>      -0.00272336       0.01381729       0.02185700 </v>
   <v>       0.00107893       0.01610236      -0.00690658 </v>
   <v>       0.00528841      -0.00586325       0.00992941 </v>
   <v>       0.00596302       0.01376490       0.00213126 </v>
   <v>       0.00984491      -0.00299420      -0.00772121 </v>
   <v>      -0.01592849       0.01645307       0.00876043 </v>
   <v>      -0.00140476      -0.02727717      -0.00010590 </v>
   <v>       0.00142847      -0.00954423       0.00383000 </v>
   <v>       0.00809688       0.00776070      -0.00471647 </v>
   <v>      -0.00901822       0.01505667       0.00143272 </v>
   <v>       0.00003916      -0.00544944      -0.00368650 </v>
   <v>      -0.00642200      -0.00135892       0.00044336 </v>
   <v>      -0.01671745      -0.00282390       0.00739024 </v>
   <v>       0.00134421       0.00058956      -0.00982243 </v>
   <v>      -0.00365153       0.00235345      -0.00181178 </v>
   <v>      -0.00694542      -0.03437874      -0.01157357 </v>
   <v>       0.00510206      -0.00865136       0.00641406 </v>
   <v>       0.00121615       0.00954066       0.00154597 </v>
   <v>       0.00623183       0.00701425      -0.00148144 </v>
  </varray>
  <varray name="stress" >
   <v>      -0.64841809      -0.04104335      -0.00061535 </v>
   <v>      -0.04104332      -0.80322182      -0.06717759 </v>
   <v>      -0.00061543      -0.06717768      -0.57074526 </v>
  </varray>
  <energy>
   <i name="e_fr_energy">   -360.55243244 </i>
   <i name="e_wo_entrp">   -360.55711057 </i>
   <i name="e_0_energy">      0.01403441 </i>
  </energy>
  <time name="totalsc">    7.37    8.32</time>
 </calculation>
 <calculation>
  <scstep>
   <time name="dav">    0.89    0.93</time>
   <time name="total">    1.04    1.21</time>
   <energy>
    <i name="alphaZ">   1391.22116673 </i>
    <i name="ewald"> -17646.89915389 </i>
    <i name="hartreedc">  -5796.42498850 </i>
    <i name="XCdc">   -465.09774467 </i>
    <i name="pawpsdc">  32143.57587793 </i>
    <i name="pawaedc"> -30461.11185331 </i>
    <i name="eentropy">      0.01400234 </i>
    <i name="bandstr">  -2284.41403206 </i>
    <i name="atom">  22758.58424561 </i>
    <i name="e_fr_energy">   -360.55247982 </i>
    <i name="e_wo_entrp">   -360.56648216 </i>
    <i name="e_0_energy">   -360.55714727 </i>
   </energy>
  </scstep>
  <scstep>
   <time name="diag">    0.07    0.07</time>
   <time name="diis">    0.68    0.73</time>
   <time name="orth">    0.01    0.01</time>
   <time name="total">    0.82    0.91</time>
   <energy>
    <i name="e_fr_energy">   -360.55254153 </i>
    <i name="e_wo_entrp">   -360.56656747 </i>
    <i name="e_0_energy">   -360.55721684 </i>
   </energy>
  </scstep>
  <scstep>
   <time name="diag">    0.07    0.07</time>
   <time name="diis">    0.64    0.69</time>
   <time name="orth">    0.01    0.01</time>
   <time name="total">    0.78    0.87</time>
   <energy>
    <i name="e_fr_energy">   -360.55250613 </i>
    <i name="e_wo_entrp">   -360.56652889 </i>
    <i name="e_0_energy">   -360.55718038 </i>
   </energy>
  </scstep>
  <scstep>
   <time name="diag">    0.07    0.07</time>
   <time name="diis">    0.57    0.64</time>
   <time name="orth">    0.01    0.01</time>
   <time name="total">    0.69    0.79</time>
   <energy>
    <i name="alphaZ">   1391.22116673 </i>
    <i name="ewald"> -17646.89915389 </i>
    <i name="hartreedc">  -5795.73480121 </i>
    <i name="XCdc">   -465.12715887 </i>
    <i name="pawpsdc">  32153.40902785 </i>
    <i name="pawaedc"> -30470.92372737 </i>
    <i name="eentropy">      0.01400934 </i>
    <i name="bandstr">  -2285.09610565 </i>
    <i name="atom">  22758.58424561 </i>
    <i name="e_fr_energy">   -360.55249746 </i>
    <i name="e_wo_entrp">   -360.56650680 </i>
    <i name="e_0_energy">   -360.55716724 </i>
   </energy>
  </scstep>
  <structure>
   <crystal>
    <varray name="basis" >
     <v>       6.95930024       0.01075889       0.00238042 </v>
     <v>       0.01599923      10.29777572      -0.00536956 </v>
     <v>       0.00305029      -0.00574019      10.34691242 </v>
    </varray>
    <i name="volume">    741.51264650 </i>
    <varray name="rec_basis" >
     <v>       0.14369297      -0.00022327      -0.00004248 </v>
     <v>      -0.00015015       0.09710861       0.00005392 </v>
     <v>      -0.00003314       0.00005045       0.09664723 </v>
    </varray>
   </crystal>
   <varray name="positions" >
    <v>       0.99548880       0.34668906       0.99446299 </v>
    <v>       0.98348801      -0.00019888       0.33626469 </v>
    <v>       0.25299053       0.47864580       0.15108788 </v>
    <v>       0.97866428       0.33006698       0.67596608 </v>
    <v>       0.23863343       0.48900727       0.83277936 </v>
    <v>       0.23586036       0.84240446       0.20233962 </v>
    <v>       0.24616221       0.82950349       0.49164680 </v>
    <v>       0.48310969       0.00020346       0.65019061 </v>
    <v>       0.74147235       0.48463857       0.14719187 </v>
    <v>       0.76997307       0.15812389       0.50539463 </v>
    <v>       0.75981331       0.84627363       0.17066393 </v>
    <v>       0.02363744       0.67365141       0.68347025 </v>
    <v>       0.26461418       0.83207137       0.81706624 </v>
    <v>       0.50081282       0.35049095       0.99090539 </v>
    <v>       0.76210417       0.49977542       0.83639868 </v>
    <v>       0.74810441       0.16842710       0.15428742 </v>
    <v>       0.24729029       0.17718927       0.16162657 </v>
    <v>       0.02578925       0.99900202       0.66638916 </v>
    <v>       0.98070321       0.34082564       0.32702726 </v>
    <v>       0.22703538       0.50152039       0.51240132 </v>
    <v>       0.99653204       0.66062392       0.31466687 </v>
    <v>       0.47996776       0.97441405       0.01598911 </v>
    <v>       0.51029088       0.00334518       0.33925477 </v>
    <v>       0.49663425       0.66492756       0.00123500 </v>
    <v>       0.52142341       0.33653063       0.66083122 </v>
    <v>       0.74286682       0.83994753       0.82528375 </v>
    <v>       0.50172947       0.66434779       0.31932187 </v>
    <v>       0.74316612       0.15919479       0.83640894 </v>
    <v>       0.02172949       0.98243537       0.00181837 </v>
    <v>       0.22572029       0.17453265       0.49649468 </v>
    <v>       0.26138216       0.17509028       0.83936947 </v>
    <v>       0.00610946       0.66530726       0.00438063 </v>
    <v>       0.50790492       0.33915038       0.33867208 </v>
    <v>       0.77527452       0.52026353       0.51253981 </v>
    <v>       0.48716407       0.66081173       0.67735598 </v>
    <v>       0.75636514       0.83077503       0.50881971 </v>
   </varray>
  </structure>
  <varray name="forces" >
   <v>      -0.00450045      -0.02390707      -0.02216384 </v>
   <v>       0.01108923      -0.00954981      -0.00714616 </v>
   <v>       0.02180873       0.01367372       0.01821639 </v>
   <v>      -0.00936679      -0.00913490       0.00323942 </v>
   <v>       0.00199756       0.00562448      -0.00864863 </v>
   <v>       0.01511135      -0.00484466       0.02877991 </v>
   <v>       0.00663661      -0.00524878      -0.01967703 </v>
   <v>       0.00064574       0.00875024       0.00786432 </v>
   <v>       0.00014470       0.00996007       0.00619281 </v>
   <v>       0.01442281       0.00418296      -0.00229902 </v>
   <v>      -0.00968609       0.00878323       0.01731396 </v>
   <v>      -0.00760094       0.00494417      -0.00301777 </v>
   <v>      -0.00629139      -0.00770112      -0.00093502 </v>
   <v>      -0.00377484      -0.00268796      -0.01026219 </v>
   <v>      -0.01093374       0.00379636      -0.01170942 </v>
   <v>       0.00019100      -0.00678099       0.00150661 </v>
   <v>       0.00491648      -0.00916574      -0.00251919 </v>
   <v>      -0.00500762       0.01618978       0.02527416 </v>
   <v>       0.00047449       0.01612078      -0.00716202 </v>
   <v>       0.00984463      -0.00314729       0.00775126 </v>
   <v>       0.00600120       0.01585557       0.00316689 </v>
   <v>       0.01326907      -0.00159909      -0.00883516 </v>
   <v>      -0.01660067       0.00987298       0.00767170 </v>
   <v>      -0.00094231      -0.02670629       0.01135760 </v>
   <v>       0.00017456      -0.01159621       0.00462956 </v>
   <v>       0.00836463       0.00837264      -0.00393992 </v>
   <v>      -0.01490327       0.01488569      -0.00659727 </v>
   <v>      -0.00083536      -0.00660987      -0.00300044 </v>
   <v>      -0.00905886      -0.00114896      -0.00164326 </v>
   <v>      -0.01645442      -0.00243833       0.00815909 </v>
   <v>       0.00230145      -0.00139691      -0.01081982 </v>
   <v>      -0.00491129       0.00642456      -0.00336161 </v>
   <v>      -0.00812908      -0.02477984      -0.01401330 </v>
   <v>       0.00402798      -0.00533378       0.00369910 </v>
   <v>       0.00265559       0.01176631      -0.00299707 </v>
   <v>       0.00491931       0.00457403      -0.00407464 </v>
  </varray>
  <varray name="stress" >
   <v>      -0.44397894      -0.04437972      -0.00180478 </v>
   <v>      -0.04437971      -0.60401238      -0.05225784 </v>
   <v>      -0.00180477      -0.05225781      -0.35752103 </v>
  </varray>
  <energy>
   <i name="e_fr_energy">   -360.55249746 </i>
   <i name="e_wo_entrp">   -360.55716724 </i>
   <i name="e_0_energy">      0.01400934 </i>
  </energy>
  <time name="totalsc">    4.95    5.68</time>
 </calculation>
 <calculation>
  <scstep>
   <time name="dav">    1.01    1.02</time>
   <time name="total">    1.15    1.29</time>
   <energy>
    <i name="alphaZ">   1391.79297542 </i>
    <i name="ewald"> -17649.45342133 </i>
    <i name="hartreedc">  -5796.33779451 </i>
    <i name="XCdc">   -465.02291445 </i>
    <i name="pawpsdc">  32154.07238925 </i>
    <i name="pawaedc"> -30471.57759895 </i>
    <i name="eentropy">      0.01396466 </i>
    <i name="bandstr">  -2282.62483970 </i>
    <i name="atom">  22758.58424561 </i>
    <i name="e_fr_energy">   -360.55299400 </i>
    <i name="e_wo_entrp">   -360.56695867 </i>
    <i name="e_0_energy">   -360.55764889 </i>
   </energy>
  </scstep>
  <scstep>
   <time name="diag">    0.10    0.10</time>
   <time name="diis">    0.69    0.71</time>
   <time name="orth">    0.01    0.01</time>
   <time name="total">    0.87    0.92</time>
   <energy>
    <i name="e_fr_energy">   -360.55283497 </i>
    <i name="e_wo_entrp">   -360.56682319 </i>
    <i name="e_0_energy">   -360.55749771 </i>
   </energy>
  </scstep>
  <scstep>
   <time name="diag">    0.07    0.07</time>
   <time name="diis">    0.69    0.73</time>
   <time name="orth">    0.01    0.01</time>
   <time name="total">    0.83    0.91</time>
   <energy>
    <i name="e_fr_energy">   -360.55279169 </i>
    <i name="e_wo_entrp">   -360.56676983 </i>
    <i name="e_0_energy">   -360.55745107 </i>
   </energy>
  </scstep>
  <scstep>
   <time name="diag">    0.07    0.07</time>
   <time name="diis">    0.61    0.62</time>
   <time name="orth">    0.01    0.01</time>
   <time name="total">    0.76    0.80</time>
   <energy>
    <i name="e_fr_energy">   -360.55274322 </i>
    <i name="e_wo_entrp">   -360.56671110 </i>
    <i name="e_0_energy">   -360.55739918 </i>
   </energy>
  </scstep>
  <scstep>
   <time name="diag">    0.07    0.08</time>
   <time name="diis">    0.33    0.35</time>
   <time name="orth">    0.01    0.01</time>
   <time name="total">    0.44    0.53</time>
   <energy>
    <i name="alphaZ">   1391.79297542 </i>
    <i name="ewald"> -17649.45342133 </i>
    <i name="hartreedc">  -5794.83316350 </i>
[...]
       <r>    6.3962    1.0000 </r>
       <r>    6.4405    1.0000 </r>
       <r>    6.4755    1.0000 </r>
       <r>    6.5411    1.0000 </r>
       <r>    6.5641    1.0000 </r>
       <r>    6.5845    1.0000 </r>
       <r>    6.6214    1.0000 </r>
       <r>    6.6611    1.0000 </r>
       <r>    6.6930    1.0000 </r>
       <r>    6.7521    1.0002 </r>
       <r>    6.7882    1.0008 </r>
       <r>    6.8015    1.0012 </r>
       <r>    6.8720    1.0075 </r>
       <r>    6.8937    1.0118 </r>
       <r>    6.9237    1.0197 </r>
       <r>    6.9497    1.0276 </r>
       <r>    6.9861    1.0353 </r>
       <r>    7.0367    1.0147 </r>
       <r>    7.0717    0.9551 </r>
       <r>    7.0856    0.9173 </r>
       <r>    7.1255    0.7616 </r>
       <r>    7.1656    0.5515 </r>
       <r>    7.1975    0.3733 </r>
       <r>    7.2372    0.1790 </r>
       <r>    7.3046   -0.0051 </r>
       <r>    7.3356   -0.0311 </r>
       <r>    7.3805   -0.0327 </r>
       <r>    7.4227   -0.0206 </r>
       <r>    7.4594   -0.0110 </r>
       <r>    7.4963   -0.0049 </r>
       <r>    7.5326   -0.0019 </r>
       <r>    7.5531   -0.0010 </r>
       <r>    7.6001   -0.0002 </r>
       <r>    7.6212   -0.0001 </r>
       <r>    7.6458   -0.0000 </r>
       <r>    7.7219   -0.0000 </r>
       <r>    7.7424   -0.0000 </r>
       <r>    7.7767   -0.0000 </r>
       <r>    7.8206   -0.0000 </r>
       <r>    7.9028   -0.0000 </r>
       <r>    7.9442   -0.0000 </r>
       <r>    7.9971   -0.0000 </r>
       <r>    8.0304   -0.0000 </r>
       <r>    8.0633   -0.0000 </r>
       <r>    8.1244   -0.0000 </r>
       <r>    8.3545   -0.0000 </r>
       <r>    8.4502   -0.0000 </r>
       <r>    8.5841   -0.0000 </r>
       <r>    9.0410   -0.0000 </r>
      </set>
     </set>
    </set>
   </array>
  </eigenvalues>
  <separator name="orbital magnetization" >
   <v name="MAGDIPOLOUT">      0.00000000      0.00000000      0.00000000</v>
  </separator>
  <dos>
   <i name="efermi">      7.17471143 </i>
   <total>
    <array>
     <dimension dim="1">gridpoints</dimension>
     <dimension dim="2">spin</dimension>
     <field>energy</field>
     <field>total</field>
     <field>integrated</field>
     <set>
      <set comment="spin 1">
       <r>   -49.8810     0.0000     0.0000 </r>
       <r>   -49.6751     0.0000     0.0000 </r>
       <r>   -49.4692     0.0000     0.0000 </r>
       <r>   -49.2633     0.0000     0.0000 </r>
       <r>   -49.0575     0.0000     0.0000 </r>
       <r>   -48.8516     0.0000     0.0000 </r>
       <r>   -48.6457     0.0000     0.0000 </r>
       <r>   -48.4398    -0.0000    -0.0000 </r>
       <r>   -48.2340    -0.0000    -0.0000 </r>
       <r>   -48.0281    -0.0000    -0.0000 </r>
       <r>   -47.8222    -0.0000    -0.0000 </r>
       <r>   -47.6163    -0.0000    -0.0000 </r>
       <r>   -47.4105    -0.0354    -0.0073 </r>
       <r>   -47.2046    -0.5008    -0.1104 </r>
       <r>   -46.9987    14.4418     2.8628 </r>
       <r>   -46.7929    32.8972     9.6355 </r>
       <r>   -46.5870     2.0225    10.0518 </r>
       <r>   -46.3811    -0.2514    10.0001 </r>
       <r>   -46.1752    -0.0004    10.0000 </r>
       <r>   -45.9694    -0.0000    10.0000 </r>
       <r>   -45.7635    -0.0000    10.0000 </r>
       <r>   -45.5576     0.0000    10.0000 </r>
       <r>   -45.3517     0.0000    10.0000 </r>
       <r>   -45.1459     0.0000    10.0000 </r>
       <r>   -44.9400     0.0000    10.0000 </r>
       <r>   -44.7341     0.0000    10.0000 </r>
       <r>   -44.5282     0.0000    10.0000 </r>
       <r>   -44.3224     0.0000    10.0000 </r>
       <r>   -44.1165     0.0000    10.0000 </r>
       <r>   -43.9106     0.0000    10.0000 </r>
       <r>   -43.7047     0.0000    10.0000 </r>
       <r>   -43.4989     0.0000    10.0000 </r>
       <r>   -43.2930     0.0000    10.0000 </r>
       <r>   -43.0871     0.0000    10.0000 </r>
       <r>   -42.8813     0.0000    10.0000 </r>
       <r>   -42.6754     0.0000    10.0000 </r>
       <r>   -42.4695    -0.0000    10.0000 </r>
       <r>   -42.2636    -0.0000    10.0000 </r>
       <r>   -42.0578    -0.0000    10.0000 </r>
       <r>   -41.8519    -0.0000    10.0000 </r>
       <r>   -41.6460    -0.0001    10.0000 </r>
       <r>   -41.4401    -0.1128     9.9768 </r>
       <r>   -41.2343    -1.2650     9.7163 </r>
       <r>   -41.0284    43.9755    18.7697 </r>
       <r>   -40.8225    51.9637    29.4676 </r>
       <r>   -40.6166     2.9799    30.0811 </r>
       <r>   -40.4108    -0.3920    30.0004 </r>
       <r>   -40.2049    -0.0020    30.0000 </r>
       <r>   -39.9990    -0.0000    30.0000 </r>
       <r>   -39.7932    -0.0000    30.0000 </r>
       <r>   -39.5873     0.0000    30.0000 </r>
       <r>   -39.3814     0.0000    30.0000 </r>
       <r>   -39.1755     0.0000    30.0000 </r>
       <r>   -38.9697     0.0000    30.0000 </r>
       <r>   -38.7638     0.0000    30.0000 </r>
       <r>   -38.5579     0.0000    30.0000 </r>
       <r>   -38.3520     0.0000    30.0000 </r>
       <r>   -38.1462     0.0000    30.0000 </r>
       <r>   -37.9403     0.0000    30.0000 </r>
       <r>   -37.7344     0.0000    30.0000 </r>
       <r>   -37.5285     0.0000    30.0000 </r>
       <r>   -37.3227     0.0000    30.0000 </r>
       <r>   -37.1168     0.0000    30.0000 </r>
       <r>   -36.9109     0.0000    30.0000 </r>
       <r>   -36.7051     0.0000    30.0000 </r>
       <r>   -36.4992     0.0000    30.0000 </r>
       <r>   -36.2933     0.0000    30.0000 </r>
       <r>   -36.0874     0.0000    30.0000 </r>
       <r>   -35.8816     0.0000    30.0000 </r>
       <r>   -35.6757     0.0000    30.0000 </r>
       <r>   -35.4698     0.0000    30.0000 </r>
       <r>   -35.2639     0.0000    30.0000 </r>
       <r>   -35.0581     0.0000    30.0000 </r>
       <r>   -34.8522     0.0000    30.0000 </r>
       <r>   -34.6463     0.0000    30.0000 </r>
       <r>   -34.4404     0.0000    30.0000 </r>
       <r>   -34.2346     0.0000    30.0000 </r>
       <r>   -34.0287     0.0000    30.0000 </r>
       <r>   -33.8228     0.0000    30.0000 </r>
       <r>   -33.6170     0.0000    30.0000 </r>
       <r>   -33.4111     0.0000    30.0000 </r>
       <r>   -33.2052     0.0000    30.0000 </r>
       <r>   -32.9993     0.0000    30.0000 </r>
       <r>   -32.7935     0.0000    30.0000 </r>
       <r>   -32.5876     0.0000    30.0000 </r>
       <r>   -32.3817     0.0000    30.0000 </r>
       <r>   -32.1758     0.0000    30.0000 </r>
       <r>   -31.9700     0.0000    30.0000 </r>
       <r>   -31.7641     0.0000    30.0000 </r>
       <r>   -31.5582     0.0000    30.0000 </r>
       <r>   -31.3523     0.0000    30.0000 </r>
       <r>   -31.1465     0.0000    30.0000 </r>
       <r>   -30.9406     0.0000    30.0000 </r>
       <r>   -30.7347     0.0000    30.0000 </r>
       <r>   -30.5289     0.0000    30.0000 </r>
       <r>   -30.3230     0.0000    30.0000 </r>
       <r>   -30.1171     0.0000    30.0000 </r>
       <r>   -29.9112     0.0000    30.0000 </r>
       <r>   -29.7054     0.0000    30.0000 </r>
       <r>   -29.4995     0.0000    30.0000 </r>
       <r>   -29.2936     0.0000    30.0000 </r>
       <r>   -29.0877     0.0000    30.0000 </r>
       <r>   -28.8819     0.0000    30.0000 </r>
       <r>   -28.6760     0.0000    30.0000 </r>
       <r>   -28.4701     0.0000    30.0000 </r>
       <r>   -28.2642     0.0000    30.0000 </r>
       <r>   -28.0584     0.0000    30.0000 </r>
       <r>   -27.8525     0.0000    30.0000 </r>
       <r>   -27.6466     0.0000    30.0000 </r>
       <r>   -27.4407     0.0000    30.0000 </r>
       <r>   -27.2349     0.0000    30.0000 </r>
       <r>   -27.0290     0.0000    30.0000 </r>
       <r>   -26.8231     0.0000    30.0000 </r>
       <r>   -26.6173     0.0000    30.0000 </r>
       <r>   -26.4114     0.0000    30.0000 </r>
       <r>   -26.2055     0.0000    30.0000 </r>
       <r>   -25.9996     0.0000    30.0000 </r>
       <r>   -25.7938     0.0000    30.0000 </r>
       <r>   -25.5879     0.0000    30.0000 </r>
       <r>   -25.3820     0.0000    30.0000 </r>
       <r>   -25.1761     0.0000    30.0000 </r>
       <r>   -24.9703     0.0000    30.0000 </r>
       <r>   -24.7644    -0.0000    30.0000 </r>
       <r>   -24.5585    -0.0000    30.0000 </r>
       <r>   -24.3526    -0.0000    30.0000 </r>
       <r>   -24.1468    -0.0000    30.0000 </r>
       <r>   -23.9409    -0.0004    29.9999 </r>
       <r>   -23.7350    -0.1593    29.9671 </r>
       <r>   -23.5292     1.5295    30.2820 </r>
       <r>   -23.3233    14.3860    33.2437 </r>
       <r>   -23.1174    38.6728    41.2054 </r>
       <r>   -22.9115    73.1527    56.2656 </r>
       <r>   -22.7057    15.4033    59.4367 </r>
       <r>   -22.4998     2.9960    60.0535 </r>
       <r>   -22.2939    -0.2588    60.0003 </r>
       <r>   -22.0880    -0.0012    60.0000 </r>
       <r>   -21.8822    -0.0000    60.0000 </r>
       <r>   -21.6763    -0.0000    60.0000 </r>
       <r>   -21.4704     0.0000    60.0000 </r>
       <r>   -21.2645     0.0000    60.0000 </r>
       <r>   -21.0587     0.0000    60.0000 </r>
       <r>   -20.8528     0.0000    60.0000 </r>
       <r>   -20.6469    -0.0000    60.0000 </r>
       <r>   -20.4411    -0.0000    60.0000 </r>
       <r>   -20.2352    -0.0000    60.0000 </r>
       <r>   -20.0293    -0.0000    60.0000 </r>
       <r>   -19.8234    -0.0042    59.9991 </r>
       <r>   -19.6176    -0.7161    59.8517 </r>
       <r>   -19.4117     5.9863    61.0841 </r>
       <r>   -19.2058    84.9987    78.5831 </r>
       <r>   -18.9999   126.6196   104.6507 </r>
       <r>   -18.7941    69.6054   118.9806 </r>
       <r>   -18.5882     5.5741   120.1282 </r>
       <r>   -18.3823    -0.6179   120.0010 </r>
       <r>   -18.1764    -0.0047   120.0000 </r>
       <r>   -17.9706    -0.0000   120.0000 </r>
       <r>   -17.7647    -0.0000   120.0000 </r>
       <r>   -17.5588     0.0000   120.0000 </r>
       <r>   -17.3530     0.0000   120.0000 </r>
       <r>   -17.1471     0.0000   120.0000 </r>
       <r>   -16.9412     0.0000   120.0000 </r>
       <r>   -16.7353     0.0000   120.0000 </r>
       <r>   -16.5295     0.0000   120.0000 </r>
       <r>   -16.3236     0.0000   120.0000 </r>
       <r>   -16.1177     0.0000   120.0000 </r>
       <r>   -15.9118     0.0000   120.0000 </r>
       <r>   -15.7060     0.0000   120.0000 </r>
       <r>   -15.5001     0.0000   120.0000 </r>
       <r>   -15.2942     0.0000   120.0000 </r>
       <r>   -15.0883     0.0000   120.0000 </r>
       <r>   -14.8825     0.0000   120.0000 </r>
       <r>   -14.6766     0.0000   120.0000 </r>
       <r>   -14.4707     0.0000   120.0000 </r>
       <r>   -14.2648     0.0000   120.0000 </r>
       <r>   -14.0590     0.0000   120.0000 </r>
       <r>   -13.8531     0.0000   120.0000 </r>
       <r>   -13.6472     0.0000   120.0000 </r>
       <r>   -13.4414     0.0000   120.0000 </r>
       <r>   -13.2355     0.0000   120.0000 </r>
       <r>   -13.0296     0.0000   120.0000 </r>
       <r>   -12.8237     0.0000   120.0000 </r>
       <r>   -12.6179     0.0000   120.0000 </r>
       <r>   -12.4120     0.0000   120.0000 </r>
       <r>   -12.2061     0.0000   120.0000 </r>
       <r>   -12.0002     0.0000   120.0000 </r>
       <r>   -11.7944     0.0000   120.0000 </r>
       <r>   -11.5885     0.0000   120.0000 </r>
       <r>   -11.3826     0.0000   120.0000 </r>
       <r>   -11.1767     0.0000   120.0000 </r>
       <r>   -10.9709     0.0000   120.0000 </r>
       <r>   -10.7650     0.0000   120.0000 </r>
       <r>   -10.5591     0.0000   120.0000 </r>
       <r>   -10.3533     0.0000   120.0000 </r>
       <r>   -10.1474     0.0000   120.0000 </r>
       <r>    -9.9415     0.0000   120.0000 </r>
       <r>    -9.7356     0.0000   120.0000 </r>
       <r>    -9.5298     0.0000   120.0000 </r>
       <r>    -9.3239     0.0000   120.0000 </r>
       <r>    -9.1180     0.0000   120.0000 </r>
       <r>    -8.9121     0.0000   120.0000 </r>
       <r>    -8.7063     0.0000   120.0000 </r>
       <r>    -8.5004     0.0000   120.0000 </r>
       <r>    -8.2945     0.0000   120.0000 </r>
       <r>    -8.0886     0.0000   120.0000 </r>
       <r>    -7.8828     0.0000   120.0000 </r>
       <r>    -7.6769     0.0000   120.0000 </r>
       <r>    -7.4710     0.0000   120.0000 </r>
       <r>    -7.2652     0.0000   120.0000 </r>
       <r>    -7.0593     0.0000   120.0000 </r>
       <r>    -6.8534     0.0000   120.0000 </r>
       <r>    -6.6475     0.0000   120.0000 </r>
       <r>    -6.4417     0.0000   120.0000 </r>
       <r>    -6.2358     0.0000   120.0000 </r>
       <r>    -6.0299     0.0000   120.0000 </r>
       <r>    -5.8240     0.0000   120.0000 </r>
       <r>    -5.6182     0.0000   120.0000 </r>
       <r>    -5.4123     0.0000   120.0000 </r>
       <r>    -5.2064     0.0000   120.0000 </r>
       <r>    -5.0005     0.0000   120.0000 </r>
       <r>    -4.7947     0.0000   120.0000 </r>
       <r>    -4.5888     0.0000   120.0000 </r>
       <r>    -4.3829     0.0000   120.0000 </r>
       <r>    -4.1771     0.0000   120.0000 </r>
       <r>    -3.9712     0.0000   120.0000 </r>
       <r>    -3.7653     0.0000   120.0000 </r>
       <r>    -3.5594     0.0000   120.0000 </r>
       <r>    -3.3536     0.0000   120.0000 </r>
       <r>    -3.1477     0.0000   120.0000 </r>
       <r>    -2.9418     0.0000   120.0000 </r>
       <r>    -2.7359     0.0000   120.0000 </r>
       <r>    -2.5301     0.0000   120.0000 </r>
       <r>    -2.3242     0.0000   120.0000 </r>
       <r>    -2.1183     0.0000   120.0000 </r>
       <r>    -1.9124     0.0000   120.0000 </r>
       <r>    -1.7066     0.0000   120.0000 </r>
       <r>    -1.5007     0.0000   120.0000 </r>
       <r>    -1.2948     0.0000   120.0000 </r>
       <r>    -1.0889     0.0000   120.0000 </r>
       <r>    -0.8831    -0.0000   120.0000 </r>
       <r>    -0.6772    -0.0000   120.0000 </r>
       <r>    -0.4713    -0.0000   120.0000 </r>
       <r>    -0.2655    -0.0000   120.0000 </r>
       <r>    -0.0596    -0.0000   120.0000 </r>
       <r>     0.1463    -0.0059   119.9988 </r>
       <r>     0.3522     0.0637   120.0119 </r>
       <r>     0.5580     0.4638   120.1074 </r>
       <r>     0.7639     1.3740   120.3903 </r>
       <r>     0.9698     1.8320   120.7674 </r>
       <r>     1.1757     2.4811   121.2782 </r>
       <r>     1.3815     4.8275   122.2721 </r>
       <r>     1.5874     1.8830   122.6597 </r>
       <r>     1.7933     4.7816   123.6441 </r>
       <r>     1.9992     3.3501   124.3338 </r>
       <r>     2.2050     3.9246   125.1418 </r>
       <r>     2.4109     5.6301   126.3009 </r>
       <r>     2.6168     7.4615   127.8370 </r>
       <r>     2.8226     8.6867   129.6253 </r>
       <r>     3.0285     7.2219   131.1121 </r>
       <r>     3.2344     8.6983   132.9029 </r>
       <r>     3.4403    10.3824   135.0403 </r>
       <r>     3.6461    18.1123   138.7692 </r>
       <r>     3.8520    21.7240   143.2416 </r>
       <r>     4.0579    23.8855   148.1590 </r>
       <r>     4.2638    29.3466   154.2006 </r>
       <r>     4.4696    32.1487   160.8192 </r>
       <r>     4.6755    38.0107   168.6446 </r>
       <r>     4.8814    38.0017   176.4681 </r>
       <r>     5.0873    36.4122   183.9644 </r>
       <r>     5.2931    33.6662   190.8954 </r>
       <r>     5.4990    33.3221   197.7555 </r>
       <r>     5.7049    17.4242   201.3427 </r>
       <r>     5.9107    37.2258   209.0065 </r>
       <r>     6.1166    60.2600   221.4125 </r>
       <r>     6.3225    57.9593   233.3448 </r>
       <r>     6.5284    55.1042   244.6892 </r>
       <r>     6.7342    53.2890   255.6600 </r>
       <r>     6.9401    57.0610   267.4074 </r>
       <r>     7.1460    49.9534   277.6915 </r>
       <r>     7.3519    44.1520   286.7812 </r>
       <r>     7.5577    49.6454   297.0019 </r>
       <r>     7.7636    47.1883   306.7167 </r>
       <r>     7.9695    37.9280   314.5250 </r>
       <r>     8.1754    32.0712   321.1276 </r>
       <r>     8.3812    24.8977   326.2534 </r>
       <r>     8.5871    20.5872   330.4918 </r>
       <r>     8.7930    12.9775   333.1635 </r>
       <r>     8.9988    10.9790   335.4238 </r>
       <r>     9.2047     2.9752   336.0363 </r>
       <r>     9.4106    -0.1718   336.0009 </r>
       <r>     9.6165    -0.0045   336.0000 </r>
       <r>     9.8223    -0.0000   336.0000 </r>
       <r>    10.0282    -0.0000   336.0000 </r>
       <r>    10.2341     0.0000   336.0000 </r>
       <r>    10.4400     0.0000   336.0000 </r>
       <r>    10.6458     0.0000   336.0000 </r>
       <r>    10.8517     0.0000   336.0000 </r>
       <r>    11.0576     0.0000   336.0000 </r>
       <r>    11.2635     0.0000   336.0000 </r>
       <r>    11.4693     0.0000   336.0000 </r>
       <r>    11.6752     0.0000   336.0000 </r>
       <r>    11.8811     0.0000   336.0000 </r>
      </set>
     </set>
    </array>
   </total>
  </dos>
 </calculation>
 <structure name="finalpos" >
  <crystal>
   <varray name="basis" >
    <v>       6.96039560       0.00975272       0.00171931 </v>
    <v>       0.01452129      10.29254421      -0.00467254 </v>
    <v>       0.00206729      -0.00503388      10.34874127 </v>
   </varray>
   <i name="volume">    741.38401565 </i>
   <varray name="rec_basis" >
    <v>       0.14367029      -0.00020271      -0.00002880 </v>
    <v>      -0.00013615       0.09715792       0.00004729 </v>
    <v>      -0.00002393       0.00004390       0.09663014 </v>
   </varray>
  </crystal>
  <varray name="positions" >
   <v>       0.99553164       0.34644527       0.99407634 </v>
   <v>       0.98452191      -0.00082065       0.33598644 </v>
   <v>       0.25385098       0.47877029       0.15090643 </v>
   <v>       0.97801582       0.33024790       0.67633443 </v>
   <v>       0.23854806       0.48943026       0.83240072 </v>
   <v>       0.23733799       0.84237810       0.20244219 </v>
   <v>       0.24608246       0.82969793       0.49173753 </v>
   <v>       0.48305702       0.00055793       0.65061376 </v>
   <v>       0.74114560       0.48456490       0.14705599 </v>
   <v>       0.77167446       0.15852881       0.50495783 </v>
   <v>       0.75888046       0.84676385       0.17193680 </v>
   <v>       0.02324470       0.67357390       0.68305493 </v>
   <v>       0.26353927       0.83155765       0.81724070 </v>
   <v>       0.50077498       0.35052569       0.99064042 </v>
   <v>       0.76156177       0.49980171       0.83604527 </v>
   <v>       0.74885466       0.16797170       0.15442609 </v>
   <v>       0.24721715       0.17689640       0.16101966 </v>
   <v>       0.02565431       0.99912215       0.66719177 </v>
   <v>       0.98151146       0.34196696       0.32614334 </v>
   <v>       0.22754332       0.50134742       0.51263889 </v>
   <v>       0.99676350       0.66121933       0.31491366 </v>
   <v>       0.48056612       0.97389227       0.01560162 </v>
   <v>       0.50935924       0.00465112       0.33995824 </v>
   <v>       0.49661536       0.66448120       0.00119769 </v>
   <v>       0.52150575       0.33568466       0.66065178 </v>
   <v>       0.74330314       0.84011620       0.82491448 </v>
   <v>       0.50178092       0.66460895       0.31949866 </v>
   <v>       0.74274797       0.15876060       0.83671902 </v>
   <v>       0.02124497       0.98193131       0.00221714 </v>
   <v>       0.22384085       0.17470627       0.49693496 </v>
   <v>       0.26163914       0.17499079       0.83943312 </v>
   <v>       0.00572171       0.66524493       0.00454207 </v>
   <v>       0.50764452       0.33768687       0.33830701 </v>
   <v>       0.77502002       0.51989154       0.51244326 </v>
   <v>       0.48713819       0.66156689       0.67719208 </v>
   <v>       0.75656855       0.83124790       0.50862867 </v>
  </varray>
 </structure>
</modeling>
