 vasp.5.4.1 05Feb16 (build Jan 29 2020 16:04:39) complex                        
  
 executed on           IFC91_ompi date 2020.06.08  01:45:20
 running on  160 total cores
 distrk:  each k-point on   20 cores,    8 groups
 distr:  one band on NCORES_PER_BAND=   5 cores,    4 groups


--------------------------------------------------------------------------------------------------------


 INCAR:
 POTCAR:    PAW_PBE Ta 17Jan2003                  
 POTCAR:    PAW_PBE Zr_sv 04Jan2005               
 POTCAR:    PAW_PBE Nb_sv 25May2007               
 POTCAR:    PAW_PBE Hf 20Jan2003                  

 ----------------------------------------------------------------------------- 
|                                                                             |
|           W    W    AA    RRRRR   N    N  II  N    N   GGGG   !!!           |
|           W    W   A  A   R    R  NN   N  II  NN   N  G    G  !!!           |
|           W    W  A    A  R    R  N N  N  II  N N  N  G       !!!           |
|           W WW W  AAAAAA  RRRRR   N  N N  II  N  N N  G  GGG   !            |
|           WW  WW  A    A  R   R   N   NN  II  N   NN  G    G                |
|           W    W  A    A  R    R  N    N  II  N    N   GGGG   !!!           |
|                                                                             |
|      For optimal performance we recommend to set                            |
|        NCORE= 4 - approx SQRT( number of cores)                             |
|      NCORE specifies how many cores store one orbital (NPAR=cpu/NCORE).     |
|      This setting can  greatly improve the performance of VASP for DFT.     |
|      The default, NPAR=number of cores might be grossly inefficient         |
|      on modern multi-core architectures or massively parallel machines.     |
|      Do your own testing !!!!                                               |
|      Unfortunately you need to use the default for GW and RPA calculations. |
|      (for HF NCORE is supported but not extensively tested yet)             |
|                                                                             |
 ----------------------------------------------------------------------------- 


 ----------------------------------------------------------------------------- 
|                                                                             |
|           W    W    AA    RRRRR   N    N  II  N    N   GGGG   !!!           |
|           W    W   A  A   R    R  NN   N  II  NN   N  G    G  !!!           |
|           W    W  A    A  R    R  N N  N  II  N N  N  G       !!!           |
|           W WW W  AAAAAA  RRRRR   N  N N  II  N  N N  G  GGG   !            |
|           WW  WW  A    A  R   R   N   NN  II  N   NN  G    G                |
|           W    W  A    A  R    R  N    N  II  N    N   GGGG   !!!           |
|                                                                             |
|      You have enabled k-point parallelism (KPAR>1).                         |
|      This developmental code was originally  written by Paul Kent at ORNL,  |
|      and carefully double checked in Vienna.                                |
|      GW as well as linear response parallelism added by Martijn Marsman     |
|      and Georg Kresse.                                                      |
|      Carefully verify results versus KPAR=1.                                |
|      Report problems to Paul Kent and Vienna.                               |
|                                                                             |
 ----------------------------------------------------------------------------- 

 POTCAR:    PAW_PBE Ta 17Jan2003                  
   VRHFIN =Ta:  6s5d                                                            
   LEXCH  = PE                                                                  
   EATOM  =   130.6506 eV,    9.6025 Ry                                         
                                                                                
   TITEL  = PAW_PBE Ta 17Jan2003                                                
   LULTRA =        F    use ultrasoft PP ?                                      
   IUNSCR =        1    unscreen: 0-lin 1-nonlin 2-no                           
   RPACOR =    2.330    partial core radius                                     
   POMASS =  180.948; ZVAL   =    5.000    mass and valenz                      
   RCORE  =    2.900    outmost cutoff radius                                   
   RWIGS  =    2.840; RWIGS  =    1.503    wigner-seitz radius (au A)           
   ENMAX  =  223.667; ENMIN  =  167.750 eV                                      
   RCLOC  =    2.205    cutoff for local pot                                    
   LCOR   =        T    correct aug charges                                     
   LPAW   =        T    paw PP                                                  
   EAUG   =  332.075                                                            
   DEXC   =    0.000                                                            
   RMAX   =    2.970    core radius for proj-oper                               
   RAUG   =    1.300    factor for augmentation sphere                          
   RDEP   =    3.060    radius for radial grids                                 
   RDEPT  =    2.354    core radius for aug-charge                              
                                                                                
   Atomic configuration                                                         
   16 entries                                                                   
     n  l   j            E        occ.                                          
     1  0  0.50    -67341.2807   2.0000                                         
     2  0  0.50    -11566.9376   2.0000                                         
     2  1  1.50    -10134.1182   6.0000                                         
     3  0  0.50     -2648.5620   2.0000                                         
     3  1  1.50     -2222.6012   6.0000                                         
     3  2  2.50     -1726.3120  10.0000                                         
     4  0  0.50      -538.6961   2.0000                                         
     4  1  1.50      -399.0129   6.0000                                         
     4  2  2.50      -220.3959  10.0000                                         
     4  3  3.50       -23.0374  14.0000                                         
     5  0  0.50       -71.2901   2.0000                                         
     5  1  1.50       -37.8225   6.0000                                         
     5  2  2.50        -2.6455   4.0000                                         
     6  0  0.50        -4.9623   1.0000                                         
     6  1  1.50        -1.3606   0.0000                                         
     5  3  2.50        -1.3606   0.0000                                         
   Description                                                                  
     l       E           TYP  RCUT    TYP  RCUT                                 
     2     -2.6455043     23  2.500                                             
     2     -0.6258895     23  2.500                                             
     0     -4.9622780     23  2.500                                             
     0      4.7531321     23  2.500                                             
     1     -1.3605826     23  2.900                                             
     1     27.2116520     23  2.900                                             
  local pseudopotential read in
  partial core-charges read in
  partial kinetic energy density read in
  atomic valenz-charges read in
  non local Contribution for L=           2  read in
    real space projection operators read in
  non local Contribution for L=           2  read in
    real space projection operators read in
  non local Contribution for L=           0  read in
    real space projection operators read in
  non local Contribution for L=           0  read in
    real space projection operators read in
  non local Contribution for L=           1  read in
    real space projection operators read in
  non local Contribution for L=           1  read in
    real space projection operators read in
    PAW grid and wavefunctions read in
 
   number of l-projection  operators is LMAX  =           6
   number of lm-projection operators is LMMAX =          18
 
 POTCAR:    PAW_PBE Zr_sv 04Jan2005               
   VRHFIN =Zr: 4s4p5s4d                                                         
   LEXCH  = PE                                                                  
   EATOM  =  1284.2219 eV,   94.3876 Ry                                         
                                                                                
   TITEL  = PAW_PBE Zr_sv 04Jan2005                                             
   LULTRA =        F    use ultrasoft PP ?                                      
   IUNSCR =        1    unscreen: 0-lin 1-nonlin 2-no                           
   RPACOR =    2.200    partial core radius                                     
   POMASS =   91.224; ZVAL   =   12.000    mass and valenz                      
   RCORE  =    2.500    outmost cutoff radius                                   
   RWIGS  =    3.070; RWIGS  =    1.625    wigner-seitz radius (au A)           
   ENMAX  =  229.898; ENMIN  =  172.424 eV                                      
   ICORE  =        3    local potential                                         
   LCOR   =        T    correct aug charges                                     
   LPAW   =        T    paw PP                                                  
   EAUG   =  461.257                                                            
   DEXC   =    0.000                                                            
   RMAX   =    2.561    core radius for proj-oper                               
   RAUG   =    1.300    factor for augmentation sphere                          
   RDEP   =    2.597    radius for radial grids                                 
   RDEPT  =    2.007    core radius for aug-charge                              
                                                                                
   Atomic configuration                                                         
   11 entries                                                                   
     n  l   j            E        occ.                                          
     1  0  0.50    -17820.0161   2.0000                                         
     2  0  0.50     -2467.0882   2.0000                                         
     2  1  1.50     -2199.6095   6.0000                                         
     3  0  0.50      -402.4863   2.0000                                         
     3  1  1.50      -315.3675   6.0000                                         
     3  2  2.50      -172.4472  10.0000                                         
     4  0  0.50       -52.4146   2.0000                                         
     5  0  0.50        -3.8421   1.0000                                         
     4  1  1.50       -30.5054   6.0000                                         
     4  2  2.50        -2.3341   3.0000                                         
     4  3  2.50        -1.3606   0.0000                                         
   Description                                                                  
     l       E           TYP  RCUT    TYP  RCUT                                 
     0    -52.4145962     23  2.200                                             
     0     -3.8421270     23  2.500                                             
     1    -30.5053914     23  2.200                                             
     1     20.4087390     23  2.200                                             
     2     -2.3340816     23  2.500                                             
     2     -0.6120942     23  2.500                                             
     3     -4.0817478     23  2.500                                             
  local pseudopotential read in
  partial core-charges read in
  partial kinetic energy density read in
  atomic valenz-charges read in
  non local Contribution for L=           0  read in
    real space projection operators read in
  non local Contribution for L=           0  read in
    real space projection operators read in
  non local Contribution for L=           1  read in
    real space projection operators read in
  non local Contribution for L=           1  read in
    real space projection operators read in
  non local Contribution for L=           2  read in
    real space projection operators read in
  non local Contribution for L=           2  read in
    real space projection operators read in
    PAW grid and wavefunctions read in
 
   number of l-projection  operators is LMAX  =           6
   number of lm-projection operators is LMMAX =          18
 
 POTCAR:    PAW_PBE Nb_sv 25May2007               
   VRHFIN =Nb: 4p5s4d                                                           
   LEXCH  = PE                                                                  
   EATOM  =  1555.1913 eV,  114.3033 Ry                                         
                                                                                
   TITEL  = PAW_PBE Nb_sv 25May2007                                             
   LULTRA =        F    use ultrasoft PP ?                                      
   IUNSCR =        1    unscreen: 0-lin 1-nonlin 2-no                           
   RPACOR =    1.800    partial core radius                                     
   POMASS =   92.910; ZVAL   =   13.000    mass and valenz                      
   RCORE  =    2.400    outmost cutoff radius                                   
   RWIGS  =    2.400; RWIGS  =    1.270    wigner-seitz radius (au A)           
   ENMAX  =  293.235; ENMIN  =  219.927 eV                                      
   ICORE  =        3    local potential                                         
   LCOR   =        T    correct aug charges                                     
   LPAW   =        T    paw PP                                                  
   EAUG   =  455.659                                                            
   DEXC   =    0.000                                                            
   RMAX   =    2.456    core radius for proj-oper                               
   RAUG   =    1.300    factor for augmentation sphere                          
   RDEP   =    2.451    radius for radial grids                                 
   RDEPT  =    1.956    core radius for aug-charge                              
                                                                                
   Atomic configuration                                                         
   11 entries                                                                   
     n  l   j            E        occ.                                          
     1  0  0.50    -18805.2457   2.0000                                         
     2  0  0.50     -2630.2869   2.0000                                         
     2  1  1.50     -2348.4046   6.0000                                         
     3  0  0.50      -438.8757   2.0000                                         
     3  1  1.50      -346.7588   6.0000                                         
     3  2  2.50      -196.2560  10.0000                                         
     4  0  0.50       -58.3859   2.0000                                         
     5  0  0.50        -3.9816   1.0000                                         
     4  1  1.50       -34.5141   6.0000                                         
     4  2  2.50        -3.0408   4.0000                                         
     4  3  2.50        -1.3606   0.0000                                         
   Description                                                                  
     l       E           TYP  RCUT    TYP  RCUT                                 
     0    -58.3859094     23  2.200                                             
     0     -3.9816262     23  2.200                                             
     1    -34.5140738     23  2.200                                             
     1     13.6058260     23  2.200                                             
     2     -3.0408010     23  2.200                                             
     2     -0.1283038     23  2.200                                             
     3     -1.3605826     23  2.400                                             
  local pseudopotential read in
  partial core-charges read in
  partial kinetic energy density read in
  atomic valenz-charges read in
  non local Contribution for L=           0  read in
    real space projection operators read in
  non local Contribution for L=           0  read in
    real space projection operators read in
  non local Contribution for L=           1  read in
    real space projection operators read in
  non local Contribution for L=           1  read in
    real space projection operators read in
  non local Contribution for L=           2  read in
    real space projection operators read in
  non local Contribution for L=           2  read in
    real space projection operators read in
    PAW grid and wavefunctions read in
 
   number of l-projection  operators is LMAX  =           6
   number of lm-projection operators is LMMAX =          18
 
 POTCAR:    PAW_PBE Hf 20Jan2003                  
   VRHFIN =Hf: 6s5d                                                             
   LEXCH  = PE                                                                  
   EATOM  =    75.9011 eV,    5.5786 Ry                                         
                                                                                
   TITEL  = PAW_PBE Hf 20Jan2003                                                
   LULTRA =        F    use ultrasoft PP ?                                      
   IUNSCR =        1    unscreen: 0-lin 1-nonlin 2-no                           
   RPACOR =    2.500    partial core radius                                     
   POMASS =  178.490; ZVAL   =    4.000    mass and valenz                      
   RCORE  =    3.000    outmost cutoff radius                                   
   RWIGS  =    3.050; RWIGS  =    1.614    wigner-seitz radius (au A)           
   ENMAX  =  220.334; ENMIN  =  165.250 eV                                      
   RCLOC  =    2.212    cutoff for local pot                                    
   LCOR   =        T    correct aug charges                                     
   LPAW   =        T    paw PP                                                  
   EAUG   =  335.116                                                            
   DEXC   =    0.000                                                            
   RMAX   =    3.077    core radius for proj-oper                               
   RAUG   =    1.300    factor for augmentation sphere                          
   RDEP   =    3.047    radius for radial grids                                 
   RDEPT  =    2.344    core radius for aug-charge                              
                                                                                
   Atomic configuration                                                         
   16 entries                                                                   
     n  l   j            E        occ.                                          
     1  0  0.50    -65259.4397   2.0000                                         
     2  0  0.50    -11157.9882   2.0000                                         
     2  1  1.50     -9795.2113   6.0000                                         
     3  0  0.50     -2541.4058   2.0000                                         
     3  1  1.50     -2134.4770   6.0000                                         
     3  2  2.50     -1653.5418  10.0000                                         
     4  0  0.50      -510.9575   2.0000                                         
     4  1  1.50      -377.5023   6.0000                                         
     4  2  2.50      -205.2085  10.0000                                         
     4  3  3.50       -15.4905  14.0000                                         
     5  0  0.50       -65.6020   2.0000                                         
     5  1  1.50       -34.2798   6.0000                                         
     5  2  2.50        -1.9877   3.0000                                         
     6  0  0.50        -4.7357   1.0000                                         
     6  1  1.50        -1.3606   0.0000                                         
     5  3  2.50        -1.3606   0.0000                                         
   Description                                                                  
     l       E           TYP  RCUT    TYP  RCUT                                 
     2     -1.9876627     23  2.500                                             
     2      0.0744703     23  2.500                                             
     0     -4.7356889     23  2.600                                             
     0      3.2364747     23  2.600                                             
     1     -1.3605826     23  3.000                                             
     1     27.2116520     23  3.000                                             
  local pseudopotential read in
  partial core-charges read in
  partial kinetic energy density read in
  atomic valenz-charges read in
  non local Contribution for L=           2  read in
    real space projection operators read in
  non local Contribution for L=           2  read in
    real space projection operators read in
  non local Contribution for L=           0  read in
    real space projection operators read in
  non local Contribution for L=           0  read in
    real space projection operators read in
  non local Contribution for L=           1  read in
    real space projection operators read in
  non local Contribution for L=           1  read in
    real space projection operators read in
    PAW grid and wavefunctions read in
 
   number of l-projection  operators is LMAX  =           6
   number of lm-projection operators is LMMAX =          18
 
 Optimization of the real space projectors (new method)

 maximal supplied QI-value         = 12.85
 optimisation between [QCUT,QGAM] = [  8.87, 17.73] = [ 22.01, 88.06] Ry 
 Optimized for a Real-space Cutoff    1.90 Angstroem

   l    n(q)    QCUT    max X(q) W(low)/X(q) W(high)/X(q)  e(spline) 
   2      9     8.867    62.315    0.23E-03    0.62E-04    0.11E-05
   2      9     8.867    52.185    0.23E-03    0.62E-04    0.11E-05
   0     10     8.867   103.837    0.15E-04    0.23E-04    0.98E-07
   0     10     8.867    59.728    0.12E-04    0.21E-04    0.89E-07
   1     10     8.867    13.958    0.50E-04    0.22E-04    0.14E-06
   1     10     8.867     8.441    0.36E-04    0.19E-04    0.98E-07
 Optimization of the real space projectors (new method)

 maximal supplied QI-value         = 15.12
 optimisation between [QCUT,QGAM] = [  8.77, 17.69] = [ 21.53, 87.61] Ry 
 Optimized for a Real-space Cutoff    1.74 Angstroem

   l    n(q)    QCUT    max X(q) W(low)/X(q) W(high)/X(q)  e(spline) 
   0      9     8.768    12.107    0.28E-04    0.53E-06    0.29E-07
   0      9     8.768     9.948    0.36E-04    0.50E-05    0.64E-07
   1      9     8.768     3.563    0.14E-04    0.16E-04    0.88E-07
   1      9     8.768     4.524    0.21E-03    0.33E-03    0.19E-06
   2      8     8.768    87.261    0.19E-03    0.25E-03    0.24E-06
   2      8     8.768    70.950    0.19E-03    0.24E-03    0.24E-06
 Optimization of the real space projectors (new method)

 maximal supplied QI-value         = 15.68
 optimisation between [QCUT,QGAM] = [  8.78, 17.72] = [ 21.60, 87.97] Ry 
 Optimized for a Real-space Cutoff    1.96 Angstroem

   l    n(q)    QCUT    max X(q) W(low)/X(q) W(high)/X(q)  e(spline) 
   0     10     8.783    10.201    0.29E-04    0.25E-05    0.69E-07
   0     10     8.783     8.174    0.45E-04    0.57E-05    0.14E-06
   1     10     8.783     3.488    0.76E-05    0.24E-04    0.95E-07
   1     10     8.783     4.917    0.78E-04    0.14E-03    0.46E-06
   2      9     8.783   153.744    0.22E-03    0.34E-04    0.15E-05
   2      9     8.783   126.342    0.22E-03    0.35E-04    0.15E-05
 Optimization of the real space projectors (new method)

 maximal supplied QI-value         = 12.47
 optimisation between [QCUT,QGAM] = [  8.86, 17.71] = [ 21.96, 87.83] Ry 
 Optimized for a Real-space Cutoff    1.90 Angstroem

   l    n(q)    QCUT    max X(q) W(low)/X(q) W(high)/X(q)  e(spline) 
   2      9     8.855    48.111    0.22E-03    0.80E-04    0.10E-05
   2      9     8.855    40.545    0.21E-03    0.76E-04    0.95E-06
   0     10     8.855   121.658    0.27E-04    0.12E-04    0.11E-06
   0     10     8.855    71.177    0.22E-04    0.11E-04    0.99E-07
   1     10     8.855    14.183    0.65E-04    0.10E-03    0.98E-07
   1     10     8.855     8.257    0.43E-04    0.73E-04    0.72E-07
  PAW_PBE Ta 17Jan2003                  :
 energy of atom  1       EATOM= -130.6506
 kinetic energy error for atom=    0.0121 (will be added to EATOM!!)
  PAW_PBE Zr_sv 04Jan2005               :
 energy of atom  2       EATOM=-1284.2219
 kinetic energy error for atom=    0.0483 (will be added to EATOM!!)
  PAW_PBE Nb_sv 25May2007               :
 energy of atom  3       EATOM=-1555.1913
 kinetic energy error for atom=    0.0655 (will be added to EATOM!!)
  PAW_PBE Hf 20Jan2003                  :
 energy of atom  4       EATOM=  -75.9011
 kinetic energy error for atom=    0.0071 (will be added to EATOM!!)
 
 
 POSCAR: generated by pypospack                  
  positions in direct lattice
  No initial velocities read in
 exchange correlation table for  LEXCH =        8
   RHO(1)=    0.500       N(1)  =     2000
   RHO(2)=  100.500       N(2)  =     4000
 


--------------------------------------------------------------------------------------------------------


 ion  position               nearest neighbor table
   1  0.252  0.180  0.180-  24 2.78  18 2.85   5 2.92  27 2.92   2 2.96  14 2.99   9 3.07  12 3.08
                            11 3.30  10 3.31  13 3.43  13 3.49  30 3.71
   2  0.019  0.995  0.336-  22 2.78  36 2.87  35 2.88  10 2.89  30 2.92   1 2.96  32 3.03  13 3.04
                            14 3.22   3 3.43   9 3.49  14 3.69
   3  0.018  0.985  0.668-  26 2.69  22 2.84  23 2.86  10 2.96  36 3.00   4 3.01  34 3.02  32 3.11
                            31 3.22  33 3.23   9 3.40   2 3.43  33 3.68
   4  0.245  0.182  0.819-   7 2.83  20 2.84  24 2.96  33 2.97  27 2.98   3 3.01   9 3.02  12 3.05
                            28 3.18  10 3.30  34 3.39  34 3.53
   5  0.499  0.343  0.340-  25 2.82  19 2.84   6 2.84   1 2.92  11 2.93  13 2.97  32 3.02  10 3.05
                             7 3.20   8 3.22  14 3.55
   6  0.750  0.494  0.496-   8 2.82   5 2.84  21 2.85  18 2.87  20 2.88   7 2.96  17 3.02  31 3.04
                            25 3.26  32 3.27  15 3.39  36 3.46
   7  0.484  0.329  0.650-   4 2.83  19 2.86  10 2.86  15 2.90  32 2.93   6 2.96  28 2.96  34 3.04
                             5 3.20  20 3.31  33 3.39  17 3.55
   8  0.509  0.659  0.348-   6 2.82  25 2.88  19 2.90  36 2.91  22 2.94  35 3.00  30 3.01  11 3.02
                            17 3.20   5 3.22  14 3.42  16 3.67
   9  0.018  0.005  0.997-  23 2.90  26 2.95   4 3.02  34 3.06  30 3.06   1 3.07  13 3.12  35 3.16
                            12 3.26  27 3.33   3 3.40  29 3.48   2 3.49  12 3.65
  10  0.227  0.173  0.500-   7 2.86   2 2.89  20 2.89   3 2.96  18 2.97  14 3.00  33 3.03   5 3.05
                            32 3.19   4 3.30  19 3.31   1 3.31  32 3.72
  11  0.257  0.504  0.167-   5 2.93  18 2.94  24 2.96  27 3.02   8 3.02  21 3.04  16 3.16  29 3.16
                            30 3.18   1 3.30  25 3.36  19 3.39  28 3.42
  12  0.490  0.005  0.994-  26 2.97  23 2.98   4 3.05  34 3.05   1 3.08  13 3.12  30 3.16  24 3.18
                             9 3.26  35 3.27  16 3.35  33 3.40  14 3.60   9 3.65
  13  0.748  0.168  0.179-  24 2.91  18 2.91   5 2.97  27 2.99   2 3.04  14 3.05   9 3.12  12 3.12
                            32 3.32  25 3.34   1 3.43  35 3.43   1 3.49  34 3.71
  14  0.485  0.995  0.343-  22 2.87  36 2.94   1 2.99  10 3.00  35 3.01  30 3.04  13 3.05  32 3.13
                             2 3.22  33 3.32   8 3.42   5 3.55  12 3.60   2 3.69
  15  0.726  0.477  0.824-  20 2.85   7 2.90  16 2.99  24 2.99  27 3.05  17 3.06  29 3.09  31 3.16
                            34 3.17  28 3.18   6 3.39  28 3.74
  16  0.532  0.677  0.994-  23 2.95  15 2.99  26 3.03  35 3.03  25 3.03  30 3.04  29 3.06  28 3.11
                            11 3.16  12 3.35  17 3.47   8 3.67  29 3.86
  17  0.502  0.676  0.658-  22 2.93  23 2.97  36 2.99   6 3.02  15 3.06  19 3.07  28 3.09  26 3.12
                             8 3.20  33 3.26  31 3.41  16 3.47  31 3.50   7 3.55
  18  0.994  0.343  0.325-  25 2.77   1 2.85   6 2.87  13 2.91  11 2.94  19 2.94  32 2.97  10 2.97
                            27 3.29
  19  0.245  0.497  0.496-  21 2.82  20 2.83   5 2.84   7 2.86   8 2.90  18 2.94  31 3.01  17 3.07
                            10 3.31  11 3.39
  20  0.007  0.349  0.665-  19 2.83   4 2.84  15 2.85   6 2.88  10 2.89  28 2.94  32 3.00  34 3.00
                            31 3.26   7 3.31
  21  0.997  0.661  0.349-  36 2.76  22 2.82  19 2.82   6 2.85  35 2.89  30 2.96  25 3.01  11 3.04
                            31 3.27
  22  0.238  0.828  0.493-   2 2.78  21 2.82   3 2.84  14 2.87  17 2.93  31 2.93   8 2.94  33 3.02
                            36 3.27  30 3.31
  23  0.246  0.826  0.839-   3 2.86   9 2.90  29 2.92  16 2.95  17 2.97  31 2.97  12 2.98  33 3.00
                            28 3.38  30 3.45
  24  0.491  0.317  0.010-   1 2.78  13 2.91   4 2.96  11 2.96  28 2.97  15 2.99  34 3.08  12 3.18
                            27 3.40
  25  0.743  0.497  0.180-  18 2.77   5 2.82   8 2.88  21 3.01  27 3.02  16 3.03  29 3.09   6 3.26
                            13 3.34  11 3.36  35 3.42
  26  0.763  0.860  0.822-   3 2.69  33 2.87   9 2.95  12 2.97  31 2.98  29 2.98  16 3.03  17 3.12
                            34 3.12
  27  1.000  0.331  0.007-   1 2.92   4 2.98  13 2.99  11 3.02  25 3.02  28 3.04  15 3.05  34 3.08
                            18 3.29   9 3.33  24 3.40  29 3.41
  28  0.266  0.494  0.836-  20 2.94   7 2.96  24 2.97  27 3.04  29 3.07  17 3.09  16 3.11  31 3.12
                             4 3.18  15 3.18  23 3.38  11 3.42  15 3.74
  29  0.974  0.665  0.986-  23 2.92  26 2.98  35 3.03  16 3.06  28 3.07  25 3.09  15 3.09  30 3.11
                            11 3.16  31 3.31  27 3.41   9 3.48  16 3.86
  30  0.246  0.816  0.173-   2 2.92  21 2.96   8 3.01  16 3.04  14 3.04   9 3.06  29 3.11  12 3.16
                            11 3.18  22 3.31  35 3.32  23 3.45  35 3.60   1 3.71
  31  0.995  0.669  0.666-  22 2.93  36 2.94  23 2.97  26 2.98  19 3.01   6 3.04  28 3.12  15 3.16
                             3 3.22  20 3.26  21 3.27  29 3.31  17 3.41  17 3.50
  32  0.765  0.173  0.500-   7 2.93  18 2.97  20 3.00   5 3.02   2 3.03   3 3.11  14 3.13  33 3.14
                            10 3.19   6 3.27  34 3.29  13 3.32  36 3.46  10 3.72
  33  0.485  0.996  0.664-  26 2.87   4 2.97  23 3.00  22 3.02  34 3.03  10 3.03  36 3.12  32 3.14
                             3 3.23  17 3.26  14 3.32   7 3.39  12 3.40   3 3.68
  34  0.755  0.167  0.820-  20 3.00   3 3.02  33 3.03   7 3.04  12 3.05   9 3.06  24 3.08  27 3.08
                            26 3.12  15 3.17  32 3.29   4 3.39   4 3.53  13 3.71
  35  0.765  0.831  0.187-   2 2.88  21 2.89   8 3.00  14 3.01  16 3.03  29 3.03  36 3.10   9 3.16
                            12 3.27  30 3.32  25 3.42  13 3.43  30 3.60
  36  0.765  0.833  0.488-  21 2.76   2 2.87   8 2.91  14 2.94  31 2.94  17 2.99   3 3.00  35 3.10
                            33 3.12  22 3.27   6 3.46  32 3.46
 
  Warning from LATTYP: Got some problem with cell dimensions!
  Tried to take original basis but could not verify dimensions!
  LATTYP: Found a triclinic cell.
 ALAT       =     6.9124831545
 B/A-ratio  =     1.7722871730
 C/A-ratio  =     1.4926869426
 COS(alpha) =     0.0003213374
 COS(beta)  =     0.0057855567
 COS(gamma) =     0.5555776305
  
  Lattice vectors:
  
 A1 = (  -6.9123610267,  -0.0359258086,  -0.0199432634)
 A2 = (  -6.8592006071,  10.1506671242,  -0.0016960254)
 A3 = (  -0.0298350821,  -0.0178830914, -10.3181147143)


Analysis of symmetry for initial positions (statically):
=====================================================================
 Subroutine PRICEL returns:
 Original cell was already a primitive cell.
 

 Routine SETGRP: Setting up the symmetry group for a 
 triclinic supercell.


 Subroutine GETGRP returns: Found  1 space group operations
 (whereof  1 operations were pure point group operations)
 out of a pool of  2 trial point group operations.


The static configuration has the point symmetry C_1 .


Analysis of symmetry for dynamics (positions and initial velocities):
=====================================================================
 Subroutine PRICEL returns:
 Original cell was already a primitive cell.
 

 Routine SETGRP: Setting up the symmetry group for a 
 triclinic supercell.


 Subroutine GETGRP returns: Found  1 space group operations
 (whereof  1 operations were pure point group operations)
 out of a pool of  2 trial point group operations.


The dynamic configuration has the point symmetry C_1 .


 Subroutine INISYM returns: Found  1 space group operations
 (whereof  1 operations are pure point group operations),
 and found     1 'primitive' translations

 
 
 KPOINTS: k-points                                

Automatic generation of k-mesh.
Space group operators:
 irot       det(A)        alpha          n_x          n_y          n_z        tau_x        tau_y        tau_z
    1     1.000000     0.000000     1.000000     0.000000     0.000000     0.000000     0.000000     0.000000
 
 Subroutine IBZKPT returns following result:
 ===========================================
 
 Found     14 irreducible k-points:
 
 Following reciprocal coordinates:
            Coordinates               Weight
  0.000000  0.000000  0.000000      1.000000
  0.333333  0.000000  0.000000      2.000000
 -0.000000  0.333333  0.000000      2.000000
  0.333333  0.333333  0.000000      2.000000
 -0.333333  0.333333 -0.000000      2.000000
  0.000000  0.000000  0.333333      2.000000
  0.333333 -0.000000  0.333333      2.000000
 -0.333333 -0.000000  0.333333      2.000000
  0.000000  0.333333  0.333333      2.000000
  0.333333  0.333333  0.333333      2.000000
 -0.333333  0.333333  0.333333      2.000000
 -0.000000 -0.333333  0.333333      2.000000
  0.333333 -0.333333  0.333333      2.000000
 -0.333333 -0.333333  0.333333      2.000000
 
 Following cartesian coordinates:
            Coordinates               Weight
  0.000000  0.000000  0.000000      1.000000
  0.240559 -0.001254 -0.000693      2.000000
 -0.000848  0.163236 -0.000280      2.000000
  0.239711  0.161982 -0.000974      2.000000
 -0.241406  0.164490  0.000413      2.000000
 -0.000463 -0.000286  0.161152      2.000000
  0.240095 -0.001540  0.160459      2.000000
 -0.241022  0.000968  0.161846      2.000000
 -0.001311  0.162950  0.160872      2.000000
  0.239248  0.161696  0.160179      2.000000
 -0.241870  0.164204  0.161565      2.000000
  0.000384 -0.163522  0.161433      2.000000
  0.240943 -0.164777  0.160739      2.000000
 -0.240175 -0.162268  0.162126      2.000000
 


--------------------------------------------------------------------------------------------------------




 Dimension of arrays:
   k-points           NKPTS =     14   k-points in BZ     NKDIM =     14   number of bands    NBANDS=    184
   number of dos      NEDOS =    301   number of ions     NIONS =     36
   non local maximal  LDIM  =      6   non local SUM 2l+1 LMDIM =     18
   total plane-waves  NPLWV = 144000
   max r-space proj   IRMAX =   6306   max aug-charges    IRDMAX=  13690
   dimension x,y,z NGX =    40 NGY =   60 NGZ =   60
   dimension x,y,z NGXF=    80 NGYF=  120 NGZF=  120
   support grid    NGXF=    80 NGYF=  120 NGZF=  120
   ions per type =               8   9   9  10
 NGX,Y,Z   is equivalent  to a cutoff of   9.62,  9.79,  9.67 a.u.
 NGXF,Y,Z  is equivalent  to a cutoff of  19.24, 19.58, 19.33 a.u.


 I would recommend the setting:
   dimension x,y,z NGX =    39 NGY =   58 NGZ =   58
 SYSTEM =  automatically generated by mexm         
 POSCAR =  generated by pypospack                  

 Startparameter for this run:
   NWRITE =      2    write-flag & timer
   PREC   = accura    normal or accurate (medium, high low for compatibility)
   ISTART =      0    job   : 0-new  1-cont  2-samecut
   ICHARG =      2    charge: 1-file 2-atom 10-const
   ISPIN  =      1    spin polarized calculation?
   LNONCOLLINEAR =      F non collinear calculations
   LSORBIT =      F    spin-orbit coupling
   INIWAV =      1    electr: 0-lowe 1-rand  2-diag
   LASPH  =      F    aspherical Exc in radial PAW
   METAGGA=      F    non-selfconsistent MetaGGA calc.

 Electronic Relaxation 1
   ENCUT  =  300.0 eV  22.05 Ry    4.70 a.u.   9.76 14.39 14.57*2*pi/ulx,y,z
   ENINI  =  300.0     initial cutoff
   ENAUG  =  461.3 eV  augmentation charge cutoff
   NELM   =     70;   NELMIN=  2; NELMDL= -5     # of ELM steps 
   EDIFF  = 0.1E-04   stopping-criterion for ELM
   LREAL  =      T    real-space projection
   NLSPLINE    = F    spline interpolate recip. space projectors
   LCOMPAT=      F    compatible to vasp.4.4
   GGA_COMPAT  = T    GGA compatible to vasp.4.4-vasp.4.6
   LMAXPAW     = -100 max onsite density
   LMAXMIX     =    2 max onsite mixed and CHGCAR
   VOSKOWN=      0    Vosko Wilk Nusair interpolation
   ROPT   =   -0.00025  -0.00025  -0.00025  -0.00025
 Ionic relaxation
   EDIFFG = -.1E-01   stopping-criterion for IOM
   NSW    =    300    number of steps for IOM
   NBLOCK =      1;   KBLOCK =    300    inner block; outer block 
   IBRION =      2    ionic relax: 0-MD 1-quasi-New 2-CG
   NFREE  =      1    steps in history (QN), initial steepest desc. (CG)
   ISIF   =      3    stress and relaxation
   IWAVPR =     11    prediction:  0-non 1-charg 2-wave 3-comb
   ISYM   =      1    0-nonsym 1-usesym 2-fastsym
   LCORR  =      T    Harris-Foulkes like correction to forces

   POTIM  = 0.1500    time-step for ionic-motion
   TEIN   =    0.0    initial temperature
   TEBEG  =    0.0;   TEEND  =   0.0 temperature during run
   SMASS  =  -3.00    Nose mass-parameter (am)
   estimated Nose-frequenzy (Omega)   =  0.10E-29 period in steps =****** mass=  -0.109E-26a.u.
   SCALEE = 1.0000    scale energy and forces
   NPACO  =    256;   APACO  = 16.0  distance and # of slots for P.C.
   PSTRESS=    0.0 pullay stress

  Mass of Ions in am
   POMASS = 180.95 91.22 92.91178.49
  Ionic Valenz
   ZVAL   =   5.00 12.00 13.00  4.00
  Atomic Wigner-Seitz radii
   RWIGS  =  -1.00 -1.00 -1.00 -1.00
  virtual crystal weights 
   VCA    =   1.00  1.00  1.00  1.00
   NELECT =     305.0000    total number of electrons
   NUPDOWN=      -1.0000    fix difference up-down

 DOS related values:
   EMIN   =  10.00;   EMAX   =-10.00  energy-range for DOS
   EFERMI =   0.00
   ISMEAR =     1;   SIGMA  =   0.15  broadening in eV -4-tet -1-fermi 0-gaus

 Electronic relaxation 2 (details)
   IALGO  =     68    algorithm
   LDIAG  =      T    sub-space diagonalisation (order eigenvalues)
   LSUBROT=      F    optimize rotation matrix (better conditioning)
   TURBO    =      0    0=normal 1=particle mesh
   IRESTART =      0    0=no restart 2=restart with 2 vectors
   NREBOOT  =      0    no. of reboots
   NMIN     =      0    reboot dimension
   EREF     =   0.00    reference energy to select bands
   IMIX   =      4    mixing-type and parameters
     AMIX     =   0.40;   BMIX     =  1.00
     AMIX_MAG =   1.60;   BMIX_MAG =  1.00
     AMIN     =   0.10
     WC   =   100.;   INIMIX=   1;  MIXPRE=   1;  MAXMIX= -45

 Intra band minimization:
   WEIMIN = 0.0010     energy-eigenvalue tresh-hold
   EBREAK =  0.14E-07  absolut break condition
   DEPER  =   0.30     relativ break condition  

   TIME   =   0.40     timestep for ELM

  volume/ion in A,a.u.               =      20.18       136.19
  Fermi-wavevector in a.u.,A,eV,Ry     =   1.225825  2.316473 20.444750  1.502647
  Thomas-Fermi vector in A             =   2.360849
 
 Write flags
   LWAVE  =      F    write WAVECAR
   LCHARG =      F    write CHGCAR
   LVTOT  =      F    write LOCPOT, total local potential
   LVHAR  =      F    write LOCPOT, Hartree potential only
   LELF   =      F    write electronic localiz. function (ELF)
   LORBIT =      0    0 simple, 1 ext, 2 COOP (PROOUT)


 Dipole corrections
   LMONO  =      F    monopole corrections only (constant potential shift)
   LDIPOL =      F    correct potential (dipole corrections)
   IDIPOL =      0    1-x, 2-y, 3-z, 4-all directions 
   EPSILON=  1.0000000 bulk dielectric constant

 Exchange correlation treatment:
   GGA     =    --    GGA type
   LEXCH   =     8    internal setting for exchange type
   VOSKOWN=      0    Vosko Wilk Nusair interpolation
   LHFCALC =     F    Hartree Fock is set to
   LHFONE  =     F    Hartree Fock one center treatment
   AEXX    =    0.0000 exact exchange contribution

 Linear response parameters
   LEPSILON=     F    determine dielectric tensor
   LRPA    =     F    only Hartree local field effects (RPA)
   LNABLA  =     F    use nabla operator in PAW spheres
   LVEL    =     F    velocity operator in full k-point grid
   LINTERFAST=   F  fast interpolation
   KINTER  =     0    interpolate to denser k-point grid
   CSHIFT  =0.1000    complex shift for real part using Kramers Kronig
   OMEGAMAX=  -1.0    maximum frequency
   DEG_THRESHOLD= 0.2000000E-02 threshold for treating states as degnerate
   RTIME   =    0.100 relaxation time in fs

 Orbital magnetization related:
   ORBITALMAG=     F  switch on orbital magnetization
   LCHIMAG   =     F  perturbation theory with respect to B field
   DQ        =  0.001000  dq finite difference perturbation B field



--------------------------------------------------------------------------------------------------------


 conjugate gradient relaxation of ions
 charge density and potential will be updated during run
 non-spin polarized calculation
 RMM-DIIS sequential band-by-band and
  variant of blocked Davidson during initial phase
 perform sub-space diagonalisation
    before iterative eigenvector-optimisation
 modified Broyden-mixing scheme, WC =      100.0
 initial mixing is a Kerker type mixing with AMIX =  0.4000 and BMIX =      1.0000
 Hartree-type preconditioning will be used
 using additional bands           31
 real space projection scheme for non local part
 use partial core corrections
 calculate Harris-corrections to forces 
   (improved forces if not selfconsistent)
 use gradient corrections 
 use of overlap-Matrix (Vanderbilt PP)
 Methfessel and Paxton  Order N= 1 SIGMA  =   0.15


--------------------------------------------------------------------------------------------------------


  energy-cutoff  :      300.00
  volume of cell :      726.51
      direct lattice vectors                 reciprocal lattice vectors
     6.912361027  0.035925809  0.019943263     0.144673493 -0.000754256 -0.000417020
     0.053160420 10.186592933  0.018247238    -0.000509741  0.098171212 -0.000168674
     0.029835082  0.017883091 10.318114714    -0.000278729 -0.000172155  0.096918034

  length of vectors
     6.912483154 10.186747988 10.318173346     0.144676060  0.098172680  0.096918588


 
 k-points in units of 2pi/SCALE and weight: k-points                                
   0.00000000  0.00000000  0.00000000       0.037
   0.24055874 -0.00125415 -0.00069341       0.074
  -0.00084758  0.16323615 -0.00028047       0.074
   0.23971116  0.16198199 -0.00097387       0.074
  -0.24140633  0.16449030  0.00041294       0.074
  -0.00046346 -0.00028625  0.16115240       0.074
   0.24009528 -0.00154041  0.16045899       0.074
  -0.24102221  0.00096790  0.16184581       0.074
  -0.00131105  0.16294989  0.16087193       0.074
   0.23924770  0.16169574  0.16017853       0.074
  -0.24186979  0.16420405  0.16156534       0.074
   0.00038412 -0.16352240  0.16143287       0.074
   0.24094286 -0.16477655  0.16073946       0.074
  -0.24017462 -0.16226825  0.16212627       0.074
 
 k-points in reciprocal lattice and weights: k-points                                
   0.00000000  0.00000000  0.00000000       0.037
   0.33333333  0.00000000  0.00000000       0.074
  -0.00000000  0.33333333  0.00000000       0.074
   0.33333333  0.33333333  0.00000000       0.074
  -0.33333333  0.33333333 -0.00000000       0.074
   0.00000000  0.00000000  0.33333333       0.074
   0.33333333 -0.00000000  0.33333333       0.074
  -0.33333333 -0.00000000  0.33333333       0.074
   0.00000000  0.33333333  0.33333333       0.074
   0.33333333  0.33333333  0.33333333       0.074
  -0.33333333  0.33333333  0.33333333       0.074
  -0.00000000 -0.33333333  0.33333333       0.074
   0.33333333 -0.33333333  0.33333333       0.074
  -0.33333333 -0.33333333  0.33333333       0.074
 
 position of ions in fractional coordinates (direct lattice) 
   0.25210700  0.17993500  0.17950300
   0.01906200  0.99458800  0.33562500
   0.01767200  0.98462600  0.66835600
   0.24524900  0.18227400  0.81922000
   0.49921700  0.34349900  0.33964000
   0.75037600  0.49400700  0.49645200
   0.48428100  0.32860400  0.64984600
   0.50850600  0.65923200  0.34809000
   0.01838400  0.00458300  0.99748500
   0.22719200  0.17258600  0.50035000
   0.25705200  0.50357000  0.16741300
   0.48970000  0.00536100  0.99380200
   0.74769600  0.16836000  0.17889400
   0.48472700  0.99496000  0.34275200
   0.72561000  0.47712800  0.82441600
   0.53212200  0.67720800  0.99350700
   0.50210600  0.67628200  0.65808600
   0.99445500  0.34330400  0.32543900
   0.24477900  0.49707900  0.49608500
   0.00654500  0.34885600  0.66486500
   0.99737100  0.66111600  0.34918500
   0.23762200  0.82827700  0.49298000
   0.24649500  0.82555400  0.83857600
   0.49058400  0.31697400  0.01011900
   0.74251500  0.49664100  0.18038600
   0.76292300  0.86016700  0.82185400
   0.99960800  0.33103100  0.00691700
   0.26555000  0.49366700  0.83649800
   0.97415900  0.66513600  0.98618400
   0.24564300  0.81573000  0.17268300
   0.99536100  0.66920600  0.66581800
   0.76511900  0.17267200  0.50043700
   0.48486200  0.99646400  0.66442100
   0.75503600  0.16685400  0.81950300
   0.76532600  0.83140500  0.18705100
   0.76499100  0.83306500  0.48756200
 
 position of ions in cartesian coordinates  (Angst):
   1.75757551  1.84519182  1.86044370
   0.19464954 10.13814992  3.48154589
   0.19443883 10.04257141  6.91449302
   1.72938089  1.88021199  8.46102300
   3.47916187  3.52309307  3.52066841
   5.22794312  5.06808418  5.14642790
   3.38438205  3.37637463  6.72083983
   3.56040740  6.73982145  3.61380298
   0.15708053  0.06518373 10.29261492
   1.59453585  1.77517319  5.17034887
   1.80860100  5.14189127  1.74170176
   3.41491835  0.08997545 10.26402708
   5.18263210  1.74507555  1.86383242
   3.41372655 10.15879618  3.56437676
   5.06563913  4.90111995  8.52959616
   3.74386140  6.93532612 10.27408862
   3.52632343  6.91881662  6.81256075
   6.90199167  3.53864456  3.38401396
   1.73322648  5.08120685  5.13261395
   0.08362304  3.56577904  6.86664953
   6.93975160  6.77659544  3.63488526
   1.70126870  8.45467340  5.10647692
   1.77276821  8.43343441  8.67250336
   3.40824609  3.24669069  0.11997675
   5.16431522  5.08898101  1.88511394
   5.34384613  8.80427700  8.51089470
   6.92745550  3.40811347  0.09734625
   1.88677800  5.05328404  8.64538632
   6.79852049  6.82810315 10.20712445
   1.74648966  8.32142248  1.80154675
   6.93573459  6.86459514  6.90204841
   5.31288865  1.79537625  5.18197613
   3.42433669 10.17987410  6.88342454
   5.25240139  1.74145430  8.47382847
   5.33998814  8.50002430  1.96044762
   5.34672651  8.52229608  5.06117820
 


--------------------------------------------------------------------------------------------------------


 k-point  1 :   0.0000 0.0000 0.0000  plane waves:    8607
 k-point  2 :   0.3333 0.0000 0.0000  plane waves:    8582
 k-point  3 :  -0.0000 0.3333 0.0000  plane waves:    8575
 k-point  4 :   0.3333 0.3333 0.0000  plane waves:    8580
 k-point  5 :  -0.3333 0.3333-0.0000  plane waves:    8564
 k-point  6 :   0.0000 0.0000 0.3333  plane waves:    8570
 k-point  7 :   0.3333-0.0000 0.3333  plane waves:    8584
 k-point  8 :  -0.3333-0.0000 0.3333  plane waves:    8566
 k-point  9 :   0.0000 0.3333 0.3333  plane waves:    8561
 k-point 10 :   0.3333 0.3333 0.3333  plane waves:    8577
 k-point 11 :  -0.3333 0.3333 0.3333  plane waves:    8576
 k-point 12 :  -0.0000-0.3333 0.3333  plane waves:    8568
 k-point 13 :   0.3333-0.3333 0.3333  plane waves:    8579
 k-point 14 :  -0.3333-0.3333 0.3333  plane waves:    8573

 maximum and minimum number of plane-waves per node :      1737     1686

 maximum number of plane-waves:      8607
 maximum index in each direction: 
   IXMAX=   10   IYMAX=   14   IZMAX=   14
   IXMIN=  -10   IYMIN=  -14   IZMIN=  -14

 WARNING: aliasing errors must be expected set NGX to  42 to avoid them
 NGY is ok and might be reduce to  58
 NGZ is ok and might be reduce to  58
 aliasing errors are usually negligible using standard VASP settings
 and one can safely disregard these warnings

 real space projection operators:
  total allocation   :      27118.12 KBytes
  max/ min on nodes  :       5472.00       5386.36


 parallel 3D FFT for wavefunctions:
    minimum data exchange during FFTs selected (reduces bandwidth)
 parallel 3D FFT for charge:
    minimum data exchange during FFTs selected (reduces bandwidth)


 total amount of memory used by VASP on root node    68139. kBytes
========================================================================

   base      :      30000. kBytes
   nonlr-proj:      10470. kBytes
   fftplans  :       2814. kBytes
   grid      :       5360. kBytes
   one-center:        124. kBytes
   wavefun   :      19371. kBytes
 
     INWAV:  cpu time    0.0000: real time    0.0000
 Broyden mixing: mesh for mixing (old mesh)
   NGX = 19   NGY = 29   NGZ = 29
  (NGX  = 80   NGY  =120   NGZ  =120)
  gives a total of  15979 points

 initial charge density was supplied:
 charge density of overlapping atoms calculated
 number of electron     305.0000000 magnetization 
 keeping initial charge density in first step


--------------------------------------------------------------------------------------------------------


 Maximum index for non-local projection operator         1235
 Maximum index for augmentation-charges          678 (set IRDMAX)


--------------------------------------------------------------------------------------------------------


 First call to EWALD:  gamma=   0.197
 Maximum number of real-space cells 3x 2x 2
 Maximum number of reciprocal cells 2x 3x 3

 FEWALD executed in parallel
    FEWALD:  cpu time    0.0681: real time    0.0686


----------------------------------------- Iteration    1(   1)  ---------------------------------------


    POTLOK:  cpu time    0.0520: real time    0.0799
    SETDIJ:  cpu time    0.3333: real time    0.3342
     EDDAV:  cpu time    1.1208: real time    1.1325
       DOS:  cpu time    0.0026: real time    0.0026
    --------------------------------------------
      LOOP:  cpu time    1.5156: real time    1.6668

 eigenvalue-minimisations  :  5656
 total energy-change (2. order) : 0.2000852E+04  (-0.1157710E+05)
 number of electron     305.0000000 magnetization 
 augmentation part      305.0000000 magnetization 

 Free energy of the ion-electron system (eV)
  ---------------------------------------------------
  alpha Z        PSCENC =      1570.56760588
  Ewald energy   TEWEN  =    -21248.39190204
  -Hartree energ DENC   =     -6892.13569930
  -exchange      EXHF   =         0.00000000
  -V(xc)+E(xc)   XCENC  =      -102.74496617
  PAW double counting   =     22890.47804512   -21369.64431920
  entropy T*S    EENTRO =         0.01229048
  eigenvalues    EBANDS =      -205.03168683
  atomic energy  EATOM  =     27357.74267996
  Solvation  Ediel_sol  =         0.00000000
  ---------------------------------------------------
  free energy    TOTEN  =      2000.85204789 eV

  energy without entropy =     2000.83975741  energy(sigma->0) =     2000.84795106


--------------------------------------------------------------------------------------------------------




----------------------------------------- Iteration    1(   2)  ---------------------------------------


     EDDAV:  cpu time    1.2265: real time    1.2361
       DOS:  cpu time    0.0013: real time    0.0013
    --------------------------------------------
      LOOP:  cpu time    1.2282: real time    1.3001

 eigenvalue-minimisations  :  5864
 total energy-change (2. order) :-0.2075906E+04  (-0.2003649E+04)
 number of electron     305.0000000 magnetization 
 augmentation part      305.0000000 magnetization 

 Free energy of the ion-electron system (eV)
  ---------------------------------------------------
  alpha Z        PSCENC =      1570.56760588
  Ewald energy   TEWEN  =    -21248.39190204
  -Hartree energ DENC   =     -6892.13569930
  -exchange      EXHF   =         0.00000000
  -V(xc)+E(xc)   XCENC  =      -102.74496617
  PAW double counting   =     22890.47804512   -21369.64431920
  entropy T*S    EENTRO =        -0.00788491
  eigenvalues    EBANDS =     -2280.91723985
  atomic energy  EATOM  =     27357.74267996
  Solvation  Ediel_sol  =         0.00000000
  ---------------------------------------------------
  free energy    TOTEN  =       -75.05368052 eV

  energy without entropy =      -75.04579562  energy(sigma->0) =      -75.05105222


--------------------------------------------------------------------------------------------------------




----------------------------------------- Iteration    1(   3)  ---------------------------------------


     EDDAV:  cpu time    1.4604: real time    1.4675
       DOS:  cpu time    0.0013: real time    0.0013
    --------------------------------------------
      LOOP:  cpu time    1.4621: real time    1.4810

 eigenvalue-minimisations  :  8832
 total energy-change (2. order) :-0.2648727E+03  (-0.2516300E+03)
 number of electron     305.0000000 magnetization 
 augmentation part      305.0000000 magnetization 

 Free energy of the ion-electron system (eV)
  ---------------------------------------------------
  alpha Z        PSCENC =      1570.56760588
  Ewald energy   TEWEN  =    -21248.39190204
  -Hartree energ DENC   =     -6892.13569930
  -exchange      EXHF   =         0.00000000
  -V(xc)+E(xc)   XCENC  =      -102.74496617
  PAW double counting   =     22890.47804512   -21369.64431920
  entropy T*S    EENTRO =         0.00077961
  eigenvalues    EBANDS =     -2545.79857079
  atomic energy  EATOM  =     27357.74267996
  Solvation  Ediel_sol  =         0.00000000
  ---------------------------------------------------
  free energy    TOTEN  =      -339.92634694 eV

  energy without entropy =     -339.92712655  energy(sigma->0) =     -339.92660681


--------------------------------------------------------------------------------------------------------




----------------------------------------- Iteration    1(   4)  ---------------------------------------


     EDDAV:  cpu time    1.3865: real time    1.3921
       DOS:  cpu time    0.0013: real time    0.0013
    --------------------------------------------
      LOOP:  cpu time    1.3882: real time    1.4198

 eigenvalue-minimisations  :  8584
 total energy-change (2. order) :-0.3089279E+02  (-0.2947966E+02)
 number of electron     305.0000000 magnetization 
 augmentation part      305.0000000 magnetization 

 Free energy of the ion-electron system (eV)
  ---------------------------------------------------
  alpha Z        PSCENC =      1570.56760588
  Ewald energy   TEWEN  =    -21248.39190204
  -Hartree energ DENC   =     -6892.13569930
  -exchange      EXHF   =         0.00000000
  -V(xc)+E(xc)   XCENC  =      -102.74496617
  PAW double counting   =     22890.47804512   -21369.64431920
  entropy T*S    EENTRO =         0.01297850
  eigenvalues    EBANDS =     -2576.70355972
  atomic energy  EATOM  =     27357.74267996
  Solvation  Ediel_sol  =         0.00000000
  ---------------------------------------------------
  free energy    TOTEN  =      -370.81913698 eV

  energy without entropy =     -370.83211548  energy(sigma->0) =     -370.82346315


--------------------------------------------------------------------------------------------------------




----------------------------------------- Iteration    1(   5)  ---------------------------------------


     EDDAV:  cpu time    1.3720: real time    1.3773
       DOS:  cpu time    0.0013: real time    0.0013
    CHARGE:  cpu time    0.0338: real time    0.0340
    MIXING:  cpu time    0.0017: real time    0.0019
    --------------------------------------------
      LOOP:  cpu time    1.4093: real time    1.4280

 eigenvalue-minimisations  :  8400
 total energy-change (2. order) :-0.3151552E+01  (-0.3091923E+01)
 number of electron     305.0000000 magnetization 
 augmentation part       17.1704246 magnetization 

 Broyden mixing:
  rms(total) = 0.64117E+01    rms(broyden)= 0.64113E+01
  rms(prec ) = 0.66922E+01
  weight for this iteration     100.00

 Free energy of the ion-electron system (eV)
  ---------------------------------------------------
  alpha Z        PSCENC =      1570.56760588
  Ewald energy   TEWEN  =    -21248.39190204
  -Hartree energ DENC   =     -6892.13569930
  -exchange      EXHF   =         0.00000000
  -V(xc)+E(xc)   XCENC  =      -102.74496617
  PAW double counting   =     22890.47804512   -21369.64431920
  entropy T*S    EENTRO =         0.01371691
  eigenvalues    EBANDS =     -2579.85584995
  atomic energy  EATOM  =     27357.74267996
  Solvation  Ediel_sol  =         0.00000000
  ---------------------------------------------------
  free energy    TOTEN  =      -373.97068880 eV

  energy without entropy =     -373.98440571  energy(sigma->0) =     -373.97526111


--------------------------------------------------------------------------------------------------------




----------------------------------------- Iteration    1(   6)  ---------------------------------------


    POTLOK:  cpu time    0.0307: real time    0.0308
    SETDIJ:  cpu time    0.0042: real time    0.0042
    EDDIAG:  cpu time    0.0812: real time    0.0815
  RMM-DIIS:  cpu time    0.8006: real time    0.8035
    ORTHCH:  cpu time    0.0130: real time    0.0130
       DOS:  cpu time    0.0069: real time    0.0069
    CHARGE:  cpu time    0.0506: real time    0.0507
    MIXING:  cpu time    0.0018: real time    0.0107
    --------------------------------------------
      LOOP:  cpu time    0.9895: real time    1.0124

 eigenvalue-minimisations  :  7270
 total energy-change (2. order) : 0.9730643E+01  (-0.2471962E+01)
 number of electron     304.9999999 magnetization 
 augmentation part       17.8766132 magnetization 

 Broyden mixing:
  rms(total) = 0.30420E+01    rms(broyden)= 0.30420E+01
  rms(prec ) = 0.34820E+01
  weight for this iteration     100.00

 eigenvalues of (default mixing * dielectric matrix)
  average eigenvalue GAMMA=   1.7968
  1.7968

 Free energy of the ion-electron system (eV)
  ---------------------------------------------------
  alpha Z        PSCENC =      1570.56760588
  Ewald energy   TEWEN  =    -21248.39190204
  -Hartree energ DENC   =     -6706.74378310
  -exchange      EXHF   =         0.00000000
  -V(xc)+E(xc)   XCENC  =      -107.42674190
  PAW double counting   =     28481.75961217   -26968.39030678
  entropy T*S    EENTRO =         0.00353836
  eigenvalues    EBANDS =     -2743.36074878
  atomic energy  EATOM  =     27357.74267996
  Solvation  Ediel_sol  =         0.00000000
  ---------------------------------------------------
  free energy    TOTEN  =      -364.24004624 eV

  energy without entropy =     -364.24358461  energy(sigma->0) =     -364.24122570


--------------------------------------------------------------------------------------------------------




----------------------------------------- Iteration    1(   7)  ---------------------------------------


    POTLOK:  cpu time    0.0294: real time    0.0296
    SETDIJ:  cpu time    0.0055: real time    0.0055
    EDDIAG:  cpu time    0.0877: real time    0.0882
  RMM-DIIS:  cpu time    0.7847: real time    0.7916
    ORTHCH:  cpu time    0.0126: real time    0.0127
       DOS:  cpu time    0.0012: real time    0.0012
    CHARGE:  cpu time    0.0303: real time    0.0304
    MIXING:  cpu time    0.0012: real time    0.0012
    --------------------------------------------
      LOOP:  cpu time    0.9533: real time    0.9747

 eigenvalue-minimisations  :  7709
 total energy-change (2. order) :-0.4808126E+01  (-0.3194009E+01)
 number of electron     305.0000000 magnetization 
 augmentation part       18.2817721 magnetization 

 Broyden mixing:
  rms(total) = 0.14874E+01    rms(broyden)= 0.14870E+01
  rms(prec ) = 0.42950E+01
  weight for this iteration     100.00

 eigenvalues of (default mixing * dielectric matrix)
  average eigenvalue GAMMA=   1.1241
  1.8180  0.4302

 Free energy of the ion-electron system (eV)
  ---------------------------------------------------
  alpha Z        PSCENC =      1570.56760588
  Ewald energy   TEWEN  =    -21248.39190204
  -Hartree energ DENC   =     -6653.65426698
  -exchange      EXHF   =         0.00000000
  -V(xc)+E(xc)   XCENC  =      -106.70373941
  PAW double counting   =     33173.85566553   -31652.76524181
  entropy T*S    EENTRO =        -0.00407396
  eigenvalues    EBANDS =     -2809.69489962
  atomic energy  EATOM  =     27357.74267996
  Solvation  Ediel_sol  =         0.00000000
  ---------------------------------------------------
  free energy    TOTEN  =      -369.04817245 eV

  energy without entropy =     -369.04409849  energy(sigma->0) =     -369.04681447


--------------------------------------------------------------------------------------------------------




----------------------------------------- Iteration    1(   8)  ---------------------------------------


    POTLOK:  cpu time    0.0297: real time    0.0298
    SETDIJ:  cpu time    0.0240: real time    0.0241
    EDDIAG:  cpu time    0.1304: real time    0.1309
  RMM-DIIS:  cpu time    0.7789: real time    0.7845
    ORTHCH:  cpu time    0.0126: real time    0.0127
       DOS:  cpu time    0.0031: real time    0.0032
    CHARGE:  cpu time    0.0305: real time    0.0306
    MIXING:  cpu time    0.0012: real time    0.0013
    --------------------------------------------
      LOOP:  cpu time    1.0112: real time    1.0293

 eigenvalue-minimisations  :  7405
 total energy-change (2. order) : 0.9185276E+01  (-0.9075898E+00)
 number of electron     304.9999999 magnetization 
 augmentation part       18.0959778 magnetization 

 Broyden mixing:
  rms(total) = 0.45917E+00    rms(broyden)= 0.45844E+00
  rms(prec ) = 0.76657E+00
  weight for this iteration     100.00

 eigenvalues of (default mixing * dielectric matrix)
  average eigenvalue GAMMA=   1.0873
  1.8383  1.0491  0.3747

 Free energy of the ion-electron system (eV)
  ---------------------------------------------------
  alpha Z        PSCENC =      1570.56760588
  Ewald energy   TEWEN  =    -21248.39190204
  -Hartree energ DENC   =     -6621.70587652
  -exchange      EXHF   =         0.00000000
  -V(xc)+E(xc)   XCENC  =      -106.71986139
  PAW double counting   =     34741.65213621   -33217.33501451
  entropy T*S    EENTRO =         0.01425904
  eigenvalues    EBANDS =     -2835.68692354
  atomic energy  EATOM  =     27357.74267996
  Solvation  Ediel_sol  =         0.00000000
  ---------------------------------------------------
  free energy    TOTEN  =      -359.86289692 eV

  energy without entropy =     -359.87715596  energy(sigma->0) =     -359.86764993


--------------------------------------------------------------------------------------------------------




----------------------------------------- Iteration    1(   9)  ---------------------------------------


    POTLOK:  cpu time    0.0293: real time    0.0294
    SETDIJ:  cpu time    0.0036: real time    0.0036
    EDDIAG:  cpu time    0.0818: real time    0.0821
  RMM-DIIS:  cpu time    0.8526: real time    0.8558
    ORTHCH:  cpu time    0.0126: real time    0.0126
       DOS:  cpu time    0.0037: real time    0.0038
    CHARGE:  cpu time    0.0319: real time    0.0320
    MIXING:  cpu time    0.0013: real time    0.0013
    --------------------------------------------
      LOOP:  cpu time    1.0173: real time    1.0335

 eigenvalue-minimisations  :  7804
 total energy-change (2. order) : 0.3556517E+00  (-0.2720572E+00)
 number of electron     304.9999999 magnetization 
 augmentation part       17.9601974 magnetization 

 Broyden mixing:
  rms(total) = 0.30123E+00    rms(broyden)= 0.30107E+00
  rms(prec ) = 0.43610E+00
  weight for this iteration     100.00

 eigenvalues of (default mixing * dielectric matrix)
  average eigenvalue GAMMA=   1.0702
  1.8209  1.6314  0.4348  0.3937

 Free energy of the ion-electron system (eV)
  ---------------------------------------------------
  alpha Z        PSCENC =      1570.56760588
  Ewald energy   TEWEN  =    -21248.39190204
  -Hartree energ DENC   =     -6622.57373465
  -exchange      EXHF   =         0.00000000
  -V(xc)+E(xc)   XCENC  =      -106.32619010
  PAW double counting   =     34984.08046449   -33456.02823175
  entropy T*S    EENTRO =         0.01215863
  eigenvalues    EBANDS =     -2838.59009566
  atomic energy  EATOM  =     27357.74267996
  Solvation  Ediel_sol  =         0.00000000
  ---------------------------------------------------
  free energy    TOTEN  =      -359.50724525 eV

  energy without entropy =     -359.51940388  energy(sigma->0) =     -359.51129813


--------------------------------------------------------------------------------------------------------




----------------------------------------- Iteration    1(  10)  ---------------------------------------


    POTLOK:  cpu time    0.0299: real time    0.0300
    SETDIJ:  cpu time    0.0268: real time    0.0269
    EDDIAG:  cpu time    0.1486: real time    0.1494
  RMM-DIIS:  cpu time    0.8584: real time    0.8739
    ORTHCH:  cpu time    0.0126: real time    0.0127
       DOS:  cpu time    0.0013: real time    0.0013
    CHARGE:  cpu time    0.0306: real time    0.0307
    MIXING:  cpu time    0.0015: real time    0.0015
    --------------------------------------------
      LOOP:  cpu time    1.1104: real time    1.1566

 eigenvalue-minimisations  :  7783
 total energy-change (2. order) : 0.1098600E-01  (-0.6810324E-01)
 number of electron     304.9999999 magnetization 
 augmentation part       17.8532675 magnetization 

 Broyden mixing:
  rms(total) = 0.18564E+00    rms(broyden)= 0.18559E+00
  rms(prec ) = 0.34407E+00
  weight for this iteration     100.00

 eigenvalues of (default mixing * dielectric matrix)
  average eigenvalue GAMMA=   1.0651
  1.9177  1.9177  0.6600  0.3915  0.4384

 Free energy of the ion-electron system (eV)
  ---------------------------------------------------
  alpha Z        PSCENC =      1570.56760588
  Ewald energy   TEWEN  =    -21248.39190204
  -Hartree energ DENC   =     -6631.23088946
  -exchange      EXHF   =         0.00000000
  -V(xc)+E(xc)   XCENC  =      -105.55227254
  PAW double counting   =     35245.65280964   -33711.16788130
  entropy T*S    EENTRO =         0.00941015
  eigenvalues    EBANDS =     -2837.12581953
  atomic energy  EATOM  =     27357.74267996
  Solvation  Ediel_sol  =         0.00000000
  ---------------------------------------------------
  free energy    TOTEN  =      -359.49625925 eV

  energy without entropy =     -359.50566940  energy(sigma->0) =     -359.49939597


--------------------------------------------------------------------------------------------------------




----------------------------------------- Iteration    1(  11)  ---------------------------------------


    POTLOK:  cpu time    0.0293: real time    0.0294
    SETDIJ:  cpu time    0.0037: real time    0.0037
    EDDIAG:  cpu time    0.0790: real time    0.0793
  RMM-DIIS:  cpu time    0.7849: real time    0.7879
    ORTHCH:  cpu time    0.0128: real time    0.0129
       DOS:  cpu time    0.0012: real time    0.0012
    CHARGE:  cpu time    0.0314: real time    0.0315
    MIXING:  cpu time    0.0014: real time    0.0014
    --------------------------------------------
      LOOP:  cpu time    0.9445: real time    0.9726

 eigenvalue-minimisations  :  7660
 total energy-change (2. order) : 0.4342315E-01  (-0.1927945E-01)
 number of electron     304.9999999 magnetization 
 augmentation part       17.8131638 magnetization 

 Broyden mixing:
  rms(total) = 0.93262E-01    rms(broyden)= 0.93203E-01
  rms(prec ) = 0.18305E+00
  weight for this iteration     100.00

 eigenvalues of (default mixing * dielectric matrix)
  average eigenvalue GAMMA=   1.0392
  2.1658  1.8808  0.9448  0.4900  0.3970  0.3570

 Free energy of the ion-electron system (eV)
  ---------------------------------------------------
  alpha Z        PSCENC =      1570.56760588
  Ewald energy   TEWEN  =    -21248.39190204
  -Hartree energ DENC   =     -6639.48273595
  -exchange      EXHF   =         0.00000000
  -V(xc)+E(xc)   XCENC  =      -104.94303555
  PAW double counting   =     35422.66751507   -33883.41800177
  entropy T*S    EENTRO =         0.01213763
  eigenvalues    EBANDS =     -2834.20709932
  atomic energy  EATOM  =     27357.74267996
  Solvation  Ediel_sol  =         0.00000000
  ---------------------------------------------------
  free energy    TOTEN  =      -359.45283610 eV

  energy without entropy =     -359.46497373  energy(sigma->0) =     -359.45688198


--------------------------------------------------------------------------------------------------------




----------------------------------------- Iteration    1(  12)  ---------------------------------------


    POTLOK:  cpu time    0.0287: real time    0.0288
    SETDIJ:  cpu time    0.0037: real time    0.0037
    EDDIAG:  cpu time    0.0794: real time    0.0797
  RMM-DIIS:  cpu time    0.7944: real time    0.7979
    ORTHCH:  cpu time    0.0127: real time    0.0128
       DOS:  cpu time    0.0027: real time    0.0027
    CHARGE:  cpu time    0.0303: real time    0.0304
    MIXING:  cpu time    0.0014: real time    0.0014
    --------------------------------------------
      LOOP:  cpu time    0.9540: real time    0.9875

 eigenvalue-minimisations  :  7812
 total energy-change (2. order) : 0.9793932E-02  (-0.8243515E-02)
 number of electron     304.9999999 magnetization 
 augmentation part       17.8028844 magnetization 

 Broyden mixing:
  rms(total) = 0.48688E-01    rms(broyden)= 0.48652E-01
  rms(prec ) = 0.79307E-01
  weight for this iteration     100.00

 eigenvalues of (default mixing * dielectric matrix)
  average eigenvalue GAMMA=   1.0022
  2.2363  1.8785  1.1295  0.5805  0.4753  0.3846  0.3308

 Free energy of the ion-electron system (eV)
  ---------------------------------------------------
  alpha Z        PSCENC =      1570.56760588
  Ewald energy   TEWEN  =    -21248.39190204
  -Hartree energ DENC   =     -6643.33609000
  -exchange      EXHF   =         0.00000000
  -V(xc)+E(xc)   XCENC  =      -104.64612188
  PAW double counting   =     35548.90402475   -34006.72931814
  entropy T*S    EENTRO =         0.01160032
  eigenvalues    EBANDS =     -2833.56552101
  atomic energy  EATOM  =     27357.74267996
  Solvation  Ediel_sol  =         0.00000000
  ---------------------------------------------------
  free energy    TOTEN  =      -359.44304217 eV

  energy without entropy =     -359.45464249  energy(sigma->0) =     -359.44690894


--------------------------------------------------------------------------------------------------------




----------------------------------------- Iteration    1(  13)  ---------------------------------------


    POTLOK:  cpu time    0.0292: real time    0.0293
    SETDIJ:  cpu time    0.0157: real time    0.0157
    EDDIAG:  cpu time    0.0854: real time    0.0857
  RMM-DIIS:  cpu time    0.7923: real time    0.7955
    ORTHCH:  cpu time    0.0128: real time    0.0128
       DOS:  cpu time    0.0030: real time    0.0030
    CHARGE:  cpu time    0.0303: real time    0.0304
    MIXING:  cpu time    0.0015: real time    0.0015
    --------------------------------------------
      LOOP:  cpu time    0.9708: real time    0.9991

 eigenvalue-minimisations  :  7801
 total energy-change (2. order) : 0.2582642E-02  (-0.2243453E-02)
 number of electron     304.9999999 magnetization 
 augmentation part       17.7994362 magnetization 

 Broyden mixing:
  rms(total) = 0.26996E-01    rms(broyden)= 0.26975E-01
  rms(prec ) = 0.40614E-01
  weight for this iteration     100.00

 eigenvalues of (default mixing * dielectric matrix)
  average eigenvalue GAMMA=   1.0197
  2.2751  1.9018  1.3356  0.9302  0.5522  0.4457  0.3833  0.3333

 Free energy of the ion-electron system (eV)
  ---------------------------------------------------
  alpha Z        PSCENC =      1570.56760588
  Ewald energy   TEWEN  =    -21248.39190204
  -Hartree energ DENC   =     -6644.12970193
  -exchange      EXHF   =         0.00000000
  -V(xc)+E(xc)   XCENC  =      -104.59341353
  PAW double counting   =     35612.01164914   -34068.73939823
  entropy T*S    EENTRO =         0.01145754
  eigenvalues    EBANDS =     -2833.91943631
  atomic energy  EATOM  =     27357.74267996
  Solvation  Ediel_sol  =         0.00000000
  ---------------------------------------------------
  free energy    TOTEN  =      -359.44045953 eV

  energy without entropy =     -359.45191707  energy(sigma->0) =     -359.44427871


--------------------------------------------------------------------------------------------------------




----------------------------------------- Iteration    1(  14)  ---------------------------------------


    POTLOK:  cpu time    0.0286: real time    0.0287
    SETDIJ:  cpu time    0.0236: real time    0.0237
    EDDIAG:  cpu time    0.0846: real time    0.0849
  RMM-DIIS:  cpu time    0.8142: real time    0.8391
    ORTHCH:  cpu time    0.0137: real time    0.0138
       DOS:  cpu time    0.0344: real time    0.0346
    CHARGE:  cpu time    0.0359: real time    0.0405
    MIXING:  cpu time    0.0020: real time    0.0021
    --------------------------------------------
      LOOP:  cpu time    1.0378: real time    1.1015

 eigenvalue-minimisations  :  8019
 total energy-change (2. order) : 0.1428867E-03  (-0.8072282E-03)
 number of electron     304.9999999 magnetization 
 augmentation part       17.8012275 magnetization 

 Broyden mixing:
  rms(total) = 0.17256E-01    rms(broyden)= 0.17252E-01
  rms(prec ) = 0.26738E-01
  weight for this iteration     100.00

 eigenvalues of (default mixing * dielectric matrix)
  average eigenvalue GAMMA=   1.0467
  2.3540  2.0998  1.6147  1.0901  0.5679  0.5679  0.3975  0.3975  0.3313

 Free energy of the ion-electron system (eV)
  ---------------------------------------------------
  alpha Z        PSCENC =      1570.56760588
  Ewald energy   TEWEN  =    -21248.39190204
  -Hartree energ DENC   =     -6644.21063165
  -exchange      EXHF   =         0.00000000
  -V(xc)+E(xc)   XCENC  =      -104.59151336
  PAW double counting   =     35642.86453758   -34099.12461404
  entropy T*S    EENTRO =         0.01144624
  eigenvalues    EBANDS =     -2834.30792520
  atomic energy  EATOM  =     27357.74267996
  Solvation  Ediel_sol  =         0.00000000
  ---------------------------------------------------
  free energy    TOTEN  =      -359.44031664 eV

  energy without entropy =     -359.45176288  energy(sigma->0) =     -359.44413206


--------------------------------------------------------------------------------------------------------




----------------------------------------- Iteration    1(  15)  ---------------------------------------


    POTLOK:  cpu time    0.0322: real time    0.0333
    SETDIJ:  cpu time    0.0037: real time    0.0037
    EDDIAG:  cpu time    0.0860: real time    0.0865
  RMM-DIIS:  cpu time    0.8383: real time    0.8415
    ORTHCH:  cpu time    0.0347: real time    0.0384
       DOS:  cpu time    0.0009: real time    0.0009
    CHARGE:  cpu time    0.0341: real time    0.0349
    MIXING:  cpu time    0.0174: real time    0.0175
    --------------------------------------------
      LOOP:  cpu time    1.0479: real time    1.0906

 eigenvalue-minimisations  :  8035
 total energy-change (2. order) :-0.1440543E-03  (-0.3895714E-03)
 number of electron     304.9999999 magnetization 
 augmentation part       17.8010411 magnetization 

 Broyden mixing:
  rms(total) = 0.99451E-02    rms(broyden)= 0.99421E-02
  rms(prec ) = 0.18429E-01
  weight for this iteration     100.00

 eigenvalues of (default mixing * dielectric matrix)
  average eigenvalue GAMMA=   1.0227
  2.4860  2.1617  1.6050  1.1822  0.6297  0.6297  0.4139  0.4139  0.3305  0.3747

 Free energy of the ion-electron system (eV)
  ---------------------------------------------------
  alpha Z        PSCENC =      1570.56760588
  Ewald energy   TEWEN  =    -21248.39190204
  -Hartree energ DENC   =     -6644.29921167
  -exchange      EXHF   =         0.00000000
  -V(xc)+E(xc)   XCENC  =      -104.59015116
  PAW double counting   =     35667.12063809   -34122.98546337
  entropy T*S    EENTRO =         0.01140133
  eigenvalues    EBANDS =     -2834.61605770
  atomic energy  EATOM  =     27357.74267996
  Solvation  Ediel_sol  =         0.00000000
  ---------------------------------------------------
  free energy    TOTEN  =      -359.44046070 eV

  energy without entropy =     -359.45186203  energy(sigma->0) =     -359.44426114


--------------------------------------------------------------------------------------------------------




----------------------------------------- Iteration    1(  16)  ---------------------------------------


    POTLOK:  cpu time    0.0301: real time    0.0307
    SETDIJ:  cpu time    0.0036: real time    0.0038
    EDDIAG:  cpu time    0.1194: real time    0.1203
  RMM-DIIS:  cpu time    0.8632: real time    0.8719
    ORTHCH:  cpu time    0.0135: real time    0.0135
       DOS:  cpu time    0.0078: real time    0.0078
    CHARGE:  cpu time    0.0316: real time    0.0317
    MIXING:  cpu time    0.0018: real time    0.0018
    --------------------------------------------
      LOOP:  cpu time    1.0716: real time    1.0939

 eigenvalue-minimisations  :  7653
 total energy-change (2. order) :-0.1657132E-04  (-0.1684751E-03)
 number of electron     304.9999999 magnetization 
 augmentation part       17.8003346 magnetization 

 Broyden mixing:
  rms(total) = 0.44578E-02    rms(broyden)= 0.44546E-02
  rms(prec ) = 0.84013E-02
  weight for this iteration     100.00

 eigenvalues of (default mixing * dielectric matrix)
  average eigenvalue GAMMA=   1.0063
  2.5902  2.1321  1.5995  1.2886  0.7257  0.7257  0.4724  0.4724  0.3300  0.3746
  0.3581

 Free energy of the ion-electron system (eV)
  ---------------------------------------------------
  alpha Z        PSCENC =      1570.56760588
  Ewald energy   TEWEN  =    -21248.39190204
  -Hartree energ DENC   =     -6644.59142784
[...]
     94       5.0993      2.00000
     95       5.1433      2.00000
     96       5.1773      2.00000
     97       5.2670      2.00000
     98       5.3303      2.00000
     99       5.3495      2.00000
    100       5.3928      2.00000
    101       5.4416      2.00000
    102       5.4637      2.00000
    103       5.5419      2.00000
    104       5.5603      2.00000
    105       5.5841      2.00000
    106       5.5993      2.00000
    107       5.6926      2.00000
    108       5.7937      2.00000
    109       5.8388      2.00000
    110       5.8874      2.00000
    111       5.9369      2.00000
    112       5.9772      2.00000
    113       6.0634      2.00000
    114       6.1792      2.00000
    115       6.2588      2.00000
    116       6.2930      2.00000
    117       6.3321      2.00000
    118       6.3526      2.00000
    119       6.3884      2.00000
    120       6.4248      2.00000
    121       6.4556      2.00000
    122       6.4803      2.00000
    123       6.5334      2.00000
    124       6.5608      2.00000
    125       6.5862      2.00000
    126       6.6121      2.00000
    127       6.6462      2.00000
    128       6.6903      2.00000
    129       6.7128      2.00000
    130       6.7675      2.00000
    131       6.8068      2.00000
    132       6.8417      2.00000
    133       6.8818      2.00000
    134       6.9278      2.00000
    135       6.9851      2.00000
    136       7.0040      2.00000
    137       7.0587      2.00000
    138       7.1130      2.00000
    139       7.1651      2.00001
    140       7.2006      2.00005
    141       7.2413      2.00025
    142       7.2714      2.00071
    143       7.3156      2.00284
    144       7.3405      2.00567
    145       7.3770      2.01383
    146       7.4057      2.02497
    147       7.4674      2.06035
    148       7.4813      2.06692
    149       7.5119      2.06871
    150       7.5435      2.03384
    151       7.5753      1.93454
    152       7.5968      1.82068
    153       7.6449      1.42096
    154       7.6710      1.14137
    155       7.7094      0.71364
    156       7.7543      0.29202
    157       7.7736      0.16027
    158       7.7975      0.04221
    159       7.8269     -0.03961
    160       7.8750     -0.07017
    161       7.9008     -0.05979
    162       7.9504     -0.03057
    163       7.9801     -0.01724
    164       8.0134     -0.00799
    165       8.0572     -0.00242
    166       8.1471     -0.00011
    167       8.1616     -0.00006
    168       8.1967     -0.00001
    169       8.2514     -0.00000
    170       8.2883     -0.00000
    171       8.3551     -0.00000
    172       8.4116     -0.00000
    173       8.4593     -0.00000
    174       8.5430     -0.00000
    175       8.5769     -0.00000
    176       8.6666     -0.00000
    177       8.8766     -0.00000
    178       8.9336     -0.00000
    179       8.9742     -0.00000
    180       9.5062     -0.00000
    181       9.5877     -0.00000
    182       9.6197     -0.00000
    183       9.7045     -0.00000
    184       9.7348     -0.00000


--------------------------------------------------------------------------------------------------------


 soft charge-density along one line, spin component           1
         0         1         2         3         4         5         6         7         8         9
 total charge-density along one line
 
 pseudopotential strength for first ion, spin component:           1
 -6.358  -0.002  -0.002  -0.002  -0.000  -7.549  -0.002  -0.002
 -0.002  -6.357  -0.001   0.003   0.002  -0.002  -7.548  -0.001
 -0.002  -0.001  -6.366  -0.001  -0.001  -0.002  -0.001  -7.559
 -0.002   0.003  -0.001  -6.355  -0.001  -0.002   0.004  -0.001
 -0.000   0.002  -0.001  -0.001  -6.365  -0.000   0.002  -0.002
 -7.549  -0.002  -0.002  -0.002  -0.000  -8.942  -0.003  -0.002
 -0.002  -7.548  -0.001   0.004   0.002  -0.003  -8.941  -0.001
 -0.002  -0.001  -7.559  -0.001  -0.002  -0.002  -0.001  -8.955
 -0.002   0.004  -0.001  -7.546  -0.001  -0.003   0.005  -0.001
 -0.000   0.002  -0.002  -0.001  -7.558  -0.000   0.003  -0.002
 -0.002   0.002  -0.000   0.001  -0.001  -0.002   0.003  -0.000
 -0.003   0.004  -0.000   0.001  -0.002  -0.004   0.005  -0.000
  0.002  -0.007   0.004  -0.001   0.007   0.002  -0.009   0.005
 -0.001  -0.004  -0.007   0.001  -0.000  -0.002  -0.004  -0.008
 -0.004  -0.001  -0.001  -0.007   0.001  -0.005  -0.002  -0.001
 -0.003   0.010  -0.005   0.002  -0.008  -0.004   0.011  -0.006
  0.002   0.003   0.009  -0.001  -0.000   0.003   0.003   0.011
  0.004   0.002   0.002   0.009  -0.001   0.005   0.003   0.002
 total augmentation occupancy for first ion, spin component:           1
  4.977  -0.190  -0.026  -0.194  -0.012  -2.566   0.114   0.028   0.106   0.007   0.112  -0.041  -0.034   0.011   0.103  -0.002
 -0.190   5.156  -0.107   0.246   0.234   0.114  -2.655   0.071  -0.142  -0.146  -0.227   0.042   0.096   0.019   0.017   0.007
 -0.026  -0.107   4.565  -0.072  -0.031   0.027   0.070  -2.499   0.047   0.018  -0.012  -0.001  -0.065   0.030   0.018  -0.004
 -0.194   0.246  -0.072   5.075  -0.078   0.106  -0.142   0.047  -2.602   0.061  -0.097   0.027   0.018   0.026  -0.005   0.001
 -0.012   0.234  -0.031  -0.078   4.635   0.007  -0.145   0.018   0.061  -2.525   0.046  -0.015  -0.062  -0.024   0.006  -0.006
 -2.566   0.114   0.027   0.106   0.007   1.348  -0.069  -0.021  -0.060  -0.003  -0.070   0.022   0.015  -0.008  -0.053   0.001
  0.114  -2.655   0.070  -0.142  -0.145  -0.069   1.393  -0.045   0.082   0.088   0.130  -0.024  -0.049  -0.010  -0.010  -0.003
  0.028   0.071  -2.499   0.047   0.018  -0.021  -0.045   1.379  -0.030  -0.010   0.004   0.001   0.033  -0.012  -0.008   0.002
  0.106  -0.142   0.047  -2.602   0.061  -0.060   0.082  -0.030   1.360  -0.043   0.061  -0.016  -0.011  -0.013  -0.001  -0.000
  0.007  -0.146   0.018   0.061  -2.525  -0.003   0.088  -0.010  -0.043   1.387  -0.021   0.007   0.031   0.012  -0.004   0.003
  0.112  -0.227  -0.012  -0.097   0.046  -0.070   0.130   0.004   0.061  -0.021   2.215  -0.229   0.025   0.018  -0.000   0.002
 -0.041   0.042  -0.001   0.027  -0.015   0.022  -0.024   0.001  -0.016   0.007  -0.229   0.026   0.002   0.001  -0.001  -0.000
 -0.034   0.096  -0.065   0.018  -0.062   0.015  -0.049   0.033  -0.011   0.031   0.025   0.002   0.279   0.000   0.007   0.007
  0.011   0.019   0.030   0.026  -0.024  -0.008  -0.010  -0.012  -0.013   0.012   0.018   0.001   0.000   0.278  -0.007   0.000
  0.103   0.017   0.018  -0.005   0.006  -0.053  -0.010  -0.008  -0.001  -0.004  -0.000  -0.001   0.007  -0.007   0.285   0.000
 -0.002   0.007  -0.004   0.001  -0.006   0.001  -0.003   0.002  -0.000   0.003   0.002  -0.000   0.007   0.000   0.000   0.000
  0.001   0.003   0.004   0.000  -0.000  -0.000  -0.002  -0.002  -0.000   0.000   0.003  -0.000   0.000   0.007  -0.000   0.000
  0.005   0.001   0.001   0.005  -0.001  -0.003  -0.000  -0.000  -0.003   0.000  -0.001   0.000   0.000  -0.000   0.007   0.000


------------------------ aborting loop because EDIFF is reached ----------------------------------------


    CHARGE:  cpu time    0.7155: real time    0.7187
    FORLOC:  cpu time    0.0103: real time    0.0104
    FORNL :  cpu time    0.3181: real time    0.3209
    STRESS:  cpu time    0.9121: real time    0.9190
    FORCOR:  cpu time    0.0424: real time    0.0426
    FORHAR:  cpu time    0.0180: real time    0.0181
    MIXING:  cpu time    0.0013: real time    0.0013
    OFIELD:  cpu time    0.0000: real time    0.0000

  FORCE on cell =-STRESS in cart. coord.  units (eV):
  Direction    XX          YY          ZZ          XY          YZ          ZX
  --------------------------------------------------------------------------------------
  Alpha Z  1562.06475  1562.06475  1562.06475
  Ewald   -7015.37001 -6927.25053 -7228.12966  -126.61739   411.77836   171.31972
  Hartree  2263.53024  2330.16496  2103.81158   -77.45058   382.84175   157.80023
  E(xc)   -1330.71690 -1330.53084 -1330.78489    -0.17391     0.05301     0.07945
  Local    -613.29092  -773.87380  -246.91822   206.93040  -796.63451  -329.50665
  n-local  -296.50815  -298.89087  -294.86482     4.57962     1.21638     1.24481
  augment   223.93571   224.39689   223.79746    -0.84929     0.22600    -0.08269
  Kinetic  5206.37951  5213.93137  5211.05818    -6.53484     0.52307    -0.79098
  Fock        0.00000     0.00000     0.00000     0.00000     0.00000     0.00000
  -------------------------------------------------------------------------------------
  Total       0.02424     0.01195     0.03439    -0.11600     0.00407     0.06388
  in kB       0.05317     0.02622     0.07543    -0.25443     0.00892     0.14010
  external pressure =        0.05 kB  Pullay stress =        0.00 kB


 VOLUME and BASIS-vectors are now :
 -----------------------------------------------------------------------------
  energy-cutoff  :      300.00
  volume of cell :      730.46
      direct lattice vectors                 reciprocal lattice vectors
     6.931933580  0.028867801  0.010034793     0.144262710 -0.000603140 -0.000210441
     0.042752874 10.219367295  0.018694672    -0.000407263  0.097855439 -0.000174537
     0.015119123  0.018455039 10.311648247    -0.000139651 -0.000176822  0.096978228

  length of vectors
     6.932000952 10.219473823 10.311675845     0.144264124  0.097856442  0.096978490


 FORCES acting on ions
    electron-ion (+dipol)            ewald-force                    non-local-force                 convergence-correction
 -----------------------------------------------------------------------------------------------
   0.245E+02 0.564E+02 0.195E+02   -.247E+02 -.556E+02 -.188E+02   0.158E+00 -.811E+00 -.691E+00   -.251E-02 0.113E-01 0.524E-02
   0.651E+02 0.254E+02 0.718E+01   -.645E+02 -.257E+02 -.754E+01   -.642E+00 0.201E+00 0.353E+00   -.340E-02 0.916E-02 0.118E-01
   0.497E+02 -.681E+02 0.369E+02   -.489E+02 0.675E+02 -.362E+02   -.822E+00 0.611E+00 -.725E+00   0.222E-02 -.136E-02 0.350E-03
   0.182E+01 0.545E+01 0.224E+02   -.203E+01 -.466E+01 -.231E+02   0.216E+00 -.781E+00 0.703E+00   0.806E-03 -.396E-02 -.858E-02
   -.273E+02 0.641E+02 -.624E+02   0.274E+02 -.637E+02 0.627E+02   -.168E+00 -.396E+00 -.290E+00   0.154E-02 0.382E-02 0.905E-02
   0.622E+02 -.355E+01 -.565E+02   -.622E+02 0.319E+01 0.562E+02   0.174E-01 0.366E+00 0.275E+00   -.238E-03 -.346E-02 -.212E-03
   -.530E+02 0.800E+02 -.354E+02   0.527E+02 -.798E+02 0.349E+02   0.265E+00 -.153E+00 0.472E+00   0.639E-03 0.137E-03 -.950E-02
   -.536E+02 -.836E+02 0.911E+01   0.537E+02 0.833E+02 -.861E+01   -.170E+00 0.360E+00 -.510E+00   0.312E-02 -.127E-01 0.129E-01
   0.499E+00 -.702E+02 -.557E+02   -.622E-01 0.702E+02 0.553E+02   -.449E+00 0.508E-01 0.464E+00   0.930E-02 0.224E-02 -.319E-01
   -.765E+02 0.177E+03 -.118E+03   0.760E+02 -.176E+03 0.118E+03   0.444E+00 -.568E+00 -.138E+00   -.181E-02 0.114E-01 0.105E-01
   0.143E+02 -.795E+02 0.175E+03   -.140E+02 0.790E+02 -.174E+03   -.283E+00 0.527E+00 -.633E+00   -.908E-02 -.208E-01 0.139E-01
   0.735E+01 -.495E+02 -.134E+02   -.776E+01 0.496E+02 0.128E+02   0.417E+00 -.116E+00 0.630E+00   -.833E-02 0.966E-03 -.390E-01
   -.485E+02 0.167E+03 -.382E+02   0.486E+02 -.166E+03 0.387E+02   -.867E-01 -.448E+00 -.578E+00   0.658E-02 0.303E-01 0.194E-01
   -.131E+03 0.454E+02 -.292E+02   0.129E+03 -.457E+02 0.292E+02   0.137E+01 0.303E+00 -.691E-01   0.635E-02 0.226E-01 0.324E-01
   -.802E+02 0.611E+02 0.410E+02   0.797E+02 -.622E+02 -.416E+02   0.507E+00 0.103E+01 0.637E+00   0.787E-02 0.784E-02 -.240E-01
   0.134E+02 -.544E+02 -.826E+02   -.129E+02 0.550E+02 0.823E+02   -.527E+00 -.577E+00 0.373E+00   -.106E-01 -.340E-02 -.259E-01
   -.102E+03 -.364E+01 0.500E+02   0.102E+03 0.385E+01 -.503E+02   0.169E+00 -.203E+00 0.233E+00   -.433E-02 0.422E-02 -.137E-02
   0.518E+02 0.228E+03 -.307E+02   -.520E+02 -.228E+03 0.304E+02   0.130E+00 -.522E+00 0.288E+00   -.544E-02 0.678E-02 0.226E-01
   -.163E+03 -.180E+00 -.157E+03   0.163E+03 -.386E+00 0.156E+03   -.346E-01 0.579E+00 0.425E+00   0.612E-03 -.997E-02 0.390E-02
   0.886E+02 0.148E+03 -.205E+03   -.879E+02 -.147E+03 0.205E+03   -.648E+00 -.496E+00 0.357E-01   -.154E-02 0.312E-02 -.233E-01
   0.163E+03 -.297E+03 0.584E+02   -.163E+03 0.297E+03 -.577E+02   0.147E+00 0.280E+00 -.731E+00   -.966E-02 -.346E-01 0.299E-01
   0.262E+02 -.171E+03 -.374E+02   -.272E+02 0.172E+03 0.366E+02   0.108E+01 -.197E+00 0.734E+00   -.223E-02 -.564E-02 0.509E-01
   0.106E+03 -.672E+01 0.310E+02   -.106E+03 0.673E+01 -.311E+02   0.604E+00 -.375E-02 0.149E+00   0.140E-02 -.320E-02 -.380E-01
   0.828E+02 0.977E+02 0.203E+03   -.832E+02 -.982E+02 -.203E+03   0.382E+00 0.498E+00 -.188E+00   -.714E-02 0.173E-02 -.293E-03
   0.182E+02 -.117E+03 0.864E+02   -.185E+02 0.117E+03 -.853E+02   0.365E+00 0.421E+00 -.115E+01   0.902E-02 -.220E-01 0.277E-01
   -.669E+02 -.878E+02 0.141E+03   0.674E+02 0.886E+02 -.142E+03   -.542E+00 -.723E+00 0.604E+00   -.239E-02 0.119E-02 -.379E-01
   -.279E+02 0.212E+02 0.709E+02   0.284E+02 -.215E+02 -.706E+02   -.424E+00 0.303E+00 -.358E+00   0.173E-02 0.235E-02 0.150E-03
   0.424E+02 0.165E+02 -.818E+01   -.422E+02 -.173E+02 0.785E+01   -.207E+00 0.859E+00 0.340E+00   -.302E-02 0.394E-02 -.535E-02
   -.279E+02 0.266E+01 -.218E+01   0.277E+02 -.228E+01 0.186E+01   0.153E+00 -.370E+00 0.324E+00   0.405E-02 -.271E-02 -.749E-02
   0.122E+02 -.238E+02 0.335E+01   -.127E+02 0.236E+02 -.268E+01   0.505E+00 0.188E+00 -.671E+00   -.188E-02 -.337E-02 -.380E-02
   0.310E+02 -.729E+01 -.259E+02   -.307E+02 0.745E+01 0.256E+02   -.349E+00 -.164E+00 0.285E+00   0.147E-02 0.373E-03 -.565E-03
   0.378E+02 0.671E+02 -.547E+02   -.377E+02 -.663E+02 0.546E+02   -.171E+00 -.812E+00 0.100E+00   -.711E-04 0.405E-02 0.308E-02
   -.439E+02 -.688E+02 0.258E+02   0.432E+02 0.685E+02 -.253E+02   0.700E+00 0.279E+00 -.492E+00   -.534E-03 -.127E-02 0.184E-02
   -.706E-01 0.991E+01 0.551E+02   0.125E+00 -.970E+01 -.555E+02   -.572E-01 -.207E+00 0.399E+00   -.274E-03 -.275E-02 -.847E-02
   -.830E+01 -.209E+02 -.202E+02   0.875E+01 0.207E+02 0.211E+02   -.449E+00 0.172E+00 -.895E+00   0.143E-02 -.288E-02 0.159E-02
   0.101E+02 -.581E+02 -.376E+01   -.941E+01 0.579E+02 0.335E+01   -.679E+00 0.261E+00 0.395E+00   -.398E-03 -.873E-03 0.112E-01
 -----------------------------------------------------------------------------------------------
   -.903E+00 0.268E+00 -.101E+00   -.146E-12 0.185E-12 -.210E-12   0.925E+00 -.262E+00 0.970E-01   -.167E-01 -.749E-02 0.283E-02
 
 
 POSITION                                       TOTAL-FORCE (eV/Angst)
 -----------------------------------------------------------------------------------
      1.75692      1.87069      1.79790         0.007832      0.003898      0.002362
      0.24414      0.01243      3.38288         0.001383     -0.001585     -0.000564
      0.25313     10.11713      6.99832        -0.002775     -0.003077      0.004810
      1.73542      1.90502      8.48921         0.004426      0.003654     -0.002167
      3.48468      3.51830      3.51942        -0.005765     -0.004528      0.001340
      5.22196      5.09215      5.13412         0.004603      0.000871     -0.001976
      3.38331      3.41339      6.68682        -0.004632      0.006272     -0.006179
      3.53395      6.74863      3.59707        -0.000050      0.007167     -0.000926
      0.10894      0.05468     10.28194        -0.003248      0.002072      0.001188
      1.59449      1.79667      5.16962        -0.000113      0.007852      0.002329
      1.81354      5.12949      1.72977        -0.001597     -0.003321      0.001883
      3.44096      0.07444     10.24987        -0.001424     -0.000576      0.004362
      5.21235      1.70588      1.88321        -0.000210     -0.000766     -0.001467
      3.31784     10.20454      3.50379        -0.007482     -0.001235     -0.002712
      5.07128      4.92462      8.49293         0.007473     -0.001234      0.000560
      3.74947      6.93310     10.27916         0.002545     -0.004006      0.003573
      3.47592      6.91933      6.80900        -0.000611      0.002369      0.000133
      6.91025      3.53782      3.37524        -0.007274     -0.000880      0.003951
      1.71587      5.10557      5.10893         0.003011      0.002333      0.000384
      0.06237      3.57113      6.84425         0.000562     -0.003017     -0.004448
      0.02998      6.72325      3.59491        -0.005273      0.002533     -0.000487
      1.65350      8.48572      5.10775        -0.001709     -0.002791      0.002800
      1.76291      8.42393      8.72697        -0.002329     -0.000408      0.005786
      3.45659      3.24781      0.10329        -0.001534      0.004772     -0.002552
      5.17458      5.09036      1.88782        -0.000600     -0.003081     -0.003360
      5.32972      8.78365      8.45033         0.002228     -0.002121     -0.002747
      6.91052      3.41471      0.07390         0.002622      0.004465     -0.007568
      1.86951      5.04899      8.64177         0.002910     -0.004202      0.000772
      6.78714      6.83519     10.21393        -0.005419     -0.000873      0.001174
      1.73776      8.31869      1.76373         0.000984     -0.004477     -0.001784
      6.96215      6.85008      6.91809         0.000070      0.004415     -0.002204
      5.29807      1.77054      5.16277         0.003681     -0.006638      0.000240
      3.34188     10.21738      6.93334         0.002687     -0.006768      0.000891
      5.24639      1.75617      8.43891        -0.003405      0.000419      0.000142
      5.35020      8.54955      1.96024         0.003796      0.003384      0.005314
      5.36799      8.65342      5.12223         0.004640     -0.000891     -0.002851
 -----------------------------------------------------------------------------------
    total drift:                                0.005298     -0.001746     -0.000795


--------------------------------------------------------------------------------------------------------



  FREE ENERGIE OF THE ION-ELECTRON SYSTEM (eV)
  ---------------------------------------------------
  free  energy   TOTEN  =      -359.64480327 eV

  energy  without entropy=     -359.66763159  energy(sigma->0) =     -359.65241271
 
 d Force = 0.1331983E-03[ 0.682E-04, 0.198E-03]  d Energy = 0.1283718E-03 0.483E-05
 d Force =-0.9445772E+00[-0.949E+00,-0.940E+00]  d Ewald  = 0.2043282E+01-0.299E+01


--------------------------------------------------------------------------------------------------------


    POTLOK:  cpu time    0.0343: real time    0.0344


--------------------------------------------------------------------------------------------------------




--------------------------------------------------------------------------------------------------------


  
 reached required accuracy - stopping structural energy minimisation
     LOOP+:  cpu time    8.6459: real time    8.9608
    4ORBIT:  cpu time    0.0000: real time    0.0000

 total amount of memory used by VASP on root node    68139. kBytes
========================================================================

   base      :      30000. kBytes
   nonlr-proj:      10470. kBytes
   fftplans  :       2814. kBytes
   grid      :       5360. kBytes
   one-center:        124. kBytes
   wavefun   :      19371. kBytes
 
  
  
 General timing and accounting informations for this job:
 ========================================================
  
                  Total CPU time used (sec):      304.612
                            User time (sec):      303.576
                          System time (sec):        1.036
                         Elapsed time (sec):      320.863
  
                   Maximum memory used (kb):      303224.
                   Average memory used (kb):           0.
  
                          Minor page faults:       139508
                          Major page faults:           39
                 Voluntary context switches:        10821
