<?xml version="1.0" encoding="ISO-8859-1"?>
<modeling>
 <generator>
  <i name="program" type="string">vasp </i>
  <i name="version" type="string">5.4.1  </i>
  <i name="subversion" type="string">05Feb16 (build Jan 29 2020 16:04:39) complex                          parallel </i>
  <i name="platform" type="string">IFC91_ompi </i>
  <i name="date" type="string">2020 06 15 </i>
  <i name="time" type="string">12:52:28 </i>
 </generator>
 <incar>
  <i type="string" name="SYSTEM"> automatically generated by mexm</i>
  <i type="int" name="ISTART">     0</i>
  <i type="string" name="PREC">accurate               ! avoid wrap aro</i>
  <i type="string" name="ALGO"> Fast                   ! blocked Davids</i>
  <i type="int" name="ISPIN">     1</i>
  <i type="int" name="ICHARG">     2</i>
  <i type="int" name="NELM">    70</i>
  <i type="int" name="IBRION">     2</i>
  <i name="EDIFF">      0.00001000</i>
  <i name="EDIFFG">     -0.01000000</i>
  <i type="int" name="NSW">   300</i>
  <i type="int" name="ISIF">     3</i>
  <i type="int" name="ISYM">     1</i>
  <i name="ENCUT">    300.00000000</i>
  <i name="POTIM">      0.15000000</i>
  <i type="string" name="LREAL"> Auto                  ! unpublished met</i>
  <i type="int" name="ISMEAR">     1</i>
  <i name="SIGMA">      0.15000000</i>
  <i type="logical" name="LWAVE"> F  </i>
  <i type="logical" name="LCHARG"> F  </i>
  <i type="logical" name="LVTOT"> F  </i>
  <v type="int" name="KPOINT_BSE">    -1     0     0     0</v>
  <i type="int" name="NELM">    70</i>
 </incar>
 <kpoints>
  <generation param="Gamma">
   <v type="int" name="divisions">       3        3        3 </v>
   <v name="usershift">      0.00000000       0.00000000       0.00000000 </v>
   <v name="genvec1">      0.33333333       0.00000000       0.00000000 </v>
   <v name="genvec2">      0.00000000       0.33333333       0.00000000 </v>
   <v name="genvec3">     -0.00000000      -0.00000000       0.33333333 </v>
   <v name="shift">      0.00000000       0.00000000       0.00000000 </v>
  </generation>
  <varray name="kpointlist" >
   <v>       0.00000000       0.00000000       0.00000000 </v>
   <v>       0.33333333      -0.00000000       0.00000000 </v>
   <v>      -0.00000000       0.33333333       0.00000000 </v>
   <v>       0.33333333       0.33333333       0.00000000 </v>
   <v>      -0.33333333       0.33333333      -0.00000000 </v>
   <v>       0.00000000       0.00000000       0.33333333 </v>
   <v>       0.33333333       0.00000000       0.33333333 </v>
   <v>      -0.33333333      -0.00000000       0.33333333 </v>
   <v>      -0.00000000       0.33333333       0.33333333 </v>
   <v>       0.33333333       0.33333333       0.33333333 </v>
   <v>      -0.33333333       0.33333333       0.33333333 </v>
   <v>       0.00000000      -0.33333333       0.33333333 </v>
   <v>       0.33333333      -0.33333333       0.33333333 </v>
   <v>      -0.33333333      -0.33333333       0.33333333 </v>
  </varray>
  <varray name="weights" >
   <v>       0.03703704 </v>
   <v>       0.07407407 </v>
   <v>       0.07407407 </v>
   <v>       0.07407407 </v>
   <v>       0.07407407 </v>
   <v>       0.07407407 </v>
   <v>       0.07407407 </v>
   <v>       0.07407407 </v>
   <v>       0.07407407 </v>
   <v>       0.07407407 </v>
   <v>       0.07407407 </v>
   <v>       0.07407407 </v>
   <v>       0.07407407 </v>
   <v>       0.07407407 </v>
  </varray>
 </kpoints>
 <parameters>
  <separator name="general" >
   <i type="string" name="SYSTEM">automatically generated by mexm</i>
   <i type="logical" name="LCOMPAT"> F  </i>
  </separator>
  <separator name="electronic" >
   <i type="string" name="PREC">accura</i>
   <i name="ENMAX">    300.00000000</i>
   <i name="ENAUG">    461.25700000</i>
   <i name="EDIFF">      0.00001000</i>
   <i type="int" name="IALGO">    68</i>
   <i type="int" name="IWAVPR">    11</i>
   <i type="int" name="NBANDS">   180</i>
   <i name="NELECT">    295.00000000</i>
   <i type="int" name="TURBO">     0</i>
   <i type="int" name="IRESTART">     0</i>
   <i type="int" name="NREBOOT">     0</i>
   <i type="int" name="NMIN">     0</i>
   <i name="EREF">      0.00000000</i>
   <separator name="electronic smearing" >
    <i type="int" name="ISMEAR">     1</i>
    <i name="SIGMA">      0.15000000</i>
    <i name="KSPACING">      0.50000000</i>
    <i type="logical" name="KGAMMA"> T  </i>
   </separator>
   <separator name="electronic projectors" >
    <i type="logical" name="LREAL"> T  </i>
    <v name="ROPT">     -0.00025000     -0.00025000     -0.00025000     -0.00025000</v>
    <i type="int" name="LMAXPAW">  -100</i>
    <i type="int" name="LMAXMIX">     2</i>
    <i type="logical" name="NLSPLINE"> F  </i>
   </separator>
   <separator name="electronic startup" >
    <i type="int" name="ISTART">     0</i>
    <i type="int" name="ICHARG">     2</i>
    <i type="int" name="INIWAV">     1</i>
   </separator>
   <separator name="electronic spin" >
    <i type="int" name="ISPIN">     1</i>
    <i type="logical" name="LNONCOLLINEAR"> F  </i>
    <v name="MAGMOM">      1.00000000      1.00000000      1.00000000      1.00000000      1.00000000      1.00000000      1.00000000      1.00000000      1.00000000      1.00000000      1.00000000      1.00000000      1.00000000      1.00000000      1.00000000      1.00000000      1.00000000      1.00000000      1.00000000      1.00000000
      1.00000000      1.00000000      1.00000000      1.00000000      1.00000000      1.00000000      1.00000000      1.00000000      1.00000000      1.00000000      1.00000000      1.00000000      1.00000000      1.00000000      1.00000000      1.00000000</v>
    <i name="NUPDOWN">     -1.00000000</i>
    <i type="logical" name="LSORBIT"> F  </i>
    <v name="SAXIS">      0.00000000      0.00000000      1.00000000</v>
    <i type="logical" name="LSPIRAL"> F  </i>
    <v name="QSPIRAL">      0.00000000      0.00000000      0.00000000</v>
    <i type="logical" name="LZEROZ"> F  </i>
   </separator>
   <separator name="electronic exchange-correlation" >
    <i type="logical" name="LASPH"> F  </i>
    <i type="logical" name="LMETAGGA"> F  </i>
   </separator>
   <separator name="electronic convergence" >
    <i type="int" name="NELM">    70</i>
    <i type="int" name="NELMDL">    -5</i>
    <i type="int" name="NELMIN">     2</i>
    <i name="ENINI">    300.00000000</i>
    <separator name="electronic convergence detail" >
     <i type="logical" name="LDIAG"> T  </i>
     <i type="logical" name="LSUBROT"> F  </i>
     <i name="WEIMIN">      0.00100000</i>
     <i name="EBREAK">      0.00000001</i>
     <i name="DEPER">      0.30000000</i>
     <i type="int" name="NRMM">     4</i>
     <i name="TIME">      0.40000000</i>
    </separator>
   </separator>
   <separator name="electronic mixer" >
    <i name="AMIX">      0.40000000</i>
    <i name="BMIX">      1.00000000</i>
    <i name="AMIN">      0.10000000</i>
    <i name="AMIX_MAG">      1.60000000</i>
    <i name="BMIX_MAG">      1.00000000</i>
    <separator name="electronic mixer details" >
     <i type="int" name="IMIX">     4</i>
     <i type="logical" name="MIXFIRST"> F  </i>
     <i type="int" name="MAXMIX">   -45</i>
     <i name="WC">    100.00000000</i>
     <i type="int" name="INIMIX">     1</i>
     <i type="int" name="MIXPRE">     1</i>
     <i type="int" name="MREMOVE">     5</i>
    </separator>
   </separator>
   <separator name="electronic dipolcorrection" >
    <i type="logical" name="LDIPOL"> F  </i>
    <i type="logical" name="LMONO"> F  </i>
    <i type="int" name="IDIPOL">     0</i>
    <i name="EPSILON">      1.00000000</i>
    <v name="DIPOL">   -100.00000000   -100.00000000   -100.00000000</v>
    <i name="EFIELD">      0.00000000</i>
   </separator>
  </separator>
  <separator name="grids" >
   <i type="int" name="NGX">    40</i>
   <i type="int" name="NGY">    60</i>
   <i type="int" name="NGZ">    60</i>
   <i type="int" name="NGXF">    80</i>
   <i type="int" name="NGYF">   120</i>
   <i type="int" name="NGZF">   120</i>
   <i type="logical" name="ADDGRID"> F  </i>
  </separator>
  <separator name="ionic" >
   <i type="int" name="NSW">   300</i>
   <i type="int" name="IBRION">     2</i>
   <i type="int" name="ISIF">     3</i>
   <i name="PSTRESS">      0.00000000</i>
   <i name="EDIFFG">     -0.01000000</i>
   <i type="int" name="NFREE">     1</i>
   <i name="POTIM">      0.15000000</i>
   <i name="SMASS">     -3.00000000</i>
   <i name="SCALEE">      1.00000000</i>
  </separator>
  <separator name="ionic md" >
   <i name="TEBEG">      0.00010000</i>
   <i name="TEEND">      0.00010000</i>
   <i type="int" name="NBLOCK">     1</i>
   <i type="int" name="KBLOCK">   300</i>
   <i type="int" name="NPACO">   256</i>
   <i name="APACO">     16.00000000</i>
  </separator>
  <separator name="symmetry" >
   <i type="int" name="ISYM">     1</i>
   <i name="SYMPREC">      0.00001000</i>
  </separator>
  <separator name="dos" >
   <i type="logical" name="LORBIT"> F  </i>
   <v name="RWIGS">     -1.00000000     -1.00000000     -1.00000000     -1.00000000</v>
   <i type="int" name="NEDOS">   301</i>
   <i name="EMIN">     10.00000000</i>
   <i name="EMAX">    -10.00000000</i>
   <i name="EFERMI">      0.00000000</i>
  </separator>
  <separator name="writing" >
   <i type="int" name="NWRITE">     2</i>
   <i type="logical" name="LWAVE"> F  </i>
   <i type="logical" name="LCHARG"> F  </i>
   <i type="logical" name="LPARD"> F  </i>
   <i type="logical" name="LVTOT"> F  </i>
   <i type="logical" name="LVHAR"> F  </i>
   <i type="logical" name="LELF"> F  </i>
   <i type="logical" name="LOPTICS"> F  </i>
   <v name="STM">      0.00000000      0.00000000      0.00000000      0.00000000      0.00000000      0.00000000      0.00000000</v>
  </separator>
  <separator name="performance" >
   <i type="int" name="NPAR">     4</i>
   <i type="int" name="NSIM">     4</i>
   <i type="int" name="NBLK">    -1</i>
   <i type="logical" name="LPLANE"> T  </i>
   <i type="logical" name="LSCALAPACK"> T  </i>
   <i type="logical" name="LSCAAWARE"> F  </i>
   <i type="logical" name="LSCALU"> F  </i>
   <i type="logical" name="LASYNC"> F  </i>
   <i type="logical" name="LORBITALREAL"> F  </i>
  </separator>
  <separator name="miscellaneous" >
   <i type="int" name="IDIOT">     3</i>
   <i type="logical" name="LMUSIC"> F  </i>
   <v name="POMASS">    180.94800000     92.91000000    178.49000000     91.22400000</v>
   <v name="DARWINR">      0.00000000      0.00000000      0.00000000      0.00000000</v>
   <v name="DARWINV">      1.00000000      1.00000000      1.00000000      1.00000000</v>
   <i type="logical" name="LCORR"> T  </i>
  </separator>
  <i type="logical" name="GGA_COMPAT"> T  </i>
  <i type="logical" name="LBERRY"> F  </i>
  <i type="int" name="ICORELEVEL">     0</i>
  <i type="logical" name="LDAU"> F  </i>
  <i type="int" name="I_CONSTRAINED_M">     0</i>
  <separator name="electronic exchange-correlation" >
   <i type="string" name="GGA">--</i>
   <i type="int" name="VOSKOWN">     0</i>
   <i type="logical" name="LHFCALC"> F  </i>
   <i type="string" name="PRECFOCK"></i>
   <i type="logical" name="LSYMGRAD"> F  </i>
   <i type="logical" name="LHFONE"> F  </i>
   <i type="logical" name="LRHFCALC"> F  </i>
   <i type="logical" name="LTHOMAS"> F  </i>
   <i type="logical" name="LMODELHF"> F  </i>
   <i name="ENCUT4O">     -1.00000000</i>
   <i type="int" name="EXXOEP">     0</i>
   <i type="int" name="FOURORBIT">     0</i>
   <i name="AEXX">      0.00000000</i>
   <i name="HFALPHA">      0.00000000</i>
   <i name="MCALPHA">      0.00000000</i>
   <i name="ALDAX">      1.00000000</i>
   <i name="AGGAX">      1.00000000</i>
   <i name="ALDAC">      1.00000000</i>
   <i name="AGGAC">      1.00000000</i>
   <i type="int" name="NKREDX">     1</i>
   <i type="int" name="NKREDY">     1</i>
   <i type="int" name="NKREDZ">     1</i>
   <i type="logical" name="SHIFTRED"> F  </i>
   <i type="logical" name="ODDONLY"> F  </i>
   <i type="logical" name="EVENONLY"> F  </i>
   <i type="int" name="LMAXFOCK">     0</i>
   <i type="int" name="NMAXFOCKAE">     0</i>
   <i type="logical" name="LFOCKAEDFT"> F  </i>
   <i name="HFSCREEN">      0.00000000</i>
   <i name="HFSCREENC">      0.00000000</i>
   <i type="int" name="NBANDSGWLOW">     0</i>
  </separator>
  <separator name="vdW DFT" >
   <i type="logical" name="LUSE_VDW"> F  </i>
   <i name="Zab_VDW">     -0.84910000</i>
   <i name="PARAM1">      0.12340000</i>
   <i name="PARAM2">      1.00000000</i>
   <i name="PARAM3">      0.00000000</i>
  </separator>
  <separator name="model GW" >
   <i type="int" name="MODEL_GW">     0</i>
   <i name="MODEL_EPS0">     12.43771793</i>
   <i name="MODEL_ALPHA">      1.00000000</i>
  </separator>
  <separator name="linear response parameters" >
   <i type="logical" name="LEPSILON"> F  </i>
   <i type="logical" name="LRPA"> F  </i>
   <i type="logical" name="LNABLA"> F  </i>
   <i type="logical" name="LVEL"> F  </i>
   <i type="int" name="KINTER">     0</i>
   <i name="CSHIFT">      0.10000000</i>
   <i name="OMEGAMAX">     -1.00000000</i>
   <i name="DEG_THRESHOLD">      0.00200000</i>
  </separator>
  <separator name="orbital magnetization" >
   <i type="logical" name="NUCIND"> F  </i>
   <v name="MAGPOS">      0.00000000      0.00000000      0.00000000</v>
   <i type="logical" name="LNICSALL"> T  </i>
   <i type="logical" name="ORBITALMAG"> F  </i>
   <i type="logical" name="LMAGBLOCH"> F  </i>
   <i type="logical" name="LCHIMAG"> F  </i>
   <i type="logical" name="LGAUGE"> T  </i>
   <i type="int" name="MAGATOM">     0</i>
   <v name="MAGDIPOL">      0.00000000      0.00000000      0.00000000</v>
   <v name="AVECCONST">      0.00000000      0.00000000      0.00000000</v>
  </separator>
  <separator name="response functions" >
   <i type="logical" name="LADDER"> F  </i>
   <i type="logical" name="LFXC"> F  </i>
   <i type="logical" name="LHARTREE"> T  </i>
   <i type="int" name="IBSE">     0</i>
   <v type="int" name="KPOINT">    -1     0     0     0</v>
   <i type="logical" name="LTCTE"> F  </i>
   <i type="logical" name="LTETE"> F  </i>
   <i type="logical" name="LTRIPLET"> F  </i>
   <i type="logical" name="LFXCEPS"> F  </i>
   <i type="logical" name="LFXHEG"> F  </i>
   <i type="int" name="NATURALO">     0</i>
   <i type="logical" name="L2ORDER"> F  </i>
   <i type="logical" name="LUSEW"> F  </i>
   <i name="ENCUTGW">     -2.00000000</i>
   <i name="ENCUTGWSOFT">     -2.00000000</i>
   <i name="ENCUTLF">     -1.00000000</i>
   <i type="int" name="LMAXMP2">    -1</i>
   <i name="SCISSOR">      0.00000000</i>
   <i type="int" name="NOMEGA">     0</i>
   <i type="int" name="NOMEGAR">     0</i>
   <i type="int" name="NBANDSGW">    -1</i>
   <i type="int" name="NBANDSO">    -1</i>
   <i type="int" name="NBANDSV">    -1</i>
   <i type="int" name="NELM">    70</i>
   <i type="int" name="NELMHF">     1</i>
   <i type="int" name="DIM">     3</i>
   <i type="int" name="ANTIRES">     0</i>
   <i name="OMEGAMAX">    -30.00000000</i>
   <i name="OMEGAMIN">    -30.00000000</i>
   <i name="OMEGATL">   -200.00000000</i>
   <i type="int" name="OMEGAGRID">     0</i>
   <i name="CSHIFT">     -0.10000000</i>
   <i type="logical" name="SELFENERGY"> F  </i>
   <i type="logical" name="LSPECTRAL"> F  </i>
   <i type="logical" name="LSPECTRALGW"> F  </i>
   <i type="logical" name="LSINGLES"> F  </i>
   <i type="logical" name="LFERMIGW"> F  </i>
   <i type="logical" name="ODDONLYGW"> F  </i>
   <i type="logical" name="EVENONLYGW"> F  </i>
   <i type="int" name="NKREDLFX">     1</i>
   <i type="int" name="NKREDLFY">     1</i>
   <i type="int" name="NKREDLFZ">     1</i>
   <i type="int" name="MAXMEM">  1800</i>
   <i type="int" name="TELESCOPE">     0</i>
   <i type="int" name="TAUPAR">     1</i>
   <i type="int" name="OMEGAPAR">    -1</i>
   <i name="LAMBDA">      1.00000000</i>
  </separator>
  <separator name="External order field" >
   <i name="OFIELD_KAPPA">      0.00000000</i>
   <v name="OFIELD_K">      0.00000000      0.00000000      0.00000000</v>
   <i name="OFIELD_Q6_NEAR">      0.00000000</i>
   <i name="OFIELD_Q6_FAR">      0.00000000</i>
   <i name="OFIELD_A">      0.00000000</i>
  </separator>
 </parameters>
 <atominfo>
  <atoms>      36 </atoms>
  <types>       4 </types>
  <array name="atoms" >
   <dimension dim="1">ion</dimension>
   <field type="string">element</field>
   <field type="int">atomtype</field>
   <set>
    <rc><c>Ta</c><c>   1</c></rc>
    <rc><c>Ta</c><c>   1</c></rc>
    <rc><c>Ta</c><c>   1</c></rc>
    <rc><c>Ta</c><c>   1</c></rc>
    <rc><c>Ta</c><c>   1</c></rc>
    <rc><c>Ta</c><c>   1</c></rc>
    <rc><c>Ta</c><c>   1</c></rc>
    <rc><c>Ta</c><c>   1</c></rc>
    <rc><c>Ta</c><c>   1</c></rc>
    <rc><c>Ta</c><c>   1</c></rc>
    <rc><c>Nb</c><c>   2</c></rc>
    <rc><c>Nb</c><c>   2</c></rc>
    <rc><c>Nb</c><c>   2</c></rc>
    <rc><c>Nb</c><c>   2</c></rc>
    <rc><c>Nb</c><c>   2</c></rc>
    <rc><c>Hf</c><c>   3</c></rc>
    <rc><c>Hf</c><c>   3</c></rc>
    <rc><c>Hf</c><c>   3</c></rc>
    <rc><c>Hf</c><c>   3</c></rc>
    <rc><c>Hf</c><c>   3</c></rc>
    <rc><c>Hf</c><c>   3</c></rc>
    <rc><c>Hf</c><c>   3</c></rc>
    <rc><c>Hf</c><c>   3</c></rc>
    <rc><c>Hf</c><c>   3</c></rc>
    <rc><c>Zr</c><c>   4</c></rc>
    <rc><c>Zr</c><c>   4</c></rc>
    <rc><c>Zr</c><c>   4</c></rc>
    <rc><c>Zr</c><c>   4</c></rc>
    <rc><c>Zr</c><c>   4</c></rc>
    <rc><c>Zr</c><c>   4</c></rc>
    <rc><c>Zr</c><c>   4</c></rc>
    <rc><c>Zr</c><c>   4</c></rc>
    <rc><c>Zr</c><c>   4</c></rc>
    <rc><c>Zr</c><c>   4</c></rc>
    <rc><c>Zr</c><c>   4</c></rc>
    <rc><c>Zr</c><c>   4</c></rc>
   </set>
  </array>
  <array name="atomtypes" >
   <dimension dim="1">type</dimension>
   <field type="int">atomspertype</field>
   <field type="string">element</field>
   <field>mass</field>
   <field>valence</field>
   <field type="string">pseudopotential</field>
   <set>
    <rc><c>  10</c><c>Ta</c><c>    180.94800000</c><c>      5.00000000</c><c>  PAW_PBE Ta 17Jan2003                  </c></rc>
    <rc><c>   5</c><c>Nb</c><c>     92.91000000</c><c>     13.00000000</c><c>  PAW_PBE Nb_sv 25May2007               </c></rc>
    <rc><c>   9</c><c>Hf</c><c>    178.49000000</c><c>      4.00000000</c><c>  PAW_PBE Hf 20Jan2003                  </c></rc>
    <rc><c>  12</c><c>Zr</c><c>     91.22400000</c><c>     12.00000000</c><c>  PAW_PBE Zr_sv 04Jan2005               </c></rc>
   </set>
  </array>
 </atominfo>
 <structure name="initialpos" >
  <crystal>
   <varray name="basis" >
    <v>       7.01816308       0.03185535       0.02424319 </v>
    <v>       0.04700983      10.29640559       0.01879096 </v>
    <v>       0.03434950       0.01866626      10.32757255 </v>
   </varray>
   <i name="volume">    746.26307569 </i>
   <varray name="rec_basis" >
    <v>       0.14249201      -0.00064971      -0.00047275 </v>
    <v>      -0.00044024       0.09712360      -0.00017408 </v>
    <v>      -0.00033369      -0.00017519       0.09682960 </v>
   </varray>
  </crystal>
  <varray name="positions" >
   <v>       0.49545200       0.67539700       0.00964100 </v>
   <v>       0.00963900       0.68068200       0.01292100 </v>
   <v>       0.74590700       0.83952600       0.16953500 </v>
   <v>       0.98954400       0.99741200       0.32411400 </v>
   <v>       0.25317900       0.84714100       0.17126200 </v>
   <v>       0.73943100       0.14572000       0.48852500 </v>
   <v>       0.22165300       0.50162700       0.50367900 </v>
   <v>       0.04579600       0.68018900       0.66877000 </v>
   <v>       0.76025800       0.50859900       0.15132800 </v>
   <v>       0.23687500       0.84259700       0.48479200 </v>
   <v>       0.50535700       0.99317400       0.33104700 </v>
   <v>       0.72967200       0.15268800       0.17300800 </v>
   <v>       0.24169200       0.83343200       0.84422600 </v>
   <v>       0.53494400       0.34080400       0.01293200 </v>
   <v>       0.49960600       0.98248400       0.00542000 </v>
   <v>       0.47537000       0.99106800       0.66284000 </v>
   <v>       0.28065800       0.17432300       0.85037800 </v>
   <v>       0.99285300       0.99941000       0.00164700 </v>
   <v>       0.01036800       0.00600100       0.67247000 </v>
   <v>       0.00686800       0.67213500       0.31886000 </v>
   <v>       0.50372600       0.33946000       0.64543200 </v>
   <v>       0.97069800       0.31488600       0.00260300 </v>
   <v>       0.76242400       0.51077200       0.83529700 </v>
   <v>       0.46705900       0.66973300       0.66049100 </v>
   <v>       0.70914500       0.16261800       0.83722800 </v>
   <v>       0.51798100       0.34589100       0.33913900 </v>
   <v>       0.99736900       0.31530200       0.66881100 </v>
   <v>       0.24724600       0.48630500       0.15350600 </v>
   <v>       0.97521100       0.33212600       0.33007600 </v>
   <v>       0.49670700       0.66371100       0.33211200 </v>
   <v>       0.25507300       0.16064300       0.48107300 </v>
   <v>       0.78659700       0.52250800       0.52060200 </v>
   <v>       0.75919000       0.83790300       0.50125200 </v>
   <v>       0.25269600       0.49235000       0.84124000 </v>
   <v>       0.26372800       0.16262600       0.16604400 </v>
   <v>       0.76001300       0.81876000       0.82769200 </v>
  </varray>
 </structure>
 <calculation>
  <scstep>
   <time name="dav">    1.16    1.19</time>
   <time name="total">    1.23    1.69</time>
   <energy>
    <i name="alphaZ">   1483.92509027 </i>
    <i name="ewald"> -19469.15999408 </i>
    <i name="hartreedc">  -6519.27438524 </i>
    <i name="XCdc">   -261.54963809 </i>
    <i name="pawpsdc">  21222.44937796 </i>
    <i name="pawaedc"> -19630.83424102 </i>
    <i name="eentropy">      0.00171696 </i>
    <i name="bandstr">   -171.72183280 </i>
    <i name="atom">  25175.14332663 </i>
    <i name="e_fr_energy">   1828.97942058 </i>
    <i name="e_wo_entrp">   1828.97770362 </i>
    <i name="e_0_energy">   1828.97884826 </i>
   </energy>
  </scstep>
  <scstep>
   <time name="dav">    0.97    0.98</time>
   <time name="total">    0.98    1.19</time>
   <energy>
    <i name="e_fr_energy">    -72.28196373 </i>
    <i name="e_wo_entrp">    -72.28398667 </i>
    <i name="e_0_energy">    -72.28263804 </i>
   </energy>
  </scstep>
  <scstep>
   <time name="dav">    1.53    1.54</time>
   <time name="total">    1.53    1.59</time>
   <energy>
    <i name="e_fr_energy">   -336.52738183 </i>
    <i name="e_wo_entrp">   -336.53210245 </i>
    <i name="e_0_energy">   -336.52895537 </i>
   </energy>
  </scstep>
  <scstep>
   <time name="dav">    1.32    1.56</time>
   <time name="total">    1.32    1.60</time>
   <energy>
    <i name="e_fr_energy">   -369.36231869 </i>
    <i name="e_wo_entrp">   -369.37278719 </i>
    <i name="e_0_energy">   -369.36580819 </i>
   </energy>
  </scstep>
  <scstep>
   <time name="dav">    1.29    1.30</time>
   <time name="total">    1.33    1.38</time>
   <energy>
    <i name="e_fr_energy">   -372.70866805 </i>
    <i name="e_wo_entrp">   -372.71972983 </i>
    <i name="e_0_energy">   -372.71235531 </i>
   </energy>
  </scstep>
  <scstep>
   <time name="diag">    0.13    0.13</time>
   <time name="diis">    0.80    0.81</time>
   <time name="orth">    0.01    0.01</time>
   <time name="total">    1.01    1.07</time>
   <energy>
    <i name="e_fr_energy">   -362.36852855 </i>
    <i name="e_wo_entrp">   -362.38697450 </i>
    <i name="e_0_energy">   -362.37467720 </i>
   </energy>
  </scstep>
  <scstep>
   <time name="diag">    0.08    0.08</time>
   <time name="diis">    0.76    0.76</time>
   <time name="orth">    0.01    0.01</time>
   <time name="total">    0.91    0.96</time>
   <energy>
    <i name="e_fr_energy">   -364.48663922 </i>
    <i name="e_wo_entrp">   -364.48371365 </i>
    <i name="e_0_energy">   -364.48566403 </i>
   </energy>
  </scstep>
  <scstep>
   <time name="diag">    0.08    0.08</time>
   <time name="diis">    0.79    0.80</time>
   <time name="orth">    0.01    0.01</time>
   <time name="total">    0.95    1.00</time>
   <energy>
    <i name="e_fr_energy">   -358.11497432 </i>
    <i name="e_wo_entrp">   -358.14066255 </i>
    <i name="e_0_energy">   -358.12353706 </i>
   </energy>
  </scstep>
  <scstep>
   <time name="diag">    0.08    0.08</time>
   <time name="diis">    0.80    0.86</time>
   <time name="orth">    0.01    0.02</time>
   <time name="total">    1.01    1.13</time>
   <energy>
    <i name="e_fr_energy">   -357.90269194 </i>
    <i name="e_wo_entrp">   -357.92567886 </i>
    <i name="e_0_energy">   -357.91035425 </i>
   </energy>
  </scstep>
  <scstep>
   <time name="diag">    0.09    0.09</time>
   <time name="diis">    0.85    0.85</time>
   <time name="orth">    0.01    0.01</time>
   <time name="total">    1.03    1.13</time>
   <energy>
    <i name="e_fr_energy">   -357.88499631 </i>
    <i name="e_wo_entrp">   -357.90804490 </i>
    <i name="e_0_energy">   -357.89267917 </i>
   </energy>
  </scstep>
  <scstep>
   <time name="diag">    0.09    0.09</time>
   <time name="diis">    0.69    0.82</time>
   <time name="orth">    0.01    0.01</time>
   <time name="total">    0.85    1.04</time>
   <energy>
    <i name="e_fr_energy">   -357.85462092 </i>
    <i name="e_wo_entrp">   -357.87860320 </i>
    <i name="e_0_energy">   -357.86261502 </i>
   </energy>
  </scstep>
  <scstep>
   <time name="diag">    0.08    0.08</time>
   <time name="diis">    0.77    0.77</time>
   <time name="orth">    0.01    0.01</time>
   <time name="total">    0.93    0.99</time>
   <energy>
    <i name="e_fr_energy">   -357.84984568 </i>
    <i name="e_wo_entrp">   -357.87309155 </i>
    <i name="e_0_energy">   -357.85759431 </i>
   </energy>
  </scstep>
  <scstep>
   <time name="diag">    0.08    0.08</time>
   <time name="diis">    0.84    0.85</time>
   <time name="orth">    0.01    0.01</time>
   <time name="total">    1.02    1.08</time>
   <energy>
    <i name="e_fr_energy">   -357.84773342 </i>
    <i name="e_wo_entrp">   -357.87134057 </i>
    <i name="e_0_energy">   -357.85560247 </i>
   </energy>
  </scstep>
  <scstep>
   <time name="diag">    0.09    0.09</time>
   <time name="diis">    0.82    0.83</time>
   <time name="orth">    0.01    0.01</time>
   <time name="total">    0.99    1.04</time>
   <energy>
    <i name="e_fr_energy">   -357.84785234 </i>
    <i name="e_wo_entrp">   -357.87120935 </i>
    <i name="e_0_energy">   -357.85563801 </i>
   </energy>
  </scstep>
  <scstep>
   <time name="diag">    0.08    0.08</time>
   <time name="diis">    0.86    0.86</time>
   <time name="orth">    0.01    0.01</time>
   <time name="total">    1.02    1.06</time>
   <energy>
    <i name="e_fr_energy">   -357.84799213 </i>
    <i name="e_wo_entrp">   -357.87151905 </i>
    <i name="e_0_energy">   -357.85583444 </i>
   </energy>
  </scstep>
  <scstep>
   <time name="diag">    0.08    0.08</time>
   <time name="diis">    0.72    0.72</time>
   <time name="orth">    0.01    0.01</time>
   <time name="total">    0.87    0.94</time>
   <energy>
    <i name="e_fr_energy">   -357.84800292 </i>
    <i name="e_wo_entrp">   -357.87139868 </i>
    <i name="e_0_energy">   -357.85580151 </i>
   </energy>
  </scstep>
  <scstep>
   <time name="diag">    0.08    0.08</time>
   <time name="diis">    0.67    0.67</time>
   <time name="orth">    0.01    0.01</time>
   <time name="total">    0.83    0.87</time>
   <energy>
    <i name="e_fr_energy">   -357.84798819 </i>
    <i name="e_wo_entrp">   -357.87147507 </i>
    <i name="e_0_energy">   -357.85581715 </i>
   </energy>
  </scstep>
  <scstep>
   <time name="diag">    0.08    0.08</time>
   <time name="diis">    0.58    0.58</time>
   <time name="orth">    0.01    0.01</time>
   <time name="total">    0.74    0.78</time>
   <energy>
    <i name="e_fr_energy">   -357.84800787 </i>
    <i name="e_wo_entrp">   -357.87147317 </i>
    <i name="e_0_energy">   -357.85582964 </i>
   </energy>
  </scstep>
  <scstep>
   <time name="diag">    0.08    0.08</time>
   <time name="diis">    0.54    0.54</time>
   <time name="orth">    0.01    0.01</time>
   <time name="total">    0.77    0.83</time>
   <energy>
    <i name="e_fr_energy">   -357.84801403 </i>
    <i name="e_wo_entrp">   -357.87149076 </i>
    <i name="e_0_energy">   -357.85583961 </i>
   </energy>
  </scstep>
  <scstep>
   <time name="diag">    0.08    0.08</time>
   <time name="diis">    0.42    0.43</time>
   <time name="orth">    0.01    0.01</time>
   <time name="total">    0.55    0.59</time>
   <energy>
    <i name="alphaZ">   1483.92509027 </i>
    <i name="ewald"> -19469.15999408 </i>
    <i name="hartreedc">  -6272.90457365 </i>
    <i name="XCdc">   -262.07270119 </i>
    <i name="pawpsdc">  34082.67810020 </i>
    <i name="pawaedc"> -32475.09112500 </i>
    <i name="eentropy">      0.02347081 </i>
    <i name="bandstr">  -2620.38960913 </i>
    <i name="atom">  25175.14332663 </i>
    <i name="e_fr_energy">   -357.84801514 </i>
    <i name="e_wo_entrp">   -357.87148595 </i>
    <i name="e_0_energy">   -357.85583874 </i>
   </energy>
  </scstep>
  <structure>
   <crystal>
    <varray name="basis" >
     <v>       7.01816308       0.03185535       0.02424319 </v>
     <v>       0.04700983      10.29640559       0.01879096 </v>
     <v>       0.03434950       0.01866626      10.32757255 </v>
    </varray>
    <i name="volume">    746.26307569 </i>
    <varray name="rec_basis" >
     <v>       0.14249201      -0.00064971      -0.00047275 </v>
     <v>      -0.00044024       0.09712360      -0.00017408 </v>
     <v>      -0.00033369      -0.00017519       0.09682960 </v>
    </varray>
   </crystal>
   <varray name="positions" >
    <v>       0.49545200       0.67539700       0.00964100 </v>
    <v>       0.00963900       0.68068200       0.01292100 </v>
    <v>       0.74590700       0.83952600       0.16953500 </v>
    <v>       0.98954400       0.99741200       0.32411400 </v>
    <v>       0.25317900       0.84714100       0.17126200 </v>
    <v>       0.73943100       0.14572000       0.48852500 </v>
    <v>       0.22165300       0.50162700       0.50367900 </v>
    <v>       0.04579600       0.68018900       0.66877000 </v>
    <v>       0.76025800       0.50859900       0.15132800 </v>
    <v>       0.23687500       0.84259700       0.48479200 </v>
    <v>       0.50535700       0.99317400       0.33104700 </v>
    <v>       0.72967200       0.15268800       0.17300800 </v>
    <v>       0.24169200       0.83343200       0.84422600 </v>
    <v>       0.53494400       0.34080400       0.01293200 </v>
    <v>       0.49960600       0.98248400       0.00542000 </v>
    <v>       0.47537000       0.99106800       0.66284000 </v>
    <v>       0.28065800       0.17432300       0.85037800 </v>
    <v>       0.99285300       0.99941000       0.00164700 </v>
    <v>       0.01036800       0.00600100       0.67247000 </v>
    <v>       0.00686800       0.67213500       0.31886000 </v>
    <v>       0.50372600       0.33946000       0.64543200 </v>
    <v>       0.97069800       0.31488600       0.00260300 </v>
    <v>       0.76242400       0.51077200       0.83529700 </v>
    <v>       0.46705900       0.66973300       0.66049100 </v>
    <v>       0.70914500       0.16261800       0.83722800 </v>
    <v>       0.51798100       0.34589100       0.33913900 </v>
    <v>       0.99736900       0.31530200       0.66881100 </v>
    <v>       0.24724600       0.48630500       0.15350600 </v>
    <v>       0.97521100       0.33212600       0.33007600 </v>
    <v>       0.49670700       0.66371100       0.33211200 </v>
    <v>       0.25507300       0.16064300       0.48107300 </v>
    <v>       0.78659700       0.52250800       0.52060200 </v>
    <v>       0.75919000       0.83790300       0.50125200 </v>
    <v>       0.25269600       0.49235000       0.84124000 </v>
    <v>       0.26372800       0.16262600       0.16604400 </v>
    <v>       0.76001300       0.81876000       0.82769200 </v>
   </varray>
  </structure>
  <varray name="forces" >
   <v>       0.17746552      -0.03087798       0.06557765 </v>
   <v>       0.00301266       0.04472317       0.02564757 </v>
   <v>      -0.25501691      -0.30481075      -0.30836470 </v>
   <v>      -0.00301995       0.04519484       0.02113736 </v>
   <v>       0.21438609      -0.36493969      -0.28105116 </v>
   <v>       0.01728915      -0.00388661      -0.00317223 </v>
   <v>       0.01565371       0.02502842       0.00774481 </v>
   <v>       0.00234414      -0.02214438      -0.00306982 </v>
   <v>      -0.47626300       0.34966899      -0.22488334 </v>
   <v>       0.02388257      -0.02634357      -0.00312745 </v>
   <v>      -0.00604459       0.01428575       0.01233950 </v>
   <v>      -0.02967736       0.00346998      -0.02304180 </v>
   <v>       0.32377561      -0.32095669       0.25559573 </v>
   <v>       0.03571329       0.02901396       0.01026597 </v>
   <v>       0.00358138      -0.00231003       0.01007128 </v>
   <v>      -0.01729895       0.02718565      -0.02328900 </v>
   <v>       0.01893461      -0.01306412      -0.00149659 </v>
   <v>       0.00030324       0.01147911       0.02460281 </v>
   <v>       0.01300101       0.04234047       0.00193612 </v>
   <v>      -0.02420161       0.02411146       0.04105017 </v>
   <v>       0.03146248      -0.01281316       0.00168324 </v>
   <v>      -0.01283354      -0.01207734      -0.02967697 </v>
   <v>      -0.23737294       0.18674749       0.20603019 </v>
   <v>      -0.02900840       0.00492417       0.04609566 </v>
   <v>      -0.01051542       0.00900424       0.00978684 </v>
   <v>       0.01469850      -0.03204760      -0.00194453 </v>
   <v>      -0.01190828      -0.04560193      -0.02479358 </v>
   <v>       0.28643838       0.36480081      -0.17959067 </v>
   <v>      -0.00798931      -0.04034172       0.02866531 </v>
   <v>      -0.00917996      -0.02439757      -0.07004066 </v>
   <v>      -0.00966390      -0.00741417      -0.00184789 </v>
   <v>      -0.00108811      -0.00874560       0.00894136 </v>
   <v>       0.00075354      -0.00131048      -0.01342447 </v>
   <v>       0.18186452       0.25007809       0.14124817 </v>
   <v>       0.01949159      -0.00624824       0.00073843 </v>
   <v>      -0.24296977      -0.15172497       0.27365670 </v>
  </varray>
  <varray name="stress" >
   <v>      -8.88428797       0.35464691      -0.57175581 </v>
   <v>       0.35464696      -7.03842690      -0.24822399 </v>
   <v>      -0.57175579      -0.24822398      -6.90322406 </v>
  </varray>
  <energy>
   <i name="e_fr_energy">   -357.84801514 </i>
   <i name="e_wo_entrp">   -357.85583874 </i>
   <i name="e_0_energy">      0.02347081 </i>
  </energy>
  <time name="totalsc">   21.52   23.86</time>
 </calculation>
 <calculation>
  <scstep>
   <time name="dav">    1.12    1.14</time>
   <time name="total">    1.21    1.41</time>
   <energy>
    <i name="alphaZ">   1490.28596540 </i>
    <i name="ewald"> -19497.14820863 </i>
    <i name="hartreedc">  -6281.65117536 </i>
    <i name="XCdc">   -260.83063809 </i>
    <i name="pawpsdc">  34082.82683503 </i>
    <i name="pawaedc"> -32475.23720250 </i>
    <i name="eentropy">      0.02372634 </i>
    <i name="bandstr">  -2591.33045291 </i>
    <i name="atom">  25175.14332663 </i>
    <i name="e_fr_energy">   -357.91782409 </i>
    <i name="e_wo_entrp">   -357.94155043 </i>
    <i name="e_0_energy">   -357.92573287 </i>
   </energy>
  </scstep>
  <scstep>
   <time name="diag">    0.08    0.08</time>
   <time name="diis">    0.73    0.73</time>
   <time name="orth">    0.01    0.01</time>
   <time name="total">    0.90    0.93</time>
   <energy>
    <i name="e_fr_energy">   -357.89890106 </i>
    <i name="e_wo_entrp">   -357.92066771 </i>
    <i name="e_0_energy">   -357.90615661 </i>
   </energy>
  </scstep>
  <scstep>
   <time name="diag">    0.08    0.08</time>
   <time name="diis">    0.78    0.78</time>
   <time name="orth">    0.01    0.01</time>
   <time name="total">    0.93    0.98</time>
   <energy>
    <i name="e_fr_energy">   -357.89104510 </i>
    <i name="e_wo_entrp">   -357.91524784 </i>
    <i name="e_0_energy">   -357.89911268 </i>
   </energy>
  </scstep>
  <scstep>
   <time name="diag">    0.08    0.08</time>
   <time name="diis">    0.80    0.81</time>
   <time name="orth">    0.01    0.01</time>
   <time name="total">    1.00    1.04</time>
   <energy>
    <i name="e_fr_energy">   -357.88422756 </i>
    <i name="e_wo_entrp">   -357.90688509 </i>
    <i name="e_0_energy">   -357.89178007 </i>
   </energy>
  </scstep>
  <scstep>
   <time name="diag">    0.09    0.09</time>
   <time name="diis">    0.80    0.81</time>
   <time name="orth">    0.01    0.01</time>
   <time name="total">    0.97    1.02</time>
   <energy>
    <i name="e_fr_energy">   -357.88358215 </i>
    <i name="e_wo_entrp">   -357.90654641 </i>
    <i name="e_0_energy">   -357.89123690 </i>
   </energy>
  </scstep>
  <scstep>
   <time name="diag">    0.11    0.11</time>
   <time name="diis">    0.81    0.81</time>
   <time name="orth">    0.01    0.01</time>
   <time name="total">    1.00    1.05</time>
   <energy>
    <i name="e_fr_energy">   -357.88377370 </i>
    <i name="e_wo_entrp">   -357.90672659 </i>
    <i name="e_0_energy">   -357.89142466 </i>
   </energy>
  </scstep>
  <scstep>
   <time name="diag">    0.08    0.08</time>
   <time name="diis">    0.74    0.75</time>
   <time name="orth">    0.01    0.01</time>
   <time name="total">    0.90    0.95</time>
   <energy>
    <i name="e_fr_energy">   -357.88384923 </i>
    <i name="e_wo_entrp">   -357.90681393 </i>
    <i name="e_0_energy">   -357.89150413 </i>
   </energy>
  </scstep>
  <scstep>
   <time name="diag">    0.08    0.08</time>
   <time name="diis">    0.75    0.76</time>
   <time name="orth">    0.01    0.01</time>
   <time name="total">    0.95    1.00</time>
   <energy>
    <i name="e_fr_energy">   -357.88392471 </i>
    <i name="e_wo_entrp">   -357.90685960 </i>
    <i name="e_0_energy">   -357.89156967 </i>
   </energy>
  </scstep>
  <scstep>
   <time name="diag">    0.08    0.08</time>
   <time name="diis">    0.63    0.63</time>
   <time name="orth">    0.01    0.01</time>
   <time name="total">    0.79    0.83</time>
   <energy>
    <i name="e_fr_energy">   -357.88397837 </i>
    <i name="e_wo_entrp">   -357.90694235 </i>
    <i name="e_0_energy">   -357.89163303 </i>
   </energy>
  </scstep>
  <scstep>
   <time name="diag">    0.13    0.13</time>
   <time name="diis">    0.57    0.58</time>
   <time name="orth">    0.01    0.01</time>
   <time name="total">    0.83    0.88</time>
   <energy>
    <i name="e_fr_energy">   -357.88402453 </i>
    <i name="e_wo_entrp">   -357.90697260 </i>
    <i name="e_0_energy">   -357.89167389 </i>
   </energy>
  </scstep>
  <scstep>
   <time name="diag">    0.09    0.09</time>
   <time name="diis">    0.49    0.49</time>
   <time name="orth">    0.01    0.01</time>
   <time name="total">    0.66    0.70</time>
   <energy>
    <i name="e_fr_energy">   -357.88404390 </i>
    <i name="e_wo_entrp">   -357.90699518 </i>
    <i name="e_0_energy">   -357.89169433 </i>
   </energy>
  </scstep>
  <scstep>
   <time name="diag">    0.09    0.14</time>
   <time name="diis">    0.40    0.47</time>
   <time name="orth">    0.01    0.03</time>
   <time name="total">    0.53    0.73</time>
   <energy>
    <i name="alphaZ">   1490.28596540 </i>
    <i name="ewald"> -19497.14820863 </i>
    <i name="hartreedc">  -6264.73088974 </i>
    <i name="XCdc">   -261.57414058 </i>
    <i name="pawpsdc">  34280.31244034 </i>
    <i name="pawaedc"> -32672.41796498 </i>
    <i name="eentropy">      0.02295531 </i>
    <i name="bandstr">  -2607.77753280 </i>
    <i name="atom">  25175.14332663 </i>
    <i name="e_fr_energy">   -357.88404905 </i>
    <i name="e_wo_entrp">   -357.90700436 </i>
    <i name="e_0_energy">   -357.89170082 </i>
   </energy>
  </scstep>
  <structure>
   <crystal>
    <varray name="basis" >
     <v>       7.00648705       0.03227831       0.02345898 </v>
     <v>       0.04761339      10.28283744       0.01828305 </v>
     <v>       0.03318789       0.01816390      10.31421800 </v>
    </varray>
    <i name="volume">    743.07785732 </i>
    <varray name="rec_basis" >
     <v>       0.14272945      -0.00066008      -0.00045810 </v>
     <v>      -0.00044746       0.09725180      -0.00016983 </v>
     <v>      -0.00032384      -0.00017089       0.09695489 </v>
    </varray>
   </crystal>
   <varray name="positions" >
    <v>       0.49581782       0.67535230       0.00973212 </v>
    <v>       0.00964462       0.68074478       0.01295681 </v>
    <v>       0.74538607       0.83909994       0.16910486 </v>
    <v>       0.98953720       0.99747549       0.32414352 </v>
    <v>       0.25362647       0.84662736       0.17086803 </v>
    <v>       0.73946671       0.14571443       0.48852048 </v>
    <v>       0.22168499       0.50166206       0.50368971 </v>
    <v>       0.04580106       0.68015787       0.66876574 </v>
    <v>       0.75927407       0.50909411       0.15101426 </v>
    <v>       0.23692452       0.84255983       0.48478757 </v>
    <v>       0.50534432       0.99319409       0.33106429 </v>
    <v>       0.72961092       0.15269312       0.17297584 </v>
    <v>       0.24236098       0.83297814       0.84458344 </v>
    <v>       0.53501731       0.34084453       0.01294614 </v>
    <v>       0.49961334       0.98248070       0.00543410 </v>
    <v>       0.47533423       0.99110638       0.66280738 </v>
    <v>       0.28069718       0.17430452       0.85037584 </v>
    <v>       0.99285335       0.99942607       0.00168145 </v>
    <v>       0.01039440       0.00606043       0.67247254 </v>
    <v>       0.00681758       0.67216894       0.31891758 </v>
    <v>       0.50379099       0.33944178       0.64543424 </v>
    <v>       0.97067185       0.31486918       0.00256150 </v>
    <v>       0.76193131       0.51103549       0.83558640 </v>
    <v>       0.46699882       0.66973999       0.66055573 </v>
    <v>       0.70912316       0.16263070       0.83724174 </v>
    <v>       0.51801163       0.34584586       0.33913629 </v>
    <v>       0.99734504       0.31523804       0.66877643 </v>
    <v>       0.24783451       0.48681641       0.15325201 </v>
    <v>       0.97519471       0.33206927       0.33011631 </v>
    <v>       0.49668878       0.66367694       0.33201395 </v>
    <v>       0.25505315       0.16063264       0.48107048 </v>
    <v>       0.78659478       0.52249569       0.52061456 </v>
    <v>       0.75919166       0.83790119       0.50123319 </v>
    <v>       0.25306773       0.49270001       0.84143643 </v>
    <v>       0.26376825       0.16261709       0.16604496 </v>
    <v>       0.75951149       0.81854759       0.82807706 </v>
   </varray>
  </structure>
  <varray name="forces" >
   <v>       0.16189248      -0.03764455       0.05243123 </v>
   <v>      -0.00715732       0.03291133       0.01622517 </v>
   <v>      -0.22438551      -0.27557036      -0.27839236 </v>
   <v>       0.00314410       0.03789500       0.01147045 </v>
   <v>       0.19155533      -0.33771585      -0.25520301 </v>
   <v>       0.02763309       0.00207917       0.00936704 </v>
   <v>       0.01675755       0.00614535      -0.00344471 </v>
   <v>      -0.02168312      -0.01898495       0.00994472 </v>
   <v>      -0.42859992       0.31382418      -0.18277401 </v>
   <v>       0.02308953      -0.02144299      -0.00195310 </v>
   <v>      -0.01421415       0.00470156       0.00613572 </v>
   <v>      -0.01644076       0.00421632      -0.01924782 </v>
   <v>       0.30629090      -0.27202029       0.23488255 </v>
   <v>       0.00691673       0.02065969      -0.00365227 </v>
   <v>       0.00676424       0.01515533      -0.00611382 </v>
   <v>      -0.00994688       0.01689880      -0.01199248 </v>
   <v>       0.00803877      -0.00624059      -0.00690883 </v>
   <v>       0.00372878       0.00743430       0.01693393 </v>
   <v>       0.00301091       0.02551931       0.01094570 </v>
   <v>      -0.02719784       0.01439861       0.03764398 </v>
   <v>       0.02935359      -0.00740621       0.01589854 </v>
   <v>       0.00864148       0.00546898      -0.02495264 </v>
   <v>      -0.21010253       0.15163861       0.17702330 </v>
   <v>      -0.00314501       0.00445511       0.03647794 </v>
   <v>       0.00059766       0.00536559      -0.00141972 </v>
   <v>      -0.00054773      -0.02229225      -0.00518001 </v>
   <v>      -0.01096362      -0.02968568      -0.01222014 </v>
   <v>       0.26594769       0.33243628      -0.15425330 </v>
   <v>       0.00330503      -0.02662134       0.01171055 </v>
   <v>      -0.00991658      -0.03351923      -0.05123729 </v>
   <v>      -0.01351412       0.00180618      -0.00052744 </v>
   <v>      -0.01040472      -0.01260543       0.00581764 </v>
   <v>      -0.00153801      -0.00139232      -0.00441352 </v>
   <v>       0.16117651       0.21259755       0.12332578 </v>
   <v>       0.00717736       0.00413015       0.00614199 </v>
   <v>      -0.22526392      -0.11659536       0.24151024 </v>
  </varray>
  <varray name="stress" >
   <v>      -3.18971591       0.29150627      -0.43367908 </v>
   <v>       0.29150625      -1.61534324      -0.25460682 </v>
   <v>      -0.43367908      -0.25460683      -1.40875497 </v>
  </varray>
  <energy>
   <i name="e_fr_energy">   -357.88404905 </i>
   <i name="e_wo_entrp">   -357.89170082 </i>
   <i name="e_0_energy">      0.02295531 </i>
  </energy>
  <time name="totalsc">   12.23   13.24</time>
 </calculation>
 <calculation>
  <scstep>
   <time name="dav">    1.12    1.12</time>
   <time name="total">    1.19    1.40</time>
   <energy>
    <i name="alphaZ">   1503.44049827 </i>
    <i name="ewald"> -19554.34781042 </i>
    <i name="hartreedc">  -6283.08960685 </i>
    <i name="XCdc">   -259.01647042 </i>
    <i name="pawpsdc">  34280.55565276 </i>
    <i name="pawaedc"> -32672.63659596 </i>
    <i name="eentropy">      0.02332252 </i>
    <i name="bandstr">  -2548.12822397 </i>
    <i name="atom">  25175.14332663 </i>
    <i name="e_fr_energy">   -358.05590744 </i>
    <i name="e_wo_entrp">   -358.07922995 </i>
    <i name="e_0_energy">   -358.06368161 </i>
   </energy>
  </scstep>
  <scstep>
   <time name="diag">    0.08    0.08</time>
   <time name="diis">    0.73    0.73</time>
   <time name="orth">    0.01    0.01</time>
   <time name="total">    0.89    0.94</time>
   <energy>
    <i name="e_fr_energy">   -357.97374563 </i>
    <i name="e_wo_entrp">   -357.99287672 </i>
    <i name="e_0_energy">   -357.98012266 </i>
   </energy>
  </scstep>
  <scstep>
   <time name="diag">    0.08    0.08</time>
   <time name="diis">    0.78    0.78</time>
   <time name="orth">    0.01    0.01</time>
   <time name="total">    0.94    0.98</time>
   <energy>
    <i name="e_fr_energy">   -357.94222896 </i>
    <i name="e_wo_entrp">   -357.96623441 </i>
    <i name="e_0_energy">   -357.95023078 </i>
   </energy>
  </scstep>
  <scstep>
   <time name="diag">    0.08    0.08</time>
   <time name="diis">    0.78    0.78</time>
   <time name="orth">    0.01    0.01</time>
   <time name="total">    0.93    0.98</time>
   <energy>
    <i name="e_fr_energy">   -357.91344724 </i>
    <i name="e_wo_entrp">   -357.93444092 </i>
    <i name="e_0_energy">   -357.92044513 </i>
   </energy>
  </scstep>
  <scstep>
   <time name="diag">    0.08    0.08</time>
   <time name="diis">    0.86    0.86</time>
   <time name="orth">    0.01    0.01</time>
   <time name="total">    1.02    1.06</time>
   <energy>
    <i name="e_fr_energy">   -357.91089954 </i>
    <i name="e_wo_entrp">   -357.93246075 </i>
    <i name="e_0_energy">   -357.91808661 </i>
   </energy>
  </scstep>
  <scstep>
   <time name="diag">    0.08    0.08</time>
   <time name="diis">    0.89    0.90</time>
   <time name="orth">    0.01    0.01</time>
   <time name="total">    1.06    1.14</time>
   <energy>
    <i name="e_fr_energy">   -357.91160129 </i>
    <i name="e_wo_entrp">   -357.93316764 </i>
    <i name="e_0_energy">   -357.91879008 </i>
   </energy>
  </scstep>
  <scstep>
   <time name="diag">    0.08    0.08</time>
   <time name="diis">    0.85    0.85</time>
   <time name="orth">    0.01    0.01</time>
   <time name="total">    1.01    1.05</time>
   <energy>
    <i name="e_fr_energy">   -357.91186106 </i>
    <i name="e_wo_entrp">   -357.93344779 </i>
    <i name="e_0_energy">   -357.91905663 </i>
   </energy>
  </scstep>
  <scstep>
   <time name="diag">    0.08    0.08</time>
   <time name="diis">    0.84    0.85</time>
   <time name="orth">    0.01    0.01</time>
   <time name="total">    1.06    1.11</time>
   <energy>
    <i name="e_fr_energy">   -357.91212706 </i>
    <i name="e_wo_entrp">   -357.93365499 </i>
    <i name="e_0_energy">   -357.91930304 </i>
   </energy>
  </scstep>
  <scstep>
   <time name="diag">    0.08    0.08</time>
   <time name="diis">    0.79    0.79</time>
   <time name="orth">    0.01    0.01</time>
   <time name="total">    0.95    1.00</time>
   <energy>
    <i name="e_fr_energy">   -357.91231716 </i>
    <i name="e_wo_entrp">   -357.93390228 </i>
    <i name="e_0_energy">   -357.91951220 </i>
   </energy>
  </scstep>
  <scstep>
   <time name="diag">    0.08    0.08</time>
   <time name="diis">    0.71    0.71</time>
   <time name="orth">    0.01    0.01</time>
   <time name="total">    0.90    0.94</time>
   <energy>
    <i name="e_fr_energy">   -357.91247276 </i>
    <i name="e_wo_entrp">   -357.93402376 </i>
    <i name="e_0_energy">   -357.91965643 </i>
   </energy>
  </scstep>
  <scstep>
   <time name="diag">    0.08    0.08</time>
   <time name="diis">    0.60    0.61</time>
   <time name="orth">    0.01    0.01</time>
   <time name="total">    0.77    0.81</time>
   <energy>
    <i name="e_fr_energy">   -357.91253589 </i>
    <i name="e_wo_entrp">   -357.93409679 </i>
    <i name="e_0_energy">   -357.91972286 </i>
   </energy>
  </scstep>
  <scstep>
   <time name="diag">    0.08    0.08</time>
   <time name="diis">    0.57    0.57</time>
   <time name="orth">    0.01    0.01</time>
   <time name="total">    0.74    0.78</time>
   <energy>
    <i name="e_fr_energy">   -357.91255193 </i>
    <i name="e_wo_entrp">   -357.93412010 </i>
    <i name="e_0_energy">   -357.91974132 </i>
   </energy>
  </scstep>
  <scstep>
   <time name="diag">    0.08    0.08</time>
   <time name="diis">    0.48    0.49</time>
   <time name="orth">    0.01    0.01</time>
   <time name="total">    0.61    0.66</time>
   <energy>
    <i name="alphaZ">   1503.44049827 </i>
    <i name="ewald"> -19554.34781042 </i>
    <i name="hartreedc">  -6248.55064638 </i>
    <i name="XCdc">   -260.53502027 </i>
    <i name="pawpsdc">  34699.34818362 </i>
    <i name="pawaedc"> -33090.64720568 </i>
    <i name="eentropy">      0.02156485 </i>
    <i name="bandstr">  -2581.78544680 </i>
    <i name="atom">  25175.14332663 </i>
    <i name="e_fr_energy">   -357.91255618 </i>
    <i name="e_wo_entrp">   -357.93412103 </i>
    <i name="e_0_energy">   -357.91974446 </i>
   </energy>
  </scstep>
  <structure>
   <crystal>
    <varray name="basis" >
     <v>       6.98255108       0.03314537       0.02185134 </v>
     <v>       0.04885069      10.25502261       0.01724183 </v>
     <v>       0.03080658       0.01713407      10.28684104 </v>
    </varray>
    <i name="volume">    736.57620853 </i>
    <varray name="rec_basis" >
     <v>       0.14321871      -0.00068152      -0.00042777 </v>
     <v>      -0.00046239       0.09751567      -0.00016104 </v>
     <v>      -0.00030345      -0.00016200       0.09721275 </v>
    </varray>
   </crystal>
   <varray name="positions" >
    <v>       0.49656905       0.67526052       0.00991921 </v>
    <v>       0.00965615       0.68087366       0.01303034 </v>
    <v>       0.74431631       0.83822538       0.16822182 </v>
    <v>       0.98952324       0.99760583       0.32420413 </v>
    <v>       0.25454530       0.84557294       0.17005935 </v>
    <v>       0.73954005       0.14570301       0.48851121 </v>
    <v>       0.22175069       0.50173403       0.50371172 </v>
    <v>       0.04581147       0.68009395       0.66875700 </v>
    <v>       0.75725346       0.51011050       0.15037017 </v>
    <v>       0.23702621       0.84248351       0.48477848 </v>
    <v>       0.50531827       0.99323533       0.33109977 </v>
    <v>       0.72948549       0.15270365       0.17290983 </v>
    <v>       0.24373488       0.83204647       0.84531720 </v>
    <v>       0.53516783       0.34092772       0.01297518 </v>
    <v>       0.49962841       0.98247394       0.00546305 </v>
    <v>       0.47526076       0.99118517       0.66274041 </v>
    <v>       0.28077764       0.17426658       0.85037142 </v>
    <v>       0.99285407       0.99945907       0.00175216 </v>
    <v>       0.01044860       0.00618241       0.67247777 </v>
    <v>       0.00671407       0.67223863       0.31903578 </v>
    <v>       0.50392445       0.33940439       0.64543884 </v>
    <v>       0.97061814       0.31483465       0.00247632 </v>
    <v>       0.76091965       0.51157645       0.83618040 </v>
    <v>       0.46687525       0.66975435       0.66068858 </v>
    <v>       0.70907832       0.16265677       0.83726995 </v>
    <v>       0.51807452       0.34575321       0.33913071 </v>
    <v>       0.99729584       0.31510674       0.66870545 </v>
    <v>       0.24904278       0.48786611       0.15273080 </v>
    <v>       0.97516128       0.33195283       0.33019905 </v>
    <v>       0.49665133       0.66360702       0.33181269 </v>
    <v>       0.25501240       0.16061139       0.48106529 </v>
    <v>       0.78659022       0.52247043       0.52064033 </v>
    <v>       0.75919506       0.83789746       0.50119457 </v>
    <v>       0.25383106       0.49341846       0.84183973 </v>
    <v>       0.26385090       0.16259880       0.16604693 </v>
    <v>       0.75848184       0.81811165       0.82886736 </v>
   </varray>
  </structure>
  <varray name="forces" >
   <v>       0.12444068      -0.05069740       0.02021454 </v>
   <v>      -0.02806675       0.00693318      -0.00481752 </v>
   <v>      -0.15688461      -0.21243682      -0.21302990 </v>
   <v>       0.01602085       0.02268103      -0.00776200 </v>
   <v>       0.14277166      -0.27962110      -0.19887770 </v>
   <v>       0.04900767       0.01409586       0.03575325 </v>
   <v>       0.01960739      -0.03341675      -0.02603655 </v>
   <v>      -0.07174036      -0.01221292       0.03589896 </v>
   <v>      -0.32305706       0.23718351      -0.09158277 </v>
   <v>       0.02137238      -0.01099996       0.00051747 </v>
   <v>      -0.03187095      -0.01394547      -0.00693701 </v>
   <v>       0.01109459       0.00397629      -0.01166715 </v>
   <v>       0.26825415      -0.16870921       0.18953170 </v>
   <v>      -0.05141050       0.00109190      -0.03245579 </v>
   <v>       0.01180745       0.05433204      -0.03900444 </v>
   <v>       0.00374652      -0.00535674       0.01249627 </v>
   <v>      -0.01399066       0.00715508      -0.01784734 </v>
   <v>       0.01023532      -0.00101385       0.00104170 </v>
   <v>      -0.01821300      -0.00914921       0.03002433 </v>
   <v>      -0.03203527      -0.00622616       0.03131754 </v>
   <v>       0.02440473       0.00391093       0.04463039 </v>
   <v>       0.05265203       0.04163753      -0.01569881 </v>
   <v>      -0.15156384       0.07778231       0.11464913 </v>
   <v>       0.05075803       0.00436319       0.01468315 </v>
   <v>       0.02299593      -0.00231971      -0.02485724 </v>
   <v>      -0.03236514      -0.00286826      -0.01187228 </v>
   <v>      -0.00826488       0.00366280       0.01363021 </v>
   <v>       0.21971359       0.26473870      -0.09974474 </v>
   <v>       0.02644877       0.00221622      -0.02376998 </v>
   <v>      -0.01131991      -0.05161109      -0.00962413 </v>
   <v>      -0.02072443       0.02026672       0.00200757 </v>
   <v>      -0.02907812      -0.01999057       0.00010910 </v>
   <v>      -0.00581252      -0.00085730       0.01369838 </v>
   <v>       0.11712555       0.13319338       0.08482183 </v>
   <v>      -0.01902450       0.02499696       0.01764048 </v>
   <v>      -0.18703478      -0.04278511       0.17291933 </v>
  </varray>
  <varray name="stress" >
   <v>       8.98223947       0.14696344      -0.12330731 </v>
   <v>       0.14696345      10.01978903      -0.27884453 </v>
   <v>      -0.12330734      -0.27884450      10.34150682 </v>
  </varray>
  <energy>
   <i name="e_fr_energy">   -357.91255618 </i>
   <i name="e_wo_entrp">   -357.91974446 </i>
   <i name="e_0_energy">      0.02156485 </i>
  </energy>
  <time name="totalsc">   13.70   14.62</time>
 </calculation>
 <calculation>
  <scstep>
   <time name="dav">    1.05    1.06</time>
   <time name="total">    1.13    1.32</time>
   <energy>
    <i name="alphaZ">   1501.35667157 </i>
    <i name="ewald"> -19545.31827521 </i>
    <i name="hartreedc">  -6245.65467275 </i>
    <i name="XCdc">   -260.93304022 </i>
    <i name="pawpsdc">  34699.99815942 </i>
    <i name="pawaedc"> -33091.26817651 </i>
    <i name="eentropy">      0.02173942 </i>
    <i name="bandstr">  -2591.28649541 </i>
    <i name="atom">  25175.14332663 </i>
    <i name="e_fr_energy">   -357.94076306 </i>
    <i name="e_wo_entrp">   -357.96250248 </i>
    <i name="e_0_energy">   -357.94800953 </i>
   </energy>
  </scstep>
  <scstep>
   <time name="diag">    0.12    0.12</time>
   <time name="diis">    0.76    0.76</time>
   <time name="orth">    0.01    0.01</time>
   <time name="total">    0.98    1.02</time>
   <energy>
    <i name="e_fr_energy">   -357.94435177 </i>
    <i name="e_wo_entrp">   -357.96572829 </i>
    <i name="e_0_energy">   -357.95147728 </i>
   </energy>
  </scstep>
  <scstep>
   <time name="diag">    0.17    0.17</time>
   <time name="diis">    0.78    0.79</time>
   <time name="orth">    0.01    0.01</time>
   <time name="total">    1.04    1.09</time>
   <energy>
    <i name="e_fr_energy">   -357.94225875 </i>
    <i name="e_wo_entrp">   -357.96415103 </i>
    <i name="e_0_energy">   -357.94955618 </i>
   </energy>
  </scstep>
  <scstep>
   <time name="diag">    0.08    0.08</time>
   <time name="diis">    0.78    0.78</time>
   <time name="orth">    0.01    0.01</time>
   <time name="total">    0.93    0.98</time>
   <energy>
    <i name="e_fr_energy">   -357.94130911 </i>
    <i name="e_wo_entrp">   -357.96290068 </i>
    <i name="e_0_energy">   -357.94850630 </i>
   </energy>
  </scstep>
  <scstep>
   <time name="diag">    0.08    0.08</time>
   <time name="diis">    0.77    0.77</time>
   <time name="orth">    0.01    0.01</time>
   <time name="total">    0.93    0.97</time>
   <energy>
    <i name="e_fr_energy">   -357.94112920 </i>
    <i name="e_wo_entrp">   -357.96280451 </i>
    <i name="e_0_energy">   -357.94835430 </i>
   </energy>
  </scstep>
  <scstep>
   <time name="diag">    0.08    0.08</time>
   <time name="diis">    0.83    0.84</time>
   <time name="orth">    0.01    0.01</time>
   <time name="total">    0.99    1.03</time>
   <energy>
    <i name="e_fr_energy">   -357.94112244 </i>
    <i name="e_wo_entrp">   -357.96272142 </i>
    <i name="e_0_energy">   -357.94832210 </i>
   </energy>
  </scstep>
  <scstep>
   <time name="diag">    0.08    0.08</time>
   <time name="diis">    0.67    0.68</time>
   <time name="orth">    0.01    0.01</time>
   <time name="total">    0.83    0.89</time>
   <energy>
    <i name="e_fr_energy">   -357.94110314 </i>
    <i name="e_wo_entrp">   -357.96278168 </i>
    <i name="e_0_energy">   -357.94832932 </i>
   </energy>
  </scstep>
  <scstep>
   <time name="diag">    0.08    0.08</time>
   <time name="diis">    0.54    0.55</time>
   <time name="orth">    0.01    0.01</time>
   <time name="total">    0.67    0.73</time>
   <energy>
    <i name="alphaZ">   1501.35667157 </i>
    <i name="ewald"> -19545.31827521 </i>
    <i name="hartreedc">  -6251.39199627 </i>
    <i name="XCdc">   -260.68002171 </i>
    <i name="pawpsdc">  34636.56831359 </i>
    <i name="pawaedc"> -33027.72688166 </i>
    <i name="eentropy">      0.02163881 </i>
    <i name="bandstr">  -2585.91387225 </i>
    <i name="atom">  25175.14332663 </i>
    <i name="e_fr_energy">   -357.94109648 </i>
    <i name="e_wo_entrp">   -357.96273530 </i>
    <i name="e_0_energy">   -357.94830942 </i>
   </energy>
  </scstep>
  <structure>
   <crystal>
    <varray name="basis" >
     <v>       6.98359573       0.03368635       0.02114616 </v>
     <v>       0.04962493      10.26100732       0.01642115 </v>
     <v>       0.02975645       0.01631685      10.29356901 </v>
    </varray>
    <i name="volume">    737.59854865 </i>
    <varray name="rec_basis" >
     <v>       0.14319730      -0.00069188      -0.00041286 </v>
     <v>      -0.00046964       0.09745884      -0.00015313 </v>
     <v>      -0.00029342      -0.00015405       0.09714913 </v>
    </varray>
   </crystal>
   <varray name="positions" >
    <v>       0.49707760       0.67516299       0.01001438 </v>
    <v>       0.00961010       0.68093113       0.01305241 </v>
    <v>       0.74363202       0.83763574       0.16762865 </v>
    <v>       0.98954656       0.99768286       0.32421752 </v>
    <v>       0.25515338       0.84483119       0.16951070 </v>
    <v>       0.73965552       0.14571555       0.48855106 </v>
    <v>       0.22181122       0.50172038       0.50368832 </v>
    <v>       0.04568652       0.68005516       0.66879774 </v>
    <v>       0.75590576       0.51078758       0.15001525 </v>
    <v>       0.23710323       0.84244103       0.48477561 </v>
    <v>       0.50525133       0.99323410       0.33110490 </v>
    <v>       0.72945788       0.15271246       0.17287055 </v>
    <v>       0.24473791       0.83148533       0.84582549 </v>
    <v>       0.53513275       0.34096093       0.01294683 </v>
    <v>       0.49965508       0.98253781       0.00542633 </v>
    <v>       0.47523960       0.99120842       0.66273027 </v>
    <v>       0.28078306       0.17426107       0.85034804 </v>
    <v>       0.99287273       0.99947027       0.00178018 </v>
    <v>       0.01043635       0.00621748       0.67251644 </v>
    <v>       0.00661720       0.67225755       0.31911885 </v>
    <v>       0.50401859       0.33939477       0.64549488 </v>
    <v>       0.97069204       0.31487220       0.00242463 </v>
    <v>       0.76026278       0.51187716       0.83654550 </v>
    <v>       0.46691944       0.66976481       0.66075659 </v>
    <v>       0.70910277       0.16266373       0.83725026 </v>
    <v>       0.51804035       0.34571481       0.33911426 </v>
    <v>       0.99726225       0.31506150       0.66869519 </v>
    <v>       0.24989342       0.48858625       0.15241055 </v>
    <v>       0.97519622       0.33191133       0.33020131 </v>
    <v>       0.49661729       0.66351752       0.33172486 </v>
    <v>       0.25495956       0.16062823       0.48106581 </v>
    <v>       0.78653646       0.52243659       0.52065038 </v>
    <v>       0.75918584       0.83789501       0.50119666 </v>
    <v>       0.25432911       0.49385257       0.84209522 </v>
    <v>       0.26384777       0.16262250       0.16606919 </v>
    <v>       0.75775528       0.81789500       0.82937818 </v>
   </varray>
  </structure>
  <varray name="forces" >
   <v>       0.09918868      -0.04043994       0.01297850 </v>
   <v>      -0.03899322       0.00405674       0.00072295 </v>
   <v>      -0.11854367      -0.15606284      -0.17246578 </v>
   <v>       0.01178359       0.00410607      -0.02500577 </v>
   <v>       0.11644474      -0.22670393      -0.16359858 </v>
   <v>       0.05300395       0.00181846       0.02644056 </v>
   <v>       0.00084163      -0.03748204      -0.01710952 </v>
   <v>      -0.05856556      -0.00034240       0.03754724 </v>
   <v>      -0.25499279       0.18395210      -0.06341451 </v>
   <v>       0.00868590       0.00189832      -0.00225571 </v>
   <v>      -0.02916104      -0.02652565      -0.02063802 </v>
   <v>       0.01856337      -0.01277489      -0.00168095 </v>
   <v>       0.22859042      -0.12334459       0.15947028 </v>
   <v>      -0.05515155      -0.01029648      -0.03446733 </v>
   <v>       0.00947795       0.06051934      -0.03565623 </v>
   <v>      -0.00101859      -0.02041491       0.01793759 </v>
   <v>      -0.01305200       0.01341064      -0.01500982 </v>
   <v>       0.01513222      -0.01528972       0.00657601 </v>
   <v>      -0.01802499      -0.03542270       0.03331914 </v>
   <v>      -0.03005245      -0.00821453       0.01547266 </v>
   <v>       0.02073000       0.00995622       0.04701365 </v>
   <v>       0.04847243       0.06165555      -0.00074456 </v>
   <v>      -0.11080633       0.03784071       0.08659611 </v>
   <v>       0.04324726       0.00797476      -0.00643246 </v>
   <v>       0.02297942      -0.00096227      -0.02171190 </v>
   <v>      -0.03627129      -0.00054785      -0.01394381 </v>
   <v>      -0.00687487       0.02212889       0.02173655 </v>
   <v>       0.18647759       0.22349530      -0.07960346 </v>
   <v>       0.02532004       0.01705201      -0.04117406 </v>
   <v>      -0.01529597      -0.04702843       0.00765451 </v>
   <v>      -0.02040501       0.01169274      -0.00167512 </v>
   <v>      -0.01631871      -0.02123869       0.00733026 </v>
   <v>       0.00258159       0.01214507       0.01811496 </v>
   <v>       0.08611417       0.09519765       0.06040468 </v>
   <v>      -0.02292727       0.02251094       0.02203492 </v>
   <v>      -0.15117966      -0.00831966       0.13523702 </v>
  </varray>
  <varray name="stress" >
   <v>       7.68807013       0.08527816       0.02661311 </v>
   <v>       0.08527818       8.31826903      -0.32197594 </v>
   <v>       0.02661307      -0.32197595       8.67437135 </v>
  </varray>
  <energy>
   <i name="e_fr_energy">   -357.94109648 </i>
   <i name="e_wo_entrp">   -357.94830942 </i>
   <i name="e_0_energy">      0.02163881 </i>
  </energy>
  <time name="totalsc">    9.02    9.87</time>
 </calculation>
 <calculation>
  <scstep>
   <time name="dav">    1.01    1.05</time>
   <time name="total">    1.11    1.35</time>
   <energy>
    <i name="alphaZ">   1495.12999142 </i>
    <i name="ewald"> -19516.83558852 </i>
    <i name="hartreedc">  -6243.94560359 </i>
    <i name="XCdc">   -261.86916271 </i>
    <i name="pawpsdc">  34637.12228409 </i>
    <i name="pawaedc"> -33028.32952795 </i>
    <i name="eentropy">      0.02177147 </i>
    <i name="bandstr">  -2614.41757448 </i>
    <i name="atom">  25175.14332663 </i>
    <i name="e_fr_energy">   -357.98008363 </i>
    <i name="e_wo_entrp">   -358.00185511 </i>
    <i name="e_0_energy">   -357.98734079 </i>
   </energy>
  </scstep>
  <scstep>
   <time name="diag">    0.08    0.08</time>
   <time name="diis">    0.78    0.79</time>
   <time name="orth">    0.01    0.01</time>
   <time name="total">    0.97    1.01</time>
   <energy>
    <i name="e_fr_energy">   -358.01375522 </i>
    <i name="e_wo_entrp">   -358.03501910 </i>
    <i name="e_0_energy">   -358.02084318 </i>
   </energy>
  </scstep>
  <scstep>
   <time name="diag">    0.08    0.08</time>
   <time name="diis">    0.74    0.81</time>
   <time name="orth">    0.01    0.01</time>
   <time name="total">    0.90    1.02</time>
   <energy>
    <i name="e_fr_energy">   -357.99760256 </i>
    <i name="e_wo_entrp">   -358.01964859 </i>
    <i name="e_0_energy">   -358.00495124 </i>
   </energy>
  </scstep>
  <scstep>
   <time name="diag">    0.08    0.09</time>
   <time name="diis">    0.72    0.80</time>
   <time name="orth">    0.01    0.01</time>
   <time name="total">    0.89    1.02</time>
   <energy>
    <i name="e_fr_energy">   -357.98945603 </i>
    <i name="e_wo_entrp">   -358.01097651 </i>
    <i name="e_0_energy">   -357.99662952 </i>
   </energy>
  </scstep>
  <scstep>
   <time name="diag">    0.08    0.08</time>
   <time name="diis">    0.78    0.78</time>
   <time name="orth">    0.01    0.01</time>
   <time name="total">    0.93    0.98</time>
   <energy>
    <i name="e_fr_energy">   -357.98787107 </i>
    <i name="e_wo_entrp">   -358.00954879 </i>
    <i name="e_0_energy">   -357.99509697 </i>
   </energy>
  </scstep>
  <scstep>
   <time name="diag">    0.08    0.08</time>
   <time name="diis">    0.86    0.87</time>
   <time name="orth">    0.01    0.01</time>
   <time name="total">    1.02    1.07</time>
   <energy>
    <i name="e_fr_energy">   -357.98782119 </i>
    <i name="e_wo_entrp">   -358.00929023 </i>
    <i name="e_0_energy">   -357.99497753 </i>
   </energy>
  </scstep>
  <scstep>
   <time name="diag">    0.09    0.09</time>
   <time name="diis">    0.86    0.87</time>
   <time name="orth">    0.01    0.01</time>
   <time name="total">    1.03    1.08</time>
   <energy>
    <i name="e_fr_energy">   -357.98775046 </i>
    <i name="e_wo_entrp">   -358.00946806 </i>
    <i name="e_0_energy">   -357.99498966 </i>
   </energy>
  </scstep>
  <scstep>
   <time name="diag">    0.08    0.08</time>
   <time name="diis">    0.74    0.76</time>
   <time name="orth">    0.01    0.01</time>
   <time name="total">    0.94    0.99</time>
   <energy>
    <i name="e_fr_energy">   -357.98774480 </i>
    <i name="e_wo_entrp">   -358.00931810 </i>
    <i name="e_0_energy">   -357.99493590 </i>
   </energy>
  </scstep>
  <scstep>
   <time name="diag">    0.08    0.08</time>
   <time name="diis">    0.72    0.72</time>
   <time name="orth">    0.01    0.01</time>
   <time name="total">    0.88    0.96</time>
   <energy>
    <i name="e_fr_energy">   -357.98777223 </i>
    <i name="e_wo_entrp">   -358.00936921 </i>
    <i name="e_0_energy">   -357.99497122 </i>
   </energy>
  </scstep>
  <scstep>
   <time name="diag">    0.08    0.08</time>
   <time name="diis">    0.60    0.60</time>
   <time name="orth">    0.01    0.01</time>
   <time name="total">    0.76    0.80</time>
   <energy>
    <i name="e_fr_energy">   -357.98777584 </i>
    <i name="e_wo_entrp">   -358.00936712 </i>
    <i name="e_0_energy">   -357.99497294 </i>
   </energy>
  </scstep>
  <scstep>
   <time name="diag">    0.10    0.10</time>
   <time name="diis">    0.62    0.62</time>
   <time name="orth">    0.01    0.01</time>
   <time name="total">    0.76    0.81</time>
   <energy>
    <i name="alphaZ">   1495.12999142 </i>
    <i name="ewald"> -19516.83558852 </i>
    <i name="hartreedc">  -6260.54575335 </i>
    <i name="XCdc">   -261.13824065 </i>
    <i name="pawpsdc">  34449.36216413 </i>
    <i name="pawaedc"> -32841.00726525 </i>
    <i name="eentropy">      0.02158443 </i>
    <i name="bandstr">  -2598.11799316 </i>
    <i name="atom">  25175.14332663 </i>
    <i name="e_fr_energy">   -357.98777432 </i>
    <i name="e_wo_entrp">   -358.00935875 </i>
    <i name="e_0_energy">   -357.99496913 </i>
   </energy>
  </scstep>
  <structure>
   <crystal>
    <varray name="basis" >
     <v>       6.98672966       0.03530929       0.01903061 </v>
     <v>       0.05194767      10.27896145       0.01395911 </v>
     <v>       0.02660606       0.01386522      10.31375293 </v>
    </varray>
    <i name="volume">    740.67038205 </i>
    <varray name="rec_basis" >
     <v>       0.14313314      -0.00072286      -0.00036826 </v>
     <v>      -0.00049132       0.09728875      -0.00012952 </v>
     <v>      -0.00026344      -0.00013034       0.09695877 </v>
    </varray>
   </crystal>
   <varray name="positions" >
    <v>       0.49860310       0.67487052       0.01029980 </v>
    <v>       0.00947195       0.68110345       0.01311860 </v>
    <v>       0.74157939       0.83586780       0.16585003 </v>
    <v>       0.98961648       0.99791380       0.32425770 </v>
    <v>       0.25697732       0.84260702       0.16786577 </v>
    <v>       0.74000191       0.14575315       0.48867055 </v>
    <v>       0.22199277       0.50167944       0.50361818 </v>
    <v>       0.04531177       0.67993886       0.66891982 </v>
    <v>       0.75186292       0.51281776       0.14895109 </v>
    <v>       0.23733427       0.84231364       0.48476701 </v>
    <v>       0.50505056       0.99323044       0.33112029 </v>
    <v>       0.72937505       0.15273886       0.17275278 </v>
    <v>       0.24774698       0.82980288       0.84734942 </v>
    <v>       0.53502751       0.34106049       0.01286185 </v>
    <v>       0.49973501       0.98272929       0.00531625 </v>
    <v>       0.47517611       0.99127813       0.66269987 </v>
    <v>       0.28079930       0.17424454       0.85027794 </v>
    <v>       0.99292872       0.99950385       0.00186418 </v>
    <v>       0.01039963       0.00632264       0.67263237 </v>
    <v>       0.00632669       0.67231430       0.31936787 </v>
    <v>       0.50430100       0.33936592       0.64566291 </v>
    <v>       0.97091365       0.31498475       0.00226969 </v>
    <v>       0.75829255       0.51277896       0.83764003 </v>
    <v>       0.46705202       0.66979618       0.66096049 </v>
    <v>       0.70917608       0.16268459       0.83719123 </v>
    <v>       0.51793786       0.34559969       0.33906493 </v>
    <v>       0.99716150       0.31492587       0.66866442 </v>
    <v>       0.25244459       0.49074519       0.15145077 </v>
    <v>       0.97530104       0.33178690       0.33020809 </v>
    <v>       0.49651515       0.66324915       0.33146154 </v>
    <v>       0.25480105       0.16067873       0.48106735 </v>
    <v>       0.78637522       0.52233514       0.52068048 </v>
    <v>       0.75915819       0.83788765       0.50120292 </v>
    <v>       0.25582303       0.49515415       0.84286139 </v>
    <v>       0.26383838       0.16269357       0.16613596 </v>
    <v>       0.75557624       0.81724569       0.83090942 </v>
   </varray>
  </structure>
  <varray name="forces" >
   <v>       0.01515460      -0.00765848      -0.02217341 </v>
   <v>      -0.07043751      -0.00603287       0.01584467 </v>
   <v>      -0.00238176       0.00522656      -0.05472563 </v>
   <v>      -0.00206354      -0.03976488      -0.06630743 </v>
   <v>       0.03810195      -0.07500025      -0.06347396 </v>
   <v>       0.06670189      -0.03167419       0.00150820 </v>
   <v>      -0.05249341      -0.05106703       0.01024481 </v>
   <v>      -0.01867015       0.03246871       0.03997713 </v>
   <v>      -0.04645463       0.02336015       0.03073485 </v>
   <v>      -0.03098152       0.04173764      -0.00777126 </v>
   <v>      -0.02182826      -0.05713098      -0.05680054 </v>
   <v>       0.04392779      -0.06158022       0.02600184 </v>
   <v>       0.11372134       0.00961140       0.07297784 </v>
   <v>      -0.06314743      -0.04855415      -0.03801715 </v>
   <v>       0.00118441       0.08569025      -0.02580570 </v>
   <v>      -0.01304128      -0.06279873       0.03293348 </v>
   <v>      -0.01244603       0.03064056      -0.00938083 </v>
   <v>       0.02930300      -0.05638882       0.02538760 </v>
   <v>      -0.02014039      -0.10526315       0.03458865 </v>
   <v>      -0.02177979      -0.01552181      -0.02929699 </v>
   <v>       0.00950876       0.02560517       0.05351188 </v>
   <v>       0.03701836       0.11998322       0.04046296 </v>
   <v>       0.01122455      -0.08394634      -0.00102557 </v>
   <v>       0.02023237       0.01597840      -0.06868192 </v>
   <v>       0.02658917       0.00562418      -0.01284724 </v>
   <v>      -0.04805837       0.00417815      -0.01769380 </v>
   <v>      -0.00215776       0.07397479       0.04239123 </v>
   <v>       0.07970725       0.10025931      -0.01512840 </v>
   <v>       0.02386314       0.05487642      -0.08715379 </v>
   <v>      -0.02806113      -0.03335295       0.06355434 </v>
   <v>      -0.02129458      -0.01158787      -0.01270505 </v>
   <v>       0.02295115      -0.02791938       0.02602491 </v>
   <v>       0.02975616       0.05224684       0.02877896 </v>
   <v>      -0.01011373      -0.01937042      -0.01686632 </v>
   <v>      -0.03894349       0.01622912       0.03629716 </v>
   <v>      -0.04445111       0.09692163       0.02463448 </v>
  </varray>
  <varray name="stress" >
   <v>       3.11350593      -0.13988274       0.49585227 </v>
   <v>      -0.13988278       2.71002259      -0.43137335 </v>
   <v>       0.49585228      -0.43137330       3.04862127 </v>
  </varray>
  <energy>
   <i name="e_fr_energy">   -357.98777432 </i>
   <i name="e_wo_entrp">   -357.99496913 </i>
   <i name="e_0_energy">      0.02158443 </i>
  </energy>
  <time name="totalsc">   11.72   12.92</time>
 </calculation>
 <calculation>
  <scstep>
   <time name="dav">    1.01    1.02</time>
   <time name="total">    1.10    1.30</time>
   <energy>
    <i name="alphaZ">   1493.27708130 </i>
    <i name="ewald"> -19507.91881605 </i>
    <i name="hartreedc">  -6258.65352652 </i>
    <i name="XCdc">   -261.49319957 </i>
    <i name="pawpsdc">  34448.37179073 </i>
    <i name="pawaedc"> -32840.07130924 </i>
    <i name="eentropy">      0.02154711 </i>
    <i name="bandstr">  -2606.66716680 </i>
    <i name="atom">  25175.14332663 </i>
    <i name="e_fr_energy">   -357.99027242 </i>
    <i name="e_wo_entrp">   -358.01181952 </i>
    <i name="e_0_energy">   -357.99745479 </i>
   </energy>
  </scstep>
  <scstep>
   <time name="diag">    0.10    0.10</time>
   <time name="diis">    0.75    0.75</time>
   <time name="orth">    0.01    0.01</time>
   <time name="total">    0.95    1.00</time>
   <energy>
    <i name="e_fr_energy">   -357.99290366 </i>
    <i name="e_wo_entrp">   -358.01428246 </i>
    <i name="e_0_energy">   -358.00002993 </i>
   </energy>
  </scstep>
  <scstep>
   <time name="diag">    0.08    0.08</time>
   <time name="diis">    0.86    0.86</time>
   <time name="orth">    0.01    0.01</time>
   <time name="total">    1.01    1.06</time>
   <energy>
    <i name="e_fr_energy">   -357.99138438 </i>
    <i name="e_wo_entrp">   -358.01300107 </i>
    <i name="e_0_energy">   -357.99858994 </i>
   </energy>
  </scstep>
  <scstep>
   <time name="diag">    0.08    0.08</time>
   <time name="diis">    0.77    0.78</time>
   <time name="orth">    0.01    0.01</time>
   <time name="total">    0.93    0.98</time>
   <energy>
    <i name="e_fr_energy">   -357.99066788 </i>
    <i name="e_wo_entrp">   -358.01213136 </i>
    <i name="e_0_energy">   -357.99782237 </i>
   </energy>
  </scstep>
  <scstep>
   <time name="diag">    0.08    0.08</time>
   <time name="diis">    0.82    0.82</time>
   <time name="orth">    0.01    0.01</time>
   <time name="total">    0.97    1.02</time>
   <energy>
    <i name="e_fr_energy">   -357.99054335 </i>
    <i name="e_wo_entrp">   -358.01204983 </i>
    <i name="e_0_energy">   -357.99771218 </i>
   </energy>
  </scstep>
  <scstep>
   <time name="diag">    0.08    0.08</time>
   <time name="diis">    0.73    0.73</time>
   <time name="orth">    0.01    0.01</time>
   <time name="total">    0.89    0.93</time>
   <energy>
    <i name="e_fr_energy">   -357.99054184 </i>
    <i name="e_wo_entrp">   -358.01198777 </i>
    <i name="e_0_energy">   -357.99769048 </i>
   </energy>
  </scstep>
  <scstep>
   <time name="diag">    0.08    0.08</time>
   <time name="diis">    0.63    0.64</time>
   <time name="orth">    0.01    0.01</time>
   <time name="total">    0.79    0.84</time>
   <energy>
    <i name="e_fr_energy">   -357.99053042 </i>
    <i name="e_wo_entrp">   -358.01204801 </i>
    <i name="e_0_energy">   -357.99770295 </i>
   </energy>
  </scstep>
  <scstep>
   <time name="diag">    0.08    0.08</time>
   <time name="diis">    0.61    0.61</time>
   <time name="orth">    0.01    0.01</time>
   <time name="total">    0.73    0.78</time>
   <energy>
    <i name="alphaZ">   1493.27708130 </i>
    <i name="ewald"> -19507.91881605 </i>
    <i name="hartreedc">  -6263.70335916 </i>
    <i name="XCdc">   -261.27204842 </i>
    <i name="pawpsdc">  34394.85392070 </i>
[...]
       <r>    6.8139    1.0000 </r>
       <r>    6.8507    1.0000 </r>
       <r>    6.8868    1.0000 </r>
       <r>    6.9053    1.0000 </r>
       <r>    6.9619    1.0000 </r>
       <r>    7.0019    1.0002 </r>
       <r>    7.0272    1.0005 </r>
       <r>    7.0626    1.0014 </r>
       <r>    7.1141    1.0055 </r>
       <r>    7.1477    1.0114 </r>
       <r>    7.1793    1.0196 </r>
       <r>    7.1970    1.0250 </r>
       <r>    7.2317    1.0341 </r>
       <r>    7.2703    1.0308 </r>
       <r>    7.3022    1.0030 </r>
       <r>    7.3384    0.9265 </r>
       <r>    7.3752    0.7901 </r>
       <r>    7.4261    0.5252 </r>
       <r>    7.4635    0.3190 </r>
       <r>    7.5186    0.0860 </r>
       <r>    7.5408    0.0285 </r>
       <r>    7.5594   -0.0036 </r>
       <r>    7.6027   -0.0344 </r>
       <r>    7.6261   -0.0346 </r>
       <r>    7.6805   -0.0201 </r>
       <r>    7.6970   -0.0154 </r>
       <r>    7.7487   -0.0053 </r>
       <r>    7.7911   -0.0018 </r>
       <r>    7.8221   -0.0007 </r>
       <r>    7.8941   -0.0001 </r>
       <r>    7.9274   -0.0000 </r>
       <r>    7.9948   -0.0000 </r>
       <r>    8.0130   -0.0000 </r>
       <r>    8.0508   -0.0000 </r>
       <r>    8.0891   -0.0000 </r>
       <r>    8.1425   -0.0000 </r>
       <r>    8.1807   -0.0000 </r>
       <r>    8.2608   -0.0000 </r>
       <r>    8.2773   -0.0000 </r>
       <r>    8.3614   -0.0000 </r>
       <r>    8.4116   -0.0000 </r>
       <r>    8.5825   -0.0000 </r>
       <r>    8.7377   -0.0000 </r>
       <r>    8.8371   -0.0000 </r>
       <r>    9.2219   -0.0000 </r>
       <r>    9.3001   -0.0000 </r>
       <r>    9.3667   -0.0000 </r>
       <r>    9.4045   -0.0000 </r>
       <r>    9.4495   -0.0000 </r>
      </set>
     </set>
    </set>
   </array>
  </eigenvalues>
  <separator name="orbital magnetization" >
   <v name="MAGDIPOLOUT">      0.00000000      0.00000000      0.00000000</v>
  </separator>
  <dos>
   <i name="efermi">      7.43057681 </i>
   <total>
    <array>
     <dimension dim="1">gridpoints</dimension>
     <dimension dim="2">spin</dimension>
     <field>energy</field>
     <field>total</field>
     <field>integrated</field>
     <set>
      <set comment="spin 1">
       <r>   -49.6863     0.0000     0.0000 </r>
       <r>   -49.4795     0.0000     0.0000 </r>
       <r>   -49.2727     0.0000     0.0000 </r>
       <r>   -49.0658     0.0000     0.0000 </r>
       <r>   -48.8590     0.0000     0.0000 </r>
       <r>   -48.6522     0.0000     0.0000 </r>
       <r>   -48.4453     0.0000     0.0000 </r>
       <r>   -48.2385    -0.0000    -0.0000 </r>
       <r>   -48.0317    -0.0000    -0.0000 </r>
       <r>   -47.8248    -0.0000    -0.0000 </r>
       <r>   -47.6180    -0.0000    -0.0000 </r>
       <r>   -47.4112    -0.0000    -0.0000 </r>
       <r>   -47.2044    -0.0323    -0.0067 </r>
       <r>   -46.9975    -0.4496    -0.0997 </r>
       <r>   -46.7907    13.4224     2.6765 </r>
       <r>   -46.5839    32.2765     9.3523 </r>
       <r>   -46.3770     3.4655    10.0690 </r>
       <r>   -46.1702    -0.3325    10.0003 </r>
       <r>   -45.9634    -0.0013    10.0000 </r>
       <r>   -45.7565    -0.0000    10.0000 </r>
       <r>   -45.5497    -0.0000    10.0000 </r>
       <r>   -45.3429     0.0000    10.0000 </r>
       <r>   -45.1360     0.0000    10.0000 </r>
       <r>   -44.9292     0.0000    10.0000 </r>
       <r>   -44.7224     0.0000    10.0000 </r>
       <r>   -44.5155     0.0000    10.0000 </r>
       <r>   -44.3087     0.0000    10.0000 </r>
       <r>   -44.1019     0.0000    10.0000 </r>
       <r>   -43.8951     0.0000    10.0000 </r>
       <r>   -43.6882     0.0000    10.0000 </r>
       <r>   -43.4814     0.0000    10.0000 </r>
       <r>   -43.2746     0.0000    10.0000 </r>
       <r>   -43.0677     0.0000    10.0000 </r>
       <r>   -42.8609     0.0000    10.0000 </r>
       <r>   -42.6541     0.0000    10.0000 </r>
       <r>   -42.4472     0.0000    10.0000 </r>
       <r>   -42.2404    -0.0000    10.0000 </r>
       <r>   -42.0336    -0.0000    10.0000 </r>
       <r>   -41.8267    -0.0000    10.0000 </r>
       <r>   -41.6199    -0.0000    10.0000 </r>
       <r>   -41.4131    -0.0002    10.0000 </r>
       <r>   -41.2062    -0.1841     9.9619 </r>
       <r>   -40.9994    -0.6912     9.8189 </r>
       <r>   -40.7926    54.8130    21.1560 </r>
       <r>   -40.5858    61.8268    33.9437 </r>
       <r>   -40.3789     0.5591    34.0593 </r>
       <r>   -40.1721    -0.2864    34.0001 </r>
       <r>   -39.9653    -0.0005    34.0000 </r>
       <r>   -39.7584    -0.0000    34.0000 </r>
       <r>   -39.5516    -0.0000    34.0000 </r>
       <r>   -39.3448     0.0000    34.0000 </r>
       <r>   -39.1379     0.0000    34.0000 </r>
       <r>   -38.9311     0.0000    34.0000 </r>
       <r>   -38.7243     0.0000    34.0000 </r>
       <r>   -38.5174     0.0000    34.0000 </r>
       <r>   -38.3106     0.0000    34.0000 </r>
       <r>   -38.1038     0.0000    34.0000 </r>
       <r>   -37.8969     0.0000    34.0000 </r>
       <r>   -37.6901     0.0000    34.0000 </r>
       <r>   -37.4833     0.0000    34.0000 </r>
       <r>   -37.2765     0.0000    34.0000 </r>
       <r>   -37.0696     0.0000    34.0000 </r>
       <r>   -36.8628     0.0000    34.0000 </r>
       <r>   -36.6560     0.0000    34.0000 </r>
       <r>   -36.4491     0.0000    34.0000 </r>
       <r>   -36.2423     0.0000    34.0000 </r>
       <r>   -36.0355     0.0000    34.0000 </r>
       <r>   -35.8286     0.0000    34.0000 </r>
       <r>   -35.6218     0.0000    34.0000 </r>
       <r>   -35.4150     0.0000    34.0000 </r>
       <r>   -35.2081     0.0000    34.0000 </r>
       <r>   -35.0013     0.0000    34.0000 </r>
       <r>   -34.7945     0.0000    34.0000 </r>
       <r>   -34.5876     0.0000    34.0000 </r>
       <r>   -34.3808     0.0000    34.0000 </r>
       <r>   -34.1740     0.0000    34.0000 </r>
       <r>   -33.9671     0.0000    34.0000 </r>
       <r>   -33.7603     0.0000    34.0000 </r>
       <r>   -33.5535     0.0000    34.0000 </r>
       <r>   -33.3467     0.0000    34.0000 </r>
       <r>   -33.1398     0.0000    34.0000 </r>
       <r>   -32.9330     0.0000    34.0000 </r>
       <r>   -32.7262     0.0000    34.0000 </r>
       <r>   -32.5193     0.0000    34.0000 </r>
       <r>   -32.3125     0.0000    34.0000 </r>
       <r>   -32.1057     0.0000    34.0000 </r>
       <r>   -31.8988     0.0000    34.0000 </r>
       <r>   -31.6920     0.0000    34.0000 </r>
       <r>   -31.4852     0.0000    34.0000 </r>
       <r>   -31.2783     0.0000    34.0000 </r>
       <r>   -31.0715     0.0000    34.0000 </r>
       <r>   -30.8647     0.0000    34.0000 </r>
       <r>   -30.6578     0.0000    34.0000 </r>
       <r>   -30.4510     0.0000    34.0000 </r>
       <r>   -30.2442     0.0000    34.0000 </r>
       <r>   -30.0374     0.0000    34.0000 </r>
       <r>   -29.8305     0.0000    34.0000 </r>
       <r>   -29.6237     0.0000    34.0000 </r>
       <r>   -29.4169     0.0000    34.0000 </r>
       <r>   -29.2100     0.0000    34.0000 </r>
       <r>   -29.0032     0.0000    34.0000 </r>
       <r>   -28.7964     0.0000    34.0000 </r>
       <r>   -28.5895     0.0000    34.0000 </r>
       <r>   -28.3827     0.0000    34.0000 </r>
       <r>   -28.1759     0.0000    34.0000 </r>
       <r>   -27.9690     0.0000    34.0000 </r>
       <r>   -27.7622     0.0000    34.0000 </r>
       <r>   -27.5554     0.0000    34.0000 </r>
       <r>   -27.3485     0.0000    34.0000 </r>
       <r>   -27.1417     0.0000    34.0000 </r>
       <r>   -26.9349     0.0000    34.0000 </r>
       <r>   -26.7281     0.0000    34.0000 </r>
       <r>   -26.5212     0.0000    34.0000 </r>
       <r>   -26.3144     0.0000    34.0000 </r>
       <r>   -26.1076     0.0000    34.0000 </r>
       <r>   -25.9007     0.0000    34.0000 </r>
       <r>   -25.6939     0.0000    34.0000 </r>
       <r>   -25.4871     0.0000    34.0000 </r>
       <r>   -25.2802     0.0000    34.0000 </r>
       <r>   -25.0734     0.0000    34.0000 </r>
       <r>   -24.8666     0.0000    34.0000 </r>
       <r>   -24.6597     0.0000    34.0000 </r>
       <r>   -24.4529    -0.0000    34.0000 </r>
       <r>   -24.2461    -0.0000    34.0000 </r>
       <r>   -24.0392    -0.0000    34.0000 </r>
       <r>   -23.8324    -0.0000    34.0000 </r>
       <r>   -23.6256    -0.0055    33.9989 </r>
       <r>   -23.4188    -0.5446    33.8862 </r>
       <r>   -23.2119     8.0419    35.5495 </r>
       <r>   -23.0051    21.7914    40.0567 </r>
       <r>   -22.7983    65.1738    53.5367 </r>
       <r>   -22.5914    39.4567    61.6975 </r>
       <r>   -22.3846    11.8576    64.1501 </r>
       <r>   -22.1778    -0.7092    64.0034 </r>
       <r>   -21.9709    -0.0163    64.0000 </r>
       <r>   -21.7641    -0.0000    64.0000 </r>
       <r>   -21.5573    -0.0000    64.0000 </r>
       <r>   -21.3504     0.0000    64.0000 </r>
       <r>   -21.1436     0.0000    64.0000 </r>
       <r>   -20.9368     0.0000    64.0000 </r>
       <r>   -20.7299    -0.0000    64.0000 </r>
       <r>   -20.5231    -0.0000    64.0000 </r>
       <r>   -20.3163    -0.0000    64.0000 </r>
       <r>   -20.1095    -0.0000    64.0000 </r>
       <r>   -19.9026    -0.0000    64.0000 </r>
       <r>   -19.6958    -0.0089    63.9982 </r>
       <r>   -19.4890    -0.7529    63.8424 </r>
       <r>   -19.2821     9.7468    65.8584 </r>
       <r>   -19.0753    55.8586    77.4117 </r>
       <r>   -18.8685   107.6809    99.6835 </r>
       <r>   -18.6616   134.7401   127.5520 </r>
       <r>   -18.4548    43.3972   136.5279 </r>
       <r>   -18.2480    -2.4956   136.0117 </r>
       <r>   -18.0411    -0.0565   136.0000 </r>
       <r>   -17.8343    -0.0000   136.0000 </r>
       <r>   -17.6275    -0.0000   136.0000 </r>
       <r>   -17.4206     0.0000   136.0000 </r>
       <r>   -17.2138     0.0000   136.0000 </r>
       <r>   -17.0070     0.0000   136.0000 </r>
       <r>   -16.8002     0.0000   136.0000 </r>
       <r>   -16.5933     0.0000   136.0000 </r>
       <r>   -16.3865     0.0000   136.0000 </r>
       <r>   -16.1797     0.0000   136.0000 </r>
       <r>   -15.9728     0.0000   136.0000 </r>
       <r>   -15.7660     0.0000   136.0000 </r>
       <r>   -15.5592     0.0000   136.0000 </r>
       <r>   -15.3523     0.0000   136.0000 </r>
       <r>   -15.1455     0.0000   136.0000 </r>
       <r>   -14.9387     0.0000   136.0000 </r>
       <r>   -14.7318     0.0000   136.0000 </r>
       <r>   -14.5250     0.0000   136.0000 </r>
       <r>   -14.3182     0.0000   136.0000 </r>
       <r>   -14.1113     0.0000   136.0000 </r>
       <r>   -13.9045     0.0000   136.0000 </r>
       <r>   -13.6977     0.0000   136.0000 </r>
       <r>   -13.4909     0.0000   136.0000 </r>
       <r>   -13.2840     0.0000   136.0000 </r>
       <r>   -13.0772     0.0000   136.0000 </r>
       <r>   -12.8704     0.0000   136.0000 </r>
       <r>   -12.6635     0.0000   136.0000 </r>
       <r>   -12.4567     0.0000   136.0000 </r>
       <r>   -12.2499     0.0000   136.0000 </r>
       <r>   -12.0430     0.0000   136.0000 </r>
       <r>   -11.8362     0.0000   136.0000 </r>
       <r>   -11.6294     0.0000   136.0000 </r>
       <r>   -11.4225     0.0000   136.0000 </r>
       <r>   -11.2157     0.0000   136.0000 </r>
       <r>   -11.0089     0.0000   136.0000 </r>
       <r>   -10.8020     0.0000   136.0000 </r>
       <r>   -10.5952     0.0000   136.0000 </r>
       <r>   -10.3884     0.0000   136.0000 </r>
       <r>   -10.1816     0.0000   136.0000 </r>
       <r>    -9.9747     0.0000   136.0000 </r>
       <r>    -9.7679     0.0000   136.0000 </r>
       <r>    -9.5611     0.0000   136.0000 </r>
       <r>    -9.3542     0.0000   136.0000 </r>
       <r>    -9.1474     0.0000   136.0000 </r>
       <r>    -8.9406     0.0000   136.0000 </r>
       <r>    -8.7337     0.0000   136.0000 </r>
       <r>    -8.5269     0.0000   136.0000 </r>
       <r>    -8.3201     0.0000   136.0000 </r>
       <r>    -8.1132     0.0000   136.0000 </r>
       <r>    -7.9064     0.0000   136.0000 </r>
       <r>    -7.6996     0.0000   136.0000 </r>
       <r>    -7.4927     0.0000   136.0000 </r>
       <r>    -7.2859     0.0000   136.0000 </r>
       <r>    -7.0791     0.0000   136.0000 </r>
       <r>    -6.8722     0.0000   136.0000 </r>
       <r>    -6.6654     0.0000   136.0000 </r>
       <r>    -6.4586     0.0000   136.0000 </r>
       <r>    -6.2518     0.0000   136.0000 </r>
       <r>    -6.0449     0.0000   136.0000 </r>
       <r>    -5.8381     0.0000   136.0000 </r>
       <r>    -5.6313     0.0000   136.0000 </r>
       <r>    -5.4244     0.0000   136.0000 </r>
       <r>    -5.2176     0.0000   136.0000 </r>
       <r>    -5.0108     0.0000   136.0000 </r>
       <r>    -4.8039     0.0000   136.0000 </r>
       <r>    -4.5971     0.0000   136.0000 </r>
       <r>    -4.3903     0.0000   136.0000 </r>
       <r>    -4.1834     0.0000   136.0000 </r>
       <r>    -3.9766     0.0000   136.0000 </r>
       <r>    -3.7698     0.0000   136.0000 </r>
       <r>    -3.5629     0.0000   136.0000 </r>
       <r>    -3.3561     0.0000   136.0000 </r>
       <r>    -3.1493     0.0000   136.0000 </r>
       <r>    -2.9425     0.0000   136.0000 </r>
       <r>    -2.7356     0.0000   136.0000 </r>
       <r>    -2.5288     0.0000   136.0000 </r>
       <r>    -2.3220     0.0000   136.0000 </r>
       <r>    -2.1151     0.0000   136.0000 </r>
       <r>    -1.9083     0.0000   136.0000 </r>
       <r>    -1.7015     0.0000   136.0000 </r>
       <r>    -1.4946     0.0000   136.0000 </r>
       <r>    -1.2878     0.0000   136.0000 </r>
       <r>    -1.0810     0.0000   136.0000 </r>
       <r>    -0.8741     0.0000   136.0000 </r>
       <r>    -0.6673    -0.0000   136.0000 </r>
       <r>    -0.4605    -0.0000   136.0000 </r>
       <r>    -0.2536    -0.0000   136.0000 </r>
       <r>    -0.0468    -0.0000   136.0000 </r>
       <r>     0.1600    -0.0000   136.0000 </r>
       <r>     0.3668    -0.0009   135.9998 </r>
       <r>     0.5737    -0.0086   135.9980 </r>
       <r>     0.7805     0.2716   136.0542 </r>
       <r>     0.9873     1.1820   136.2987 </r>
       <r>     1.1942     1.7449   136.6596 </r>
       <r>     1.4010     2.1328   137.1007 </r>
       <r>     1.6078     3.8384   137.8946 </r>
       <r>     1.8147     3.1256   138.5411 </r>
       <r>     2.0215     2.6337   139.0858 </r>
       <r>     2.2283     4.6362   140.0447 </r>
       <r>     2.4352     3.9083   140.8530 </r>
       <r>     2.6420     4.7271   141.8307 </r>
       <r>     2.8488     6.6563   143.2075 </r>
       <r>     3.0557     8.1130   144.8855 </r>
       <r>     3.2625     8.2061   146.5828 </r>
       <r>     3.4693     8.5675   148.3548 </r>
       <r>     3.6761     8.9818   150.2125 </r>
       <r>     3.8830    17.6658   153.8664 </r>
       <r>     4.0898    22.0776   158.4327 </r>
       <r>     4.2966    23.5420   163.3019 </r>
       <r>     4.5035    28.5030   169.1972 </r>
       <r>     4.7103    30.2104   175.4457 </r>
       <r>     4.9171    40.0101   183.7210 </r>
       <r>     5.1240    38.6228   191.7094 </r>
       <r>     5.3308    38.2105   199.6126 </r>
       <r>     5.5376    33.0002   206.4380 </r>
       <r>     5.7445    32.3948   213.1383 </r>
       <r>     5.9513    20.1842   217.3130 </r>
       <r>     6.1581    41.4327   225.8826 </r>
       <r>     6.3650    58.7717   238.0384 </r>
       <r>     6.5718    55.0012   249.4144 </r>
       <r>     6.7786    53.5127   260.4825 </r>
       <r>     6.9854    54.2227   271.6975 </r>
       <r>     7.1923    55.3074   283.1368 </r>
       <r>     7.3991    50.4210   293.5654 </r>
       <r>     7.6059    46.9015   303.2661 </r>
       <r>     7.8128    49.8516   313.5770 </r>
       <r>     8.0196    46.4749   323.1895 </r>
       <r>     8.2264    34.9920   330.4269 </r>
       <r>     8.4333    35.6786   337.8064 </r>
       <r>     8.6401    25.5732   343.0957 </r>
       <r>     8.8469    17.6153   346.7391 </r>
       <r>     9.0538    15.7274   349.9920 </r>
       <r>     9.2606    26.4784   355.4686 </r>
       <r>     9.4674    19.0215   359.4028 </r>
       <r>     9.6743     3.1158   360.0473 </r>
       <r>     9.8811    -0.2250   360.0007 </r>
       <r>    10.0879    -0.0036   360.0000 </r>
       <r>    10.2947    -0.0000   360.0000 </r>
       <r>    10.5016    -0.0000   360.0000 </r>
       <r>    10.7084     0.0000   360.0000 </r>
       <r>    10.9152     0.0000   360.0000 </r>
       <r>    11.1221     0.0000   360.0000 </r>
       <r>    11.3289     0.0000   360.0000 </r>
       <r>    11.5357     0.0000   360.0000 </r>
       <r>    11.7426     0.0000   360.0000 </r>
       <r>    11.9494     0.0000   360.0000 </r>
       <r>    12.1562     0.0000   360.0000 </r>
       <r>    12.3631     0.0000   360.0000 </r>
      </set>
     </set>
    </array>
   </total>
  </dos>
 </calculation>
 <structure name="finalpos" >
  <crystal>
   <varray name="basis" >
    <v>       6.98924463       0.02291349       0.02525767 </v>
    <v>       0.03372212      10.29028824       0.00409032 </v>
    <v>       0.03581183       0.00385003      10.32841683 </v>
   </varray>
   <i name="volume">    742.81620570 </i>
   <varray name="rec_basis" >
    <v>       0.14308031      -0.00046869      -0.00049593 </v>
    <v>      -0.00031847       0.09718007      -0.00003512 </v>
    <v>      -0.00034977      -0.00003734       0.09682149 </v>
   </varray>
  </crystal>
  <varray name="positions" >
   <v>       0.50070829       0.67462609       0.00861443 </v>
   <v>       0.00551122       0.67900789       0.01242237 </v>
   <v>       0.74037134       0.83405988       0.16256238 </v>
   <v>       0.98877956       0.99417373       0.31998019 </v>
   <v>       0.25856613       0.83817816       0.16478468 </v>
   <v>       0.74444722       0.14599360       0.48672327 </v>
   <v>       0.21712539       0.50458124       0.50538609 </v>
   <v>       0.04343902       0.68333500       0.67116580 </v>
   <v>       0.74513034       0.51335490       0.15093558 </v>
   <v>       0.23690501       0.84341824       0.48334983 </v>
   <v>       0.50654176       0.99084763       0.32847543 </v>
   <v>       0.73241538       0.15163502       0.17419181 </v>
   <v>       0.25420213       0.83024538       0.84971883 </v>
   <v>       0.53479832       0.34002397       0.01317809 </v>
   <v>       0.49980495       0.98607675       0.00413741 </v>
   <v>       0.47793374       0.99312770       0.66419519 </v>
   <v>       0.28106282       0.17676396       0.85237872 </v>
   <v>       0.99571216       0.99924603       0.00274734 </v>
   <v>       0.01070867       0.00440496       0.67451988 </v>
   <v>       0.00400240       0.67060028       0.31852582 </v>
   <v>       0.49705536       0.33692623       0.64597077 </v>
   <v>       0.97177748       0.32011078       0.00665756 </v>
   <v>       0.75700272       0.51135085       0.83722538 </v>
   <v>       0.46726451       0.67182964       0.65797481 </v>
   <v>       0.71436074       0.16585820       0.83776507 </v>
   <v>       0.51321398       0.34477806       0.34058571 </v>
   <v>       0.00248451       0.31432803       0.66841180 </v>
   <v>       0.25766538       0.49416585       0.15020562 </v>
   <v>       0.97864276       0.33323706       0.32894414 </v>
   <v>       0.49449442       0.66260507       0.33428536 </v>
   <v>       0.25154805       0.15347554       0.47874198 </v>
   <v>       0.78642386       0.51853470       0.52257414 </v>
   <v>       0.76046276       0.83936291       0.50187310 </v>
   <v>       0.25506807       0.49661290       0.84152775 </v>
   <v>       0.26235852       0.16306330       0.16763336 </v>
   <v>       0.75199602       0.82006347       0.83162332 </v>
  </varray>
 </structure>
</modeling>
