 vasp.5.4.1 05Feb16 (build Jan 29 2020 16:04:39) complex                        
  
 executed on           IFC91_ompi date 2020.06.15  13:00:30
 running on  160 total cores
 distrk:  each k-point on   20 cores,    8 groups
 distr:  one band on NCORES_PER_BAND=   5 cores,    4 groups


--------------------------------------------------------------------------------------------------------


 INCAR:
 POTCAR:    PAW_PBE Zr_sv 04Jan2005               
 POTCAR:    PAW_PBE Nb_sv 25May2007               
 POTCAR:    PAW_PBE Ta 17Jan2003                  
 POTCAR:    PAW_PBE Hf 20Jan2003                  

 ----------------------------------------------------------------------------- 
|                                                                             |
|           W    W    AA    RRRRR   N    N  II  N    N   GGGG   !!!           |
|           W    W   A  A   R    R  NN   N  II  NN   N  G    G  !!!           |
|           W    W  A    A  R    R  N N  N  II  N N  N  G       !!!           |
|           W WW W  AAAAAA  RRRRR   N  N N  II  N  N N  G  GGG   !            |
|           WW  WW  A    A  R   R   N   NN  II  N   NN  G    G                |
|           W    W  A    A  R    R  N    N  II  N    N   GGGG   !!!           |
|                                                                             |
|      For optimal performance we recommend to set                            |
|        NCORE= 4 - approx SQRT( number of cores)                             |
|      NCORE specifies how many cores store one orbital (NPAR=cpu/NCORE).     |
|      This setting can  greatly improve the performance of VASP for DFT.     |
|      The default, NPAR=number of cores might be grossly inefficient         |
|      on modern multi-core architectures or massively parallel machines.     |
|      Do your own testing !!!!                                               |
|      Unfortunately you need to use the default for GW and RPA calculations. |
|      (for HF NCORE is supported but not extensively tested yet)             |
|                                                                             |
 ----------------------------------------------------------------------------- 


 ----------------------------------------------------------------------------- 
|                                                                             |
|           W    W    AA    RRRRR   N    N  II  N    N   GGGG   !!!           |
|           W    W   A  A   R    R  NN   N  II  NN   N  G    G  !!!           |
|           W    W  A    A  R    R  N N  N  II  N N  N  G       !!!           |
|           W WW W  AAAAAA  RRRRR   N  N N  II  N  N N  G  GGG   !            |
|           WW  WW  A    A  R   R   N   NN  II  N   NN  G    G                |
|           W    W  A    A  R    R  N    N  II  N    N   GGGG   !!!           |
|                                                                             |
|      You have enabled k-point parallelism (KPAR>1).                         |
|      This developmental code was originally  written by Paul Kent at ORNL,  |
|      and carefully double checked in Vienna.                                |
|      GW as well as linear response parallelism added by Martijn Marsman     |
|      and Georg Kresse.                                                      |
|      Carefully verify results versus KPAR=1.                                |
|      Report problems to Paul Kent and Vienna.                               |
|                                                                             |
 ----------------------------------------------------------------------------- 

 POTCAR:    PAW_PBE Zr_sv 04Jan2005               
   VRHFIN =Zr: 4s4p5s4d                                                         
   LEXCH  = PE                                                                  
   EATOM  =  1284.2219 eV,   94.3876 Ry                                         
                                                                                
   TITEL  = PAW_PBE Zr_sv 04Jan2005                                             
   LULTRA =        F    use ultrasoft PP ?                                      
   IUNSCR =        1    unscreen: 0-lin 1-nonlin 2-no                           
   RPACOR =    2.200    partial core radius                                     
   POMASS =   91.224; ZVAL   =   12.000    mass and valenz                      
   RCORE  =    2.500    outmost cutoff radius                                   
   RWIGS  =    3.070; RWIGS  =    1.625    wigner-seitz radius (au A)           
   ENMAX  =  229.898; ENMIN  =  172.424 eV                                      
   ICORE  =        3    local potential                                         
   LCOR   =        T    correct aug charges                                     
   LPAW   =        T    paw PP                                                  
   EAUG   =  461.257                                                            
   DEXC   =    0.000                                                            
   RMAX   =    2.561    core radius for proj-oper                               
   RAUG   =    1.300    factor for augmentation sphere                          
   RDEP   =    2.597    radius for radial grids                                 
   RDEPT  =    2.007    core radius for aug-charge                              
                                                                                
   Atomic configuration                                                         
   11 entries                                                                   
     n  l   j            E        occ.                                          
     1  0  0.50    -17820.0161   2.0000                                         
     2  0  0.50     -2467.0882   2.0000                                         
     2  1  1.50     -2199.6095   6.0000                                         
     3  0  0.50      -402.4863   2.0000                                         
     3  1  1.50      -315.3675   6.0000                                         
     3  2  2.50      -172.4472  10.0000                                         
     4  0  0.50       -52.4146   2.0000                                         
     5  0  0.50        -3.8421   1.0000                                         
     4  1  1.50       -30.5054   6.0000                                         
     4  2  2.50        -2.3341   3.0000                                         
     4  3  2.50        -1.3606   0.0000                                         
   Description                                                                  
     l       E           TYP  RCUT    TYP  RCUT                                 
     0    -52.4145962     23  2.200                                             
     0     -3.8421270     23  2.500                                             
     1    -30.5053914     23  2.200                                             
     1     20.4087390     23  2.200                                             
     2     -2.3340816     23  2.500                                             
     2     -0.6120942     23  2.500                                             
     3     -4.0817478     23  2.500                                             
  local pseudopotential read in
  partial core-charges read in
  partial kinetic energy density read in
  atomic valenz-charges read in
  non local Contribution for L=           0  read in
    real space projection operators read in
  non local Contribution for L=           0  read in
    real space projection operators read in
  non local Contribution for L=           1  read in
    real space projection operators read in
  non local Contribution for L=           1  read in
    real space projection operators read in
  non local Contribution for L=           2  read in
    real space projection operators read in
  non local Contribution for L=           2  read in
    real space projection operators read in
    PAW grid and wavefunctions read in
 
   number of l-projection  operators is LMAX  =           6
   number of lm-projection operators is LMMAX =          18
 
 POTCAR:    PAW_PBE Nb_sv 25May2007               
   VRHFIN =Nb: 4p5s4d                                                           
   LEXCH  = PE                                                                  
   EATOM  =  1555.1913 eV,  114.3033 Ry                                         
                                                                                
   TITEL  = PAW_PBE Nb_sv 25May2007                                             
   LULTRA =        F    use ultrasoft PP ?                                      
   IUNSCR =        1    unscreen: 0-lin 1-nonlin 2-no                           
   RPACOR =    1.800    partial core radius                                     
   POMASS =   92.910; ZVAL   =   13.000    mass and valenz                      
   RCORE  =    2.400    outmost cutoff radius                                   
   RWIGS  =    2.400; RWIGS  =    1.270    wigner-seitz radius (au A)           
   ENMAX  =  293.235; ENMIN  =  219.927 eV                                      
   ICORE  =        3    local potential                                         
   LCOR   =        T    correct aug charges                                     
   LPAW   =        T    paw PP                                                  
   EAUG   =  455.659                                                            
   DEXC   =    0.000                                                            
   RMAX   =    2.456    core radius for proj-oper                               
   RAUG   =    1.300    factor for augmentation sphere                          
   RDEP   =    2.451    radius for radial grids                                 
   RDEPT  =    1.956    core radius for aug-charge                              
                                                                                
   Atomic configuration                                                         
   11 entries                                                                   
     n  l   j            E        occ.                                          
     1  0  0.50    -18805.2457   2.0000                                         
     2  0  0.50     -2630.2869   2.0000                                         
     2  1  1.50     -2348.4046   6.0000                                         
     3  0  0.50      -438.8757   2.0000                                         
     3  1  1.50      -346.7588   6.0000                                         
     3  2  2.50      -196.2560  10.0000                                         
     4  0  0.50       -58.3859   2.0000                                         
     5  0  0.50        -3.9816   1.0000                                         
     4  1  1.50       -34.5141   6.0000                                         
     4  2  2.50        -3.0408   4.0000                                         
     4  3  2.50        -1.3606   0.0000                                         
   Description                                                                  
     l       E           TYP  RCUT    TYP  RCUT                                 
     0    -58.3859094     23  2.200                                             
     0     -3.9816262     23  2.200                                             
     1    -34.5140738     23  2.200                                             
     1     13.6058260     23  2.200                                             
     2     -3.0408010     23  2.200                                             
     2     -0.1283038     23  2.200                                             
     3     -1.3605826     23  2.400                                             
  local pseudopotential read in
  partial core-charges read in
  partial kinetic energy density read in
  atomic valenz-charges read in
  non local Contribution for L=           0  read in
    real space projection operators read in
  non local Contribution for L=           0  read in
    real space projection operators read in
  non local Contribution for L=           1  read in
    real space projection operators read in
  non local Contribution for L=           1  read in
    real space projection operators read in
  non local Contribution for L=           2  read in
    real space projection operators read in
  non local Contribution for L=           2  read in
    real space projection operators read in
    PAW grid and wavefunctions read in
 
   number of l-projection  operators is LMAX  =           6
   number of lm-projection operators is LMMAX =          18
 
 POTCAR:    PAW_PBE Ta 17Jan2003                  
   VRHFIN =Ta:  6s5d                                                            
   LEXCH  = PE                                                                  
   EATOM  =   130.6506 eV,    9.6025 Ry                                         
                                                                                
   TITEL  = PAW_PBE Ta 17Jan2003                                                
   LULTRA =        F    use ultrasoft PP ?                                      
   IUNSCR =        1    unscreen: 0-lin 1-nonlin 2-no                           
   RPACOR =    2.330    partial core radius                                     
   POMASS =  180.948; ZVAL   =    5.000    mass and valenz                      
   RCORE  =    2.900    outmost cutoff radius                                   
   RWIGS  =    2.840; RWIGS  =    1.503    wigner-seitz radius (au A)           
   ENMAX  =  223.667; ENMIN  =  167.750 eV                                      
   RCLOC  =    2.205    cutoff for local pot                                    
   LCOR   =        T    correct aug charges                                     
   LPAW   =        T    paw PP                                                  
   EAUG   =  332.075                                                            
   DEXC   =    0.000                                                            
   RMAX   =    2.970    core radius for proj-oper                               
   RAUG   =    1.300    factor for augmentation sphere                          
   RDEP   =    3.060    radius for radial grids                                 
   RDEPT  =    2.354    core radius for aug-charge                              
                                                                                
   Atomic configuration                                                         
   16 entries                                                                   
     n  l   j            E        occ.                                          
     1  0  0.50    -67341.2807   2.0000                                         
     2  0  0.50    -11566.9376   2.0000                                         
     2  1  1.50    -10134.1182   6.0000                                         
     3  0  0.50     -2648.5620   2.0000                                         
     3  1  1.50     -2222.6012   6.0000                                         
     3  2  2.50     -1726.3120  10.0000                                         
     4  0  0.50      -538.6961   2.0000                                         
     4  1  1.50      -399.0129   6.0000                                         
     4  2  2.50      -220.3959  10.0000                                         
     4  3  3.50       -23.0374  14.0000                                         
     5  0  0.50       -71.2901   2.0000                                         
     5  1  1.50       -37.8225   6.0000                                         
     5  2  2.50        -2.6455   4.0000                                         
     6  0  0.50        -4.9623   1.0000                                         
     6  1  1.50        -1.3606   0.0000                                         
     5  3  2.50        -1.3606   0.0000                                         
   Description                                                                  
     l       E           TYP  RCUT    TYP  RCUT                                 
     2     -2.6455043     23  2.500                                             
     2     -0.6258895     23  2.500                                             
     0     -4.9622780     23  2.500                                             
     0      4.7531321     23  2.500                                             
     1     -1.3605826     23  2.900                                             
     1     27.2116520     23  2.900                                             
  local pseudopotential read in
  partial core-charges read in
  partial kinetic energy density read in
  atomic valenz-charges read in
  non local Contribution for L=           2  read in
    real space projection operators read in
  non local Contribution for L=           2  read in
    real space projection operators read in
  non local Contribution for L=           0  read in
    real space projection operators read in
  non local Contribution for L=           0  read in
    real space projection operators read in
  non local Contribution for L=           1  read in
    real space projection operators read in
  non local Contribution for L=           1  read in
    real space projection operators read in
    PAW grid and wavefunctions read in
 
   number of l-projection  operators is LMAX  =           6
   number of lm-projection operators is LMMAX =          18
 
 POTCAR:    PAW_PBE Hf 20Jan2003                  
   VRHFIN =Hf: 6s5d                                                             
   LEXCH  = PE                                                                  
   EATOM  =    75.9011 eV,    5.5786 Ry                                         
                                                                                
   TITEL  = PAW_PBE Hf 20Jan2003                                                
   LULTRA =        F    use ultrasoft PP ?                                      
   IUNSCR =        1    unscreen: 0-lin 1-nonlin 2-no                           
   RPACOR =    2.500    partial core radius                                     
   POMASS =  178.490; ZVAL   =    4.000    mass and valenz                      
   RCORE  =    3.000    outmost cutoff radius                                   
   RWIGS  =    3.050; RWIGS  =    1.614    wigner-seitz radius (au A)           
   ENMAX  =  220.334; ENMIN  =  165.250 eV                                      
   RCLOC  =    2.212    cutoff for local pot                                    
   LCOR   =        T    correct aug charges                                     
   LPAW   =        T    paw PP                                                  
   EAUG   =  335.116                                                            
   DEXC   =    0.000                                                            
   RMAX   =    3.077    core radius for proj-oper                               
   RAUG   =    1.300    factor for augmentation sphere                          
   RDEP   =    3.047    radius for radial grids                                 
   RDEPT  =    2.344    core radius for aug-charge                              
                                                                                
   Atomic configuration                                                         
   16 entries                                                                   
     n  l   j            E        occ.                                          
     1  0  0.50    -65259.4397   2.0000                                         
     2  0  0.50    -11157.9882   2.0000                                         
     2  1  1.50     -9795.2113   6.0000                                         
     3  0  0.50     -2541.4058   2.0000                                         
     3  1  1.50     -2134.4770   6.0000                                         
     3  2  2.50     -1653.5418  10.0000                                         
     4  0  0.50      -510.9575   2.0000                                         
     4  1  1.50      -377.5023   6.0000                                         
     4  2  2.50      -205.2085  10.0000                                         
     4  3  3.50       -15.4905  14.0000                                         
     5  0  0.50       -65.6020   2.0000                                         
     5  1  1.50       -34.2798   6.0000                                         
     5  2  2.50        -1.9877   3.0000                                         
     6  0  0.50        -4.7357   1.0000                                         
     6  1  1.50        -1.3606   0.0000                                         
     5  3  2.50        -1.3606   0.0000                                         
   Description                                                                  
     l       E           TYP  RCUT    TYP  RCUT                                 
     2     -1.9876627     23  2.500                                             
     2      0.0744703     23  2.500                                             
     0     -4.7356889     23  2.600                                             
     0      3.2364747     23  2.600                                             
     1     -1.3605826     23  3.000                                             
     1     27.2116520     23  3.000                                             
  local pseudopotential read in
  partial core-charges read in
  partial kinetic energy density read in
  atomic valenz-charges read in
  non local Contribution for L=           2  read in
    real space projection operators read in
  non local Contribution for L=           2  read in
    real space projection operators read in
  non local Contribution for L=           0  read in
    real space projection operators read in
  non local Contribution for L=           0  read in
    real space projection operators read in
  non local Contribution for L=           1  read in
    real space projection operators read in
  non local Contribution for L=           1  read in
    real space projection operators read in
    PAW grid and wavefunctions read in
 
   number of l-projection  operators is LMAX  =           6
   number of lm-projection operators is LMMAX =          18
 
 Optimization of the real space projectors (new method)

 maximal supplied QI-value         = 15.12
 optimisation between [QCUT,QGAM] = [  8.77, 17.69] = [ 21.53, 87.61] Ry 
 Optimized for a Real-space Cutoff    1.74 Angstroem

   l    n(q)    QCUT    max X(q) W(low)/X(q) W(high)/X(q)  e(spline) 
   0      9     8.768    12.107    0.28E-04    0.53E-06    0.29E-07
   0      9     8.768     9.948    0.36E-04    0.50E-05    0.64E-07
   1      9     8.768     3.563    0.14E-04    0.16E-04    0.88E-07
   1      9     8.768     4.524    0.21E-03    0.33E-03    0.19E-06
   2      8     8.768    87.261    0.19E-03    0.25E-03    0.24E-06
   2      8     8.768    70.950    0.19E-03    0.24E-03    0.24E-06
 Optimization of the real space projectors (new method)

 maximal supplied QI-value         = 15.68
 optimisation between [QCUT,QGAM] = [  8.78, 17.72] = [ 21.60, 87.97] Ry 
 Optimized for a Real-space Cutoff    1.96 Angstroem

   l    n(q)    QCUT    max X(q) W(low)/X(q) W(high)/X(q)  e(spline) 
   0     10     8.783    10.201    0.29E-04    0.25E-05    0.69E-07
   0     10     8.783     8.174    0.45E-04    0.57E-05    0.14E-06
   1     10     8.783     3.488    0.76E-05    0.24E-04    0.95E-07
   1     10     8.783     4.917    0.78E-04    0.14E-03    0.46E-06
   2      9     8.783   153.744    0.22E-03    0.34E-04    0.15E-05
   2      9     8.783   126.342    0.22E-03    0.35E-04    0.15E-05
 Optimization of the real space projectors (new method)

 maximal supplied QI-value         = 12.85
 optimisation between [QCUT,QGAM] = [  8.87, 17.73] = [ 22.01, 88.06] Ry 
 Optimized for a Real-space Cutoff    1.90 Angstroem

   l    n(q)    QCUT    max X(q) W(low)/X(q) W(high)/X(q)  e(spline) 
   2      9     8.867    62.315    0.23E-03    0.62E-04    0.11E-05
   2      9     8.867    52.185    0.23E-03    0.62E-04    0.11E-05
   0     10     8.867   103.837    0.15E-04    0.23E-04    0.98E-07
   0     10     8.867    59.728    0.12E-04    0.21E-04    0.89E-07
   1     10     8.867    13.958    0.50E-04    0.22E-04    0.14E-06
   1     10     8.867     8.441    0.36E-04    0.19E-04    0.98E-07
 Optimization of the real space projectors (new method)

 maximal supplied QI-value         = 12.47
 optimisation between [QCUT,QGAM] = [  8.86, 17.71] = [ 21.96, 87.83] Ry 
 Optimized for a Real-space Cutoff    1.90 Angstroem

   l    n(q)    QCUT    max X(q) W(low)/X(q) W(high)/X(q)  e(spline) 
   2      9     8.855    48.111    0.22E-03    0.80E-04    0.10E-05
   2      9     8.855    40.545    0.21E-03    0.76E-04    0.95E-06
   0     10     8.855   121.658    0.27E-04    0.12E-04    0.11E-06
   0     10     8.855    71.177    0.22E-04    0.11E-04    0.99E-07
   1     10     8.855    14.183    0.65E-04    0.10E-03    0.98E-07
   1     10     8.855     8.257    0.43E-04    0.73E-04    0.72E-07
  PAW_PBE Zr_sv 04Jan2005               :
 energy of atom  1       EATOM=-1284.2219
 kinetic energy error for atom=    0.0483 (will be added to EATOM!!)
  PAW_PBE Nb_sv 25May2007               :
 energy of atom  2       EATOM=-1555.1913
 kinetic energy error for atom=    0.0655 (will be added to EATOM!!)
  PAW_PBE Ta 17Jan2003                  :
 energy of atom  3       EATOM= -130.6506
 kinetic energy error for atom=    0.0121 (will be added to EATOM!!)
  PAW_PBE Hf 20Jan2003                  :
 energy of atom  4       EATOM=  -75.9011
 kinetic energy error for atom=    0.0071 (will be added to EATOM!!)
 
 
 POSCAR: generated by pypospack                  
  positions in direct lattice
  No initial velocities read in
 exchange correlation table for  LEXCH =        8
   RHO(1)=    0.500       N(1)  =     2000
   RHO(2)=  100.500       N(2)  =     4000
 


--------------------------------------------------------------------------------------------------------


 ion  position               nearest neighbor table
   1  0.487  0.324  0.330-   9 2.92  10 2.92  18 2.92  21 2.98  30 2.99   2 3.04   6 3.08  27 3.12
                             4 3.27  19 3.28  26 3.42  22 3.57  19 3.68
   2  0.744  0.496  0.497-  23 2.83  24 2.98  22 3.01  31 3.02  19 3.02   8 3.02  16 3.03   1 3.04
                             9 3.27  14 3.39  27 3.42  21 3.42  29 3.47  21 3.53
   3  0.006  0.993  0.999-  10 2.95   6 2.96  12 2.99  15 3.00  11 3.02  17 3.04   7 3.14  28 3.18
                            35 3.30  36 3.40  34 3.41  13 3.45  25 3.51  36 3.56
   4  0.502  0.003  0.332-  17 2.85  15 2.88  18 2.98   5 2.99   9 3.00  14 3.01  10 3.03   6 3.09
                             1 3.27  22 3.38  36 3.41  25 3.45  33 3.47  25 3.51
   5  0.260  0.836  0.506-  24 2.95  23 2.97  25 2.97   4 2.99  31 2.99  22 3.01  34 3.10  28 3.16
                            33 3.16  15 3.31  18 3.34  14 3.37  21 3.47
   6  0.774  0.170  0.161-   3 2.96  13 2.98  25 2.98  19 2.98   1 3.08  36 3.09   4 3.09  26 3.11
                            10 3.14  11 3.21  27 3.32   9 3.38  17 3.40
   7  0.005  0.686  0.001-  15 2.97  28 3.01  30 3.02  17 3.03  35 3.03  27 3.05  20 3.10  29 3.10
                             3 3.14  32 3.41  31 3.48  32 3.55  24 3.55
   8  0.004  0.328  0.666-  12 2.87   9 2.93  11 2.93  18 2.94  20 2.97  21 2.98   2 3.02  29 3.03
                            34 3.27  19 3.29  13 3.30  24 3.36  16 3.38
   9  0.761  0.176  0.490-  19 2.76  33 2.90  25 2.92   1 2.92  34 2.92   8 2.93   4 3.00   2 3.27
                             6 3.38
  10  0.226  0.168  0.171-  19 2.82  13 2.85   1 2.92  25 2.93   3 2.95  26 2.99   4 3.03  36 3.08
                             6 3.14  30 3.37
  11  0.757  0.185  0.849-  13 2.78  26 2.89   8 2.93  33 2.94  16 2.98   3 3.02  34 3.04  36 3.05
                             6 3.21  29 3.22
  12  0.245  0.170  0.833-  13 2.74  26 2.85   8 2.87  16 2.88  33 2.94  36 2.98   3 2.99  34 2.99

  13  0.026  0.330  0.988-  12 2.74  11 2.78  10 2.85  20 2.89  30 2.92   6 2.98  29 3.00  27 3.08
                            26 3.13   8 3.30   3 3.45
  14  0.745  0.828  0.504-  31 2.86  22 2.94  24 2.98  25 2.98  34 3.01   4 3.01  23 3.07  33 3.11
                            35 3.13  17 3.29   5 3.37   2 3.39
  15  0.252  0.836  0.183-  22 2.82   4 2.88  31 2.90  25 2.90  32 2.92   7 2.97   3 3.00  36 3.03
                             5 3.31
  16  0.490  0.331  0.672-  12 2.88  20 2.92  21 2.95  11 2.98  18 3.02  29 3.02   2 3.03  33 3.09
                            23 3.14  26 3.33   8 3.38
  17  0.748  0.839  0.184-  22 2.82  31 2.85   4 2.85  25 2.86  32 2.97   7 3.03   3 3.04  36 3.05
                            14 3.29   6 3.40  27 3.52
  18  0.243  0.163  0.498-  19 2.75  25 2.91   1 2.92  33 2.93   8 2.94  34 2.95   4 2.98  16 3.02
                             5 3.34  21 3.41
  19  0.016  0.323  0.346-  18 2.75   9 2.76  10 2.82  21 2.89  30 2.90   6 2.98   2 3.02  27 3.08
                             1 3.28   8 3.29  25 3.35  31 3.64   1 3.68
  20  0.247  0.505  0.825-  23 2.76  24 2.83  13 2.89  16 2.92  26 2.97   8 2.97   7 3.10  32 3.15
                            28 3.24  21 3.35  29 3.44  29 3.52  30 3.59
  21  0.253  0.497  0.499-  23 2.70  24 2.86  19 2.89  16 2.95   1 2.98   8 2.98  31 3.05  22 3.06
                            30 3.34  20 3.35  18 3.41   2 3.42   5 3.47   2 3.53
  22  0.503  0.673  0.327-  15 2.82  17 2.82  14 2.94   2 3.01   5 3.01  21 3.06  30 3.07  27 3.08
                            32 3.16   4 3.38  23 3.39  31 3.42  31 3.54   1 3.57
  23  0.486  0.638  0.655-  21 2.70  20 2.76   2 2.83  28 2.92  35 2.94  29 2.96   5 2.97  14 3.07
                            16 3.14  24 3.30  22 3.39
  24  0.012  0.657  0.656-  20 2.83  21 2.86  28 2.95   5 2.95   2 2.98  14 2.98  35 2.98  29 3.03
                            31 3.26  23 3.30   8 3.36   7 3.55  34 3.60
  25  0.998  0.996  0.340-  17 2.86  15 2.90  18 2.91   9 2.92  10 2.93   5 2.97  14 2.98   6 2.98
                            31 3.25  19 3.35  34 3.36   4 3.45   3 3.51   4 3.51
  26  0.477  0.329  0.997-  12 2.85  11 2.89  20 2.97  10 2.99  30 3.06  29 3.08   6 3.11  13 3.13
                            27 3.15  16 3.33  36 3.36   1 3.42  32 3.54
  27  0.767  0.495  0.165-  32 3.02  31 3.05   7 3.05  19 3.08  22 3.08  13 3.08   1 3.12  26 3.15
                            30 3.20   6 3.32  29 3.38   2 3.42  17 3.52  30 3.76
  28  0.270  0.822  0.813-  23 2.92  24 2.95   7 3.01  32 3.01  36 3.08  33 3.12  34 3.13   5 3.16
                             3 3.18  35 3.20  20 3.24  35 3.76
  29  0.753  0.500  0.835-  23 2.96  13 3.00  16 3.02  24 3.03   8 3.03  26 3.08   7 3.10  32 3.17
                            11 3.22  35 3.23  27 3.38  20 3.44   2 3.47  20 3.52
  30  0.226  0.497  0.174-  19 2.90  13 2.92   1 2.99  31 3.00   7 3.02  32 3.05  26 3.06  22 3.07
                            27 3.20  21 3.34  10 3.37  20 3.59  27 3.76
  31  0.994  0.679  0.340-  17 2.85  14 2.86  15 2.90   5 2.99  30 3.00   2 3.02  21 3.05  27 3.05
                            25 3.25  24 3.26  22 3.42   7 3.48  22 3.54  19 3.64
  32  0.495  0.675  0.019-  15 2.92  17 2.97  28 3.01  27 3.02  30 3.05  35 3.06  20 3.15  22 3.16
                            29 3.17  36 3.34   7 3.41  26 3.54   7 3.55
  33  0.520  0.029  0.669-   9 2.90  18 2.93  12 2.94  11 2.94  35 2.99  16 3.09  14 3.11  28 3.12
                             5 3.16  34 3.23  36 3.42   4 3.47  34 3.73
  34  0.984  0.009  0.667-   9 2.92  18 2.95  12 2.99  14 3.01  35 3.03  11 3.04   5 3.10  28 3.13
                            33 3.23   8 3.27  25 3.36   3 3.41  24 3.60  33 3.73
  35  0.730  0.814  0.808-  23 2.94  24 2.98  33 2.99  34 3.03   7 3.03  32 3.06  14 3.13  28 3.20
                            36 3.21  29 3.23   3 3.30  28 3.76
  36  0.494  0.001  0.000-  12 2.98  15 3.03  17 3.05  11 3.05  28 3.08  10 3.08   6 3.09  35 3.21
                            32 3.34  26 3.36   3 3.40   4 3.41  33 3.42   3 3.56
 
  LATTYP: Found a triclinic cell.
 ALAT       =    20.0809680096
 B/A-ratio  =     0.3462149981
 C/A-ratio  =     0.5090455370
 COS(alpha) =     0.0013505825
 COS(beta)  =     0.5060775397
 COS(gamma) =     0.6954595941
  
  Lattice vectors:
  
 A1 = ( -13.9353178745, -10.1919004947,  10.2556012134)
 A2 = (  -6.9523124015,  -0.0045044439,   0.0160124751)
 A3 = (  -0.0072729560, -10.2220498403,  -0.0390834089)


Analysis of symmetry for initial positions (statically):
=====================================================================
 Subroutine PRICEL returns:
 Original cell was already a primitive cell.
 

 Routine SETGRP: Setting up the symmetry group for a 
 triclinic supercell.


 Subroutine GETGRP returns: Found  1 space group operations
 (whereof  1 operations were pure point group operations)
 out of a pool of  2 trial point group operations.


The static configuration has the point symmetry C_1 .


Analysis of symmetry for dynamics (positions and initial velocities):
=====================================================================
 Subroutine PRICEL returns:
 Original cell was already a primitive cell.
 

 Routine SETGRP: Setting up the symmetry group for a 
 triclinic supercell.


 Subroutine GETGRP returns: Found  1 space group operations
 (whereof  1 operations were pure point group operations)
 out of a pool of  2 trial point group operations.


The dynamic configuration has the point symmetry C_1 .


 Subroutine INISYM returns: Found  1 space group operations
 (whereof  1 operations are pure point group operations),
 and found     1 'primitive' translations

 
 
 KPOINTS: k-points                                

Automatic generation of k-mesh.
Space group operators:
 irot       det(A)        alpha          n_x          n_y          n_z        tau_x        tau_y        tau_z
    1     1.000000     0.000001     1.000000     0.000000     0.000000     0.000000     0.000000     0.000000
 
 Subroutine IBZKPT returns following result:
 ===========================================
 
 Found     14 irreducible k-points:
 
 Following reciprocal coordinates:
            Coordinates               Weight
  0.000000  0.000000  0.000000      1.000000
  0.333333  0.000000 -0.000000      2.000000
 -0.000000  0.333333  0.000000      2.000000
  0.333333  0.333333  0.000000      2.000000
 -0.333333  0.333333  0.000000      2.000000
 -0.000000  0.000000  0.333333      2.000000
  0.333333  0.000000  0.333333      2.000000
 -0.333333 -0.000000  0.333333      2.000000
  0.000000  0.333333  0.333333      2.000000
  0.333333  0.333333  0.333333      2.000000
 -0.333333  0.333333  0.333333      2.000000
  0.000000 -0.333333  0.333333      2.000000
  0.333333 -0.333333  0.333333      2.000000
 -0.333333 -0.333333  0.333333      2.000000
 
 Following cartesian coordinates:
            Coordinates               Weight
  0.000000  0.000000  0.000000      1.000000
  0.239169 -0.000172  0.000546      2.000000
 -0.000107  0.162667 -0.000621      2.000000
  0.239062  0.162495 -0.000074      2.000000
 -0.239276  0.162840 -0.001167      2.000000
  0.000374 -0.000620  0.162025      2.000000
  0.239543 -0.000792  0.162571      2.000000
 -0.238796 -0.000447  0.161478      2.000000
  0.000267  0.162048  0.161404      2.000000
  0.239436  0.161875  0.161950      2.000000
 -0.238903  0.162220  0.160857      2.000000
  0.000480 -0.163287  0.162645      2.000000
  0.239650 -0.163459  0.163192      2.000000
 -0.238689 -0.163115  0.162099      2.000000
 


--------------------------------------------------------------------------------------------------------




 Dimension of arrays:
   k-points           NKPTS =     14   k-points in BZ     NKDIM =     14   number of bands    NBANDS=    176
   number of dos      NEDOS =    301   number of ions     NIONS =     36
   non local maximal  LDIM  =      6   non local SUM 2l+1 LMDIM =     18
   total plane-waves  NPLWV = 144000
   max r-space proj   IRMAX =   6282   max aug-charges    IRDMAX=  13638
   dimension x,y,z NGX =    40 NGY =   60 NGZ =   60
   dimension x,y,z NGXF=    80 NGYF=  120 NGZF=  120
   support grid    NGXF=    80 NGYF=  120 NGZF=  120
   ions per type =               8   8   9  11
 NGX,Y,Z   is equivalent  to a cutoff of   9.56,  9.76,  9.72 a.u.
 NGXF,Y,Z  is equivalent  to a cutoff of  19.13, 19.52, 19.44 a.u.


 I would recommend the setting:
   dimension x,y,z NGX =    39 NGY =   58 NGZ =   58
 SYSTEM =  automatically generated by mexm         
 POSCAR =  generated by pypospack                  

 Startparameter for this run:
   NWRITE =      2    write-flag & timer
   PREC   = accura    normal or accurate (medium, high low for compatibility)
   ISTART =      0    job   : 0-new  1-cont  2-samecut
   ICHARG =      2    charge: 1-file 2-atom 10-const
   ISPIN  =      1    spin polarized calculation?
   LNONCOLLINEAR =      F non collinear calculations
   LSORBIT =      F    spin-orbit coupling
   INIWAV =      1    electr: 0-lowe 1-rand  2-diag
   LASPH  =      F    aspherical Exc in radial PAW
   METAGGA=      F    non-selfconsistent MetaGGA calc.

 Electronic Relaxation 1
   ENCUT  =  300.0 eV  22.05 Ry    4.70 a.u.   9.82 14.44 14.49*2*pi/ulx,y,z
   ENINI  =  300.0     initial cutoff
   ENAUG  =  461.3 eV  augmentation charge cutoff
   NELM   =     70;   NELMIN=  2; NELMDL= -5     # of ELM steps 
   EDIFF  = 0.1E-04   stopping-criterion for ELM
   LREAL  =      T    real-space projection
   NLSPLINE    = F    spline interpolate recip. space projectors
   LCOMPAT=      F    compatible to vasp.4.4
   GGA_COMPAT  = T    GGA compatible to vasp.4.4-vasp.4.6
   LMAXPAW     = -100 max onsite density
   LMAXMIX     =    2 max onsite mixed and CHGCAR
   VOSKOWN=      0    Vosko Wilk Nusair interpolation
   ROPT   =   -0.00025  -0.00025  -0.00025  -0.00025
 Ionic relaxation
   EDIFFG = -.1E-01   stopping-criterion for IOM
   NSW    =    300    number of steps for IOM
   NBLOCK =      1;   KBLOCK =    300    inner block; outer block 
   IBRION =      2    ionic relax: 0-MD 1-quasi-New 2-CG
   NFREE  =      1    steps in history (QN), initial steepest desc. (CG)
   ISIF   =      3    stress and relaxation
   IWAVPR =     11    prediction:  0-non 1-charg 2-wave 3-comb
   ISYM   =      1    0-nonsym 1-usesym 2-fastsym
   LCORR  =      T    Harris-Foulkes like correction to forces

   POTIM  = 0.1500    time-step for ionic-motion
   TEIN   =    0.0    initial temperature
   TEBEG  =    0.0;   TEEND  =   0.0 temperature during run
   SMASS  =  -3.00    Nose mass-parameter (am)
   estimated Nose-frequenzy (Omega)   =  0.10E-29 period in steps =****** mass=  -0.110E-26a.u.
   SCALEE = 1.0000    scale energy and forces
   NPACO  =    256;   APACO  = 16.0  distance and # of slots for P.C.
   PSTRESS=    0.0 pullay stress

  Mass of Ions in am
   POMASS =  91.22 92.91180.95178.49
  Ionic Valenz
   ZVAL   =  12.00 13.00  5.00  4.00
  Atomic Wigner-Seitz radii
   RWIGS  =  -1.00 -1.00 -1.00 -1.00
  virtual crystal weights 
   VCA    =   1.00  1.00  1.00  1.00
   NELECT =     289.0000    total number of electrons
   NUPDOWN=      -1.0000    fix difference up-down

 DOS related values:
   EMIN   =  10.00;   EMAX   =-10.00  energy-range for DOS
   EFERMI =   0.00
   ISMEAR =     1;   SIGMA  =   0.15  broadening in eV -4-tet -1-fermi 0-gaus

 Electronic relaxation 2 (details)
   IALGO  =     68    algorithm
   LDIAG  =      T    sub-space diagonalisation (order eigenvalues)
   LSUBROT=      F    optimize rotation matrix (better conditioning)
   TURBO    =      0    0=normal 1=particle mesh
   IRESTART =      0    0=no restart 2=restart with 2 vectors
   NREBOOT  =      0    no. of reboots
   NMIN     =      0    reboot dimension
   EREF     =   0.00    reference energy to select bands
   IMIX   =      4    mixing-type and parameters
     AMIX     =   0.40;   BMIX     =  1.00
     AMIX_MAG =   1.60;   BMIX_MAG =  1.00
     AMIN     =   0.10
     WC   =   100.;   INIMIX=   1;  MIXPRE=   1;  MAXMIX= -45

 Intra band minimization:
   WEIMIN = 0.0010     energy-eigenvalue tresh-hold
   EBREAK =  0.14E-07  absolut break condition
   DEPER  =   0.30     relativ break condition  

   TIME   =   0.40     timestep for ELM

  volume/ion in A,a.u.               =      20.26       136.71
  Fermi-wavevector in a.u.,A,eV,Ry     =   1.202453  2.272306 19.672560  1.445892
  Thomas-Fermi vector in A             =   2.338234
 
 Write flags
   LWAVE  =      F    write WAVECAR
   LCHARG =      F    write CHGCAR
   LVTOT  =      F    write LOCPOT, total local potential
   LVHAR  =      F    write LOCPOT, Hartree potential only
   LELF   =      F    write electronic localiz. function (ELF)
   LORBIT =      0    0 simple, 1 ext, 2 COOP (PROOUT)


 Dipole corrections
   LMONO  =      F    monopole corrections only (constant potential shift)
   LDIPOL =      F    correct potential (dipole corrections)
   IDIPOL =      0    1-x, 2-y, 3-z, 4-all directions 
   EPSILON=  1.0000000 bulk dielectric constant

 Exchange correlation treatment:
   GGA     =    --    GGA type
   LEXCH   =     8    internal setting for exchange type
   VOSKOWN=      0    Vosko Wilk Nusair interpolation
   LHFCALC =     F    Hartree Fock is set to
   LHFONE  =     F    Hartree Fock one center treatment
   AEXX    =    0.0000 exact exchange contribution

 Linear response parameters
   LEPSILON=     F    determine dielectric tensor
   LRPA    =     F    only Hartree local field effects (RPA)
   LNABLA  =     F    use nabla operator in PAW spheres
   LVEL    =     F    velocity operator in full k-point grid
   LINTERFAST=   F  fast interpolation
   KINTER  =     0    interpolate to denser k-point grid
   CSHIFT  =0.1000    complex shift for real part using Kramers Kronig
   OMEGAMAX=  -1.0    maximum frequency
   DEG_THRESHOLD= 0.2000000E-02 threshold for treating states as degnerate
   RTIME   =    0.100 relaxation time in fs

 Orbital magnetization related:
   ORBITALMAG=     F  switch on orbital magnetization
   LCHIMAG   =     F  perturbation theory with respect to B field
   DQ        =  0.001000  dq finite difference perturbation B field



--------------------------------------------------------------------------------------------------------


 conjugate gradient relaxation of ions
 charge density and potential will be updated during run
 non-spin polarized calculation
 RMM-DIIS sequential band-by-band and
  variant of blocked Davidson during initial phase
 perform sub-space diagonalisation
    before iterative eigenvector-optimisation
 modified Broyden-mixing scheme, WC =      100.0
 initial mixing is a Kerker type mixing with AMIX =  0.4000 and BMIX =      1.0000
 Hartree-type preconditioning will be used
 using additional bands           31
 real space projection scheme for non local part
 use partial core corrections
 calculate Harris-corrections to forces 
   (improved forces if not selfconsistent)
 use gradient corrections 
 use of overlap-Matrix (Vanderbilt PP)
 Methfessel and Paxton  Order N= 1 SIGMA  =   0.15


--------------------------------------------------------------------------------------------------------


  energy-cutoff  :      300.00
  volume of cell :      729.32
      direct lattice vectors                 reciprocal lattice vectors
     6.952312402  0.004504444 -0.016012475     0.143837859 -0.000103597  0.000328643
     0.007272956 10.222049840  0.039083409    -0.000064244  0.097829210 -0.000373424
    -0.023420115  0.039158234 10.262659672     0.000224670 -0.000372726  0.097442563

  length of vectors
     6.952332301 10.222127144 10.262761101     0.143838271  0.097829944  0.097443534


 
 k-points in units of 2pi/SCALE and weight: k-points                                
   0.00000000  0.00000000  0.00000000       0.037
   0.23916928 -0.00017226  0.00054646       0.074
  -0.00010682  0.16266748 -0.00062092       0.074
   0.23906245  0.16249522 -0.00007446       0.074
  -0.23927610  0.16283973 -0.00116738       0.074
   0.00037357 -0.00061976  0.16202457       0.074
   0.23954285 -0.00079201  0.16257103       0.074
  -0.23879570 -0.00044750  0.16147811       0.074
   0.00026675  0.16204772  0.16140365       0.074
   0.23943603  0.16187546  0.16195011       0.074
  -0.23890253  0.16221998  0.16085719       0.074
   0.00048040 -0.16328723  0.16264549       0.074
   0.23964967 -0.16345949  0.16319195       0.074
  -0.23868888 -0.16311498  0.16209903       0.074
 
 k-points in reciprocal lattice and weights: k-points                                
   0.00000000  0.00000000  0.00000000       0.037
   0.33333333  0.00000000 -0.00000000       0.074
  -0.00000000  0.33333333  0.00000000       0.074
   0.33333333  0.33333333  0.00000000       0.074
  -0.33333333  0.33333333  0.00000000       0.074
  -0.00000000  0.00000000  0.33333333       0.074
   0.33333333  0.00000000  0.33333333       0.074
  -0.33333333 -0.00000000  0.33333333       0.074
   0.00000000  0.33333333  0.33333333       0.074
   0.33333333  0.33333333  0.33333333       0.074
  -0.33333333  0.33333333  0.33333333       0.074
   0.00000000 -0.33333333  0.33333333       0.074
   0.33333333 -0.33333333  0.33333333       0.074
  -0.33333333 -0.33333333  0.33333333       0.074
 
 position of ions in fractional coordinates (direct lattice) 
   0.48735800  0.32361600  0.33037300
   0.74418900  0.49568500  0.49708200
   0.00600000  0.99292400  0.99853100
   0.50226300  0.00341700  0.33244300
   0.26029900  0.83616800  0.50608300
   0.77386600  0.17045400  0.16093100
   0.00456800  0.68562000  0.00125300
   0.00427400  0.32795500  0.66625300
   0.76116100  0.17566000  0.49018300
   0.22603900  0.16760500  0.17077200
   0.75749300  0.18456000  0.84861100
   0.24488700  0.17039900  0.83303100
   0.02648000  0.32970500  0.98776600
   0.74490200  0.82757400  0.50352400
   0.25170400  0.83639400  0.18333100
   0.48969700  0.33088800  0.67240600
   0.74837800  0.83933900  0.18352100
   0.24279600  0.16298300  0.49843900
   0.01576300  0.32343100  0.34598200
   0.24706200  0.50525400  0.82501700
   0.25264000  0.49684900  0.49882100
   0.50292200  0.67283300  0.32685400
   0.48613600  0.63783700  0.65496500
   0.01158800  0.65688200  0.65649500
   0.99795200  0.99634600  0.33997900
   0.47693700  0.32940200  0.99689600
   0.76660500  0.49547700  0.16454300
   0.26978800  0.82175300  0.81337000
   0.75321900  0.49972400  0.83515500
   0.22618900  0.49728200  0.17405700
   0.99387600  0.67889000  0.33994600
   0.49464900  0.67460700  0.01868100
   0.52006300  0.02919200  0.66903500
   0.98426100  0.00867900  0.66692000
   0.72977200  0.81399500  0.80834300
   0.49422700  0.00063800  0.00040800
 
 position of ions in cartesian coordinates  (Angst):
   3.38288134  3.32315098  3.39534987
   5.16579779  5.08973379  5.10884015
   0.02554966 10.18884635 10.28629460
   3.48412828  0.05020904  3.40384044
   1.80390886  8.56834079  5.22226986
   5.37762887  1.75217689  1.64585050
   0.03671530  7.00851145  0.03958233
   0.01649566  3.37848090  6.85027696
   5.28162648  1.81822858  5.02525863
   1.56871323  1.72097197  1.75550605
   5.24779571  1.92322371  8.70408978
   1.68426055  1.77555017  8.55185218
   0.16336157  3.40905939 10.14956828
   5.17301773  8.48257515  5.18791214
   1.75171426  8.55797386  1.91012238
   3.39118523  3.41088967  6.90576491
   5.20476404  8.59032248  1.90423441
   1.67750551  1.68663200  5.11779199
   0.10383866  3.31974685  3.56308390
   1.70200490  5.19815066  8.48265967
   1.74836332  5.09948619  5.13460332
   3.49370938  6.89279687  3.37263495
   3.36906895  6.54783865  6.73882750
   0.06996568  6.74043993  6.76287240
   6.93735810 10.20250667  3.51204969
   3.29486333  3.40834868 10.23604159
   5.32942741  5.07468693  1.69573850
   1.86257781  8.43306550  8.37513643
   5.22068884  5.14429966  8.57838156
   1.57207686  5.09107601  1.80210138
   6.90671240  6.95743596  3.49936903
   3.44342325  6.89882601  0.21016213
   3.60018388  0.32694290  6.85889194
   6.82733374  0.11926613  6.82895174
   5.06059159  8.35563796  8.31587735
   3.43601559  0.00876386 -0.00370170
 


--------------------------------------------------------------------------------------------------------


 k-point  1 :   0.0000 0.0000 0.0000  plane waves:    8651
 k-point  2 :   0.3333 0.0000-0.0000  plane waves:    8616
 k-point  3 :  -0.0000 0.3333 0.0000  plane waves:    8614
 k-point  4 :   0.3333 0.3333 0.0000  plane waves:    8612
 k-point  5 :  -0.3333 0.3333 0.0000  plane waves:    8602
 k-point  6 :  -0.0000 0.0000 0.3333  plane waves:    8607
 k-point  7 :   0.3333 0.0000 0.3333  plane waves:    8605
 k-point  8 :  -0.3333-0.0000 0.3333  plane waves:    8605
 k-point  9 :   0.0000 0.3333 0.3333  plane waves:    8588
 k-point 10 :   0.3333 0.3333 0.3333  plane waves:    8613
 k-point 11 :  -0.3333 0.3333 0.3333  plane waves:    8619
 k-point 12 :   0.0000-0.3333 0.3333  plane waves:    8610
 k-point 13 :   0.3333-0.3333 0.3333  plane waves:    8606
 k-point 14 :  -0.3333-0.3333 0.3333  plane waves:    8597

 maximum and minimum number of plane-waves per node :      1753     1696

 maximum number of plane-waves:      8651
 maximum index in each direction: 
   IXMAX=   10   IYMAX=   14   IZMAX=   14
   IXMIN=  -10   IYMIN=  -14   IZMIN=  -14

 WARNING: aliasing errors must be expected set NGX to  42 to avoid them
 NGY is ok and might be reduce to  58
 NGZ is ok and might be reduce to  58
 aliasing errors are usually negligible using standard VASP settings
 and one can safely disregard these warnings

 real space projection operators:
  total allocation   :      27129.52 KBytes
  max/ min on nodes  :       5482.97       5359.08


 parallel 3D FFT for wavefunctions:
    minimum data exchange during FFTs selected (reduces bandwidth)
 parallel 3D FFT for charge:
    minimum data exchange during FFTs selected (reduces bandwidth)


 total amount of memory used by VASP on root node    67450. kBytes
========================================================================

   base      :      30000. kBytes
   nonlr-proj:      10426. kBytes
   fftplans  :       2814. kBytes
   grid      :       5360. kBytes
   one-center:        124. kBytes
   wavefun   :      18726. kBytes
 
     INWAV:  cpu time    0.0000: real time    0.0000
 Broyden mixing: mesh for mixing (old mesh)
   NGX = 19   NGY = 29   NGZ = 29
  (NGX  = 80   NGY  =120   NGZ  =120)
  gives a total of  15979 points

 initial charge density was supplied:
 charge density of overlapping atoms calculated
 number of electron     289.0000000 magnetization 
 keeping initial charge density in first step


--------------------------------------------------------------------------------------------------------


 Maximum index for non-local projection operator         1225
 Maximum index for augmentation-charges          682 (set IRDMAX)


--------------------------------------------------------------------------------------------------------


 First call to EWALD:  gamma=   0.197
 Maximum number of real-space cells 3x 2x 2
 Maximum number of reciprocal cells 2x 3x 3

 FEWALD executed in parallel
    FEWALD:  cpu time    0.0772: real time    0.0777


----------------------------------------- Iteration    1(   1)  ---------------------------------------


    POTLOK:  cpu time    0.0498: real time    0.0666
    SETDIJ:  cpu time    0.2725: real time    0.2734
     EDDAV:  cpu time    1.0883: real time    1.1496
       DOS:  cpu time    0.0270: real time    0.0271
    --------------------------------------------
      LOOP:  cpu time    1.4441: real time    1.7035

 eigenvalue-minimisations  :  5432
 total energy-change (2. order) : 0.1775507E+04  (-0.1078187E+05)
 number of electron     289.0000000 magnetization 
 augmentation part      289.0000000 magnetization 

 Free energy of the ion-electron system (eV)
  ---------------------------------------------------
  alpha Z        PSCENC =      1469.78012247
  Ewald energy   TEWEN  =    -18331.35354007
  -Hartree energ DENC   =     -7249.26852637
  -exchange      EXHF   =         0.00000000
  -V(xc)+E(xc)   XCENC  =      -329.92726765
  PAW double counting   =     20965.45867725   -19349.95453805
  entropy T*S    EENTRO =         0.00249454
  eigenvalues    EBANDS =      -124.20659551
  atomic energy  EATOM  =     24724.97589359
  Solvation  Ediel_sol  =         0.00000000
  ---------------------------------------------------
  free energy    TOTEN  =      1775.50672020 eV

  energy without entropy =     1775.50422566  energy(sigma->0) =     1775.50588869


--------------------------------------------------------------------------------------------------------




----------------------------------------- Iteration    1(   2)  ---------------------------------------


     EDDAV:  cpu time    1.0743: real time    1.2509
       DOS:  cpu time    0.0008: real time    0.0008
    --------------------------------------------
      LOOP:  cpu time    1.0760: real time    1.3684

 eigenvalue-minimisations  :  5616
 total energy-change (2. order) :-0.1877540E+04  (-0.1809360E+04)
 number of electron     289.0000000 magnetization 
 augmentation part      289.0000000 magnetization 

 Free energy of the ion-electron system (eV)
  ---------------------------------------------------
  alpha Z        PSCENC =      1469.78012247
  Ewald energy   TEWEN  =    -18331.35354007
  -Hartree energ DENC   =     -7249.26852637
  -exchange      EXHF   =         0.00000000
  -V(xc)+E(xc)   XCENC  =      -329.92726765
  PAW double counting   =     20965.45867725   -19349.95453805
  entropy T*S    EENTRO =         0.00010180
  eigenvalues    EBANDS =     -2001.74375819
  atomic energy  EATOM  =     24724.97589359
  Solvation  Ediel_sol  =         0.00000000
  ---------------------------------------------------
  free energy    TOTEN  =      -102.03283521 eV

  energy without entropy =     -102.03293701  energy(sigma->0) =     -102.03286915


--------------------------------------------------------------------------------------------------------




----------------------------------------- Iteration    1(   3)  ---------------------------------------


     EDDAV:  cpu time    2.0048: real time    2.0800
       DOS:  cpu time    0.0011: real time    0.0011
    --------------------------------------------
      LOOP:  cpu time    2.0064: real time    2.0999

 eigenvalue-minimisations  :  8312
 total energy-change (2. order) :-0.2434507E+03  (-0.2307526E+03)
 number of electron     289.0000000 magnetization 
 augmentation part      289.0000000 magnetization 

 Free energy of the ion-electron system (eV)
  ---------------------------------------------------
  alpha Z        PSCENC =      1469.78012247
  Ewald energy   TEWEN  =    -18331.35354007
  -Hartree energ DENC   =     -7249.26852637
  -exchange      EXHF   =         0.00000000
  -V(xc)+E(xc)   XCENC  =      -329.92726765
  PAW double counting   =     20965.45867725   -19349.95453805
  entropy T*S    EENTRO =         0.01202522
  eigenvalues    EBANDS =     -2245.20638469
  atomic energy  EATOM  =     24724.97589359
  Solvation  Ediel_sol  =         0.00000000
  ---------------------------------------------------
  free energy    TOTEN  =      -345.48353829 eV

  energy without entropy =     -345.49556351  energy(sigma->0) =     -345.48754670


--------------------------------------------------------------------------------------------------------




----------------------------------------- Iteration    1(   4)  ---------------------------------------


     EDDAV:  cpu time    2.4420: real time    2.5026
       DOS:  cpu time    0.0010: real time    0.0010
    --------------------------------------------
      LOOP:  cpu time    2.4436: real time    2.5259

 eigenvalue-minimisations  :  8400
 total energy-change (2. order) :-0.2869539E+02  (-0.2734411E+02)
 number of electron     289.0000000 magnetization 
 augmentation part      289.0000000 magnetization 

 Free energy of the ion-electron system (eV)
  ---------------------------------------------------
  alpha Z        PSCENC =      1469.78012247
  Ewald energy   TEWEN  =    -18331.35354007
  -Hartree energ DENC   =     -7249.26852637
  -exchange      EXHF   =         0.00000000
  -V(xc)+E(xc)   XCENC  =      -329.92726765
  PAW double counting   =     20965.45867725   -19349.95453805
  entropy T*S    EENTRO =         0.01791669
  eigenvalues    EBANDS =     -2273.90766161
  atomic energy  EATOM  =     24724.97589359
  Solvation  Ediel_sol  =         0.00000000
  ---------------------------------------------------
  free energy    TOTEN  =      -374.17892374 eV

  energy without entropy =     -374.19684043  energy(sigma->0) =     -374.18489597


--------------------------------------------------------------------------------------------------------




----------------------------------------- Iteration    1(   5)  ---------------------------------------


     EDDAV:  cpu time    1.3022: real time    1.3231
       DOS:  cpu time    0.0008: real time    0.0008
    CHARGE:  cpu time    0.3611: real time    0.3620
    MIXING:  cpu time    0.0013: real time    0.0014
    --------------------------------------------
      LOOP:  cpu time    1.6658: real time    1.7052

 eigenvalue-minimisations  :  7832
 total energy-change (2. order) :-0.2913880E+01  (-0.2858193E+01)
 number of electron     289.0000006 magnetization 
 augmentation part       16.3531089 magnetization 

 Broyden mixing:
  rms(total) = 0.64607E+01    rms(broyden)= 0.64603E+01
  rms(prec ) = 0.67224E+01
  weight for this iteration     100.00

 Free energy of the ion-electron system (eV)
  ---------------------------------------------------
  alpha Z        PSCENC =      1469.78012247
  Ewald energy   TEWEN  =    -18331.35354007
  -Hartree energ DENC   =     -7249.26852637
  -exchange      EXHF   =         0.00000000
  -V(xc)+E(xc)   XCENC  =      -329.92726765
  PAW double counting   =     20965.45867725   -19349.95453805
  entropy T*S    EENTRO =         0.01781191
  eigenvalues    EBANDS =     -2276.82143713
  atomic energy  EATOM  =     24724.97589359
  Solvation  Ediel_sol  =         0.00000000
  ---------------------------------------------------
  free energy    TOTEN  =      -377.09280405 eV

  energy without entropy =     -377.11061596  energy(sigma->0) =     -377.09874135


--------------------------------------------------------------------------------------------------------




----------------------------------------- Iteration    1(   6)  ---------------------------------------


    POTLOK:  cpu time    0.0282: real time    0.0286
    SETDIJ:  cpu time    0.4384: real time    0.4411
    EDDIAG:  cpu time    0.0768: real time    0.0783
  RMM-DIIS:  cpu time    0.7732: real time    0.7877
    ORTHCH:  cpu time    0.0650: real time    0.0664
       DOS:  cpu time    0.0008: real time    0.0020
    CHARGE:  cpu time    0.0282: real time    0.0500
    MIXING:  cpu time    0.0012: real time    0.0020
    --------------------------------------------
      LOOP:  cpu time    1.4125: real time    1.4734

 eigenvalue-minimisations  :  6846
 total energy-change (2. order) : 0.1043520E+02  (-0.2401205E+01)
 number of electron     289.0000006 magnetization 
 augmentation part       16.9609758 magnetization 

 Broyden mixing:
  rms(total) = 0.30922E+01    rms(broyden)= 0.30922E+01
  rms(prec ) = 0.32801E+01
  weight for this iteration     100.00

 eigenvalues of (default mixing * dielectric matrix)
  average eigenvalue GAMMA=   1.8301
  1.8301

 Free energy of the ion-electron system (eV)
  ---------------------------------------------------
  alpha Z        PSCENC =      1469.78012247
  Ewald energy   TEWEN  =    -18331.35354007
  -Hartree energ DENC   =     -7086.78073043
  -exchange      EXHF   =         0.00000000
  -V(xc)+E(xc)   XCENC  =      -333.14130058
  PAW double counting   =     26335.22790213   -24727.41159938
  entropy T*S    EENTRO =         0.02490062
  eigenvalues    EBANDS =     -2417.97924875
  atomic energy  EATOM  =     24724.97589359
  Solvation  Ediel_sol  =         0.00000000
  ---------------------------------------------------
  free energy    TOTEN  =      -366.65760041 eV

  energy without entropy =     -366.68250103  energy(sigma->0) =     -366.66590062


--------------------------------------------------------------------------------------------------------




----------------------------------------- Iteration    1(   7)  ---------------------------------------


    POTLOK:  cpu time    0.0288: real time    0.0301
    SETDIJ:  cpu time    0.0045: real time    0.0052
    EDDIAG:  cpu time    0.1182: real time    0.1240
  RMM-DIIS:  cpu time    0.7281: real time    0.7535
    ORTHCH:  cpu time    0.0122: real time    0.0124
       DOS:  cpu time    0.0020: real time    0.0020
    CHARGE:  cpu time    0.0330: real time    0.0331
    MIXING:  cpu time    0.0013: real time    0.0013
    --------------------------------------------
      LOOP:  cpu time    0.9287: real time    1.0019

 eigenvalue-minimisations  :  7001
 total energy-change (2. order) : 0.1371101E+01  (-0.2329755E+01)
 number of electron     289.0000006 magnetization 
 augmentation part       17.5120620 magnetization 

 Broyden mixing:
  rms(total) = 0.80492E+00    rms(broyden)= 0.80464E+00
  rms(prec ) = 0.17603E+01
  weight for this iteration     100.00

 eigenvalues of (default mixing * dielectric matrix)
  average eigenvalue GAMMA=   1.2664
  1.8480  0.6847

 Free energy of the ion-electron system (eV)
  ---------------------------------------------------
  alpha Z        PSCENC =      1469.78012247
  Ewald energy   TEWEN  =    -18331.35354007
  -Hartree energ DENC   =     -7003.07317289
  -exchange      EXHF   =         0.00000000
  -V(xc)+E(xc)   XCENC  =      -331.63207726
  PAW double counting   =     31899.52764602   -30285.81280160
  entropy T*S    EENTRO =         0.00717269
  eigenvalues    EBANDS =     -2507.70574262
  atomic energy  EATOM  =     24724.97589359
  Solvation  Ediel_sol  =         0.00000000
  ---------------------------------------------------
  free energy    TOTEN  =      -365.28649967 eV

  energy without entropy =     -365.29367236  energy(sigma->0) =     -365.28889056


--------------------------------------------------------------------------------------------------------




----------------------------------------- Iteration    1(   8)  ---------------------------------------


    POTLOK:  cpu time    0.0287: real time    0.0294
    SETDIJ:  cpu time    0.0036: real time    0.0037
    EDDIAG:  cpu time    0.1204: real time    0.1223
  RMM-DIIS:  cpu time    0.7771: real time    0.7954
    ORTHCH:  cpu time    0.0120: real time    0.0122
       DOS:  cpu time    0.0028: real time    0.0028
    CHARGE:  cpu time    0.0310: real time    0.0314
    MIXING:  cpu time    0.0015: real time    0.0016
    --------------------------------------------
      LOOP:  cpu time    0.9778: real time    1.0209

 eigenvalue-minimisations  :  7598
 total energy-change (2. order) : 0.2813780E+01  (-0.4616223E+00)
 number of electron     289.0000006 magnetization 
 augmentation part       17.2567235 magnetization 

 Broyden mixing:
  rms(total) = 0.37617E+00    rms(broyden)= 0.37585E+00
  rms(prec ) = 0.63094E+00
  weight for this iteration     100.00

 eigenvalues of (default mixing * dielectric matrix)
  average eigenvalue GAMMA=   1.2443
  1.7573  1.4723  0.5035

 Free energy of the ion-electron system (eV)
  ---------------------------------------------------
  alpha Z        PSCENC =      1469.78012247
  Ewald energy   TEWEN  =    -18331.35354007
  -Hartree energ DENC   =     -7005.41579170
  -exchange      EXHF   =         0.00000000
  -V(xc)+E(xc)   XCENC  =      -331.12778260
  PAW double counting   =     32650.48058687   -31033.57680099
  entropy T*S    EENTRO =         0.02715061
  eigenvalues    EBANDS =     -2506.26255831
  atomic energy  EATOM  =     24724.97589359
  Solvation  Ediel_sol  =         0.00000000
  ---------------------------------------------------
  free energy    TOTEN  =      -362.47272014 eV

  energy without entropy =     -362.49987075  energy(sigma->0) =     -362.48177034


--------------------------------------------------------------------------------------------------------




----------------------------------------- Iteration    1(   9)  ---------------------------------------


    POTLOK:  cpu time    0.0282: real time    0.0297
    SETDIJ:  cpu time    0.0146: real time    0.0150
    EDDIAG:  cpu time    0.1080: real time    0.1110
  RMM-DIIS:  cpu time    0.8706: real time    0.8888
    ORTHCH:  cpu time    0.0118: real time    0.0120
       DOS:  cpu time    0.0017: real time    0.0017
    CHARGE:  cpu time    0.0304: real time    0.0307
    MIXING:  cpu time    0.0013: real time    0.0014
    --------------------------------------------
      LOOP:  cpu time    1.0671: real time    1.1136

 eigenvalue-minimisations  :  7553
 total energy-change (2. order) : 0.5162444E-01  (-0.1600365E+00)
 number of electron     289.0000006 magnetization 
 augmentation part       17.1309468 magnetization 

 Broyden mixing:
  rms(total) = 0.28167E+00    rms(broyden)= 0.28158E+00
  rms(prec ) = 0.43850E+00
  weight for this iteration     100.00

 eigenvalues of (default mixing * dielectric matrix)
  average eigenvalue GAMMA=   1.1542
  1.8601  1.8601  0.5101  0.3867

 Free energy of the ion-electron system (eV)
  ---------------------------------------------------
  alpha Z        PSCENC =      1469.78012247
  Ewald energy   TEWEN  =    -18331.35354007
  -Hartree energ DENC   =     -7001.32887297
  -exchange      EXHF   =         0.00000000
  -V(xc)+E(xc)   XCENC  =      -330.79331807
  PAW double counting   =     32775.71529628   -31155.43416304
  entropy T*S    EENTRO =         0.02594284
  eigenvalues    EBANDS =     -2514.00845673
  atomic energy  EATOM  =     24724.97589359
  Solvation  Ediel_sol  =         0.00000000
  ---------------------------------------------------
  free energy    TOTEN  =      -362.42109570 eV

  energy without entropy =     -362.44703854  energy(sigma->0) =     -362.42974331


--------------------------------------------------------------------------------------------------------




----------------------------------------- Iteration    1(  10)  ---------------------------------------


    POTLOK:  cpu time    0.0288: real time    0.0294
    SETDIJ:  cpu time    0.0145: real time    0.0146
    EDDIAG:  cpu time    0.1032: real time    0.1066
  RMM-DIIS:  cpu time    0.8435: real time    0.8632
    ORTHCH:  cpu time    0.0117: real time    0.0119
       DOS:  cpu time    0.0022: real time    0.0022
    CHARGE:  cpu time    0.0313: real time    0.0316
    MIXING:  cpu time    0.0014: real time    0.0014
    --------------------------------------------
      LOOP:  cpu time    1.0372: real time    1.0905

 eigenvalue-minimisations  :  7485
 total energy-change (2. order) : 0.6822686E-01  (-0.3629547E-01)
 number of electron     289.0000006 magnetization 
 augmentation part       17.0407278 magnetization 

 Broyden mixing:
  rms(total) = 0.13262E+00    rms(broyden)= 0.13254E+00
  rms(prec ) = 0.23948E+00
  weight for this iteration     100.00

 eigenvalues of (default mixing * dielectric matrix)
  average eigenvalue GAMMA=   1.1139
  1.9527  1.9527  0.7644  0.5025  0.3969

 Free energy of the ion-electron system (eV)
  ---------------------------------------------------
  alpha Z        PSCENC =      1469.78012247
  Ewald energy   TEWEN  =    -18331.35354007
  -Hartree energ DENC   =     -7017.10342329
  -exchange      EXHF   =         0.00000000
  -V(xc)+E(xc)   XCENC  =      -329.73760742
  PAW double counting   =     32984.68924177   -31357.48056161
  entropy T*S    EENTRO =         0.02551061
  eigenvalues    EBANDS =     -2506.14850488
  atomic energy  EATOM  =     24724.97589359
  Solvation  Ediel_sol  =         0.00000000
  ---------------------------------------------------
  free energy    TOTEN  =      -362.35286884 eV

  energy without entropy =     -362.37837945  energy(sigma->0) =     -362.36137238


--------------------------------------------------------------------------------------------------------




----------------------------------------- Iteration    1(  11)  ---------------------------------------


    POTLOK:  cpu time    0.0293: real time    0.0299
    SETDIJ:  cpu time    0.0036: real time    0.0036
    EDDIAG:  cpu time    0.0760: real time    0.0774
  RMM-DIIS:  cpu time    0.7800: real time    0.7987
    ORTHCH:  cpu time    0.0129: real time    0.0135
       DOS:  cpu time    0.0019: real time    0.0019
    CHARGE:  cpu time    0.0295: real time    0.0298
    MIXING:  cpu time    0.0018: real time    0.0018
    --------------------------------------------
      LOOP:  cpu time    0.9356: real time    0.9762

 eigenvalue-minimisations  :  7495
 total energy-change (2. order) : 0.3303233E-01  (-0.1238143E-01)
 number of electron     289.0000006 magnetization 
 augmentation part       17.0175551 magnetization 

 Broyden mixing:
  rms(total) = 0.67553E-01    rms(broyden)= 0.67506E-01
  rms(prec ) = 0.10048E+00
  weight for this iteration     100.00

 eigenvalues of (default mixing * dielectric matrix)
  average eigenvalue GAMMA=   1.0976
  2.1892  1.7980  1.2359  0.5086  0.5086  0.3456

 Free energy of the ion-electron system (eV)
  ---------------------------------------------------
  alpha Z        PSCENC =      1469.78012247
  Ewald energy   TEWEN  =    -18331.35354007
  -Hartree energ DENC   =     -7021.82484176
  -exchange      EXHF   =         0.00000000
  -V(xc)+E(xc)   XCENC  =      -329.34041873
  PAW double counting   =     33132.98513366   -31502.75772497
  entropy T*S    EENTRO =         0.02576344
  eigenvalues    EBANDS =     -2504.81022413
  atomic energy  EATOM  =     24724.97589359
  Solvation  Ediel_sol  =         0.00000000
  ---------------------------------------------------
  free energy    TOTEN  =      -362.31983651 eV

  energy without entropy =     -362.34559995  energy(sigma->0) =     -362.32842432


--------------------------------------------------------------------------------------------------------




----------------------------------------- Iteration    1(  12)  ---------------------------------------


    POTLOK:  cpu time    0.0295: real time    0.0313
    SETDIJ:  cpu time    0.0037: real time    0.0038
    EDDIAG:  cpu time    0.0824: real time    0.0841
  RMM-DIIS:  cpu time    0.7616: real time    0.7805
    ORTHCH:  cpu time    0.0118: real time    0.0120
       DOS:  cpu time    0.0027: real time    0.0027
    CHARGE:  cpu time    0.0294: real time    0.0299
    MIXING:  cpu time    0.0014: real time    0.0015
    --------------------------------------------
      LOOP:  cpu time    0.9233: real time    0.9651

 eigenvalue-minimisations  :  7598
 total energy-change (2. order) : 0.2696093E-03  (-0.4873656E-02)
 number of electron     289.0000006 magnetization 
 augmentation part       17.0215895 magnetization 

 Broyden mixing:
  rms(total) = 0.42761E-01    rms(broyden)= 0.42745E-01
  rms(prec ) = 0.77362E-01
  weight for this iteration     100.00

 eigenvalues of (default mixing * dielectric matrix)
  average eigenvalue GAMMA=   1.0696
  2.2540  1.8070  1.4468  0.6016  0.6016  0.4226  0.3538

 Free energy of the ion-electron system (eV)
  ---------------------------------------------------
  alpha Z        PSCENC =      1469.78012247
  Ewald energy   TEWEN  =    -18331.35354007
  -Hartree energ DENC   =     -7022.68484562
  -exchange      EXHF   =         0.00000000
  -V(xc)+E(xc)   XCENC  =      -329.22399155
  PAW double counting   =     33262.62618119   -31630.69227806
  entropy T*S    EENTRO =         0.02498480
  eigenvalues    EBANDS =     -2505.77209364
  atomic energy  EATOM  =     24724.97589359
  Solvation  Ediel_sol  =         0.00000000
  ---------------------------------------------------
  free energy    TOTEN  =      -362.31956690 eV

  energy without entropy =     -362.34455170  energy(sigma->0) =     -362.32789517


--------------------------------------------------------------------------------------------------------




----------------------------------------- Iteration    1(  13)  ---------------------------------------


    POTLOK:  cpu time    0.0294: real time    0.0298
    SETDIJ:  cpu time    0.0042: real time    0.0043
    EDDIAG:  cpu time    0.0802: real time    0.0816
  RMM-DIIS:  cpu time    0.7652: real time    0.7799
    ORTHCH:  cpu time    0.0118: real time    0.0120
       DOS:  cpu time    0.0025: real time    0.0025
    CHARGE:  cpu time    0.0297: real time    0.0300
    MIXING:  cpu time    0.0015: real time    0.0016
    --------------------------------------------
      LOOP:  cpu time    0.9251: real time    0.9628

 eigenvalue-minimisations  :  7578
 total energy-change (2. order) : 0.1640431E-02  (-0.1401977E-02)
 number of electron     289.0000006 magnetization 
 augmentation part       17.0225543 magnetization 

 Broyden mixing:
  rms(total) = 0.26511E-01    rms(broyden)= 0.26500E-01
  rms(prec ) = 0.42753E-01
  weight for this iteration     100.00

 eigenvalues of (default mixing * dielectric matrix)
  average eigenvalue GAMMA=   1.0732
  2.3135  1.9921  1.5237  0.9405  0.5854  0.4664  0.4211  0.3426

 Free energy of the ion-electron system (eV)
  ---------------------------------------------------
  alpha Z        PSCENC =      1469.78012247
  Ewald energy   TEWEN  =    -18331.35354007
  -Hartree energ DENC   =     -7022.87265701
  -exchange      EXHF   =         0.00000000
  -V(xc)+E(xc)   XCENC  =      -329.20588857
  PAW double counting   =     33320.46884582   -31687.77252591
  entropy T*S    EENTRO =         0.02542293
  eigenvalues    EBANDS =     -2506.36359971
  atomic energy  EATOM  =     24724.97589359
  Solvation  Ediel_sol  =         0.00000000
  ---------------------------------------------------
  free energy    TOTEN  =      -362.31792647 eV

  energy without entropy =     -362.34334939  energy(sigma->0) =     -362.32640078


--------------------------------------------------------------------------------------------------------




----------------------------------------- Iteration    1(  14)  ---------------------------------------


    POTLOK:  cpu time    0.0293: real time    0.0297
    SETDIJ:  cpu time    0.0038: real time    0.0039
    EDDIAG:  cpu time    0.0813: real time    0.0823
  RMM-DIIS:  cpu time    0.7746: real time    0.7882
    ORTHCH:  cpu time    0.0252: real time    0.0255
       DOS:  cpu time    0.0017: real time    0.0017
    CHARGE:  cpu time    0.0305: real time    0.0308
    MIXING:  cpu time    0.0016: real time    0.0016
    --------------------------------------------
      LOOP:  cpu time    0.9485: real time    0.9795

 eigenvalue-minimisations  :  7647
 total energy-change (2. order) : 0.3476920E-03  (-0.6142140E-03)
 number of electron     289.0000006 magnetization 
 augmentation part       17.0204348 magnetization 

 Broyden mixing:
  rms(total) = 0.14591E-01    rms(broyden)= 0.14586E-01
  rms(prec ) = 0.22006E-01
  weight for this iteration     100.00

 eigenvalues of (default mixing * dielectric matrix)
  average eigenvalue GAMMA=   1.0711
  2.4466  2.1370  1.5974  1.1261  0.5870  0.5870  0.4585  0.3634  0.3368

 Free energy of the ion-electron system (eV)
  ---------------------------------------------------
  alpha Z        PSCENC =      1469.78012247
  Ewald energy   TEWEN  =    -18331.35354007
  -Hartree energ DENC   =     -7023.14900372
  -exchange      EXHF   =         0.00000000
  -V(xc)+E(xc)   XCENC  =      -329.19997834
  PAW double counting   =     33347.09862923   -31713.93441726
  entropy T*S    EENTRO =         0.02497226
  eigenvalues    EBANDS =     -2506.56025692
  atomic energy  EATOM  =     24724.97589359
  Solvation  Ediel_sol  =         0.00000000
  ---------------------------------------------------
  free energy    TOTEN  =      -362.31757878 eV

  energy without entropy =     -362.34255103  energy(sigma->0) =     -362.32590286


--------------------------------------------------------------------------------------------------------




----------------------------------------- Iteration    1(  15)  ---------------------------------------


    POTLOK:  cpu time    0.0296: real time    0.0301
    SETDIJ:  cpu time    0.0036: real time    0.0036
    EDDIAG:  cpu time    0.0756: real time    0.0764
  RMM-DIIS:  cpu time    0.7608: real time    0.7737
    ORTHCH:  cpu time    0.0117: real time    0.0120
       DOS:  cpu time    0.0014: real time    0.0014
    CHARGE:  cpu time    0.0293: real time    0.0298
    MIXING:  cpu time    0.0016: real time    0.0016
    --------------------------------------------
      LOOP:  cpu time    0.9142: real time    0.9487

 eigenvalue-minimisations  :  7528
 total energy-change (2. order) :-0.5181049E-04  (-0.3302543E-03)
 number of electron     289.0000006 magnetization 
 augmentation part       17.0187962 magnetization 

 Broyden mixing:
  rms(total) = 0.55976E-02    rms(broyden)= 0.55931E-02
  rms(prec ) = 0.10106E-01
  weight for this iteration     100.00

 eigenvalues of (default mixing * dielectric matrix)
  average eigenvalue GAMMA=   1.0480
  2.5485  2.0779  1.6020  1.1693  0.8132  0.6381  0.4819  0.4513  0.3613  0.3366

 Free energy of the ion-electron system (eV)
  ---------------------------------------------------
  alpha Z        PSCENC =      1469.78012247
  Ewald energy   TEWEN  =    -18331.35354007
  -Hartree energ DENC   =     -7023.55582488
  -exchange      EXHF   =         0.00000000
  -V(xc)+E(xc)   XCENC  =      -329.19469466
  PAW double counting   =     33369.17671767   -31735.60410000
  entropy T*S    EENTRO =         0.02535572
  eigenvalues    EBANDS =     -2506.56756043
  atomic energy  EATOM  =     24724.97589359
  Solvation  Ediel_sol  =         0.00000000
  ---------------------------------------------------
  free energy    TOTEN  =      -362.31763059 eV

  energy without entropy =     -362.34298631  energy(sigma->0) =     -362.32608249


--------------------------------------------------------------------------------------------------------




----------------------------------------- Iteration    1(  16)  ---------------------------------------


    POTLOK:  cpu time    0.0291: real time    0.0297
    SETDIJ:  cpu time    0.0037: real time    0.0038
    EDDIAG:  cpu time    0.0760: real time    0.0774
  RMM-DIIS:  cpu time    0.7718: real time    0.7881
    ORTHCH:  cpu time    0.0117: real time    0.0118
       DOS:  cpu time    0.0014: real time    0.0015
    CHARGE:  cpu time    0.0319: real time    0.0323
    MIXING:  cpu time    0.0017: real time    0.0017
    --------------------------------------------
      LOOP:  cpu time    0.9279: real time    0.9640

 eigenvalue-minimisations  :  6806
 total energy-change (2. order) :-0.1365630E-04  (-0.1126521E-03)
 number of electron     289.0000006 magnetization 
 augmentation part       17.0187860 magnetization 

 Broyden mixing:
  rms(total) = 0.31101E-02    rms(broyden)= 0.31083E-02
  rms(prec ) = 0.56250E-02
  weight for this iteration     100.00

 eigenvalues of (default mixing * dielectric matrix)
  average eigenvalue GAMMA=   1.0257
  2.6075  2.0786  1.5942  1.2826  0.8527  0.7079  0.5150  0.5150  0.4346  0.3601
  0.3340

 Free energy of the ion-electron system (eV)
  ---------------------------------------------------
  alpha Z        PSCENC =      1469.78012247
  Ewald energy   TEWEN  =    -18331.35354007
  -Hartree energ DENC   =     -7023.66068511
  -exchange      EXHF   =         0.00000000
[...]
     98       5.3709      2.00000
     99       5.4147      2.00000
    100       5.5167      2.00000
    101       5.5446      2.00000
    102       5.6129      2.00000
    103       5.6515      2.00000
    104       5.7253      2.00000
    105       5.7689      2.00000
    106       5.8945      2.00000
    107       5.9774      2.00000
    108       6.0610      2.00000
    109       6.0823      2.00000
    110       6.1110      2.00000
    111       6.1486      2.00000
    112       6.1706      2.00000
    113       6.2038      2.00000
    114       6.2276      2.00000
    115       6.2501      2.00000
    116       6.2770      2.00000
    117       6.3206      2.00000
    118       6.3634      2.00000
    119       6.4030      2.00000
    120       6.4472      2.00000
    121       6.4955      2.00000
    122       6.5209      2.00000
    123       6.5525      2.00000
    124       6.5898      2.00000
    125       6.6634      2.00000
    126       6.6893      2.00000
    127       6.7146      2.00000
    128       6.7813      2.00000
    129       6.8060      2.00000
    130       6.8481      2.00000
    131       6.8846      2.00001
    132       6.9536      2.00019
    133       6.9832      2.00055
    134       7.0071      2.00121
    135       7.0599      2.00567
    136       7.0852      2.01068
    137       7.0965      2.01384
    138       7.1115      2.01907
    139       7.1586      2.04339
    140       7.1825      2.05787
    141       7.2195      2.07092
    142       7.2537      2.04940
    143       7.3093      1.86207
    144       7.3181      1.80872
    145       7.3576      1.48813
    146       7.3740      1.32152
    147       7.4555      0.44701
    148       7.4802      0.24489
    149       7.5303     -0.00276
    150       7.5483     -0.04290
    151       7.5956     -0.06993
    152       7.6140     -0.06312
    153       7.6496     -0.04215
    154       7.6929     -0.01979
    155       7.7174     -0.01161
    156       7.7454     -0.00579
    157       7.7635     -0.00353
    158       7.8006     -0.00115
    159       7.8681     -0.00011
    160       7.9151     -0.00002
    161       7.9793     -0.00000
    162       7.9994     -0.00000
    163       8.0547     -0.00000
    164       8.1435     -0.00000
    165       8.1741     -0.00000
    166       8.2306     -0.00000
    167       8.3466     -0.00000
    168       8.3792     -0.00000
    169       8.5203     -0.00000
    170       8.6564     -0.00000
    171       8.7773     -0.00000
    172       9.2359     -0.00000
    173       9.3370     -0.00000
    174       9.4118     -0.00000
    175       9.4644     -0.00000
    176       9.5204     -0.00000


--------------------------------------------------------------------------------------------------------


 soft charge-density along one line, spin component           1
         0         1         2         3         4         5         6         7         8         9
 total charge-density along one line
 
 pseudopotential strength for first ion, spin component:           1
 13.481 -26.361   0.000   0.001  -0.000   0.002   0.002   0.002
-26.361  14.066  -0.004  -0.004  -0.003  -0.000   0.001  -0.001
  0.000  -0.004  -6.479  -0.000  -0.001   5.217   0.001   0.001
  0.001  -0.004  -0.000  -6.476  -0.001   0.001   5.213   0.001
 -0.000  -0.003  -0.001  -0.001  -6.474   0.001   0.001   5.210
  0.002  -0.000   5.217   0.001   0.001   8.277  -0.000  -0.001
  0.002   0.001   0.001   5.213   0.001  -0.000   8.279  -0.001
  0.002  -0.001   0.001   0.001   5.210  -0.001  -0.001   8.281
 -0.001  -0.000  -0.001  -0.000  -0.001   0.001   0.000   0.001
 -0.000  -0.001  -0.001  -0.001  -0.000   0.001   0.001   0.000
  0.000   0.000   0.000  -0.001   0.001  -0.000   0.001  -0.001
 -0.001  -0.000  -0.000  -0.001  -0.001   0.000   0.001   0.001
  0.002   0.002   0.001   0.000  -0.001  -0.001  -0.000   0.001
 -0.001  -0.000  -0.001  -0.000  -0.001   0.001   0.000   0.001
 -0.000  -0.001  -0.002  -0.002  -0.000   0.002   0.002   0.000
  0.000   0.000   0.000  -0.001   0.001  -0.001   0.002  -0.001
 -0.002  -0.001  -0.000  -0.001  -0.001   0.000   0.001   0.002
  0.003   0.002   0.001   0.000  -0.002  -0.001  -0.000   0.002
 total augmentation occupancy for first ion, spin component:           1
  1.999  -0.023   0.000  -0.000   0.001   0.000  -0.001   0.001  -0.003  -0.002  -0.002   0.005   0.006   0.002   0.002   0.001
 -0.023   1.441   0.008  -0.000   0.011  -0.012  -0.003  -0.013   0.010  -0.015  -0.040   0.020   0.035  -0.004   0.007   0.026
  0.000   0.008   2.002   0.000   0.000  -0.023  -0.000  -0.000   0.006  -0.022   0.002   0.009   0.005   0.000   0.011  -0.003
 -0.000  -0.000   0.000   2.002  -0.001  -0.000  -0.023   0.001   0.013   0.001  -0.010   0.002   0.003  -0.006   0.001   0.009
  0.001   0.011   0.000  -0.001   2.003  -0.000   0.001  -0.025   0.009   0.012  -0.010  -0.011   0.014  -0.002  -0.006   0.004
  0.000  -0.012  -0.023  -0.000  -0.000   0.039   0.001  -0.000  -0.028   0.035   0.007  -0.012   0.006   0.015  -0.016  -0.004
 -0.001  -0.003  -0.000  -0.023   0.001   0.001   0.040  -0.001  -0.019  -0.008  -0.008  -0.016  -0.009   0.009   0.004   0.003
  0.001  -0.013  -0.000   0.001  -0.025  -0.000  -0.001   0.042  -0.026  -0.018   0.020   0.008  -0.024   0.013   0.009  -0.011
 -0.003   0.010   0.006   0.013   0.009  -0.028  -0.019  -0.026   4.409  -0.028   0.080  -0.128  -0.035  -2.303   0.017  -0.035
 -0.002  -0.015  -0.022   0.001   0.012   0.035  -0.008  -0.018  -0.028   3.941   0.045   0.041  -0.052   0.017  -2.059  -0.023
 -0.002  -0.040   0.002  -0.010  -0.010   0.007  -0.008   0.020   0.080   0.045   4.321   0.024   0.039  -0.035  -0.022  -2.337
  0.005   0.020   0.009   0.002  -0.011  -0.012  -0.016   0.008  -0.128   0.041   0.024   4.554   0.111   0.060  -0.016  -0.018
  0.006   0.035   0.005   0.003   0.014   0.006  -0.009  -0.024  -0.035  -0.052   0.039   0.111   4.331   0.015   0.023   0.004
  0.002  -0.004   0.000  -0.006  -0.002   0.015   0.009   0.013  -2.303   0.017  -0.035   0.060   0.015   1.218  -0.009   0.015
  0.002   0.007   0.011   0.001  -0.006  -0.016   0.004   0.009   0.017  -2.059  -0.022  -0.016   0.023  -0.009   1.089   0.011
  0.001   0.026  -0.003   0.009   0.004  -0.004   0.003  -0.011  -0.035  -0.023  -2.337  -0.018   0.004   0.015   0.011   1.273
 -0.004  -0.009  -0.004   0.001   0.008   0.006   0.010  -0.005   0.060  -0.016  -0.018  -2.364  -0.058  -0.027   0.006   0.013
 -0.006  -0.028  -0.005  -0.000  -0.006  -0.003   0.004   0.014   0.016   0.023   0.004  -0.059  -2.361  -0.007  -0.010  -0.015


------------------------ aborting loop because EDIFF is reached ----------------------------------------


    CHARGE:  cpu time    0.0283: real time    0.0286
    FORLOC:  cpu time    0.0133: real time    0.0134
    FORNL :  cpu time    0.2964: real time    0.3026
    STRESS:  cpu time    0.8856: real time    0.9074
    FORCOR:  cpu time    0.0424: real time    0.0431
    FORHAR:  cpu time    0.0178: real time    0.0181
    MIXING:  cpu time    0.0022: real time    0.0023
    OFIELD:  cpu time    0.0000: real time    0.0000

  FORCE on cell =-STRESS in cart. coord.  units (eV):
  Direction    XX          YY          ZZ          XY          YZ          ZX
  --------------------------------------------------------------------------------------
  Alpha Z  1468.68012  1468.68012  1468.68012
  Ewald   -5141.91882 -7649.24096 -5534.99558    76.87482  -509.67166   427.38853
  Hartree  3252.32817   882.41031  2891.03912    60.67317  -451.13215   368.56913
  E(xc)   -1258.90007 -1259.05007 -1258.82577     0.03399     0.53773    -0.32980
  Local   -3069.81108  1806.66427 -2319.31474  -136.56223   958.56082  -794.99421
  n-local  -275.06499  -280.73289  -280.52924    -0.78779    -0.66952    -1.01444
  augment   207.07131   207.84682   208.01871    -0.02041     0.22347    -0.03004
  Kinetic  4817.48331  4823.31151  4825.80306    -0.22503     2.16187     0.42029
  Fock        0.00000     0.00000     0.00000     0.00000     0.00000     0.00000
  -------------------------------------------------------------------------------------
  Total      -0.13203    -0.11090    -0.12432    -0.01348     0.01056     0.00945
  in kB      -0.28984    -0.24345    -0.27291    -0.02960     0.02318     0.02075
  external pressure =       -0.27 kB  Pullay stress =        0.00 kB


 VOLUME and BASIS-vectors are now :
 -----------------------------------------------------------------------------
  energy-cutoff  :      300.00
  volume of cell :      729.87
      direct lattice vectors                 reciprocal lattice vectors
     6.954301815 -0.002142031 -0.014432537     0.143796512  0.000033648  0.000295802
    -0.002481118 10.223962306  0.043140165     0.000029272  0.097811183 -0.000412024
    -0.021127181  0.043249144 10.265505967     0.000202044 -0.000410998  0.097415758

  length of vectors
     6.954317121 10.224053622 10.265618813     0.143796820  0.097812055  0.097416834


 FORCES acting on ions
    electron-ion (+dipol)            ewald-force                    non-local-force                 convergence-correction
 -----------------------------------------------------------------------------------------------
   0.694E+02 -.343E+03 0.115E+03   -.703E+02 0.342E+03 -.115E+03   0.891E+00 0.734E+00 0.249E-01   0.100E-01 0.385E-02 0.151E-01
   -.576E+02 -.300E+03 0.794E+02   0.573E+02 0.300E+03 -.792E+02   0.313E+00 -.160E+00 -.163E+00   -.531E-02 -.198E-01 0.182E-01
   0.746E+02 0.389E+03 0.174E+03   -.742E+02 -.389E+03 -.174E+03   -.386E+00 -.142E+00 0.610E-01   -.567E-02 0.701E-02 -.205E-01
   -.194E+02 0.165E+03 -.278E+01   0.194E+02 -.165E+03 0.288E+01   -.429E-01 -.771E-01 -.110E+00   0.731E-02 0.184E-01 0.129E-01
   0.592E+02 0.171E+03 -.214E+03   -.592E+02 -.171E+03 0.213E+03   0.547E-01 0.142E+00 0.106E+00   0.313E-02 -.473E-02 0.193E-01
   0.114E+03 -.500E+02 0.143E+02   -.113E+03 0.501E+02 -.143E+02   -.102E+01 -.892E-01 -.483E-01   -.385E-03 0.183E-01 -.457E-02
   0.782E+02 0.106E+03 0.105E+03   -.780E+02 -.106E+03 -.104E+03   -.265E+00 -.157E+00 -.618E+00   -.495E-02 -.174E-01 -.184E-01
   -.677E+02 -.251E+03 0.647E+02   0.685E+02 0.251E+03 -.647E+02   -.743E+00 0.304E+00 0.293E-01   -.525E-02 0.394E-02 0.103E-01
   -.798E+02 0.114E+03 -.534E+02   0.808E+02 -.114E+03 0.527E+02   -.921E+00 -.260E+00 0.690E+00   -.858E-02 0.290E-01 0.182E-01
   -.961E+02 -.735E+02 -.376E+02   0.950E+02 0.740E+02 0.380E+02   0.115E+01 -.505E+00 -.380E+00   -.114E-02 0.209E-01 -.486E-02
   0.193E+03 0.162E+03 0.113E+02   -.193E+03 -.161E+03 -.107E+02   -.115E+00 -.652E+00 -.519E+00   0.882E-02 0.195E-01 -.143E-01
   -.172E+03 0.240E+03 0.685E+02   0.172E+03 -.240E+03 -.685E+02   0.923E-01 -.522E+00 0.419E-02   -.995E-02 0.185E-01 -.129E-01
   0.191E+02 -.514E+03 -.111E+03   -.181E+02 0.513E+03 0.110E+03   -.104E+01 0.720E+00 0.825E+00   -.424E-02 0.805E-02 -.205E-01
   -.583E+02 0.182E+03 -.174E+03   0.583E+02 -.183E+03 0.174E+03   -.328E-01 0.551E+00 0.427E-01   -.440E-02 -.471E-02 0.173E-01
   -.597E+02 0.342E+03 0.117E+03   0.599E+02 -.343E+03 -.116E+03   -.160E+00 0.397E+00 -.838E+00   -.253E-02 -.111E-01 -.110E-01
   0.564E+02 -.248E+03 -.547E+02   -.572E+02 0.248E+03 0.552E+02   0.777E+00 0.153E-01 -.502E+00   0.633E-02 0.745E-02 0.312E-03
   0.202E+02 0.129E+03 0.662E+02   -.204E+02 -.129E+03 -.656E+02   0.148E+00 0.724E-01 -.640E+00   0.172E-02 -.262E-02 -.478E-02
   0.238E+02 0.386E+02 -.283E+02   -.243E+02 -.386E+02 0.279E+02   0.559E+00 -.237E-01 0.371E+00   0.281E-02 0.776E-02 0.701E-02
   -.301E+02 -.143E+03 0.216E+02   0.308E+02 0.142E+03 -.209E+02   -.650E+00 0.410E+00 -.743E+00   -.333E-02 0.232E-02 0.462E-02
   -.488E+02 -.168E+03 -.415E+02   0.487E+02 0.169E+03 0.410E+02   0.149E+00 -.279E+00 0.429E+00   -.233E-02 -.438E-02 -.285E-02
   0.293E+02 -.109E+03 0.385E+02   -.293E+02 0.109E+03 -.384E+02   -.439E-01 -.307E+00 -.122E+00   0.242E-02 -.617E-02 0.781E-02
   -.502E+01 0.818E+02 0.634E+02   0.529E+01 -.812E+02 -.638E+02   -.275E+00 -.567E+00 0.419E+00   0.126E-02 -.814E-02 0.383E-02
   0.143E+02 -.580E+02 -.104E+03   -.150E+02 0.573E+02 0.104E+03   0.664E+00 0.705E+00 0.147E-01   0.549E-03 -.775E-02 0.336E-02
   -.133E+02 -.375E+02 -.702E+02   0.139E+02 0.369E+02 0.700E+02   -.600E+00 0.637E+00 0.222E+00   -.320E-03 -.734E-02 0.592E-02
   0.409E+01 0.749E+02 -.378E+02   -.411E+01 -.752E+02 0.380E+02   0.208E-01 0.245E+00 -.171E+00   -.264E-02 0.566E-02 0.379E-02
   -.296E+02 -.140E+03 -.242E+02   0.288E+02 0.140E+03 0.237E+02   0.782E+00 0.357E+00 0.438E+00   0.677E-03 0.222E-02 -.526E-02
   0.269E+02 -.879E+02 0.216E+02   -.266E+02 0.881E+02 -.213E+02   -.289E+00 -.196E+00 -.294E+00   0.128E-02 -.319E-02 -.316E-02
   -.373E+02 0.501E+02 0.535E+01   0.376E+02 -.508E+02 -.582E+01   -.313E+00 0.719E+00 0.477E+00   -.217E-02 -.305E-02 -.150E-02
   0.408E+02 -.136E+03 -.488E+02   -.408E+02 0.136E+03 0.484E+02   0.306E-01 -.151E+00 0.434E+00   0.196E-02 -.326E-02 -.253E-02
   -.234E+02 -.837E+02 -.273E+00   0.230E+02 0.837E+02 0.657E+00   0.385E+00 0.803E-01 -.381E+00   -.168E-02 -.321E-02 -.361E-02
   -.210E+00 0.627E+02 0.280E+02   0.832E-01 -.620E+02 -.281E+02   0.128E+00 -.670E+00 0.515E-01   -.926E-03 -.618E-02 0.171E-02
   -.309E+02 0.297E+02 0.454E+02   0.308E+02 -.294E+02 -.448E+02   0.137E+00 -.284E+00 -.542E+00   0.993E-03 -.554E-02 -.551E-02
   0.198E+02 0.121E+03 -.525E+02   -.195E+02 -.120E+03 0.524E+02   -.240E+00 -.667E+00 0.105E+00   0.505E-03 0.588E-02 0.116E-02
   -.177E+02 0.115E+03 -.240E+02   0.174E+02 -.115E+03 0.236E+02   0.311E+00 -.856E+00 0.439E+00   -.124E-03 0.494E-02 0.337E-02
   0.337E+02 0.481E+02 -.219E+02   -.341E+02 -.487E+02 0.212E+02   0.351E+00 0.609E+00 0.656E+00   0.220E-02 -.355E-02 -.569E-04
   -.291E+02 0.119E+03 0.612E+02   0.289E+02 -.119E+03 -.612E+02   0.245E+00 -.110E+00 0.279E-02   0.135E-02 0.349E-02 -.542E-02
 -----------------------------------------------------------------------------------------------
   -.439E-01 -.854E-01 0.221E+00   0.107E-13 -.583E-12 -.178E-12   0.565E-01 0.228E-01 -.230E+00   -.126E-01 0.650E-01 0.124E-01
 
 
 POSITION                                       TOTAL-FORCE (eV/Angst)
 -----------------------------------------------------------------------------------
      3.37916      3.32136      3.37653        -0.001789     -0.001484      0.002688
      5.14263      5.08508      5.12682        -0.005117     -0.000587      0.002839
      0.02232     10.19999     10.28576         0.002240      0.000174      0.001356
      3.48682      0.04430      3.40452         0.000676     -0.003900     -0.003968
      1.78927      8.57513      5.22589        -0.003713      0.004985     -0.006428
      5.38439      1.74597      1.65133         0.003621      0.004248      0.001924
      0.03323      7.00788      0.04132         0.004937      0.003425      0.004182
      0.01001      3.38555      6.84972         0.003536      0.003480     -0.000378
      5.28823      1.79716      5.01331        -0.002472     -0.006844     -0.002601
      1.55926      1.71951      1.75490        -0.003650      0.001125     -0.000541
      5.25007      1.91903      8.71786        -0.004617      0.003711      0.001416
      1.69904      1.79930      8.54991         0.004661      0.006477     -0.000820
      0.15865      3.41619     10.14317         0.001032     -0.001058      0.000866
      5.17136      8.48197      5.19466        -0.000317      0.000125     -0.001102
      1.74231      8.56446      1.91233        -0.001484      0.001942     -0.003714
      3.39476      3.40219      6.91430        -0.005808     -0.003268      0.004244
      5.19880      8.57729      1.90823         0.001325     -0.008634     -0.002183
      1.67921      1.67916      5.11744         0.004496     -0.005114      0.001457
      0.09819      3.32221      3.57678         0.001685     -0.005239     -0.000303
      1.71040      5.20091      8.48677         0.005574     -0.001110     -0.007787
      1.75442      5.10512      5.13886         0.007716     -0.000938      0.000980
      3.48441      6.89174      3.37915        -0.001599      0.001735      0.001424
      3.35995      6.58522      6.73726         0.002048     -0.000695     -0.002981
      0.06821      6.73114      6.76708        -0.002339      0.001466      0.002615
      6.92910     10.19619      3.51850         0.001388     -0.005344     -0.004443
      3.30002      3.41366     10.26940         0.002094      0.002059     -0.002916
      5.32849      5.07846      1.70328        -0.001294      0.004410      0.003890
      1.85425      8.43474      8.38127        -0.003341      0.004287      0.003589
      5.20798      5.14536      8.58152        -0.004117     -0.000695     -0.005327
      1.55669      5.08636      1.80536        -0.007813     -0.002719      0.000440
      6.90389      6.94920      3.50983         0.000422     -0.000590      0.004847
      3.43332      6.89254      0.21629        -0.007275      0.001484      0.005450
      3.61168      0.30818      6.85774         0.001771      0.003030     -0.002235
      6.83289      0.12137      6.83786         0.004434      0.000480     -0.000533
      5.06282      8.35530      8.32726         0.005012     -0.000054      0.003363
      3.43730      0.01150     -0.00785        -0.001924     -0.000371      0.000691
 -----------------------------------------------------------------------------------
    total drift:                               -0.000005      0.002408      0.002997


--------------------------------------------------------------------------------------------------------



  FREE ENERGIE OF THE ION-ELECTRON SYSTEM (eV)
  ---------------------------------------------------
  free  energy   TOTEN  =      -362.32653017 eV

  energy  without entropy=     -362.35384041  energy(sigma->0) =     -362.33563359
 
 d Force = 0.9630612E-04[ 0.821E-04, 0.110E-03]  d Energy = 0.8139389E-04 0.149E-04
 d Force =-0.1356516E+00[-0.136E+00,-0.135E+00]  d Ewald  =-0.2687897E+01 0.255E+01


--------------------------------------------------------------------------------------------------------


    POTLOK:  cpu time    0.0790: real time    0.0801


--------------------------------------------------------------------------------------------------------


 Conjugate gradient step on ions:
 trial-energy change:   -0.000081  1 .order   -0.000096   -0.000157   -0.000036
  (g-gl).g = 0.286E-04      g.g   = 0.422E-04  gl.gl    = 0.687E-04
 g(Force)  = 0.283E-04   g(Stress)= 0.139E-04 ortho     = 0.581E-05
 gamma     =   0.41579
 trial     =   3.50819
 opt step  =   4.55520  (harmonic =   4.55520) maximal distance =0.00104193
 next E    =  -362.326550   (d E  =  -0.00010)


--------------------------------------------------------------------------------------------------------


  
 reached required accuracy - stopping structural energy minimisation
     LOOP+:  cpu time    6.3385: real time    6.9367
    4ORBIT:  cpu time    0.0000: real time    0.0000

 total amount of memory used by VASP on root node    67450. kBytes
========================================================================

   base      :      30000. kBytes
   nonlr-proj:      10426. kBytes
   fftplans  :       2814. kBytes
   grid      :       5360. kBytes
   one-center:        124. kBytes
   wavefun   :      18726. kBytes
 
  
  
 General timing and accounting informations for this job:
 ========================================================
  
                  Total CPU time used (sec):      186.255
                            User time (sec):      185.157
                          System time (sec):        1.098
                         Elapsed time (sec):      204.984
  
                   Maximum memory used (kb):      269404.
                   Average memory used (kb):           0.
  
                          Minor page faults:       112701
                          Major page faults:           34
                 Voluntary context switches:         7910
