<?xml version="1.0" encoding="ISO-8859-1"?>
<modeling>
 <generator>
  <i name="program" type="string">vasp </i>
  <i name="version" type="string">5.4.1  </i>
  <i name="subversion" type="string">05Feb16 (build Jan 29 2020 16:04:39) complex                          parallel </i>
  <i name="platform" type="string">IFC91_ompi </i>
  <i name="date" type="string">2020 04 29 </i>
  <i name="time" type="string">02:57:15 </i>
 </generator>
 <incar>
  <i type="string" name="SYSTEM"> automatically generated by mexm</i>
  <i type="int" name="ISTART">     0</i>
  <i type="string" name="PREC">accurate               ! avoid wrap aro</i>
  <i type="string" name="ALGO"> Fast                   ! blocked Davids</i>
  <i type="int" name="ISPIN">     1</i>
  <i type="int" name="ICHARG">     2</i>
  <i type="int" name="NELM">    70</i>
  <i type="int" name="IBRION">     2</i>
  <i name="EDIFF">      0.00001000</i>
  <i name="EDIFFG">     -0.01000000</i>
  <i type="int" name="NSW">   300</i>
  <i type="int" name="ISIF">     3</i>
  <i type="int" name="ISYM">     1</i>
  <i name="ENCUT">    300.00000000</i>
  <i name="POTIM">      0.15000000</i>
  <i type="string" name="LREAL"> Auto                  ! unpublished met</i>
  <i type="int" name="ISMEAR">     1</i>
  <i name="SIGMA">      0.15000000</i>
  <i type="logical" name="LWAVE"> F  </i>
  <i type="logical" name="LCHARG"> F  </i>
  <i type="logical" name="LVTOT"> F  </i>
  <v type="int" name="KPOINT_BSE">    -1     0     0     0</v>
  <i type="int" name="NELM">    70</i>
 </incar>
 <kpoints>
  <generation param="Gamma">
   <v type="int" name="divisions">       3        3        3 </v>
   <v name="usershift">      0.00000000       0.00000000       0.00000000 </v>
   <v name="genvec1">      0.33333333      -0.00000000      -0.00000000 </v>
   <v name="genvec2">     -0.00000000       0.33333333       0.00000000 </v>
   <v name="genvec3">      0.00000000      -0.00000000       0.33333333 </v>
   <v name="shift">      0.00000000       0.00000000       0.00000000 </v>
  </generation>
  <varray name="kpointlist" >
   <v>       0.00000000       0.00000000       0.00000000 </v>
   <v>       0.33333333      -0.00000000       0.00000000 </v>
   <v>      -0.00000000       0.33333333       0.00000000 </v>
   <v>       0.33333333       0.33333333       0.00000000 </v>
   <v>      -0.33333333       0.33333333       0.00000000 </v>
   <v>       0.00000000       0.00000000       0.33333333 </v>
   <v>       0.33333333       0.00000000       0.33333333 </v>
   <v>      -0.33333333       0.00000000       0.33333333 </v>
   <v>      -0.00000000       0.33333333       0.33333333 </v>
   <v>       0.33333333       0.33333333       0.33333333 </v>
   <v>      -0.33333333       0.33333333       0.33333333 </v>
   <v>      -0.00000000      -0.33333333       0.33333333 </v>
   <v>       0.33333333      -0.33333333       0.33333333 </v>
   <v>      -0.33333333      -0.33333333       0.33333333 </v>
  </varray>
  <varray name="weights" >
   <v>       0.03703704 </v>
   <v>       0.07407407 </v>
   <v>       0.07407407 </v>
   <v>       0.07407407 </v>
   <v>       0.07407407 </v>
   <v>       0.07407407 </v>
   <v>       0.07407407 </v>
   <v>       0.07407407 </v>
   <v>       0.07407407 </v>
   <v>       0.07407407 </v>
   <v>       0.07407407 </v>
   <v>       0.07407407 </v>
   <v>       0.07407407 </v>
   <v>       0.07407407 </v>
  </varray>
 </kpoints>
 <parameters>
  <separator name="general" >
   <i type="string" name="SYSTEM">automatically generated by mexm</i>
   <i type="logical" name="LCOMPAT"> F  </i>
  </separator>
  <separator name="electronic" >
   <i type="string" name="PREC">accura</i>
   <i name="ENMAX">    300.00000000</i>
   <i name="ENAUG">    358.96600000</i>
   <i name="EDIFF">      0.00001000</i>
   <i type="int" name="IALGO">    68</i>
   <i type="int" name="IWAVPR">    11</i>
   <i type="int" name="NBANDS">   204</i>
   <i name="NELECT">    337.00000000</i>
   <i type="int" name="TURBO">     0</i>
   <i type="int" name="IRESTART">     0</i>
   <i type="int" name="NREBOOT">     0</i>
   <i type="int" name="NMIN">     0</i>
   <i name="EREF">      0.00000000</i>
   <separator name="electronic smearing" >
    <i type="int" name="ISMEAR">     1</i>
    <i name="SIGMA">      0.15000000</i>
    <i name="KSPACING">      0.50000000</i>
    <i type="logical" name="KGAMMA"> T  </i>
   </separator>
   <separator name="electronic projectors" >
    <i type="logical" name="LREAL"> T  </i>
    <v name="ROPT">     -0.00025000     -0.00025000</v>
    <i type="int" name="LMAXPAW">  -100</i>
    <i type="int" name="LMAXMIX">     2</i>
    <i type="logical" name="NLSPLINE"> F  </i>
   </separator>
   <separator name="electronic startup" >
    <i type="int" name="ISTART">     0</i>
    <i type="int" name="ICHARG">     2</i>
    <i type="int" name="INIWAV">     1</i>
   </separator>
   <separator name="electronic spin" >
    <i type="int" name="ISPIN">     1</i>
    <i type="logical" name="LNONCOLLINEAR"> F  </i>
    <v name="MAGMOM">      1.00000000      1.00000000      1.00000000      1.00000000      1.00000000      1.00000000      1.00000000      1.00000000      1.00000000      1.00000000      1.00000000      1.00000000      1.00000000      1.00000000      1.00000000      1.00000000      1.00000000      1.00000000      1.00000000      1.00000000
      1.00000000      1.00000000      1.00000000      1.00000000      1.00000000      1.00000000      1.00000000      1.00000000      1.00000000      1.00000000      1.00000000      1.00000000</v>
    <i name="NUPDOWN">     -1.00000000</i>
    <i type="logical" name="LSORBIT"> F  </i>
    <v name="SAXIS">      0.00000000      0.00000000      1.00000000</v>
    <i type="logical" name="LSPIRAL"> F  </i>
    <v name="QSPIRAL">      0.00000000      0.00000000      0.00000000</v>
    <i type="logical" name="LZEROZ"> F  </i>
   </separator>
   <separator name="electronic exchange-correlation" >
    <i type="logical" name="LASPH"> F  </i>
    <i type="logical" name="LMETAGGA"> F  </i>
   </separator>
   <separator name="electronic convergence" >
    <i type="int" name="NELM">    70</i>
    <i type="int" name="NELMDL">    -5</i>
    <i type="int" name="NELMIN">     2</i>
    <i name="ENINI">    300.00000000</i>
    <separator name="electronic convergence detail" >
     <i type="logical" name="LDIAG"> T  </i>
     <i type="logical" name="LSUBROT"> F  </i>
     <i name="WEIMIN">      0.00100000</i>
     <i name="EBREAK">      0.00000001</i>
     <i name="DEPER">      0.30000000</i>
     <i type="int" name="NRMM">     4</i>
     <i name="TIME">      0.40000000</i>
    </separator>
   </separator>
   <separator name="electronic mixer" >
    <i name="AMIX">      0.40000000</i>
    <i name="BMIX">      1.00000000</i>
    <i name="AMIN">      0.10000000</i>
    <i name="AMIX_MAG">      1.60000000</i>
    <i name="BMIX_MAG">      1.00000000</i>
    <separator name="electronic mixer details" >
     <i type="int" name="IMIX">     4</i>
     <i type="logical" name="MIXFIRST"> F  </i>
     <i type="int" name="MAXMIX">   -45</i>
     <i name="WC">    100.00000000</i>
     <i type="int" name="INIMIX">     1</i>
     <i type="int" name="MIXPRE">     1</i>
     <i type="int" name="MREMOVE">     5</i>
    </separator>
   </separator>
   <separator name="electronic dipolcorrection" >
    <i type="logical" name="LDIPOL"> F  </i>
    <i type="logical" name="LMONO"> F  </i>
    <i type="int" name="IDIPOL">     0</i>
    <i name="EPSILON">      1.00000000</i>
    <v name="DIPOL">   -100.00000000   -100.00000000   -100.00000000</v>
    <i name="EFIELD">      0.00000000</i>
   </separator>
  </separator>
  <separator name="grids" >
   <i type="int" name="NGX">    48</i>
   <i type="int" name="NGY">    48</i>
   <i type="int" name="NGZ">    48</i>
   <i type="int" name="NGXF">    96</i>
   <i type="int" name="NGYF">    96</i>
   <i type="int" name="NGZF">    96</i>
   <i type="logical" name="ADDGRID"> F  </i>
  </separator>
  <separator name="ionic" >
   <i type="int" name="NSW">   300</i>
   <i type="int" name="IBRION">     2</i>
   <i type="int" name="ISIF">     3</i>
   <i name="PSTRESS">      0.00000000</i>
   <i name="EDIFFG">     -0.01000000</i>
   <i type="int" name="NFREE">     1</i>
   <i name="POTIM">      0.15000000</i>
   <i name="SMASS">     -3.00000000</i>
   <i name="SCALEE">      1.00000000</i>
  </separator>
  <separator name="ionic md" >
   <i name="TEBEG">      0.00010000</i>
   <i name="TEEND">      0.00010000</i>
   <i type="int" name="NBLOCK">     1</i>
   <i type="int" name="KBLOCK">   300</i>
   <i type="int" name="NPACO">   256</i>
   <i name="APACO">     16.00000000</i>
  </separator>
  <separator name="symmetry" >
   <i type="int" name="ISYM">     1</i>
   <i name="SYMPREC">      0.00001000</i>
  </separator>
  <separator name="dos" >
   <i type="logical" name="LORBIT"> F  </i>
   <v name="RWIGS">     -1.00000000     -1.00000000</v>
   <i type="int" name="NEDOS">   301</i>
   <i name="EMIN">     10.00000000</i>
   <i name="EMAX">    -10.00000000</i>
   <i name="EFERMI">      0.00000000</i>
  </separator>
  <separator name="writing" >
   <i type="int" name="NWRITE">     2</i>
   <i type="logical" name="LWAVE"> F  </i>
   <i type="logical" name="LCHARG"> F  </i>
   <i type="logical" name="LPARD"> F  </i>
   <i type="logical" name="LVTOT"> F  </i>
   <i type="logical" name="LVHAR"> F  </i>
   <i type="logical" name="LELF"> F  </i>
   <i type="logical" name="LOPTICS"> F  </i>
   <v name="STM">      0.00000000      0.00000000      0.00000000      0.00000000      0.00000000      0.00000000      0.00000000</v>
  </separator>
  <separator name="performance" >
   <i type="int" name="NPAR">     4</i>
   <i type="int" name="NSIM">     4</i>
   <i type="int" name="NBLK">    -1</i>
   <i type="logical" name="LPLANE"> T  </i>
   <i type="logical" name="LSCALAPACK"> T  </i>
   <i type="logical" name="LSCAAWARE"> F  </i>
   <i type="logical" name="LSCALU"> F  </i>
   <i type="logical" name="LASYNC"> F  </i>
   <i type="logical" name="LORBITALREAL"> F  </i>
  </separator>
  <separator name="miscellaneous" >
   <i type="int" name="IDIOT">     3</i>
   <i type="logical" name="LMUSIC"> F  </i>
   <v name="POMASS">    196.96600000    195.08000000</v>
   <v name="DARWINR">      0.00000000      0.00000000</v>
   <v name="DARWINV">      1.00000000      1.00000000</v>
   <i type="logical" name="LCORR"> T  </i>
  </separator>
  <i type="logical" name="GGA_COMPAT"> T  </i>
  <i type="logical" name="LBERRY"> F  </i>
  <i type="int" name="ICORELEVEL">     0</i>
  <i type="logical" name="LDAU"> F  </i>
  <i type="int" name="I_CONSTRAINED_M">     0</i>
  <separator name="electronic exchange-correlation" >
   <i type="string" name="GGA">--</i>
   <i type="int" name="VOSKOWN">     0</i>
   <i type="logical" name="LHFCALC"> F  </i>
   <i type="string" name="PRECFOCK"></i>
   <i type="logical" name="LSYMGRAD"> F  </i>
   <i type="logical" name="LHFONE"> F  </i>
   <i type="logical" name="LRHFCALC"> F  </i>
   <i type="logical" name="LTHOMAS"> F  </i>
   <i type="logical" name="LMODELHF"> F  </i>
   <i name="ENCUT4O">     -1.00000000</i>
   <i type="int" name="EXXOEP">     0</i>
   <i type="int" name="FOURORBIT">     0</i>
   <i name="AEXX">      0.00000000</i>
   <i name="HFALPHA">      0.00000000</i>
   <i name="MCALPHA">      0.00000000</i>
   <i name="ALDAX">      1.00000000</i>
   <i name="AGGAX">      1.00000000</i>
   <i name="ALDAC">      1.00000000</i>
   <i name="AGGAC">      1.00000000</i>
   <i type="int" name="NKREDX">     1</i>
   <i type="int" name="NKREDY">     1</i>
   <i type="int" name="NKREDZ">     1</i>
   <i type="logical" name="SHIFTRED"> F  </i>
   <i type="logical" name="ODDONLY"> F  </i>
   <i type="logical" name="EVENONLY"> F  </i>
   <i type="int" name="LMAXFOCK">     0</i>
   <i type="int" name="NMAXFOCKAE">     0</i>
   <i type="logical" name="LFOCKAEDFT"> F  </i>
   <i name="HFSCREEN">      0.00000000</i>
   <i name="HFSCREENC">      0.00000000</i>
   <i type="int" name="NBANDSGWLOW">     0</i>
  </separator>
  <separator name="vdW DFT" >
   <i type="logical" name="LUSE_VDW"> F  </i>
   <i name="Zab_VDW">     -0.84910000</i>
   <i name="PARAM1">      0.12340000</i>
   <i name="PARAM2">      1.00000000</i>
   <i name="PARAM3">      0.00000000</i>
  </separator>
  <separator name="model GW" >
   <i type="int" name="MODEL_GW">     0</i>
   <i name="MODEL_EPS0">     10.02195772</i>
   <i name="MODEL_ALPHA">      1.00000000</i>
  </separator>
  <separator name="linear response parameters" >
   <i type="logical" name="LEPSILON"> F  </i>
   <i type="logical" name="LRPA"> F  </i>
   <i type="logical" name="LNABLA"> F  </i>
   <i type="logical" name="LVEL"> F  </i>
   <i type="int" name="KINTER">     0</i>
   <i name="CSHIFT">      0.10000000</i>
   <i name="OMEGAMAX">     -1.00000000</i>
   <i name="DEG_THRESHOLD">      0.00200000</i>
  </separator>
  <separator name="orbital magnetization" >
   <i type="logical" name="NUCIND"> F  </i>
   <v name="MAGPOS">      0.00000000      0.00000000      0.00000000</v>
   <i type="logical" name="LNICSALL"> T  </i>
   <i type="logical" name="ORBITALMAG"> F  </i>
   <i type="logical" name="LMAGBLOCH"> F  </i>
   <i type="logical" name="LCHIMAG"> F  </i>
   <i type="logical" name="LGAUGE"> T  </i>
   <i type="int" name="MAGATOM">     0</i>
   <v name="MAGDIPOL">      0.00000000      0.00000000      0.00000000</v>
   <v name="AVECCONST">      0.00000000      0.00000000      0.00000000</v>
  </separator>
  <separator name="response functions" >
   <i type="logical" name="LADDER"> F  </i>
   <i type="logical" name="LFXC"> F  </i>
   <i type="logical" name="LHARTREE"> T  </i>
   <i type="int" name="IBSE">     0</i>
   <v type="int" name="KPOINT">    -1     0     0     0</v>
   <i type="logical" name="LTCTE"> F  </i>
   <i type="logical" name="LTETE"> F  </i>
   <i type="logical" name="LTRIPLET"> F  </i>
   <i type="logical" name="LFXCEPS"> F  </i>
   <i type="logical" name="LFXHEG"> F  </i>
   <i type="int" name="NATURALO">     0</i>
   <i type="logical" name="L2ORDER"> F  </i>
   <i type="logical" name="LUSEW"> F  </i>
   <i name="ENCUTGW">     -2.00000000</i>
   <i name="ENCUTGWSOFT">     -2.00000000</i>
   <i name="ENCUTLF">     -1.00000000</i>
   <i type="int" name="LMAXMP2">    -1</i>
   <i name="SCISSOR">      0.00000000</i>
   <i type="int" name="NOMEGA">     0</i>
   <i type="int" name="NOMEGAR">     0</i>
   <i type="int" name="NBANDSGW">    -1</i>
   <i type="int" name="NBANDSO">    -1</i>
   <i type="int" name="NBANDSV">    -1</i>
   <i type="int" name="NELM">    70</i>
   <i type="int" name="NELMHF">     1</i>
   <i type="int" name="DIM">     3</i>
   <i type="int" name="ANTIRES">     0</i>
   <i name="OMEGAMAX">    -30.00000000</i>
   <i name="OMEGAMIN">    -30.00000000</i>
   <i name="OMEGATL">   -200.00000000</i>
   <i type="int" name="OMEGAGRID">     0</i>
   <i name="CSHIFT">     -0.10000000</i>
   <i type="logical" name="SELFENERGY"> F  </i>
   <i type="logical" name="LSPECTRAL"> F  </i>
   <i type="logical" name="LSPECTRALGW"> F  </i>
   <i type="logical" name="LSINGLES"> F  </i>
   <i type="logical" name="LFERMIGW"> F  </i>
   <i type="logical" name="ODDONLYGW"> F  </i>
   <i type="logical" name="EVENONLYGW"> F  </i>
   <i type="int" name="NKREDLFX">     1</i>
   <i type="int" name="NKREDLFY">     1</i>
   <i type="int" name="NKREDLFZ">     1</i>
   <i type="int" name="MAXMEM">  1800</i>
   <i type="int" name="TELESCOPE">     0</i>
   <i type="int" name="TAUPAR">     1</i>
   <i type="int" name="OMEGAPAR">    -1</i>
   <i name="LAMBDA">      1.00000000</i>
  </separator>
  <separator name="External order field" >
   <i name="OFIELD_KAPPA">      0.00000000</i>
   <v name="OFIELD_K">      0.00000000      0.00000000      0.00000000</v>
   <i name="OFIELD_Q6_NEAR">      0.00000000</i>
   <i name="OFIELD_Q6_FAR">      0.00000000</i>
   <i name="OFIELD_A">      0.00000000</i>
  </separator>
 </parameters>
 <atominfo>
  <atoms>      32 </atoms>
  <types>       2 </types>
  <array name="atoms" >
   <dimension dim="1">ion</dimension>
   <field type="string">element</field>
   <field type="int">atomtype</field>
   <set>
    <rc><c>Au</c><c>   1</c></rc>
    <rc><c>Au</c><c>   1</c></rc>
    <rc><c>Au</c><c>   1</c></rc>
    <rc><c>Au</c><c>   1</c></rc>
    <rc><c>Au</c><c>   1</c></rc>
    <rc><c>Au</c><c>   1</c></rc>
    <rc><c>Au</c><c>   1</c></rc>
    <rc><c>Au</c><c>   1</c></rc>
    <rc><c>Au</c><c>   1</c></rc>
    <rc><c>Au</c><c>   1</c></rc>
    <rc><c>Au</c><c>   1</c></rc>
    <rc><c>Au</c><c>   1</c></rc>
    <rc><c>Au</c><c>   1</c></rc>
    <rc><c>Au</c><c>   1</c></rc>
    <rc><c>Au</c><c>   1</c></rc>
    <rc><c>Au</c><c>   1</c></rc>
    <rc><c>Au</c><c>   1</c></rc>
    <rc><c>Pt</c><c>   2</c></rc>
    <rc><c>Pt</c><c>   2</c></rc>
    <rc><c>Pt</c><c>   2</c></rc>
    <rc><c>Pt</c><c>   2</c></rc>
    <rc><c>Pt</c><c>   2</c></rc>
    <rc><c>Pt</c><c>   2</c></rc>
    <rc><c>Pt</c><c>   2</c></rc>
    <rc><c>Pt</c><c>   2</c></rc>
    <rc><c>Pt</c><c>   2</c></rc>
    <rc><c>Pt</c><c>   2</c></rc>
    <rc><c>Pt</c><c>   2</c></rc>
    <rc><c>Pt</c><c>   2</c></rc>
    <rc><c>Pt</c><c>   2</c></rc>
    <rc><c>Pt</c><c>   2</c></rc>
    <rc><c>Pt</c><c>   2</c></rc>
   </set>
  </array>
  <array name="atomtypes" >
   <dimension dim="1">type</dimension>
   <field type="int">atomspertype</field>
   <field type="string">element</field>
   <field>mass</field>
   <field>valence</field>
   <field type="string">pseudopotential</field>
   <set>
    <rc><c>  17</c><c>Au</c><c>    196.96600000</c><c>     11.00000000</c><c>  PAW_PBE Au 04Oct2007                  </c></rc>
    <rc><c>  15</c><c>Pt</c><c>    195.08000000</c><c>     10.00000000</c><c>  PAW_PBE Pt 04Feb2005                  </c></rc>
   </set>
  </array>
 </atominfo>
 <structure name="initialpos" >
  <crystal>
   <varray name="basis" >
    <v>       7.99110904      -0.02286784       0.01412164 </v>
    <v>      -0.02233327       8.21240246      -0.03785074 </v>
    <v>       0.01379495      -0.03800418       8.14494232 </v>
   </varray>
   <i name="volume">    534.50441162 </i>
   <varray name="rec_basis" >
    <v>       0.12514042       0.00033934      -0.00021036 </v>
    <v>       0.00034746       0.12177061       0.00056759 </v>
    <v>      -0.00021535       0.00056530       0.12277858 </v>
   </varray>
  </crystal>
  <varray name="positions" >
   <v>       0.74907100       0.75276300       0.00172200 </v>
   <v>       0.99820500       0.99989000       0.99923900 </v>
   <v>       0.25155600       0.24897500       0.00061700 </v>
   <v>       0.25182900       0.99852800       0.24915700 </v>
   <v>       0.99933900       0.24794500       0.25128700 </v>
   <v>       0.00183300       0.24757500       0.75074600 </v>
   <v>       0.24947700       0.50088200       0.25011200 </v>
   <v>       0.00253000       0.50063600       0.49806100 </v>
   <v>       0.24926300       0.50112700       0.74911900 </v>
   <v>       0.00063000       0.75208000       0.74994500 </v>
   <v>       0.75084700       0.24852300       0.50017100 </v>
   <v>       0.50000700       0.24902700       0.74912000 </v>
   <v>       0.49986100       0.49997800       0.00247000 </v>
   <v>       0.49938300       0.75134100       0.25062200 </v>
   <v>       0.74844500       0.75090700       0.49825600 </v>
   <v>       0.74996800       0.49874800       0.75157200 </v>
   <v>       0.49730500       0.75201000       0.74776800 </v>
   <v>       0.00255000       0.99493600       0.50020000 </v>
   <v>       0.25469000       0.24390100       0.49860200 </v>
   <v>       0.25351800       0.99719200       0.74693400 </v>
   <v>       0.99682300       0.50392200       0.00667800 </v>
   <v>       0.24709000       0.75348200       0.00023700 </v>
   <v>       0.99781500       0.75096600       0.24986300 </v>
   <v>       0.24968000       0.75375700       0.49799400 </v>
   <v>       0.50312000       0.00339800       0.99900900 </v>
   <v>       0.74785200       0.24831600       0.00476700 </v>
   <v>       0.74698100       0.00145300       0.25229000 </v>
   <v>       0.50630600       0.24773500       0.25296200 </v>
   <v>       0.49897400       0.00187600       0.50024600 </v>
   <v>       0.74781100       0.00363400       0.74932400 </v>
   <v>       0.75050200       0.49785600       0.24811400 </v>
   <v>       0.49673800       0.49664600       0.49279800 </v>
  </varray>
 </structure>
 <calculation>
  <scstep>
   <time name="dav">    0.80    0.80</time>
   <time name="total">    0.83    0.84</time>
   <energy>
    <i name="alphaZ">   2033.97105244 </i>
    <i name="ewald"> -28899.84049921 </i>
    <i name="hartreedc">  -3311.52024242 </i>
    <i name="XCdc">    318.55555596 </i>
    <i name="pawpsdc">  25301.51058842 </i>
    <i name="pawaedc"> -24484.77671673 </i>
    <i name="eentropy">     -0.00747501 </i>
    <i name="bandstr">   3998.95650289 </i>
    <i name="atom">  26678.84160970 </i>
    <i name="e_fr_energy">   1635.69037603 </i>
    <i name="e_wo_entrp">   1635.69785104 </i>
    <i name="e_0_energy">   1635.69286770 </i>
   </energy>
  </scstep>
  <scstep>
   <time name="dav">    0.84    0.85</time>
   <time name="total">    0.85    0.87</time>
   <energy>
    <i name="e_fr_energy">    -82.18835891 </i>
    <i name="e_wo_entrp">    -82.18884860 </i>
    <i name="e_0_energy">    -82.18852214 </i>
   </energy>
  </scstep>
  <scstep>
   <time name="dav">    0.93    0.93</time>
   <time name="total">    0.93    0.94</time>
   <energy>
    <i name="e_fr_energy">   -153.60971410 </i>
    <i name="e_wo_entrp">   -153.61686806 </i>
    <i name="e_0_energy">   -153.61209875 </i>
   </energy>
  </scstep>
  <scstep>
   <time name="dav">    1.05    1.06</time>
   <time name="total">    1.05    1.07</time>
   <energy>
    <i name="e_fr_energy">   -154.90584914 </i>
    <i name="e_wo_entrp">   -154.91246894 </i>
    <i name="e_0_energy">   -154.90805574 </i>
   </energy>
  </scstep>
  <scstep>
   <time name="dav">    0.89    0.95</time>
   <time name="total">    0.92    0.99</time>
   <energy>
    <i name="e_fr_energy">   -154.93096130 </i>
    <i name="e_wo_entrp">   -154.93760614 </i>
    <i name="e_0_energy">   -154.93317625 </i>
   </energy>
  </scstep>
  <scstep>
   <time name="diag">    0.07    0.11</time>
   <time name="diis">    0.42    0.45</time>
   <time name="orth">    0.01    0.01</time>
   <time name="total">    0.60    0.68</time>
   <energy>
    <i name="e_fr_energy">   -145.86839421 </i>
    <i name="e_wo_entrp">   -145.87474899 </i>
    <i name="e_0_energy">   -145.87051247 </i>
   </energy>
  </scstep>
  <scstep>
   <time name="diag">    0.07    0.07</time>
   <time name="diis">    0.40    0.41</time>
   <time name="orth">    0.01    0.01</time>
   <time name="total">    0.54    0.55</time>
   <energy>
    <i name="e_fr_energy">   -146.58881166 </i>
    <i name="e_wo_entrp">   -146.59754323 </i>
    <i name="e_0_energy">   -146.59172219 </i>
   </energy>
  </scstep>
  <scstep>
   <time name="diag">    0.07    0.07</time>
   <time name="diis">    0.40    0.41</time>
   <time name="orth">    0.01    0.01</time>
   <time name="total">    0.54    0.54</time>
   <energy>
    <i name="e_fr_energy">   -145.40809487 </i>
    <i name="e_wo_entrp">   -145.39603506 </i>
    <i name="e_0_energy">   -145.40407493 </i>
   </energy>
  </scstep>
  <scstep>
   <time name="diag">    0.07    0.07</time>
   <time name="diis">    0.40    0.41</time>
   <time name="orth">    0.01    0.01</time>
   <time name="total">    0.54    0.55</time>
   <energy>
    <i name="e_fr_energy">   -144.98247530 </i>
    <i name="e_wo_entrp">   -144.99055949 </i>
    <i name="e_0_energy">   -144.98517003 </i>
   </energy>
  </scstep>
  <scstep>
   <time name="diag">    0.07    0.07</time>
   <time name="diis">    0.44    0.44</time>
   <time name="orth">    0.01    0.01</time>
   <time name="total">    0.57    0.58</time>
   <energy>
    <i name="e_fr_energy">   -144.56157849 </i>
    <i name="e_wo_entrp">   -144.57405557 </i>
    <i name="e_0_energy">   -144.56573752 </i>
   </energy>
  </scstep>
  <scstep>
   <time name="diag">    0.07    0.07</time>
   <time name="diis">    0.41    0.41</time>
   <time name="orth">    0.01    0.01</time>
   <time name="total">    0.55    0.55</time>
   <energy>
    <i name="e_fr_energy">   -144.50398934 </i>
    <i name="e_wo_entrp">   -144.51798424 </i>
    <i name="e_0_energy">   -144.50865431 </i>
   </energy>
  </scstep>
  <scstep>
   <time name="diag">    0.07    0.07</time>
   <time name="diis">    0.40    0.41</time>
   <time name="orth">    0.01    0.01</time>
   <time name="total">    0.54    0.55</time>
   <energy>
    <i name="e_fr_energy">   -144.50023988 </i>
    <i name="e_wo_entrp">   -144.51469294 </i>
    <i name="e_0_energy">   -144.50505757 </i>
   </energy>
  </scstep>
  <scstep>
   <time name="diag">    0.07    0.07</time>
   <time name="diis">    0.40    0.41</time>
   <time name="orth">    0.01    0.01</time>
   <time name="total">    0.54    0.55</time>
   <energy>
    <i name="e_fr_energy">   -144.49929042 </i>
    <i name="e_wo_entrp">   -144.51350313 </i>
    <i name="e_0_energy">   -144.50402799 </i>
   </energy>
  </scstep>
  <scstep>
   <time name="diag">    0.07    0.07</time>
   <time name="diis">    0.48    0.48</time>
   <time name="orth">    0.01    0.01</time>
   <time name="total">    0.61    0.62</time>
   <energy>
    <i name="e_fr_energy">   -144.49956866 </i>
    <i name="e_wo_entrp">   -144.51375005 </i>
    <i name="e_0_energy">   -144.50429579 </i>
   </energy>
  </scstep>
  <scstep>
   <time name="diag">    0.07    0.07</time>
   <time name="diis">    0.45    0.45</time>
   <time name="orth">    0.01    0.01</time>
   <time name="total">    0.60    0.61</time>
   <energy>
    <i name="e_fr_energy">   -144.49854927 </i>
    <i name="e_wo_entrp">   -144.51257009 </i>
    <i name="e_0_energy">   -144.50322287 </i>
   </energy>
  </scstep>
  <scstep>
   <time name="diag">    0.08    0.08</time>
   <time name="diis">    0.41    0.41</time>
   <time name="orth">    0.01    0.01</time>
   <time name="total">    0.55    0.56</time>
   <energy>
    <i name="e_fr_energy">   -144.49849097 </i>
    <i name="e_wo_entrp">   -144.51268879 </i>
    <i name="e_0_energy">   -144.50322358 </i>
   </energy>
  </scstep>
  <scstep>
   <time name="diag">    0.07    0.07</time>
   <time name="diis">    0.29    0.29</time>
   <time name="orth">    0.01    0.01</time>
   <time name="total">    0.43    0.43</time>
   <energy>
    <i name="e_fr_energy">   -144.49846619 </i>
    <i name="e_wo_entrp">   -144.51259794 </i>
    <i name="e_0_energy">   -144.50317677 </i>
   </energy>
  </scstep>
  <scstep>
   <time name="diag">    0.07    0.07</time>
   <time name="diis">    0.23    0.23</time>
   <time name="orth">    0.01    0.01</time>
   <time name="total">    0.34    0.35</time>
   <energy>
    <i name="alphaZ">   2033.97105244 </i>
    <i name="ewald"> -28899.84049921 </i>
    <i name="hartreedc">  -2975.11308035 </i>
    <i name="XCdc">    304.68373338 </i>
    <i name="pawpsdc">  31149.89589063 </i>
    <i name="pawaedc"> -30416.72779789 </i>
    <i name="eentropy">      0.01421193 </i>
    <i name="bandstr">   1979.77641582 </i>
    <i name="atom">  26678.84160970 </i>
    <i name="e_fr_energy">   -144.49846355 </i>
    <i name="e_wo_entrp">   -144.51267549 </i>
    <i name="e_0_energy">   -144.50320087 </i>
   </energy>
  </scstep>
  <structure>
   <crystal>
    <varray name="basis" >
     <v>       7.99110904      -0.02286784       0.01412164 </v>
     <v>      -0.02233327       8.21240246      -0.03785074 </v>
     <v>       0.01379495      -0.03800418       8.14494232 </v>
    </varray>
    <i name="volume">    534.50441162 </i>
    <varray name="rec_basis" >
     <v>       0.12514042       0.00033934      -0.00021036 </v>
     <v>       0.00034746       0.12177061       0.00056759 </v>
     <v>      -0.00021535       0.00056530       0.12277858 </v>
    </varray>
   </crystal>
   <varray name="positions" >
    <v>       0.74907100       0.75276300       0.00172200 </v>
    <v>       0.99820500       0.99989000       0.99923900 </v>
    <v>       0.25155600       0.24897500       0.00061700 </v>
    <v>       0.25182900       0.99852800       0.24915700 </v>
    <v>       0.99933900       0.24794500       0.25128700 </v>
    <v>       0.00183300       0.24757500       0.75074600 </v>
    <v>       0.24947700       0.50088200       0.25011200 </v>
    <v>       0.00253000       0.50063600       0.49806100 </v>
    <v>       0.24926300       0.50112700       0.74911900 </v>
    <v>       0.00063000       0.75208000       0.74994500 </v>
    <v>       0.75084700       0.24852300       0.50017100 </v>
    <v>       0.50000700       0.24902700       0.74912000 </v>
    <v>       0.49986100       0.49997800       0.00247000 </v>
    <v>       0.49938300       0.75134100       0.25062200 </v>
    <v>       0.74844500       0.75090700       0.49825600 </v>
    <v>       0.74996800       0.49874800       0.75157200 </v>
    <v>       0.49730500       0.75201000       0.74776800 </v>
    <v>       0.00255000       0.99493600       0.50020000 </v>
    <v>       0.25469000       0.24390100       0.49860200 </v>
    <v>       0.25351800       0.99719200       0.74693400 </v>
    <v>       0.99682300       0.50392200       0.00667800 </v>
    <v>       0.24709000       0.75348200       0.00023700 </v>
    <v>       0.99781500       0.75096600       0.24986300 </v>
    <v>       0.24968000       0.75375700       0.49799400 </v>
    <v>       0.50312000       0.00339800       0.99900900 </v>
    <v>       0.74785200       0.24831600       0.00476700 </v>
    <v>       0.74698100       0.00145300       0.25229000 </v>
    <v>       0.50630600       0.24773500       0.25296200 </v>
    <v>       0.49897400       0.00187600       0.50024600 </v>
    <v>       0.74781100       0.00363400       0.74932400 </v>
    <v>       0.75050200       0.49785600       0.24811400 </v>
    <v>       0.49673800       0.49664600       0.49279800 </v>
   </varray>
  </structure>
  <varray name="forces" >
   <v>       0.00101684      -0.00184616      -0.01146222 </v>
   <v>       0.00746867       0.00204589      -0.00324926 </v>
   <v>      -0.00548811       0.00504630       0.00448260 </v>
   <v>      -0.00553800       0.00322023      -0.00295571 </v>
   <v>       0.00772861      -0.00123280       0.00182485 </v>
   <v>      -0.00642596       0.00166757       0.00478755 </v>
   <v>      -0.00021571      -0.00183544      -0.00337189 </v>
   <v>      -0.00544071      -0.00626368       0.00187035 </v>
   <v>      -0.00173090      -0.00084257       0.00456025 </v>
   <v>      -0.00340080      -0.00270174       0.00418550 </v>
   <v>      -0.00100796       0.00493908      -0.00144955 </v>
   <v>      -0.00079748       0.01034830       0.00172366 </v>
   <v>       0.00057914       0.00199771      -0.00399476 </v>
   <v>       0.00132524      -0.00257458      -0.00421804 </v>
   <v>       0.00199761      -0.00654142      -0.00049452 </v>
   <v>       0.00411898       0.00133773      -0.00259818 </v>
   <v>       0.00726525      -0.00320794       0.00465438 </v>
   <v>      -0.00286716       0.00229830      -0.00356011 </v>
   <v>      -0.00095118      -0.00072173      -0.00258843 </v>
   <v>       0.00108870       0.00122645       0.00330350 </v>
   <v>       0.00098184       0.00099438      -0.00165388 </v>
   <v>       0.00013640       0.00360856      -0.00218171 </v>
   <v>      -0.00262897       0.00143550      -0.00131075 </v>
   <v>      -0.00179574      -0.00080828       0.00137780 </v>
   <v>      -0.00113591      -0.00310165      -0.00037165 </v>
   <v>       0.00526975      -0.00053876      -0.00118378 </v>
   <v>       0.00103405      -0.00165410       0.00415529 </v>
   <v>      -0.00252068      -0.00125214       0.00660129 </v>
   <v>       0.00031548      -0.00205120       0.00029246 </v>
   <v>       0.00175214       0.00012118      -0.00180838 </v>
   <v>      -0.00094619      -0.00075533       0.00223020 </v>
   <v>       0.00081276      -0.00235769       0.00240315 </v>
  </varray>
  <varray name="stress" >
   <v>       0.31514999      -0.00882473       0.01661476 </v>
   <v>      -0.00882432       0.24721455      -0.00745684 </v>
   <v>       0.01661480      -0.00745666       0.26930506 </v>
  </varray>
  <energy>
   <i name="e_fr_energy">   -144.49846355 </i>
   <i name="e_wo_entrp">   -144.50320087 </i>
   <i name="e_0_energy">      0.01421193 </i>
  </energy>
  <time name="totalsc">   12.65   12.95</time>
 </calculation>
 <calculation>
  <scstep>
   <time name="dav">    0.92    0.95</time>
   <time name="total">    0.99    1.03</time>
   <energy>
    <i name="alphaZ">   2033.71583971 </i>
    <i name="ewald"> -28898.62987931 </i>
    <i name="hartreedc">  -2974.99040842 </i>
    <i name="XCdc">    304.64550574 </i>
    <i name="pawpsdc">  31149.77112090 </i>
    <i name="pawaedc"> -30416.59715909 </i>
    <i name="eentropy">      0.01413088 </i>
    <i name="bandstr">   1978.73069475 </i>
    <i name="atom">  26678.84160970 </i>
    <i name="e_fr_energy">   -144.49854515 </i>
    <i name="e_wo_entrp">   -144.51267602 </i>
    <i name="e_0_energy">   -144.50325544 </i>
   </energy>
  </scstep>
  <scstep>
   <time name="diag">    0.09    0.13</time>
   <time name="diis">    0.38    0.43</time>
   <time name="orth">    0.01    0.01</time>
   <time name="total">    0.57    0.66</time>
   <energy>
    <i name="e_fr_energy">   -144.49849438 </i>
    <i name="e_wo_entrp">   -144.51270439 </i>
    <i name="e_0_energy">   -144.50323105 </i>
   </energy>
  </scstep>
  <scstep>
   <time name="diag">    0.07    0.07</time>
   <time name="diis">    0.25    0.25</time>
   <time name="orth">    0.01    0.01</time>
   <time name="total">    0.36    0.37</time>
   <energy>
    <i name="alphaZ">   2033.71583971 </i>
    <i name="ewald"> -28898.62987931 </i>
    <i name="hartreedc">  -2975.56276666 </i>
    <i name="XCdc">    304.66799015 </i>
    <i name="pawpsdc">  31147.85308788 </i>
    <i name="pawaedc"> -30414.64646389 </i>
    <i name="eentropy">      0.01412818 </i>
    <i name="bandstr">   1979.24795943 </i>
    <i name="atom">  26678.84160970 </i>
    <i name="e_fr_energy">   -144.49849482 </i>
    <i name="e_wo_entrp">   -144.51262300 </i>
    <i name="e_0_energy">   -144.50320421 </i>
   </energy>
  </scstep>
  <structure>
   <crystal>
    <varray name="basis" >
     <v>       7.99148909      -0.02287935       0.01414227 </v>
     <v>      -0.02234536       8.21270886      -0.03786157 </v>
     <v>       0.01381608      -0.03801478       8.14527336 </v>
    </varray>
    <i name="volume">    534.57148703 </i>
    <varray name="rec_basis" >
     <v>       0.12513447       0.00033950      -0.00021067 </v>
     <v>       0.00034761       0.12176607       0.00056770 </v>
     <v>      -0.00021565       0.00056541       0.12277359 </v>
    </varray>
   </crystal>
   <varray name="positions" >
    <v>       0.74907287       0.75275966       0.00170161 </v>
    <v>       0.99821855       0.99989362       0.99923322 </v>
    <v>       0.25154607       0.24898390       0.00062502 </v>
    <v>       0.25181899       0.99853362       0.24915179 </v>
    <v>       0.99935299       0.24794288       0.25129021 </v>
    <v>       0.00182136       0.24757795       0.75075454 </v>
    <v>       0.24947661       0.50087874       0.25010599 </v>
    <v>       0.00252011       0.50062495       0.49806429 </v>
    <v>       0.24925985       0.50112554       0.74912710 </v>
    <v>       0.00062381       0.75207526       0.74995243 </v>
    <v>       0.75084520       0.24853169       0.50016847 </v>
    <v>       0.50000560       0.24904525       0.74912315 </v>
    <v>       0.49986207       0.49998149       0.00246292 </v>
    <v>       0.49938540       0.75133643       0.25061448 </v>
    <v>       0.74844859       0.75089548       0.49825506 </v>
    <v>       0.74997547       0.49875036       0.75156738 </v>
    <v>       0.49731813       0.75200442       0.74777622 </v>
    <v>       0.00254483       0.99494001       0.50019370 </v>
    <v>       0.25468828       0.24389970       0.49859740 </v>
    <v>       0.25351997       0.99719419       0.74693988 </v>
    <v>       0.99682479       0.50392374       0.00667507 </v>
    <v>       0.24709027       0.75348834       0.00023315 </v>
    <v>       0.99781025       0.75096851       0.24986069 </v>
    <v>       0.24967674       0.75375558       0.49799645 </v>
    <v>       0.50311793       0.00339253       0.99900832 </v>
    <v>       0.74786155       0.24831507       0.00476488 </v>
    <v>       0.74698285       0.00145012       0.25229737 </v>
    <v>       0.50630141       0.24773283       0.25297373 </v>
    <v>       0.49897456       0.00187239       0.50024650 </v>
    <v>       0.74781418       0.00363421       0.74932078 </v>
    <v>       0.75050028       0.49785468       0.24811796 </v>
    <v>       0.49673945       0.49664187       0.49280225 </v>
   </varray>
  </structure>
  <varray name="forces" >
   <v>       0.00169429      -0.00124814      -0.00881000 </v>
   <v>       0.00531486       0.00146006      -0.00299800 </v>
   <v>      -0.00425426       0.00451356       0.00331571 </v>
   <v>      -0.00359899       0.00199668      -0.00235472 </v>
   <v>       0.00555241      -0.00051022       0.00150619 </v>
   <v>      -0.00505157       0.00149448       0.00409815 </v>
   <v>      -0.00021532      -0.00100628      -0.00262735 </v>
   <v>      -0.00370011      -0.00468231       0.00143647 </v>
   <v>      -0.00172457      -0.00028095       0.00358704 </v>
   <v>      -0.00201149      -0.00220255       0.00334170 </v>
   <v>      -0.00152678       0.00319405      -0.00089445 </v>
   <v>      -0.00086614       0.00817230       0.00138096 </v>
   <v>       0.00060477       0.00157901      -0.00309799 </v>
   <v>       0.00080616      -0.00212340      -0.00363402 </v>
   <v>       0.00126192      -0.00512159      -0.00032648 </v>
   <v>       0.00396259       0.00087011      -0.00103097 </v>
   <v>       0.00531072      -0.00245846       0.00330085 </v>
   <v>      -0.00247044       0.00207938      -0.00240237 </v>
   <v>      -0.00007868      -0.00096485      -0.00101444 </v>
   <v>       0.00224181       0.00032455       0.00209105 </v>
   <v>       0.00102651       0.00189580      -0.00024345 </v>
   <v>      -0.00092662       0.00306613      -0.00200996 </v>
   <v>      -0.00142523       0.00001410      -0.00314385 </v>
   <v>      -0.00082669      -0.00071559       0.00139768 </v>
   <v>      -0.00188529      -0.00292575      -0.00038797 </v>
   <v>       0.00462262       0.00000262      -0.00032499 </v>
   <v>       0.00041548      -0.00162036       0.00316755 </v>
   <v>      -0.00211728      -0.00144493       0.00488569 </v>
   <v>      -0.00054998      -0.00165359       0.00088043 </v>
   <v>       0.00050938       0.00023515      -0.00184337 </v>
   <v>      -0.00036107      -0.00068579       0.00072469 </v>
   <v>       0.00026700      -0.00125322       0.00203022 </v>
  </varray>
  <varray name="stress" >
   <v>       0.21842620      -0.00698892       0.02974055 </v>
   <v>      -0.00698850       0.13589558      -0.02395038 </v>
   <v>       0.02974103      -0.02395066       0.13344697 </v>
  </varray>
  <energy>
   <i name="e_fr_energy">   -144.49849482 </i>
   <i name="e_wo_entrp">   -144.50320421 </i>
   <i name="e_0_energy">      0.01412818 </i>
  </energy>
  <time name="totalsc">    2.94    3.10</time>
  <eigenvalues>
   <array>
    <dimension dim="1">band</dimension>
    <dimension dim="2">kpoint</dimension>
    <dimension dim="3">spin</dimension>
    <field>eigene</field>
    <field>occ</field>
    <set>
     <set comment="spin 1">
      <set comment="kpoint 1">
       <r>   -0.0150    1.0000 </r>
       <r>    2.3647    1.0000 </r>
       <r>    2.3994    1.0000 </r>
       <r>    2.4513    1.0000 </r>
       <r>    2.4857    1.0000 </r>
       <r>    2.5233    1.0000 </r>
       <r>    2.5626    1.0000 </r>
       <r>    2.6197    1.0000 </r>
       <r>    2.6419    1.0000 </r>
       <r>    2.6518    1.0000 </r>
       <r>    2.6529    1.0000 </r>
       <r>    2.8552    1.0000 </r>
       <r>    2.8661    1.0000 </r>
       <r>    2.9595    1.0000 </r>
       <r>    3.2199    1.0000 </r>
       <r>    3.2442    1.0000 </r>
       <r>    3.2782    1.0000 </r>
       <r>    3.7250    1.0000 </r>
       <r>    3.7450    1.0000 </r>
       <r>    3.7523    1.0000 </r>
       <r>    3.8234    1.0000 </r>
       <r>    3.8344    1.0000 </r>
       <r>    3.8406    1.0000 </r>
       <r>    3.8605    1.0000 </r>
       <r>    3.8740    1.0000 </r>
       <r>    3.8876    1.0000 </r>
       <r>    3.9067    1.0000 </r>
       <r>    3.9236    1.0000 </r>
       <r>    3.9290    1.0000 </r>
       <r>    3.9753    1.0000 </r>
       <r>    3.9970    1.0000 </r>
       <r>    4.0293    1.0000 </r>
       <r>    4.0696    1.0000 </r>
       <r>    4.1030    1.0000 </r>
       <r>    4.1077    1.0000 </r>
       <r>    4.1175    1.0000 </r>
       <r>    4.1532    1.0000 </r>
       <r>    4.2958    1.0000 </r>
       <r>    4.3326    1.0000 </r>
       <r>    4.3707    1.0000 </r>
       <r>    4.4051    1.0000 </r>
       <r>    4.5008    1.0000 </r>
       <r>    4.5334    1.0000 </r>
       <r>    4.5835    1.0000 </r>
       <r>    4.6114    1.0000 </r>
       <r>    4.6434    1.0000 </r>
       <r>    4.6845    1.0000 </r>
       <r>    4.7014    1.0000 </r>
       <r>    4.7322    1.0000 </r>
       <r>    4.7874    1.0000 </r>
       <r>    4.8026    1.0000 </r>
       <r>    4.8321    1.0000 </r>
       <r>    4.8545    1.0000 </r>
       <r>    4.8712    1.0000 </r>
       <r>    4.8838    1.0000 </r>
       <r>    4.8950    1.0000 </r>
       <r>    4.9171    1.0000 </r>
       <r>    4.9271    1.0000 </r>
       <r>    4.9717    1.0000 </r>
       <r>    4.9920    1.0000 </r>
       <r>    5.0157    1.0000 </r>
       <r>    5.0292    1.0000 </r>
       <r>    5.0412    1.0000 </r>
       <r>    5.0650    1.0000 </r>
       <r>    5.0943    1.0000 </r>
       <r>    5.1364    1.0000 </r>
       <r>    5.1451    1.0000 </r>
       <r>    5.1656    1.0000 </r>
       <r>    5.1858    1.0000 </r>
       <r>    5.2102    1.0000 </r>
       <r>    5.2244    1.0000 </r>
       <r>    5.2608    1.0000 </r>
       <r>    5.2689    1.0000 </r>
       <r>    5.2698    1.0000 </r>
       <r>    5.2986    1.0000 </r>
       <r>    5.3088    1.0000 </r>
       <r>    5.3448    1.0000 </r>
       <r>    5.3819    1.0000 </r>
       <r>    5.4086    1.0000 </r>
       <r>    5.4564    1.0000 </r>
       <r>    5.4845    1.0000 </r>
       <r>    5.6059    1.0000 </r>
       <r>    5.6386    1.0000 </r>
       <r>    5.6720    1.0000 </r>
       <r>    5.7213    1.0000 </r>
       <r>    5.8147    1.0000 </r>
       <r>    5.8335    1.0000 </r>
       <r>    5.8557    1.0000 </r>
       <r>    5.8839    1.0000 </r>
       <r>    5.9500    1.0000 </r>
       <r>    5.9513    1.0000 </r>
       <r>    6.1480    1.0000 </r>
       <r>    6.1832    1.0000 </r>
       <r>    6.1914    1.0000 </r>
       <r>    6.2350    1.0000 </r>
       <r>    6.3708    1.0000 </r>
       <r>    6.3937    1.0000 </r>
       <r>    6.4071    1.0000 </r>
       <r>    6.4409    1.0000 </r>
       <r>    6.4609    1.0000 </r>
       <r>    6.4953    1.0000 </r>
       <r>    6.5219    1.0000 </r>
       <r>    6.5842    1.0000 </r>
       <r>    6.5993    1.0000 </r>
       <r>    6.6017    1.0000 </r>
       <r>    6.6310    1.0000 </r>
       <r>    6.6432    1.0000 </r>
       <r>    6.7096    1.0000 </r>
       <r>    6.7468    1.0000 </r>
       <r>    6.7954    1.0000 </r>
       <r>    6.8113    1.0000 </r>
       <r>    6.8329    1.0000 </r>
       <r>    6.8535    1.0000 </r>
       <r>    6.8748    1.0000 </r>
       <r>    6.8912    1.0000 </r>
       <r>    6.9576    1.0000 </r>
       <r>    6.9890    1.0000 </r>
       <r>    7.0146    1.0000 </r>
       <r>    7.0263    1.0000 </r>
       <r>    7.0669    1.0000 </r>
       <r>    7.0897    1.0000 </r>
       <r>    7.1397    1.0000 </r>
       <r>    7.1763    1.0000 </r>
       <r>    7.2047    1.0000 </r>
       <r>    7.2388    1.0000 </r>
       <r>    7.3207    1.0000 </r>
       <r>    7.3235    1.0000 </r>
       <r>    7.3647    1.0000 </r>
       <r>    7.3773    1.0000 </r>
       <r>    7.3890    1.0000 </r>
       <r>    7.4998    1.0000 </r>
       <r>    7.5241    1.0000 </r>
       <r>    7.5801    1.0000 </r>
       <r>    7.5957    1.0000 </r>
       <r>    7.6301    1.0000 </r>
       <r>    7.7439    1.0000 </r>
       <r>    7.8147    1.0000 </r>
       <r>    7.8622    1.0000 </r>
       <r>    7.8945    1.0000 </r>
       <r>    7.9219    1.0000 </r>
       <r>    8.0532    1.0000 </r>
       <r>    8.1424    1.0000 </r>
       <r>    8.1834    1.0000 </r>
       <r>    8.2485    1.0000 </r>
       <r>    8.3353    1.0000 </r>
       <r>    8.4119    1.0000 </r>
       <r>    8.5207    1.0000 </r>
       <r>    8.5352    1.0000 </r>
       <r>    8.6693    1.0000 </r>
       <r>    8.7332    1.0000 </r>
       <r>    8.7467    1.0000 </r>
       <r>    8.7944    1.0000 </r>
       <r>    8.8152    1.0000 </r>
       <r>    8.8911    1.0001 </r>
       <r>    8.9027    1.0001 </r>
       <r>    8.9591    1.0010 </r>
       <r>    8.9827    1.0019 </r>
       <r>    9.0082    1.0037 </r>
       <r>    9.0357    1.0072 </r>
       <r>    9.0565    1.0111 </r>
       <r>    9.0770    1.0161 </r>
       <r>    9.0977    1.0222 </r>
       <r>    9.1012    1.0233 </r>
       <r>    9.1553    1.0354 </r>
       <r>    9.1773    1.0320 </r>
       <r>    9.2039    1.0133 </r>
       <r>    9.2532    0.9121 </r>
       <r>    9.3678    0.3491 </r>
       <r>    9.3973    0.2039 </r>
       <r>    9.5166   -0.0350 </r>
       <r>    9.6603   -0.0051 </r>
       <r>   10.1036   -0.0000 </r>
       <r>   10.2569   -0.0000 </r>
       <r>   10.2808   -0.0000 </r>
       <r>   10.2895   -0.0000 </r>
       <r>   10.3296   -0.0000 </r>
       <r>   10.3593   -0.0000 </r>
       <r>   10.4151   -0.0000 </r>
       <r>   10.4398   -0.0000 </r>
       <r>   10.5122   -0.0000 </r>
       <r>   10.6182   -0.0000 </r>
       <r>   10.6867   -0.0000 </r>
       <r>   10.7171   -0.0000 </r>
       <r>   10.8804   -0.0000 </r>
       <r>   11.0159   -0.0000 </r>
       <r>   11.3496   -0.0000 </r>
       <r>   13.5953    0.0000 </r>
       <r>   13.6900    0.0000 </r>
       <r>   13.7663    0.0000 </r>
       <r>   13.7997    0.0000 </r>
       <r>   14.8676    0.0000 </r>
       <r>   14.9624    0.0000 </r>
       <r>   15.1079    0.0000 </r>
       <r>   15.2847    0.0000 </r>
       <r>   15.4519    0.0000 </r>
       <r>   15.5193    0.0000 </r>
       <r>   16.1774    0.0000 </r>
       <r>   16.3858    0.0000 </r>
       <r>   16.4149    0.0000 </r>
       <r>   16.4614    0.0000 </r>
       <r>   16.4861    0.0000 </r>
       <r>   16.4990    0.0000 </r>
       <r>   16.6546    0.0000 </r>
       <r>   16.6906    0.0000 </r>
      </set>
      <set comment="kpoint 2">
       <r>    0.3271    1.0000 </r>
       <r>    1.2911    1.0000 </r>
       <r>    2.6104    1.0000 </r>
       <r>    2.6427    1.0000 </r>
       <r>    2.6848    1.0000 </r>
       <r>    2.7123    1.0000 </r>
       <r>    2.7905    1.0000 </r>
       <r>    2.8201    1.0000 </r>
       <r>    2.8370    1.0000 </r>
       <r>    2.8463    1.0000 </r>
       <r>    3.0061    1.0000 </r>
       <r>    3.0712    1.0000 </r>
       <r>    3.1359    1.0000 </r>
       <r>    3.1707    1.0000 </r>
       <r>    3.2303    1.0000 </r>
       <r>    3.2636    1.0000 </r>
       <r>    3.2911    1.0000 </r>
       <r>    3.3078    1.0000 </r>
       <r>    3.3103    1.0000 </r>
       <r>    3.3572    1.0000 </r>
       <r>    3.3737    1.0000 </r>
       <r>    3.3960    1.0000 </r>
       <r>    3.4444    1.0000 </r>
       <r>    3.4702    1.0000 </r>
       <r>    3.4861    1.0000 </r>
       <r>    3.6613    1.0000 </r>
       <r>    3.7074    1.0000 </r>
       <r>    3.7858    1.0000 </r>
       <r>    3.9134    1.0000 </r>
       <r>    3.9371    1.0000 </r>
       <r>    4.0411    1.0000 </r>
       <r>    4.0480    1.0000 </r>
       <r>    4.0822    1.0000 </r>
       <r>    4.0945    1.0000 </r>
       <r>    4.1541    1.0000 </r>
       <r>    4.1616    1.0000 </r>
       <r>    4.2198    1.0000 </r>
       <r>    4.2403    1.0000 </r>
       <r>    4.3043    1.0000 </r>
       <r>    4.3370    1.0000 </r>
       <r>    4.4077    1.0000 </r>
       <r>    4.4463    1.0000 </r>
       <r>    4.4777    1.0000 </r>
       <r>    4.5146    1.0000 </r>
       <r>    4.5689    1.0000 </r>
       <r>    4.5898    1.0000 </r>
       <r>    4.6148    1.0000 </r>
       <r>    4.6387    1.0000 </r>
       <r>    4.6626    1.0000 </r>
       <r>    4.6774    1.0000 </r>
       <r>    4.7172    1.0000 </r>
       <r>    4.7327    1.0000 </r>
       <r>    4.7767    1.0000 </r>
       <r>    4.7977    1.0000 </r>
       <r>    4.8279    1.0000 </r>
       <r>    4.8946    1.0000 </r>
       <r>    4.9060    1.0000 </r>
       <r>    4.9514    1.0000 </r>
       <r>    4.9841    1.0000 </r>
       <r>    4.9982    1.0000 </r>
       <r>    5.0623    1.0000 </r>
       <r>    5.0728    1.0000 </r>
       <r>    5.1028    1.0000 </r>
       <r>    5.1353    1.0000 </r>
       <r>    5.1604    1.0000 </r>
       <r>    5.1948    1.0000 </r>
       <r>    5.2025    1.0000 </r>
       <r>    5.2124    1.0000 </r>
       <r>    5.2807    1.0000 </r>
       <r>    5.3142    1.0000 </r>
       <r>    5.3387    1.0000 </r>
       <r>    5.3497    1.0000 </r>
       <r>    5.3836    1.0000 </r>
       <r>    5.4237    1.0000 </r>
       <r>    5.4420    1.0000 </r>
       <r>    5.4816    1.0000 </r>
       <r>    5.5006    1.0000 </r>
       <r>    5.5300    1.0000 </r>
       <r>    5.5747    1.0000 </r>
       <r>    5.6281    1.0000 </r>
       <r>    5.6344    1.0000 </r>
       <r>    5.6610    1.0000 </r>
       <r>    5.7190    1.0000 </r>
       <r>    5.7669    1.0000 </r>
       <r>    5.7818    1.0000 </r>
       <r>    5.8246    1.0000 </r>
       <r>    5.8543    1.0000 </r>
       <r>    5.8821    1.0000 </r>
       <r>    5.9025    1.0000 </r>
       <r>    5.9832    1.0000 </r>
       <r>    6.0277    1.0000 </r>
       <r>    6.0881    1.0000 </r>
       <r>    6.1211    1.0000 </r>
       <r>    6.1584    1.0000 </r>
       <r>    6.2576    1.0000 </r>
       <r>    6.3065    1.0000 </r>
       <r>    6.3474    1.0000 </r>
       <r>    6.4015    1.0000 </r>
       <r>    6.4149    1.0000 </r>
       <r>    6.4565    1.0000 </r>
       <r>    6.4998    1.0000 </r>
       <r>    6.5396    1.0000 </r>
       <r>    6.5626    1.0000 </r>
       <r>    6.6241    1.0000 </r>
       <r>    6.6770    1.0000 </r>
       <r>    6.7148    1.0000 </r>
       <r>    6.7514    1.0000 </r>
       <r>    6.7877    1.0000 </r>
       <r>    6.8309    1.0000 </r>
       <r>    6.8629    1.0000 </r>
       <r>    6.9196    1.0000 </r>
       <r>    6.9590    1.0000 </r>
       <r>    6.9890    1.0000 </r>
       <r>    7.0524    1.0000 </r>
       <r>    7.0646    1.0000 </r>
       <r>    7.1185    1.0000 </r>
       <r>    7.1575    1.0000 </r>
       <r>    7.1877    1.0000 </r>
       <r>    7.2211    1.0000 </r>
       <r>    7.2288    1.0000 </r>
       <r>    7.2738    1.0000 </r>
       <r>    7.2895    1.0000 </r>
       <r>    7.3128    1.0000 </r>
       <r>    7.3507    1.0000 </r>
       <r>    7.3904    1.0000 </r>
       <r>    7.4225    1.0000 </r>
       <r>    7.4624    1.0000 </r>
       <r>    7.4819    1.0000 </r>
       <r>    7.4968    1.0000 </r>
       <r>    7.5280    1.0000 </r>
       <r>    7.5635    1.0000 </r>
       <r>    7.6340    1.0000 </r>
       <r>    7.6606    1.0000 </r>
       <r>    7.6716    1.0000 </r>
       <r>    7.7357    1.0000 </r>
       <r>    7.7643    1.0000 </r>
       <r>    7.8469    1.0000 </r>
       <r>    7.8781    1.0000 </r>
       <r>    7.9326    1.0000 </r>
       <r>    7.9874    1.0000 </r>
       <r>    8.0236    1.0000 </r>
       <r>    8.0456    1.0000 </r>
       <r>    8.0789    1.0000 </r>
       <r>    8.1133    1.0000 </r>
       <r>    8.1659    1.0000 </r>
       <r>    8.2619    1.0000 </r>
       <r>    8.2949    1.0000 </r>
       <r>    8.3200    1.0000 </r>
       <r>    8.3609    1.0000 </r>
       <r>    8.3927    1.0000 </r>
       <r>    8.4732    1.0000 </r>
       <r>    8.4939    1.0000 </r>
       <r>    8.5683    1.0000 </r>
       <r>    8.6438    1.0000 </r>
       <r>    8.6624    1.0000 </r>
       <r>    8.7297    1.0000 </r>
       <r>    8.7525    1.0000 </r>
       <r>    8.7813    1.0000 </r>
       <r>    8.8152    1.0000 </r>
       <r>    8.8417    1.0000 </r>
       <r>    8.9159    1.0002 </r>
       <r>    9.0095    1.0039 </r>
       <r>    9.0429    1.0084 </r>
       <r>    9.0818    1.0175 </r>
       <r>    9.0975    1.0221 </r>
       <r>    9.1271    1.0309 </r>
       <r>    9.2407    0.9473 </r>
       <r>    9.4175    0.1229 </r>
       <r>    9.4675   -0.0010 </r>
       <r>    9.5151   -0.0348 </r>
       <r>    9.5714   -0.0259 </r>
       <r>    9.6924   -0.0022 </r>
       <r>    9.7712   -0.0002 </r>
       <r>    9.9061   -0.0000 </r>
       <r>    9.9849   -0.0000 </r>
       <r>   10.0059   -0.0000 </r>
       <r>   10.0865   -0.0000 </r>
       <r>   10.2489   -0.0000 </r>
       <r>   10.3209   -0.0000 </r>
       <r>   10.3609   -0.0000 </r>
       <r>   11.6224   -0.0000 </r>
       <r>   11.7395   -0.0000 </r>
       <r>   11.7903   -0.0000 </r>
       <r>   11.8467   -0.0000 </r>
       <r>   12.3366   -0.0000 </r>
       <r>   12.4620   -0.0000 </r>
       <r>   13.5290    0.0000 </r>
       <r>   13.6316    0.0000 </r>
       <r>   13.7292    0.0000 </r>
       <r>   13.8236    0.0000 </r>
       <r>   14.4696    0.0000 </r>
       <r>   14.5327    0.0000 </r>
       <r>   14.5871    0.0000 </r>
       <r>   14.6461    0.0000 </r>
       <r>   14.6967    0.0000 </r>
       <r>   14.7571    0.0000 </r>
       <r>   15.2082    0.0000 </r>
       <r>   15.3205    0.0000 </r>
       <r>   15.8223    0.0000 </r>
       <r>   15.9506    0.0000 </r>
       <r>   16.7847    0.0000 </r>
       <r>   16.9187    0.0000 </r>
       <r>   16.9947    0.0000 </r>
       <r>   17.0612    0.0000 </r>
      </set>
      <set comment="kpoint 3">
       <r>    0.3082    1.0000 </r>
       <r>    1.2193    1.0000 </r>
       <r>    2.6365    1.0000 </r>
       <r>    2.6992    1.0000 </r>
       <r>    2.7316    1.0000 </r>
       <r>    2.7615    1.0000 </r>
       <r>    2.7960    1.0000 </r>
       <r>    2.8122    1.0000 </r>
       <r>    2.8332    1.0000 </r>
       <r>    2.8440    1.0000 </r>
       <r>    2.9394    1.0000 </r>
       <r>    3.0598    1.0000 </r>
       <r>    3.0734    1.0000 </r>
       <r>    3.1483    1.0000 </r>
       <r>    3.2253    1.0000 </r>
       <r>    3.2583    1.0000 </r>
       <r>    3.2755    1.0000 </r>
       <r>    3.2941    1.0000 </r>
       <r>    3.3036    1.0000 </r>
       <r>    3.3413    1.0000 </r>
       <r>    3.3723    1.0000 </r>
       <r>    3.3820    1.0000 </r>
       <r>    3.4512    1.0000 </r>
       <r>    3.4870    1.0000 </r>
       <r>    3.4970    1.0000 </r>
       <r>    3.5681    1.0000 </r>
       <r>    3.7143    1.0000 </r>
       <r>    3.7207    1.0000 </r>
       <r>    3.9619    1.0000 </r>
       <r>    3.9815    1.0000 </r>
       <r>    4.0779    1.0000 </r>
       <r>    4.0994    1.0000 </r>
       <r>    4.1119    1.0000 </r>
       <r>    4.1725    1.0000 </r>
       <r>    4.2096    1.0000 </r>
       <r>    4.2148    1.0000 </r>
       <r>    4.2501    1.0000 </r>
       <r>    4.2707    1.0000 </r>
       <r>    4.2857    1.0000 </r>
       <r>    4.3578    1.0000 </r>
       <r>    4.4544    1.0000 </r>
       <r>    4.4815    1.0000 </r>
       <r>    4.5058    1.0000 </r>
       <r>    4.5182    1.0000 </r>
       <r>    4.5287    1.0000 </r>
       <r>    4.5470    1.0000 </r>
       <r>    4.5765    1.0000 </r>
       <r>    4.6099    1.0000 </r>
       <r>    4.6779    1.0000 </r>
       <r>    4.6983    1.0000 </r>
       <r>    4.7134    1.0000 </r>
       <r>    4.7305    1.0000 </r>
       <r>    4.7433    1.0000 </r>
       <r>    4.7776    1.0000 </r>
       <r>    4.8034    1.0000 </r>
       <r>    4.8226    1.0000 </r>
       <r>    4.8480    1.0000 </r>
       <r>    4.8864    1.0000 </r>
       <r>    4.9105    1.0000 </r>
       <r>    4.9459    1.0000 </r>
       <r>    5.0065    1.0000 </r>
       <r>    5.0732    1.0000 </r>
       <r>    5.0916    1.0000 </r>
       <r>    5.1203    1.0000 </r>
       <r>    5.1698    1.0000 </r>
       <r>    5.2000    1.0000 </r>
       <r>    5.2219    1.0000 </r>
       <r>    5.2769    1.0000 </r>
       <r>    5.2899    1.0000 </r>
       <r>    5.3237    1.0000 </r>
       <r>    5.3557    1.0000 </r>
       <r>    5.3741    1.0000 </r>
       <r>    5.4354    1.0000 </r>
       <r>    5.4596    1.0000 </r>
       <r>    5.4946    1.0000 </r>
       <r>    5.5575    1.0000 </r>
       <r>    5.5930    1.0000 </r>
       <r>    5.6122    1.0000 </r>
       <r>    5.6339    1.0000 </r>
       <r>    5.6847    1.0000 </r>
       <r>    5.7039    1.0000 </r>
       <r>    5.7519    1.0000 </r>
       <r>    5.7785    1.0000 </r>
       <r>    5.8184    1.0000 </r>
       <r>    5.8364    1.0000 </r>
       <r>    5.8522    1.0000 </r>
       <r>    5.8991    1.0000 </r>
       <r>    5.9300    1.0000 </r>
       <r>    5.9858    1.0000 </r>
       <r>    6.0458    1.0000 </r>
       <r>    6.0618    1.0000 </r>
       <r>    6.1291    1.0000 </r>
       <r>    6.1438    1.0000 </r>
       <r>    6.1733    1.0000 </r>
       <r>    6.2552    1.0000 </r>
       <r>    6.3046    1.0000 </r>
       <r>    6.3464    1.0000 </r>
       <r>    6.3853    1.0000 </r>
       <r>    6.3997    1.0000 </r>
       <r>    6.4203    1.0000 </r>
       <r>    6.4736    1.0000 </r>
       <r>    6.4902    1.0000 </r>
       <r>    6.5141    1.0000 </r>
       <r>    6.5859    1.0000 </r>
       <r>    6.6228    1.0000 </r>
       <r>    6.6557    1.0000 </r>
       <r>    6.7016    1.0000 </r>
       <r>    6.7486    1.0000 </r>
       <r>    6.7874    1.0000 </r>
       <r>    6.8292    1.0000 </r>
       <r>    6.8678    1.0000 </r>
       <r>    6.8951    1.0000 </r>
       <r>    6.9611    1.0000 </r>
       <r>    7.0447    1.0000 </r>
       <r>    7.0650    1.0000 </r>
       <r>    7.1052    1.0000 </r>
       <r>    7.1237    1.0000 </r>
       <r>    7.1533    1.0000 </r>
       <r>    7.1990    1.0000 </r>
       <r>    7.2231    1.0000 </r>
       <r>    7.2370    1.0000 </r>
       <r>    7.2642    1.0000 </r>
       <r>    7.2895    1.0000 </r>
       <r>    7.3448    1.0000 </r>
       <r>    7.3628    1.0000 </r>
       <r>    7.3859    1.0000 </r>
       <r>    7.4218    1.0000 </r>
       <r>    7.4397    1.0000 </r>
       <r>    7.4761    1.0000 </r>
       <r>    7.5069    1.0000 </r>
       <r>    7.5265    1.0000 </r>
       <r>    7.5599    1.0000 </r>
       <r>    7.6283    1.0000 </r>
       <r>    7.6510    1.0000 </r>
       <r>    7.6936    1.0000 </r>
       <r>    7.7491    1.0000 </r>
       <r>    7.8069    1.0000 </r>
       <r>    7.8545    1.0000 </r>
       <r>    7.9204    1.0000 </r>
       <r>    7.9343    1.0000 </r>
       <r>    8.0175    1.0000 </r>
       <r>    8.0557    1.0000 </r>
       <r>    8.0825    1.0000 </r>
       <r>    8.1559    1.0000 </r>
       <r>    8.2207    1.0000 </r>
       <r>    8.2578    1.0000 </r>
       <r>    8.3036    1.0000 </r>
       <r>    8.3285    1.0000 </r>
       <r>    8.3607    1.0000 </r>
       <r>    8.3926    1.0000 </r>
       <r>    8.4748    1.0000 </r>
       <r>    8.5199    1.0000 </r>
       <r>    8.5331    1.0000 </r>
       <r>    8.6083    1.0000 </r>
       <r>    8.6594    1.0000 </r>
       <r>    8.6869    1.0000 </r>
       <r>    8.7427    1.0000 </r>
       <r>    8.7947    1.0000 </r>
       <r>    8.8114    1.0000 </r>
       <r>    8.8228    1.0000 </r>
       <r>    8.8887    1.0001 </r>
       <r>    8.9271    1.0003 </r>
       <r>    9.0147    1.0044 </r>
       <r>    9.0651    1.0131 </r>
       <r>    9.0730    1.0151 </r>
       <r>    9.1422    1.0342 </r>
       <r>    9.2610    0.8862 </r>
       <r>    9.3333    0.5407 </r>
       <r>    9.4299    0.0819 </r>
       <r>    9.4669   -0.0001 </r>
       <r>    9.5353   -0.0347 </r>
       <r>    9.6332   -0.0093 </r>
       <r>    9.8866   -0.0000 </r>
       <r>    9.9900   -0.0000 </r>
       <r>    9.9972   -0.0000 </r>
       <r>   10.1606   -0.0000 </r>
       <r>   10.2314   -0.0000 </r>
       <r>   10.3649   -0.0000 </r>
       <r>   10.6189   -0.0000 </r>
       <r>   10.6645   -0.0000 </r>
       <r>   11.3952   -0.0000 </r>
       <r>   11.5563   -0.0000 </r>
       <r>   11.6757   -0.0000 </r>
       <r>   11.7620   -0.0000 </r>
       <r>   12.3282   -0.0000 </r>
       <r>   12.6213   -0.0000 </r>
       <r>   13.2350   -0.0000 </r>
       <r>   13.3778   -0.0000 </r>
       <r>   13.5095    0.0000 </r>
       <r>   13.6175    0.0000 </r>
       <r>   14.3784    0.0000 </r>
       <r>   14.4070    0.0000 </r>
       <r>   14.5188    0.0000 </r>
       <r>   14.5606    0.0000 </r>
       <r>   14.6479    0.0000 </r>
       <r>   14.7234    0.0000 </r>
       <r>   15.4740    0.0000 </r>
       <r>   15.6582    0.0000 </r>
       <r>   16.0327    0.0000 </r>
       <r>   16.3778    0.0000 </r>
       <r>   16.5257    0.0000 </r>
       <r>   16.6590    0.0000 </r>
       <r>   16.7437    0.0000 </r>
       <r>   16.7938    0.0000 </r>
      </set>
      <set comment="kpoint 4">
       <r>    0.6410    1.0000 </r>
       <r>    1.4859    1.0000 </r>
       <r>    1.5518    1.0000 </r>
       <r>    2.3062    1.0000 </r>
       <r>    2.7363    1.0000 </r>
       <r>    2.7885    1.0000 </r>
       <r>    2.8032    1.0000 </r>
       <r>    2.8634    1.0000 </r>
       <r>    2.9483    1.0000 </r>
       <r>    2.9688    1.0000 </r>
       <r>    3.0302    1.0000 </r>
       <r>    3.0816    1.0000 </r>
       <r>    3.1377    1.0000 </r>
       <r>    3.1670    1.0000 </r>
       <r>    3.1852    1.0000 </r>
       <r>    3.2205    1.0000 </r>
       <r>    3.2943    1.0000 </r>
       <r>    3.3226    1.0000 </r>
       <r>    3.3864    1.0000 </r>
       <r>    3.4981    1.0000 </r>
       <r>    3.5399    1.0000 </r>
       <r>    3.5745    1.0000 </r>
       <r>    3.5824    1.0000 </r>
       <r>    3.6463    1.0000 </r>
       <r>    3.6710    1.0000 </r>
       <r>    3.7122    1.0000 </r>
       <r>    3.7405    1.0000 </r>
       <r>    3.7718    1.0000 </r>
       <r>    3.7928    1.0000 </r>
       <r>    3.8440    1.0000 </r>
       <r>    3.8716    1.0000 </r>
       <r>    3.8916    1.0000 </r>
       <r>    3.9694    1.0000 </r>
       <r>    3.9888    1.0000 </r>
       <r>    4.0133    1.0000 </r>
       <r>    4.0776    1.0000 </r>
       <r>    4.1236    1.0000 </r>
       <r>    4.1611    1.0000 </r>
       <r>    4.2093    1.0000 </r>
       <r>    4.2550    1.0000 </r>
       <r>    4.2740    1.0000 </r>
       <r>    4.2951    1.0000 </r>
       <r>    4.3411    1.0000 </r>
       <r>    4.3764    1.0000 </r>
       <r>    4.4141    1.0000 </r>
       <r>    4.4544    1.0000 </r>
       <r>    4.5431    1.0000 </r>
       <r>    4.5876    1.0000 </r>
       <r>    4.6784    1.0000 </r>
       <r>    4.7060    1.0000 </r>
       <r>    4.7324    1.0000 </r>
       <r>    4.7740    1.0000 </r>
       <r>    4.8132    1.0000 </r>
       <r>    4.8904    1.0000 </r>
       <r>    4.9210    1.0000 </r>
       <r>    4.9616    1.0000 </r>
       <r>    4.9922    1.0000 </r>
       <r>    5.0316    1.0000 </r>
       <r>    5.0691    1.0000 </r>
       <r>    5.0946    1.0000 </r>
       <r>    5.1150    1.0000 </r>
       <r>    5.1556    1.0000 </r>
       <r>    5.1965    1.0000 </r>
       <r>    5.1992    1.0000 </r>
       <r>    5.2342    1.0000 </r>
       <r>    5.2879    1.0000 </r>
       <r>    5.3302    1.0000 </r>
       <r>    5.3640    1.0000 </r>
       <r>    5.3917    1.0000 </r>
       <r>    5.4566    1.0000 </r>
       <r>    5.4716    1.0000 </r>
       <r>    5.4847    1.0000 </r>
       <r>    5.5081    1.0000 </r>
       <r>    5.5257    1.0000 </r>
       <r>    5.5637    1.0000 </r>
       <r>    5.5903    1.0000 </r>
       <r>    5.6301    1.0000 </r>
       <r>    5.6493    1.0000 </r>
       <r>    5.6982    1.0000 </r>
       <r>    5.7362    1.0000 </r>
       <r>    5.7726    1.0000 </r>
       <r>    5.7859    1.0000 </r>
       <r>    5.8121    1.0000 </r>
       <r>    5.8472    1.0000 </r>
       <r>    5.8652    1.0000 </r>
       <r>    5.8869    1.0000 </r>
       <r>    5.9230    1.0000 </r>
       <r>    5.9622    1.0000 </r>
       <r>    5.9814    1.0000 </r>
       <r>    6.0258    1.0000 </r>
       <r>    6.0634    1.0000 </r>
       <r>    6.0803    1.0000 </r>
       <r>    6.1138    1.0000 </r>
       <r>    6.1615    1.0000 </r>
       <r>    6.1896    1.0000 </r>
       <r>    6.2145    1.0000 </r>
       <r>    6.2312    1.0000 </r>
       <r>    6.2873    1.0000 </r>
       <r>    6.3290    1.0000 </r>
       <r>    6.3480    1.0000 </r>
       <r>    6.3788    1.0000 </r>
       <r>    6.3921    1.0000 </r>
       <r>    6.4124    1.0000 </r>
       <r>    6.4826    1.0000 </r>
       <r>    6.4927    1.0000 </r>
       <r>    6.5168    1.0000 </r>
       <r>    6.5442    1.0000 </r>
       <r>    6.5707    1.0000 </r>
       <r>    6.6173    1.0000 </r>
       <r>    6.6605    1.0000 </r>
       <r>    6.6954    1.0000 </r>
       <r>    6.7327    1.0000 </r>
       <r>    6.7932    1.0000 </r>
       <r>    6.8498    1.0000 </r>
       <r>    6.9050    1.0000 </r>
       <r>    7.0291    1.0000 </r>
       <r>    7.1160    1.0000 </r>
       <r>    7.1400    1.0000 </r>
       <r>    7.1517    1.0000 </r>
       <r>    7.1889    1.0000 </r>
       <r>    7.2343    1.0000 </r>
       <r>    7.2878    1.0000 </r>
       <r>    7.3417    1.0000 </r>
       <r>    7.3953    1.0000 </r>
       <r>    7.4468    1.0000 </r>
       <r>    7.4710    1.0000 </r>
       <r>    7.5378    1.0000 </r>
       <r>    7.5707    1.0000 </r>
       <r>    7.6142    1.0000 </r>
       <r>    7.6415    1.0000 </r>
       <r>    7.6726    1.0000 </r>
       <r>    7.7310    1.0000 </r>
       <r>    7.7613    1.0000 </r>
       <r>    7.7854    1.0000 </r>
       <r>    7.8082    1.0000 </r>
       <r>    7.8576    1.0000 </r>
       <r>    7.9167    1.0000 </r>
       <r>    7.9743    1.0000 </r>
       <r>    8.0247    1.0000 </r>
       <r>    8.0483    1.0000 </r>
       <r>    8.0973    1.0000 </r>
       <r>    8.1131    1.0000 </r>
       <r>    8.1335    1.0000 </r>
       <r>    8.1803    1.0000 </r>
       <r>    8.2422    1.0000 </r>
       <r>    8.2684    1.0000 </r>
       <r>    8.3092    1.0000 </r>
       <r>    8.3266    1.0000 </r>
       <r>    8.3595    1.0000 </r>
       <r>    8.4278    1.0000 </r>
       <r>    8.4441    1.0000 </r>
       <r>    8.4918    1.0000 </r>
       <r>    8.5237    1.0000 </r>
       <r>    8.5828    1.0000 </r>
       <r>    8.6258    1.0000 </r>
       <r>    8.6695    1.0000 </r>
       <r>    8.7078    1.0000 </r>
       <r>    8.7468    1.0000 </r>
       <r>    8.7779    1.0000 </r>
       <r>    8.7938    1.0000 </r>
       <r>    8.8520    1.0000 </r>
       <r>    8.9256    1.0003 </r>
       <r>    8.9521    1.0008 </r>
       <r>    8.9873    1.0022 </r>
       <r>    9.0596    1.0118 </r>
       <r>    9.1084    1.0255 </r>
       <r>    9.2130    1.0018 </r>
       <r>    9.2232    0.9854 </r>
       <r>    9.2650    0.8721 </r>
       <r>    9.2952    0.7435 </r>
       <r>    9.3565    0.4106 </r>
       <r>    9.4409    0.0513 </r>
       <r>    9.5104   -0.0340 </r>
       <r>    9.5597   -0.0293 </r>
       <r>   10.3611   -0.0000 </r>
       <r>   10.6267   -0.0000 </r>
       <r>   10.8140   -0.0000 </r>
       <r>   11.0067   -0.0000 </r>
       <r>   11.4988   -0.0000 </r>
       <r>   11.5908   -0.0000 </r>
       <r>   11.6348   -0.0000 </r>
       <r>   11.7837   -0.0000 </r>
       <r>   11.9588   -0.0000 </r>
       <r>   12.0249   -0.0000 </r>
       <r>   12.4030   -0.0000 </r>
       <r>   12.6262   -0.0000 </r>
       <r>   12.9738   -0.0000 </r>
       <r>   13.3662   -0.0000 </r>
       <r>   13.4434    0.0000 </r>
       <r>   13.6006    0.0000 </r>
       <r>   13.7400    0.0000 </r>
       <r>   13.8997    0.0000 </r>
       <r>   14.3196    0.0000 </r>
       <r>   14.4713    0.0000 </r>
       <r>   14.5572    0.0000 </r>
       <r>   14.6210    0.0000 </r>
       <r>   15.0350    0.0000 </r>
       <r>   15.1224    0.0000 </r>
       <r>   15.2054    0.0000 </r>
       <r>   15.3105    0.0000 </r>
       <r>   15.3787    0.0000 </r>
       <r>   15.5536    0.0000 </r>
       <r>   15.6287    0.0000 </r>
       <r>   16.3723    0.0000 </r>
      </set>
      <set comment="kpoint 5">
       <r>    0.6294    1.0000 </r>
       <r>    1.5124    1.0000 </r>
       <r>    1.5672    1.0000 </r>
       <r>    2.2572    1.0000 </r>
       <r>    2.7148    1.0000 </r>
       <r>    2.7286    1.0000 </r>
       <r>    2.7950    1.0000 </r>
       <r>    2.8727    1.0000 </r>
       <r>    2.9710    1.0000 </r>
       <r>    3.0155    1.0000 </r>
       <r>    3.0551    1.0000 </r>
       <r>    3.0837    1.0000 </r>
       <r>    3.1242    1.0000 </r>
       <r>    3.1318    1.0000 </r>
       <r>    3.1933    1.0000 </r>
       <r>    3.2036    1.0000 </r>
       <r>    3.2741    1.0000 </r>
       <r>    3.3293    1.0000 </r>
       <r>    3.3984    1.0000 </r>
       <r>    3.5056    1.0000 </r>
       <r>    3.5628    1.0000 </r>
       <r>    3.6142    1.0000 </r>
       <r>    3.6536    1.0000 </r>
       <r>    3.6864    1.0000 </r>
       <r>    3.7096    1.0000 </r>
       <r>    3.7386    1.0000 </r>
       <r>    3.7723    1.0000 </r>
       <r>    3.7837    1.0000 </r>
       <r>    3.8073    1.0000 </r>
       <r>    3.8176    1.0000 </r>
       <r>    3.8435    1.0000 </r>
       <r>    3.8719    1.0000 </r>
       <r>    3.8992    1.0000 </r>
       <r>    3.9760    1.0000 </r>
       <r>    3.9956    1.0000 </r>
       <r>    4.0517    1.0000 </r>
       <r>    4.1030    1.0000 </r>
       <r>    4.1398    1.0000 </r>
       <r>    4.1668    1.0000 </r>
       <r>    4.1974    1.0000 </r>
       <r>    4.2355    1.0000 </r>
       <r>    4.2859    1.0000 </r>
       <r>    4.3114    1.0000 </r>
       <r>    4.4325    1.0000 </r>
       <r>    4.4595    1.0000 </r>
       <r>    4.5417    1.0000 </r>
       <r>    4.5604    1.0000 </r>
       <r>    4.5990    1.0000 </r>
       <r>    4.7018    1.0000 </r>
       <r>    4.7570    1.0000 </r>
       <r>    4.7632    1.0000 </r>
       <r>    4.7807    1.0000 </r>
       <r>    4.8614    1.0000 </r>
       <r>    4.8699    1.0000 </r>
       <r>    4.9261    1.0000 </r>
       <r>    4.9838    1.0000 </r>
       <r>    5.0078    1.0000 </r>
       <r>    5.0438    1.0000 </r>
       <r>    5.0554    1.0000 </r>
       <r>    5.0921    1.0000 </r>
       <r>    5.1052    1.0000 </r>
       <r>    5.1420    1.0000 </r>
       <r>    5.1896    1.0000 </r>
       <r>    5.1971    1.0000 </r>
       <r>    5.2329    1.0000 </r>
       <r>    5.2492    1.0000 </r>
       <r>    5.3036    1.0000 </r>
       <r>    5.3274    1.0000 </r>
       <r>    5.3857    1.0000 </r>
       <r>    5.4076    1.0000 </r>
       <r>    5.4238    1.0000 </r>
       <r>    5.4522    1.0000 </r>
       <r>    5.4875    1.0000 </r>
       <r>    5.5053    1.0000 </r>
       <r>    5.5423    1.0000 </r>
       <r>    5.5975    1.0000 </r>
       <r>    5.6080    1.0000 </r>
       <r>    5.6468    1.0000 </r>
       <r>    5.6720    1.0000 </r>
       <r>    5.7095    1.0000 </r>
       <r>    5.7656    1.0000 </r>
       <r>    5.7807    1.0000 </r>
       <r>    5.7925    1.0000 </r>
       <r>    5.8316    1.0000 </r>
       <r>    5.8848    1.0000 </r>
       <r>    5.9081    1.0000 </r>
       <r>    5.9271    1.0000 </r>
       <r>    5.9595    1.0000 </r>
       <r>    5.9957    1.0000 </r>
       <r>    6.0278    1.0000 </r>
       <r>    6.0792    1.0000 </r>
       <r>    6.1064    1.0000 </r>
       <r>    6.1175    1.0000 </r>
       <r>    6.1544    1.0000 </r>
       <r>    6.1838    1.0000 </r>
       <r>    6.2181    1.0000 </r>
       <r>    6.2396    1.0000 </r>
       <r>    6.3089    1.0000 </r>
       <r>    6.3469    1.0000 </r>
       <r>    6.3647    1.0000 </r>
       <r>    6.3928    1.0000 </r>
       <r>    6.4440    1.0000 </r>
       <r>    6.4509    1.0000 </r>
       <r>    6.4667    1.0000 </r>
       <r>    6.4830    1.0000 </r>
       <r>    6.5507    1.0000 </r>
       <r>    6.5622    1.0000 </r>
       <r>    6.6056    1.0000 </r>
       <r>    6.6438    1.0000 </r>
       <r>    6.6651    1.0000 </r>
       <r>    6.7201    1.0000 </r>
       <r>    6.7471    1.0000 </r>
       <r>    6.7984    1.0000 </r>
       <r>    6.8383    1.0000 </r>
       <r>    6.8763    1.0000 </r>
       <r>    6.9689    1.0000 </r>
       <r>    7.0541    1.0000 </r>
       <r>    7.1065    1.0000 </r>
       <r>    7.1416    1.0000 </r>
       <r>    7.1838    1.0000 </r>
       <r>    7.2759    1.0000 </r>
       <r>    7.3122    1.0000 </r>
       <r>    7.3570    1.0000 </r>
       <r>    7.4158    1.0000 </r>
       <r>    7.4275    1.0000 </r>
       <r>    7.4791    1.0000 </r>
       <r>    7.5022    1.0000 </r>
       <r>    7.5328    1.0000 </r>
       <r>    7.5786    1.0000 </r>
       <r>    7.6365    1.0000 </r>
       <r>    7.6801    1.0000 </r>
       <r>    7.7199    1.0000 </r>
       <r>    7.7433    1.0000 </r>
       <r>    7.7864    1.0000 </r>
       <r>    7.8390    1.0000 </r>
       <r>    7.8944    1.0000 </r>
       <r>    7.9182    1.0000 </r>
       <r>    7.9616    1.0000 </r>
       <r>    8.0064    1.0000 </r>
       <r>    8.0564    1.0000 </r>
       <r>    8.1094    1.0000 </r>
       <r>    8.1111    1.0000 </r>
       <r>    8.1337    1.0000 </r>
       <r>    8.1873    1.0000 </r>
       <r>    8.2300    1.0000 </r>
       <r>    8.2486    1.0000 </r>
       <r>    8.3000    1.0000 </r>
       <r>    8.3705    1.0000 </r>
       <r>    8.4076    1.0000 </r>
       <r>    8.4230    1.0000 </r>
       <r>    8.4505    1.0000 </r>
       <r>    8.5045    1.0000 </r>
       <r>    8.5547    1.0000 </r>
       <r>    8.5806    1.0000 </r>
       <r>    8.6167    1.0000 </r>
       <r>    8.6400    1.0000 </r>
       <r>    8.6960    1.0000 </r>
       <r>    8.7369    1.0000 </r>
       <r>    8.7681    1.0000 </r>
       <r>    8.8146    1.0000 </r>
       <r>    8.8521    1.0000 </r>
       <r>    8.8738    1.0000 </r>
       <r>    8.9613    1.0010 </r>
       <r>    8.9888    1.0022 </r>
       <r>    9.0644    1.0129 </r>
       <r>    9.1413    1.0340 </r>
       <r>    9.1690    1.0343 </r>
       <r>    9.2182    0.9940 </r>
       <r>    9.2695    0.8553 </r>
       <r>    9.3080    0.6791 </r>
       <r>    9.3590    0.3968 </r>
       <r>    9.4359    0.0647 </r>
       <r>    9.4718   -0.0069 </r>
       <r>    9.4861   -0.0218 </r>
       <r>   10.4313   -0.0000 </r>
       <r>   10.6323   -0.0000 </r>
       <r>   10.8772   -0.0000 </r>
       <r>   11.1262   -0.0000 </r>
       <r>   11.5195   -0.0000 </r>
       <r>   11.5639   -0.0000 </r>
       <r>   11.6487   -0.0000 </r>
       <r>   11.7851   -0.0000 </r>
       <r>   11.9710   -0.0000 </r>
       <r>   12.0204   -0.0000 </r>
       <r>   12.3492   -0.0000 </r>
       <r>   12.4903   -0.0000 </r>
       <r>   12.8802   -0.0000 </r>
       <r>   13.3286   -0.0000 </r>
       <r>   13.5208    0.0000 </r>
       <r>   13.6154    0.0000 </r>
       <r>   13.8176    0.0000 </r>
       <r>   14.0126    0.0000 </r>
       <r>   14.4319    0.0000 </r>
       <r>   14.5211    0.0000 </r>
       <r>   14.5848    0.0000 </r>
       <r>   14.6180    0.0000 </r>
       <r>   14.9210    0.0000 </r>
       <r>   15.0823    0.0000 </r>
       <r>   15.1992    0.0000 </r>
       <r>   15.2962    0.0000 </r>
       <r>   15.3930    0.0000 </r>
       <r>   15.4697    0.0000 </r>
       <r>   15.5618    0.0000 </r>
       <r>   16.2443    0.0000 </r>
      </set>
      <set comment="kpoint 6">
       <r>    0.3140    1.0000 </r>
       <r>    1.2409    1.0000 </r>
       <r>    2.6030    1.0000 </r>
       <r>    2.6710    1.0000 </r>
       <r>    2.7328    1.0000 </r>
       <r>    2.7624    1.0000 </r>
       <r>    2.7984    1.0000 </r>
       <r>    2.8163    1.0000 </r>
       <r>    2.8335    1.0000 </r>
       <r>    2.8461    1.0000 </r>
       <r>    2.9661    1.0000 </r>
       <r>    3.0616    1.0000 </r>
       <r>    3.0895    1.0000 </r>
       <r>    3.1582    1.0000 </r>
       <r>    3.2171    1.0000 </r>
       <r>    3.2408    1.0000 </r>
       <r>    3.2899    1.0000 </r>
       <r>    3.3135    1.0000 </r>
       <r>    3.3293    1.0000 </r>
       <r>    3.3360    1.0000 </r>
       <r>    3.3706    1.0000 </r>
       <r>    3.3796    1.0000 </r>
       <r>    3.4408    1.0000 </r>
       <r>    3.4633    1.0000 </r>
       <r>    3.5009    1.0000 </r>
       <r>    3.5901    1.0000 </r>
       <r>    3.7140    1.0000 </r>
       <r>    3.7424    1.0000 </r>
       <r>    3.9429    1.0000 </r>
       <r>    3.9911    1.0000 </r>
       <r>    4.0427    1.0000 </r>
       <r>    4.0567    1.0000 </r>
       <r>    4.1256    1.0000 </r>
       <r>    4.1375    1.0000 </r>
       <r>    4.1707    1.0000 </r>
       <r>    4.2034    1.0000 </r>
       <r>    4.2429    1.0000 </r>
       <r>    4.2601    1.0000 </r>
       <r>    4.3072    1.0000 </r>
       <r>    4.4137    1.0000 </r>
       <r>    4.4276    1.0000 </r>
       <r>    4.4609    1.0000 </r>
       <r>    4.4838    1.0000 </r>
       <r>    4.5069    1.0000 </r>
       <r>    4.5576    1.0000 </r>
       <r>    4.5614    1.0000 </r>
       <r>    4.5886    1.0000 </r>
       <r>    4.6231    1.0000 </r>
       <r>    4.6605    1.0000 </r>
       <r>    4.7068    1.0000 </r>
       <r>    4.7364    1.0000 </r>
       <r>    4.7558    1.0000 </r>
       <r>    4.7829    1.0000 </r>
       <r>    4.7998    1.0000 </r>
       <r>    4.8119    1.0000 </r>
       <r>    4.8180    1.0000 </r>
       <r>    4.8590    1.0000 </r>
       <r>    4.8816    1.0000 </r>
       <r>    4.8908    1.0000 </r>
       <r>    4.9527    1.0000 </r>
       <r>    4.9892    1.0000 </r>
       <r>    5.0702    1.0000 </r>
       <r>    5.1175    1.0000 </r>
       <r>    5.1547    1.0000 </r>
       <r>    5.1846    1.0000 </r>
       <r>    5.2036    1.0000 </r>
       <r>    5.2255    1.0000 </r>
       <r>    5.2457    1.0000 </r>
       <r>    5.2887    1.0000 </r>
       <r>    5.3083    1.0000 </r>
       <r>    5.3566    1.0000 </r>
       <r>    5.3933    1.0000 </r>
       <r>    5.4066    1.0000 </r>
       <r>    5.4258    1.0000 </r>
       <r>    5.4672    1.0000 </r>
       <r>    5.5254    1.0000 </r>
       <r>    5.5609    1.0000 </r>
       <r>    5.5794    1.0000 </r>
       <r>    5.6227    1.0000 </r>
       <r>    5.6845    1.0000 </r>
       <r>    5.7009    1.0000 </r>
       <r>    5.7260    1.0000 </r>
       <r>    5.7604    1.0000 </r>
       <r>    5.7852    1.0000 </r>
       <r>    5.8121    1.0000 </r>
       <r>    5.8348    1.0000 </r>
       <r>    5.8493    1.0000 </r>
[...]
       <r>    8.4891    1.0000 </r>
       <r>    8.5307    1.0000 </r>
       <r>    8.5966    1.0000 </r>
       <r>    8.6353    1.0000 </r>
       <r>    8.6967    1.0000 </r>
       <r>    8.7253    1.0000 </r>
       <r>    8.7584    1.0000 </r>
       <r>    8.7762    1.0000 </r>
       <r>    8.8262    1.0000 </r>
       <r>    8.8548    1.0000 </r>
       <r>    8.8835    1.0001 </r>
       <r>    8.9278    1.0003 </r>
       <r>    8.9673    1.0012 </r>
       <r>    8.9997    1.0030 </r>
       <r>    9.0547    1.0107 </r>
       <r>    9.0730    1.0151 </r>
       <r>    9.1342    1.0326 </r>
       <r>    9.1856    1.0282 </r>
       <r>    9.2081    1.0083 </r>
       <r>    9.2765    0.8274 </r>
       <r>    9.5771   -0.0241 </r>
       <r>    9.6327   -0.0094 </r>
       <r>    9.6680   -0.0042 </r>
       <r>   10.5167   -0.0000 </r>
       <r>   10.5496   -0.0000 </r>
       <r>   10.6177   -0.0000 </r>
       <r>   10.6692   -0.0000 </r>
       <r>   10.7506   -0.0000 </r>
       <r>   10.8261   -0.0000 </r>
       <r>   11.0459   -0.0000 </r>
       <r>   11.1458   -0.0000 </r>
       <r>   11.2039   -0.0000 </r>
       <r>   11.5710   -0.0000 </r>
       <r>   11.6368   -0.0000 </r>
       <r>   11.7716   -0.0000 </r>
       <r>   12.6591   -0.0000 </r>
       <r>   12.7924   -0.0000 </r>
       <r>   12.8792   -0.0000 </r>
       <r>   12.9101   -0.0000 </r>
       <r>   13.0344   -0.0000 </r>
       <r>   13.1089   -0.0000 </r>
       <r>   13.1635   -0.0000 </r>
       <r>   13.3778   -0.0000 </r>
       <r>   13.5047    0.0000 </r>
       <r>   13.8918    0.0000 </r>
       <r>   13.9967    0.0000 </r>
       <r>   14.2947    0.0000 </r>
       <r>   14.4127    0.0000 </r>
       <r>   14.7109    0.0000 </r>
       <r>   14.7327    0.0000 </r>
       <r>   15.2120    0.0000 </r>
       <r>   15.2698    0.0000 </r>
       <r>   15.3811    0.0000 </r>
       <r>   15.4274    0.0000 </r>
       <r>   15.5147    0.0000 </r>
       <r>   15.5715    0.0000 </r>
      </set>
     </set>
    </set>
   </array>
  </eigenvalues>
  <separator name="orbital magnetization" >
   <v name="MAGDIPOLOUT">      0.00000000      0.00000000      0.00000000</v>
  </separator>
  <dos>
   <i name="efermi">      9.34054047 </i>
   <total>
    <array>
     <dimension dim="1">gridpoints</dimension>
     <dimension dim="2">spin</dimension>
     <field>energy</field>
     <field>total</field>
     <field>integrated</field>
     <set>
      <set comment="spin 1">
       <r>    -1.5150     0.0000     0.0000 </r>
       <r>    -1.4481     0.0000     0.0000 </r>
       <r>    -1.3811     0.0000     0.0000 </r>
       <r>    -1.3142     0.0000     0.0000 </r>
       <r>    -1.2473    -0.0000    -0.0000 </r>
       <r>    -1.1804    -0.0000    -0.0000 </r>
       <r>    -1.1135    -0.0000    -0.0000 </r>
       <r>    -1.0465    -0.0000    -0.0000 </r>
       <r>    -0.9796    -0.0000    -0.0000 </r>
       <r>    -0.9127    -0.0000    -0.0000 </r>
       <r>    -0.8458    -0.0000    -0.0000 </r>
       <r>    -0.7789    -0.0000    -0.0000 </r>
       <r>    -0.7119    -0.0000    -0.0000 </r>
       <r>    -0.6450    -0.0000    -0.0000 </r>
       <r>    -0.5781    -0.0000    -0.0000 </r>
       <r>    -0.5112    -0.0000    -0.0000 </r>
       <r>    -0.4442    -0.0002    -0.0000 </r>
       <r>    -0.3773    -0.0016    -0.0001 </r>
       <r>    -0.3104    -0.0079    -0.0007 </r>
       <r>    -0.2435    -0.0197    -0.0020 </r>
       <r>    -0.1766    -0.0054    -0.0023 </r>
       <r>    -0.1096     0.1070     0.0048 </r>
       <r>    -0.0427     0.2989     0.0248 </r>
       <r>     0.0242     0.3550     0.0486 </r>
       <r>     0.0911     0.1566     0.0591 </r>
       <r>     0.1580     0.0677     0.0636 </r>
       <r>     0.2250     0.6878     0.1096 </r>
       <r>     0.2919     1.8537     0.2337 </r>
       <r>     0.3588     2.2703     0.3856 </r>
       <r>     0.4257     1.3476     0.4758 </r>
       <r>     0.4926     0.6587     0.5199 </r>
       <r>     0.5596     1.9426     0.6499 </r>
       <r>     0.6265     4.1649     0.9286 </r>
       <r>     0.6934     4.4191     1.2243 </r>
       <r>     0.7603     2.4649     1.3893 </r>
       <r>     0.8272     1.2761     1.4747 </r>
       <r>     0.8942     2.1521     1.6187 </r>
       <r>     0.9611     2.9912     1.8189 </r>
       <r>     1.0280     2.1124     1.9602 </r>
       <r>     1.0949     0.7571     2.0109 </r>
       <r>     1.1618     0.6787     2.0563 </r>
       <r>     1.2288     1.5321     2.1588 </r>
       <r>     1.2957     1.7978     2.2791 </r>
       <r>     1.3626     1.6184     2.3875 </r>
       <r>     1.4295     3.1721     2.5997 </r>
       <r>     1.4965     6.7117     3.0489 </r>
       <r>     1.5634     9.0089     3.6518 </r>
       <r>     1.6303     8.7674     4.2385 </r>
       <r>     1.6972     8.5595     4.8113 </r>
       <r>     1.7641     8.7042     5.3938 </r>
       <r>     1.8311     6.6423     5.8383 </r>
       <r>     1.8980     2.8242     6.0273 </r>
       <r>     1.9649     0.1103     6.0347 </r>
       <r>     2.0318    -0.8070     5.9807 </r>
       <r>     2.0987    -0.7737     5.9289 </r>
       <r>     2.1657     0.9420     5.9919 </r>
       <r>     2.2326     5.9401     6.3894 </r>
       <r>     2.2995    12.2605     7.2099 </r>
       <r>     2.3664    14.4763     8.1787 </r>
       <r>     2.4333    11.0815     8.9203 </r>
       <r>     2.5003     6.5132     9.3561 </r>
       <r>     2.5672     5.2129     9.7050 </r>
       <r>     2.6341     8.9709    10.3053 </r>
       <r>     2.7010    17.1461    11.4527 </r>
       <r>     2.7679    25.7741    13.1776 </r>
       <r>     2.8349    29.0835    15.1238 </r>
       <r>     2.9018    25.7595    16.8477 </r>
       <r>     2.9687    22.0537    18.3235 </r>
       <r>     3.0356    24.3673    19.9542 </r>
       <r>     3.1025    32.1861    22.1081 </r>
       <r>     3.1695    40.7939    24.8381 </r>
       <r>     3.2364    47.2741    28.0017 </r>
       <r>     3.3033    51.2954    31.4344 </r>
       <r>     3.3702    51.2768    34.8659 </r>
       <r>     3.4371    46.7502    37.9944 </r>
       <r>     3.5041    42.8740    40.8636 </r>
       <r>     3.5710    44.3279    43.8301 </r>
       <r>     3.6379    50.0846    47.1817 </r>
       <r>     3.7048    56.8205    50.9842 </r>
       <r>     3.7718    60.9022    55.0598 </r>
       <r>     3.8387    59.5368    59.0441 </r>
       <r>     3.9056    52.6390    62.5667 </r>
       <r>     3.9725    43.5025    65.4779 </r>
       <r>     4.0394    38.6013    68.0611 </r>
       <r>     4.1064    42.1601    70.8825 </r>
       <r>     4.1733    50.0645    74.2329 </r>
       <r>     4.2402    54.1063    77.8537 </r>
       <r>     4.3071    50.9184    81.2612 </r>
       <r>     4.3740    43.6863    84.1847 </r>
       <r>     4.4410    37.6098    86.7016 </r>
       <r>     4.5079    35.9903    89.1101 </r>
       <r>     4.5748    39.5169    91.7546 </r>
       <r>     4.6417    47.1609    94.9106 </r>
       <r>     4.7086    55.9160    98.6525 </r>
       <r>     4.7756    60.5021   102.7014 </r>
       <r>     4.8425    58.5486   106.6195 </r>
       <r>     4.9094    54.5004   110.2667 </r>
       <r>     4.9763    53.8536   113.8706 </r>
       <r>     5.0432    57.3020   117.7053 </r>
       <r>     5.1102    61.8174   121.8422 </r>
       <r>     5.1771    63.9813   126.1238 </r>
       <r>     5.2440    62.5755   130.3114 </r>
       <r>     5.3109    59.8618   134.3174 </r>
       <r>     5.3778    58.9189   138.2603 </r>
       <r>     5.4448    60.0592   142.2795 </r>
       <r>     5.5117    61.6792   146.4071 </r>
       <r>     5.5786    62.7947   150.6094 </r>
       <r>     5.6455    63.6424   154.8684 </r>
       <r>     5.7125    64.9946   159.2178 </r>
       <r>     5.7794    66.8471   163.6913 </r>
       <r>     5.8463    67.4898   168.2078 </r>
       <r>     5.9132    65.6696   172.6024 </r>
       <r>     5.9801    62.6825   176.7972 </r>
       <r>     6.0471    60.5242   180.8475 </r>
       <r>     6.1140    59.7308   184.8447 </r>
       <r>     6.1809    59.7676   188.8444 </r>
       <r>     6.2478    60.2355   192.8754 </r>
       <r>     6.3147    61.1645   196.9685 </r>
       <r>     6.3817    62.0821   201.1231 </r>
       <r>     6.4486    61.5309   205.2408 </r>
       <r>     6.5155    58.7428   209.1719 </r>
       <r>     6.5824    54.3195   212.8070 </r>
       <r>     6.6493    49.4860   216.1186 </r>
       <r>     6.7163    46.3219   219.2185 </r>
       <r>     6.7832    45.9589   222.2941 </r>
       <r>     6.8501    45.7504   225.3558 </r>
       <r>     6.9170    42.5845   228.2056 </r>
       <r>     6.9839    39.0037   230.8157 </r>
       <r>     7.0509    40.3309   233.5147 </r>
       <r>     7.1178    46.2561   236.6102 </r>
       <r>     7.1847    51.2179   240.0377 </r>
       <r>     7.2516    52.2615   243.5351 </r>
       <r>     7.3185    51.4886   246.9807 </r>
       <r>     7.3855    51.2273   250.4089 </r>
       <r>     7.4524    50.9694   253.8198 </r>
       <r>     7.5193    49.9017   257.1592 </r>
       <r>     7.5862    48.8053   260.4253 </r>
       <r>     7.6531    47.7171   263.6186 </r>
       <r>     7.7201    45.8082   266.6841 </r>
       <r>     7.7870    43.8455   269.6183 </r>
       <r>     7.8539    42.6867   272.4749 </r>
       <r>     7.9208    41.8506   275.2756 </r>
       <r>     7.9878    41.6712   278.0642 </r>
       <r>     8.0547    42.8405   280.9311 </r>
       <r>     8.1216    44.0504   283.8790 </r>
       <r>     8.1885    44.3313   286.8457 </r>
       <r>     8.2554    45.0767   289.8623 </r>
       <r>     8.3224    46.2631   292.9582 </r>
       <r>     8.3893    45.7270   296.0183 </r>
       <r>     8.4562    43.9175   298.9573 </r>
       <r>     8.5231    43.7060   301.8821 </r>
       <r>     8.5900    45.8549   304.9507 </r>
       <r>     8.6570    49.0399   308.2325 </r>
       <r>     8.7239    51.7828   311.6979 </r>
       <r>     8.7908    52.3976   315.2044 </r>
       <r>     8.8577    50.2777   318.5690 </r>
       <r>     8.9246    46.7766   321.6993 </r>
       <r>     8.9916    43.2780   324.5955 </r>
       <r>     9.0585    40.6577   327.3163 </r>
       <r>     9.1254    39.1577   329.9368 </r>
       <r>     9.1923    37.1340   332.4218 </r>
       <r>     9.2592    33.2761   334.6487 </r>
       <r>     9.3262    29.1973   336.6026 </r>
       <r>     9.3931    27.4435   338.4391 </r>
       <r>     9.4600    27.8337   340.3017 </r>
       <r>     9.5269    26.9204   342.1033 </r>
       <r>     9.5938    22.0768   343.5807 </r>
       <r>     9.6608    14.7062   344.5648 </r>
       <r>     9.7277     8.0727   345.1050 </r>
       <r>     9.7946     4.1555   345.3831 </r>
       <r>     9.8615     3.1312   345.5927 </r>
       <r>     9.9285     3.9688   345.8583 </r>
       <r>     9.9954     4.9922   346.1923 </r>
       <r>    10.0623     4.8394   346.5162 </r>
       <r>    10.1292     4.0486   346.7871 </r>
       <r>    10.1961     4.5860   347.0940 </r>
       <r>    10.2631     6.9512   347.5592 </r>
       <r>    10.3300     9.6500   348.2050 </r>
       <r>    10.3969    11.4621   348.9721 </r>
       <r>    10.4638    12.4684   349.8064 </r>
       <r>    10.5307    13.5482   350.7131 </r>
       <r>    10.5977    15.1590   351.7276 </r>
       <r>    10.6646    16.0280   352.8002 </r>
       <r>    10.7315    14.9951   353.8036 </r>
       <r>    10.7984    12.9665   354.6714 </r>
       <r>    10.8653    10.6508   355.3841 </r>
       <r>    10.9323     8.1653   355.9305 </r>
       <r>    10.9992     7.0426   356.4018 </r>
       <r>    11.0661     8.0693   356.9418 </r>
       <r>    11.1330     9.1545   357.5545 </r>
       <r>    11.1999     8.1299   358.0985 </r>
       <r>    11.2669     5.2300   358.4485 </r>
       <r>    11.3338     2.4863   358.6149 </r>
       <r>    11.4007     2.2534   358.7657 </r>
       <r>    11.4676     6.0973   359.1737 </r>
       <r>    11.5345    13.0910   360.0498 </r>
       <r>    11.6015    18.3184   361.2757 </r>
       <r>    11.6684    17.8109   362.4676 </r>
       <r>    11.7353    14.8086   363.4586 </r>
       <r>    11.8022    14.2025   364.4090 </r>
       <r>    11.8691    14.8934   365.4057 </r>
       <r>    11.9361    13.8331   366.3314 </r>
       <r>    12.0030    10.6259   367.0425 </r>
       <r>    12.0699     6.2280   367.4593 </r>
       <r>    12.1368     2.6023   367.6335 </r>
       <r>    12.2038     1.7101   367.7479 </r>
       <r>    12.2707     3.2926   367.9682 </r>
       <r>    12.3376     5.4028   368.3298 </r>
       <r>    12.4045     6.3820   368.7569 </r>
       <r>    12.4714     5.8292   369.1470 </r>
       <r>    12.5384     4.7911   369.4676 </r>
       <r>    12.6053     4.8263   369.7906 </r>
       <r>    12.6722     6.0101   370.1928 </r>
       <r>    12.7391     7.5862   370.7005 </r>
       <r>    12.8060     9.5283   371.3381 </r>
       <r>    12.8730    11.1966   372.0874 </r>
       <r>    12.9399    11.3900   372.8496 </r>
       <r>    13.0068    10.2925   373.5384 </r>
       <r>    13.0737     8.9572   374.1378 </r>
       <r>    13.1406     7.9223   374.6680 </r>
       <r>    13.2076     7.3813   375.1619 </r>
       <r>    13.2745     7.4821   375.6626 </r>
       <r>    13.3414     8.3307   376.2201 </r>
       <r>    13.4083    10.0215   376.8908 </r>
       <r>    13.4752    12.2973   377.7137 </r>
       <r>    13.5422    14.1746   378.6623 </r>
       <r>    13.6091    14.2478   379.6158 </r>
       <r>    13.6760    12.3265   380.4407 </r>
       <r>    13.7429    10.3921   381.1361 </r>
       <r>    13.8098    10.0417   381.8081 </r>
       <r>    13.8768    10.2529   382.4942 </r>
       <r>    13.9437     9.4954   383.1297 </r>
       <r>    14.0106     7.6373   383.6408 </r>
       <r>    14.0775     5.1994   383.9887 </r>
       <r>    14.1445     3.2045   384.2032 </r>
       <r>    14.2114     2.9347   384.3996 </r>
       <r>    14.2783     4.4774   384.6992 </r>
       <r>    14.3452     7.0810   385.1731 </r>
       <r>    14.4121    10.9134   385.9034 </r>
       <r>    14.4791    16.4102   387.0016 </r>
       <r>    14.5460    21.8307   388.4625 </r>
       <r>    14.6129    23.6333   390.0440 </r>
       <r>    14.6798    20.1401   391.3918 </r>
       <r>    14.7467    13.2058   392.2756 </r>
       <r>    14.8137     6.3066   392.6976 </r>
       <r>    14.8806     2.3246   392.8532 </r>
       <r>    14.9475     2.2464   393.0035 </r>
       <r>    15.0144     5.2099   393.3522 </r>
       <r>    15.0813     9.6129   393.9955 </r>
       <r>    15.1483    13.7022   394.9124 </r>
       <r>    15.2152    16.1557   395.9936 </r>
       <r>    15.2821    17.1571   397.1417 </r>
       <r>    15.3490    18.0136   398.3472 </r>
       <r>    15.4159    18.9640   399.6163 </r>
       <r>    15.4829    18.8052   400.8748 </r>
       <r>    15.5498    17.0548   402.0161 </r>
       <r>    15.6167    13.9402   402.9490 </r>
       <r>    15.6836     9.3372   403.5738 </r>
       <r>    15.7505     4.5155   403.8760 </r>
       <r>    15.8175     1.8220   403.9979 </r>
       <r>    15.8844     1.4832   404.0972 </r>
       <r>    15.9513     1.7808   404.2164 </r>
       <r>    16.0182     1.6166   404.3245 </r>
       <r>    16.0851     1.2665   404.4093 </r>
       <r>    16.1521     1.5631   404.5139 </r>
       <r>    16.2190     2.7545   404.6982 </r>
       <r>    16.2859     4.2336   404.9815 </r>
       <r>    16.3528     5.3019   405.3364 </r>
       <r>    16.4198     5.3451   405.6941 </r>
       <r>    16.4867     4.2476   405.9783 </r>
       <r>    16.5536     3.0426   406.1819 </r>
       <r>    16.6205     2.8487   406.3725 </r>
       <r>    16.6874     3.6304   406.6155 </r>
       <r>    16.7544     4.4697   406.9146 </r>
       <r>    16.8213     4.5858   407.2215 </r>
       <r>    16.8882     3.9752   407.4875 </r>
       <r>    16.9551     3.1282   407.6969 </r>
       <r>    17.0220     2.3344   407.8531 </r>
       <r>    17.0890     1.5270   407.9553 </r>
       <r>    17.1559     0.7029   408.0023 </r>
       <r>    17.2228     0.1231   408.0105 </r>
       <r>    17.2897    -0.0743   408.0056 </r>
       <r>    17.3566    -0.0594   408.0016 </r>
       <r>    17.4236    -0.0195   408.0003 </r>
       <r>    17.4905    -0.0037   408.0000 </r>
       <r>    17.5574    -0.0004   408.0000 </r>
       <r>    17.6243    -0.0000   408.0000 </r>
       <r>    17.6912    -0.0000   408.0000 </r>
       <r>    17.7582    -0.0000   408.0000 </r>
       <r>    17.8251    -0.0000   408.0000 </r>
       <r>    17.8920    -0.0000   408.0000 </r>
       <r>    17.9589    -0.0000   408.0000 </r>
       <r>    18.0258    -0.0000   408.0000 </r>
       <r>    18.0928     0.0000   408.0000 </r>
       <r>    18.1597     0.0000   408.0000 </r>
       <r>    18.2266     0.0000   408.0000 </r>
       <r>    18.2935     0.0000   408.0000 </r>
       <r>    18.3605     0.0000   408.0000 </r>
       <r>    18.4274     0.0000   408.0000 </r>
       <r>    18.4943     0.0000   408.0000 </r>
       <r>    18.5612     0.0000   408.0000 </r>
      </set>
     </set>
    </array>
   </total>
  </dos>
 </calculation>
 <structure name="finalpos" >
  <crystal>
   <varray name="basis" >
    <v>       7.99148909      -0.02287935       0.01414227 </v>
    <v>      -0.02234536       8.21270886      -0.03786157 </v>
    <v>       0.01381608      -0.03801478       8.14527336 </v>
   </varray>
   <i name="volume">    534.57148703 </i>
   <varray name="rec_basis" >
    <v>       0.12513447       0.00033950      -0.00021067 </v>
    <v>       0.00034761       0.12176607       0.00056770 </v>
    <v>      -0.00021565       0.00056541       0.12277359 </v>
   </varray>
  </crystal>
  <varray name="positions" >
   <v>       0.74907287       0.75275966       0.00170161 </v>
   <v>       0.99821855       0.99989362       0.99923322 </v>
   <v>       0.25154607       0.24898390       0.00062502 </v>
   <v>       0.25181899       0.99853362       0.24915179 </v>
   <v>       0.99935299       0.24794288       0.25129021 </v>
   <v>       0.00182136       0.24757795       0.75075454 </v>
   <v>       0.24947661       0.50087874       0.25010599 </v>
   <v>       0.00252011       0.50062495       0.49806429 </v>
   <v>       0.24925985       0.50112554       0.74912710 </v>
   <v>       0.00062381       0.75207526       0.74995243 </v>
   <v>       0.75084520       0.24853169       0.50016847 </v>
   <v>       0.50000560       0.24904525       0.74912315 </v>
   <v>       0.49986207       0.49998149       0.00246292 </v>
   <v>       0.49938540       0.75133643       0.25061448 </v>
   <v>       0.74844859       0.75089548       0.49825506 </v>
   <v>       0.74997547       0.49875036       0.75156738 </v>
   <v>       0.49731813       0.75200442       0.74777622 </v>
   <v>       0.00254483       0.99494001       0.50019370 </v>
   <v>       0.25468828       0.24389970       0.49859740 </v>
   <v>       0.25351997       0.99719419       0.74693988 </v>
   <v>       0.99682479       0.50392374       0.00667507 </v>
   <v>       0.24709027       0.75348834       0.00023315 </v>
   <v>       0.99781025       0.75096851       0.24986069 </v>
   <v>       0.24967674       0.75375558       0.49799645 </v>
   <v>       0.50311793       0.00339253       0.99900832 </v>
   <v>       0.74786155       0.24831507       0.00476488 </v>
   <v>       0.74698285       0.00145012       0.25229737 </v>
   <v>       0.50630141       0.24773283       0.25297373 </v>
   <v>       0.49897456       0.00187239       0.50024650 </v>
   <v>       0.74781418       0.00363421       0.74932078 </v>
   <v>       0.75050028       0.49785468       0.24811796 </v>
   <v>       0.49673945       0.49664187       0.49280225 </v>
  </varray>
 </structure>
</modeling>
