       N       E                     dE             d eps       ncg     rms          rms(c)
DAV:   1     0.183355154759E+04    0.18336E+04   -0.10921E+05  5328   0.105E+03
DAV:   2    -0.653847962172E+02   -0.18989E+04   -0.18251E+04  5312   0.368E+02
DAV:   3    -0.332413039449E+03   -0.26703E+03   -0.25360E+03  8512   0.107E+02
DAV:   4    -0.367166270856E+03   -0.34753E+02   -0.33202E+02  8296   0.323E+01
DAV:   5    -0.370811787406E+03   -0.36455E+01   -0.35585E+01  7800   0.103E+01    0.659E+01
RMM:   6    -0.360516214459E+03    0.10296E+02   -0.22674E+01  7028   0.951E+00    0.314E+01
RMM:   7    -0.361472040878E+03   -0.95583E+00   -0.25000E+01  7420   0.811E+00    0.104E+01
RMM:   8    -0.356450263441E+03    0.50218E+01   -0.58326E+00  7521   0.358E+00    0.383E+00
RMM:   9    -0.356270006081E+03    0.18026E+00   -0.22637E+00  7490   0.173E+00    0.273E+00
RMM:  10    -0.356251842404E+03    0.18164E-01   -0.47340E-01  7478   0.119E+00    0.153E+00
RMM:  11    -0.356223642225E+03    0.28200E-01   -0.16023E-01  7542   0.597E-01    0.748E-01
RMM:  12    -0.356220818378E+03    0.28238E-02   -0.68047E-02  7571   0.365E-01    0.398E-01
RMM:  13    -0.356220129883E+03    0.68849E-03   -0.24578E-02  7533   0.184E-01    0.227E-01
RMM:  14    -0.356220631166E+03   -0.50128E-03   -0.11148E-02  7656   0.111E-01    0.132E-01
RMM:  15    -0.356220981002E+03   -0.34984E-03   -0.54433E-03  7483   0.724E-02    0.692E-02
RMM:  16    -0.356221116988E+03   -0.13599E-03   -0.24215E-03  6590   0.433E-02    0.397E-02
RMM:  17    -0.356221155906E+03   -0.38918E-04   -0.10874E-03  5966   0.293E-02    0.187E-02
RMM:  18    -0.356221196304E+03   -0.40398E-04   -0.56471E-04  5942   0.223E-02    0.966E-03
RMM:  19    -0.356221215351E+03   -0.19048E-04   -0.23654E-04  4933   0.150E-02    0.614E-03
RMM:  20    -0.356221223860E+03   -0.85089E-05   -0.12784E-04  4457   0.118E-02    0.345E-03
RMM:  21    -0.356221226835E+03   -0.29750E-05   -0.55707E-05  4214   0.107E-02
   1 F= -.35622123E+03 E0= -.35622565E+03  d E =-.356221E+03
       N       E                     dE             d eps       ncg     rms          rms(c)
DAV:   1    -0.356222340740E+03   -0.11169E-02   -0.62152E-02  5520   0.746E-01    0.152E-01
RMM:   2    -0.356222375243E+03   -0.34503E-04   -0.30393E-03  7299   0.149E-01    0.545E-02
RMM:   3    -0.356222341879E+03    0.33364E-04   -0.44343E-04  7236   0.463E-02    0.375E-02
RMM:   4    -0.356222305778E+03    0.36101E-04   -0.12264E-04  6454   0.202E-02    0.219E-02
RMM:   5    -0.356222300707E+03    0.50706E-05   -0.41067E-05  3881   0.114E-02
   2 F= -.35622230E+03 E0= -.35622675E+03  d E =-.107387E-02
       N       E                     dE             d eps       ncg     rms          rms(c)
DAV:   1    -0.356224931757E+03   -0.26260E-02   -0.55851E-01  5216   0.224E+00    0.450E-01
RMM:   2    -0.356224992419E+03   -0.60662E-04   -0.25277E-02  7273   0.439E-01    0.161E-01
RMM:   3    -0.356224690119E+03    0.30230E-03   -0.37840E-03  7351   0.130E-01    0.112E-01
RMM:   4    -0.356224378028E+03    0.31209E-03   -0.10581E-03  7522   0.589E-02    0.663E-02
RMM:   5    -0.356224352848E+03    0.25179E-04   -0.39940E-04  7836   0.318E-02    0.506E-02
RMM:   6    -0.356224341204E+03    0.11645E-04   -0.16666E-04  6358   0.220E-02    0.293E-02
RMM:   7    -0.356224334782E+03    0.64214E-05   -0.77492E-05  4948   0.167E-02
   3 F= -.35622433E+03 E0= -.35622886E+03  d E =-.310795E-02
       N       E                     dE             d eps       ncg     rms          rms(c)
DAV:   1    -0.356225707759E+03   -0.13666E-02   -0.22329E+00  5088   0.447E+00    0.896E-01
RMM:   2    -0.356225943910E+03   -0.23615E-03   -0.10031E-01  7263   0.876E-01    0.319E-01
RMM:   3    -0.356224769439E+03    0.11745E-02   -0.14900E-02  7361   0.259E-01    0.222E-01
RMM:   4    -0.356223535728E+03    0.12337E-02   -0.41402E-03  7525   0.116E-01    0.130E-01
RMM:   5    -0.356223433606E+03    0.10212E-03   -0.15410E-03  8198   0.630E-02    0.989E-02
RMM:   6    -0.356223412260E+03    0.21346E-04   -0.65948E-04  8067   0.424E-02    0.576E-02
RMM:   7    -0.356223403879E+03    0.83812E-05   -0.31784E-04  7246   0.290E-02    0.303E-02
RMM:   8    -0.356223406260E+03   -0.23813E-05   -0.13060E-04  5692   0.195E-02    0.211E-02
RMM:   9    -0.356223408745E+03   -0.24847E-05   -0.69138E-05  4905   0.164E-02
   4 F= -.35622341E+03 E0= -.35622807E+03  d E =-.218191E-02
       N       E                     dE             d eps       ncg     rms          rms(c)
DAV:   1    -0.356225857996E+03   -0.24517E-02   -0.82549E-01  5256   0.271E+00    0.560E-01
RMM:   2    -0.356225666756E+03    0.19124E-03   -0.37296E-02  7256   0.533E-01    0.199E-01
RMM:   3    -0.356225216487E+03    0.45027E-03   -0.56562E-03  7411   0.162E-01    0.138E-01
RMM:   4    -0.356224742419E+03    0.47407E-03   -0.16053E-03  7616   0.737E-02    0.775E-02
RMM:   5    -0.356224715070E+03    0.27349E-04   -0.55031E-04  7923   0.411E-02    0.587E-02
RMM:   6    -0.356224721989E+03   -0.69191E-05   -0.22968E-04  6979   0.255E-02    0.335E-02
RMM:   7    -0.356224730635E+03   -0.86457E-05   -0.89511E-05  5483   0.186E-02
   5 F= -.35622473E+03 E0= -.35622931E+03  d E =-.350380E-02
       N       E                     dE             d eps       ncg     rms          rms(c)
DAV:   1    -0.356225863654E+03   -0.11417E-02   -0.83541E-02  5368   0.885E-01    0.221E-01
RMM:   2    -0.356225704632E+03    0.15902E-03   -0.46700E-03  7025   0.184E-01    0.798E-02
RMM:   3    -0.356225568189E+03    0.13644E-03   -0.92427E-04  7453   0.607E-02    0.592E-02
RMM:   4    -0.356225477598E+03    0.90592E-04   -0.22025E-04  7424   0.302E-02    0.335E-02
RMM:   5    -0.356225477178E+03    0.41939E-06   -0.66828E-05  5972   0.177E-02
   6 F= -.35622548E+03 E0= -.35623006E+03  d E =-.746544E-03
       N       E                     dE             d eps       ncg     rms          rms(c)
DAV:   1    -0.356228105915E+03   -0.26283E-02   -0.45302E-01  5312   0.206E+00    0.525E-01
RMM:   2    -0.356227258353E+03    0.84756E-03   -0.25830E-02  7184   0.429E-01    0.192E-01
RMM:   3    -0.356226582213E+03    0.67614E-03   -0.54568E-03  7520   0.141E-01    0.147E-01
RMM:   4    -0.356226040212E+03    0.54200E-03   -0.13618E-03  7626   0.741E-02    0.820E-02
RMM:   5    -0.356226024226E+03    0.15986E-04   -0.47621E-04  7538   0.407E-02    0.631E-02
RMM:   6    -0.356226052028E+03   -0.27802E-04   -0.21749E-04  6677   0.239E-02    0.356E-02
RMM:   7    -0.356226068258E+03   -0.16230E-04   -0.80929E-05  5230   0.179E-02    0.196E-02
RMM:   8    -0.356226080368E+03   -0.12110E-04   -0.53954E-05  4531   0.141E-02    0.126E-02
RMM:   9    -0.356226087485E+03   -0.71169E-05   -0.22450E-05  3752   0.117E-02
   7 F= -.35622609E+03 E0= -.35623068E+03  d E =-.135685E-02
       N       E                     dE             d eps       ncg     rms          rms(c)
DAV:   1    -0.356226135194E+03   -0.54825E-04   -0.45220E-03  5496   0.205E-01    0.563E-02
RMM:   2    -0.356226131354E+03    0.38392E-05   -0.28718E-04  7227   0.446E-02    0.221E-02
RMM:   3    -0.356226123972E+03    0.73823E-05   -0.65001E-05  5319   0.149E-02
   8 F= -.35622612E+03 E0= -.35623071E+03  d E =-.139334E-02
       N       E                     dE             d eps       ncg     rms          rms(c)
DAV:   1    -0.356226453309E+03   -0.32195E-03   -0.91762E-02  5344   0.925E-01    0.240E-01
RMM:   2    -0.356226276026E+03    0.17728E-03   -0.54178E-03  7231   0.197E-01    0.890E-02
RMM:   3    -0.356226125123E+03    0.15090E-03   -0.11426E-03  7506   0.642E-02    0.687E-02
RMM:   4    -0.356226004353E+03    0.12077E-03   -0.28383E-04  7590   0.336E-02    0.387E-02
RMM:   5    -0.356225990755E+03    0.13598E-04   -0.95448E-05  6542   0.194E-02    0.293E-02
RMM:   6    -0.356225983986E+03    0.67695E-05   -0.38968E-05  3615   0.113E-02
   9 F= -.35622598E+03 E0= -.35623057E+03  d E =-.125335E-02
       N       E                     dE             d eps       ncg     rms          rms(c)
DAV:   1    -0.356226348016E+03   -0.35726E-03   -0.52727E-02  5328   0.702E-01    0.184E-01
RMM:   2    -0.356226246804E+03    0.10121E-03   -0.30480E-03  7122   0.148E-01    0.683E-02
RMM:   3    -0.356226172396E+03    0.74408E-04   -0.66619E-04  7488   0.497E-02    0.516E-02
RMM:   4    -0.356226099883E+03    0.72513E-04   -0.15528E-04  7289   0.255E-02    0.269E-02
RMM:   5    -0.356226095975E+03    0.39082E-05   -0.43763E-05  4394   0.147E-02
  10 F= -.35622610E+03 E0= -.35623069E+03  d E =-.136534E-02
       N       E                     dE             d eps       ncg     rms          rms(c)
DAV:   1    -0.356226107537E+03   -0.76539E-05   -0.13708E-03  5152   0.114E-01    0.267E-02
RMM:   2    -0.356226107163E+03    0.37430E-06   -0.89940E-05  6492   0.239E-02
  11 F= -.35622611E+03 E0= -.35623070E+03  d E =-.137653E-02
       N       E                     dE             d eps       ncg     rms          rms(c)
DAV:   1    -0.356226299245E+03   -0.19171E-03   -0.10024E-02  5152   0.298E-01    0.479E-02
RMM:   2    -0.356226310830E+03   -0.11585E-04   -0.44830E-04  7354   0.562E-02    0.206E-02
RMM:   3    -0.356226304740E+03    0.60905E-05   -0.63661E-05  5389   0.152E-02
  12 F= -.35622630E+03 E0= -.35623090E+03  d E =-.197577E-03
       N       E                     dE             d eps       ncg     rms          rms(c)
DAV:   1    -0.356226684085E+03   -0.37326E-03   -0.90182E-02  4976   0.889E-01    0.144E-01
RMM:   2    -0.356226781480E+03   -0.97394E-04   -0.39583E-03  7375   0.167E-01    0.587E-02
RMM:   3    -0.356226750121E+03    0.31359E-04   -0.57039E-04  7338   0.440E-02    0.420E-02
RMM:   4    -0.356226715918E+03    0.34203E-04   -0.16681E-04  6629   0.232E-02    0.236E-02
RMM:   5    -0.356226715210E+03    0.70803E-06   -0.57787E-05  4266   0.137E-02
  13 F= -.35622672E+03 E0= -.35623134E+03  d E =-.608047E-03
       N       E                     dE             d eps       ncg     rms          rms(c)
DAV:   1    -0.356226605963E+03    0.10995E-03   -0.36174E-01  4928   0.179E+00    0.288E-01
RMM:   2    -0.356227066390E+03   -0.46043E-03   -0.15603E-02  7377   0.334E-01    0.117E-01
RMM:   3    -0.356226954936E+03    0.11145E-03   -0.22865E-03  7358   0.907E-02    0.834E-02
RMM:   4    -0.356226803445E+03    0.15149E-03   -0.65974E-04  7451   0.462E-02    0.450E-02
RMM:   5    -0.356226798477E+03    0.49679E-05   -0.25358E-04  6607   0.262E-02    0.311E-02
RMM:   6    -0.356226806154E+03   -0.76766E-05   -0.10535E-04  5175   0.173E-02    0.192E-02
RMM:   7    -0.356226812070E+03   -0.59161E-05   -0.49484E-05  4611   0.147E-02
  14 F= -.35622681E+03 E0= -.35623149E+03  d E =-.704907E-03
       N       E                     dE             d eps       ncg     rms          rms(c)
DAV:   1    -0.356226888632E+03   -0.82478E-04   -0.51923E-02  4992   0.676E-01    0.111E-01
RMM:   2    -0.356226960697E+03   -0.72066E-04   -0.21960E-03  7341   0.128E-01    0.453E-02
RMM:   3    -0.356226940838E+03    0.19859E-04   -0.29525E-04  7286   0.353E-02    0.330E-02
RMM:   4    -0.356226913867E+03    0.26971E-04   -0.72249E-05  6073   0.173E-02    0.175E-02
RMM:   5    -0.356226909527E+03    0.43401E-05   -0.21439E-05  2997   0.953E-03
  15 F= -.35622691E+03 E0= -.35623156E+03  d E =-.802364E-03
       N       E                     dE             d eps       ncg     rms          rms(c)
DAV:   1    -0.356227407049E+03   -0.49318E-03   -0.36477E-02  5408   0.604E-01    0.183E-01
RMM:   2    -0.356227240444E+03    0.16661E-03   -0.26717E-03  6934   0.137E-01    0.615E-02
RMM:   3    -0.356227175914E+03    0.64530E-04   -0.56400E-04  7464   0.467E-02    0.463E-02
RMM:   4    -0.356227113149E+03    0.62765E-04   -0.14408E-04  6736   0.240E-02    0.269E-02
RMM:   5    -0.356227105265E+03    0.78838E-05   -0.36296E-05  3679   0.144E-02
  16 F= -.35622711E+03 E0= -.35623179E+03  d E =-.195738E-03
       N       E                     dE             d eps       ncg     rms          rms(c)
DAV:   1    -0.356227452289E+03   -0.33914E-03   -0.39974E-02  5328   0.632E-01    0.189E-01
RMM:   2    -0.356227266651E+03    0.18564E-03   -0.29139E-03  7105   0.144E-01    0.627E-02
RMM:   3    -0.356227201553E+03    0.65098E-04   -0.62463E-04  7491   0.484E-02    0.482E-02
RMM:   4    -0.356227138273E+03    0.63280E-04   -0.16836E-04  7043   0.253E-02    0.295E-02
RMM:   5    -0.356227131940E+03    0.63329E-05   -0.48280E-05  4355   0.145E-02
  17 F= -.35622713E+03 E0= -.35623186E+03  d E =-.222414E-03
       N       E                     dE             d eps       ncg     rms          rms(c)
DAV:   1    -0.356227228143E+03   -0.89869E-04   -0.23301E-02  5088   0.445E-01    0.363E-02
RMM:   2    -0.356227278631E+03   -0.50489E-04   -0.75469E-04  7329   0.792E-02    0.214E-02
RMM:   3    -0.356227271870E+03    0.67613E-05   -0.84883E-05  4775   0.230E-02
  18 F= -.35622727E+03 E0= -.35623202E+03  d E =-.139930E-03
       N       E                     dE             d eps       ncg     rms          rms(c)
DAV:   1    -0.356227157415E+03    0.12122E-03   -0.20966E-01  4944   0.134E+00    0.104E-01
RMM:   2    -0.356227614586E+03   -0.45717E-03   -0.65923E-03  7349   0.233E-01    0.576E-02
RMM:   3    -0.356227594999E+03    0.19587E-04   -0.88712E-04  7040   0.639E-02    0.444E-02
RMM:   4    -0.356227572820E+03    0.22179E-04   -0.26432E-04  7450   0.271E-02    0.223E-02
RMM:   5    -0.356227574121E+03   -0.13007E-05   -0.94951E-05  4799   0.163E-02
  19 F= -.35622757E+03 E0= -.35623239E+03  d E =-.442180E-03
       N       E                     dE             d eps       ncg     rms          rms(c)
DAV:   1    -0.356225891789E+03    0.16810E-02   -0.83901E-01  4928   0.268E+00    0.201E-01
RMM:   2    -0.356227751337E+03   -0.18595E-02   -0.25882E-02  7331   0.467E-01    0.109E-01
RMM:   3    -0.356227682197E+03    0.69140E-04   -0.34115E-03  7287   0.128E-01    0.850E-02
RMM:   4    -0.356227587254E+03    0.94943E-04   -0.87074E-04  8434   0.497E-02    0.431E-02
RMM:   5    -0.356227597297E+03   -0.10043E-04   -0.34720E-04  7024   0.314E-02    0.224E-02
RMM:   6    -0.356227598249E+03   -0.95151E-06   -0.15428E-04  5354   0.189E-02    0.113E-02
RMM:   7    -0.356227601596E+03   -0.33469E-05   -0.63643E-05  4843   0.145E-02
  20 F= -.35622760E+03 E0= -.35623254E+03  d E =-.469655E-03
       N       E                     dE             d eps       ncg     rms          rms(c)
DAV:   1    -0.356227280120E+03    0.31813E-03   -0.23049E-01  4944   0.140E+00    0.106E-01
RMM:   2    -0.356227757093E+03   -0.47697E-03   -0.68340E-03  7137   0.243E-01    0.558E-02
RMM:   3    -0.356227718528E+03    0.38565E-04   -0.75182E-04  7103   0.658E-02    0.435E-02
RMM:   4    -0.356227688315E+03    0.30213E-04   -0.20087E-04  7375   0.251E-02    0.211E-02
RMM:   5    -0.356227688619E+03   -0.30358E-06   -0.71699E-05  4753   0.148E-02
  21 F= -.35622769E+03 E0= -.35623256E+03  d E =-.556678E-03
       N       E                     dE             d eps       ncg     rms          rms(c)
DAV:   1    -0.356229060858E+03   -0.13725E-02   -0.81809E-02  5568   0.940E-01    0.374E-01
RMM:   2    -0.356228121853E+03    0.93901E-03   -0.73181E-03  7113   0.224E-01    0.117E-01
RMM:   3    -0.356227956592E+03    0.16526E-03   -0.21820E-03  7634   0.843E-02    0.887E-02
RMM:   4    -0.356227699543E+03    0.25705E-03   -0.52033E-04  7491   0.485E-02    0.480E-02
RMM:   5    -0.356227694990E+03    0.45530E-05   -0.16369E-04  6675   0.235E-02    0.377E-02
RMM:   6    -0.356227710955E+03   -0.15965E-04   -0.61389E-05  4392   0.142E-02    0.210E-02
RMM:   7    -0.356227719994E+03   -0.90396E-05   -0.24121E-05  3205   0.125E-02
  22 F= -.35622772E+03 E0= -.35623258E+03  d E =-.313756E-04
       N       E                     dE             d eps       ncg     rms          rms(c)
DAV:   1    -0.356228090502E+03   -0.37955E-03   -0.19264E-02  5632   0.454E-01    0.185E-01
RMM:   2    -0.356227901022E+03    0.18948E-03   -0.17770E-03  7181   0.108E-01    0.605E-02
RMM:   3    -0.356227863470E+03    0.37552E-04   -0.55834E-04  7534   0.421E-02    0.460E-02
RMM:   4    -0.356227795399E+03    0.68071E-04   -0.13465E-04  6624   0.249E-02    0.240E-02
RMM:   5    -0.356227787280E+03    0.81189E-05   -0.32996E-05  3224   0.134E-02
  23 F= -.35622779E+03 E0= -.35623265E+03  d E =-.986612E-04
       N       E                     dE             d eps       ncg     rms          rms(c)
DAV:   1    -0.356227811996E+03   -0.16597E-04   -0.22981E-02  5024   0.440E-01    0.338E-02
RMM:   2    -0.356227867635E+03   -0.55639E-04   -0.72323E-04  6945   0.750E-02    0.188E-02
RMM:   3    -0.356227855983E+03    0.11652E-04   -0.63364E-05  4390   0.213E-02    0.145E-02
RMM:   4    -0.356227853020E+03    0.29622E-05   -0.20543E-05  3285   0.102E-02
  24 F= -.35622785E+03 E0= -.35623271E+03  d E =-.657405E-04
