<?xml version="1.0" encoding="ISO-8859-1"?>
<modeling>
 <generator>
  <i name="program" type="string">vasp </i>
  <i name="version" type="string">5.4.1  </i>
  <i name="subversion" type="string">05Feb16 (build Jan 29 2020 16:04:39) complex                          parallel </i>
  <i name="platform" type="string">IFC91_ompi </i>
  <i name="date" type="string">2020 06 15 </i>
  <i name="time" type="string">13:10:16 </i>
 </generator>
 <incar>
  <i type="string" name="SYSTEM"> automatically generated by mexm</i>
  <i type="int" name="ISTART">     0</i>
  <i type="string" name="PREC">accurate               ! avoid wrap aro</i>
  <i type="string" name="ALGO"> Fast                   ! blocked Davids</i>
  <i type="int" name="ISPIN">     1</i>
  <i type="int" name="ICHARG">     2</i>
  <i type="int" name="NELM">    70</i>
  <i type="int" name="IBRION">     2</i>
  <i name="EDIFF">      0.00001000</i>
  <i name="EDIFFG">     -0.01000000</i>
  <i type="int" name="NSW">   300</i>
  <i type="int" name="ISIF">     3</i>
  <i type="int" name="ISYM">     1</i>
  <i name="ENCUT">    300.00000000</i>
  <i name="POTIM">      0.15000000</i>
  <i type="string" name="LREAL"> Auto                  ! unpublished met</i>
  <i type="int" name="ISMEAR">     1</i>
  <i name="SIGMA">      0.15000000</i>
  <i type="logical" name="LWAVE"> F  </i>
  <i type="logical" name="LCHARG"> F  </i>
  <i type="logical" name="LVTOT"> F  </i>
  <v type="int" name="KPOINT_BSE">    -1     0     0     0</v>
  <i type="int" name="NELM">    70</i>
 </incar>
 <kpoints>
  <generation param="Gamma">
   <v type="int" name="divisions">       3        3        3 </v>
   <v name="usershift">      0.00000000       0.00000000       0.00000000 </v>
   <v name="genvec1">      0.33333333       0.00000000      -0.00000000 </v>
   <v name="genvec2">      0.00000000       0.33333333       0.00000000 </v>
   <v name="genvec3">      0.00000000       0.00000000       0.33333333 </v>
   <v name="shift">      0.00000000       0.00000000       0.00000000 </v>
  </generation>
  <varray name="kpointlist" >
   <v>       0.00000000       0.00000000       0.00000000 </v>
   <v>       0.33333333      -0.00000000       0.00000000 </v>
   <v>      -0.00000000       0.33333333       0.00000000 </v>
   <v>       0.33333333       0.33333333       0.00000000 </v>
   <v>      -0.33333333       0.33333333      -0.00000000 </v>
   <v>      -0.00000000       0.00000000       0.33333333 </v>
   <v>       0.33333333       0.00000000       0.33333333 </v>
   <v>      -0.33333333       0.00000000       0.33333333 </v>
   <v>       0.00000000       0.33333333       0.33333333 </v>
   <v>       0.33333333       0.33333333       0.33333333 </v>
   <v>      -0.33333333       0.33333333       0.33333333 </v>
   <v>       0.00000000      -0.33333333       0.33333333 </v>
   <v>       0.33333333      -0.33333333       0.33333333 </v>
   <v>      -0.33333333      -0.33333333       0.33333333 </v>
  </varray>
  <varray name="weights" >
   <v>       0.03703704 </v>
   <v>       0.07407407 </v>
   <v>       0.07407407 </v>
   <v>       0.07407407 </v>
   <v>       0.07407407 </v>
   <v>       0.07407407 </v>
   <v>       0.07407407 </v>
   <v>       0.07407407 </v>
   <v>       0.07407407 </v>
   <v>       0.07407407 </v>
   <v>       0.07407407 </v>
   <v>       0.07407407 </v>
   <v>       0.07407407 </v>
   <v>       0.07407407 </v>
  </varray>
 </kpoints>
 <parameters>
  <separator name="general" >
   <i type="string" name="SYSTEM">automatically generated by mexm</i>
   <i type="logical" name="LCOMPAT"> F  </i>
  </separator>
  <separator name="electronic" >
   <i type="string" name="PREC">accura</i>
   <i name="ENMAX">    300.00000000</i>
   <i name="ENAUG">    461.25700000</i>
   <i name="EDIFF">      0.00001000</i>
   <i type="int" name="IALGO">    68</i>
   <i type="int" name="IWAVPR">    11</i>
   <i type="int" name="NBANDS">   176</i>
   <i name="NELECT">    294.00000000</i>
   <i type="int" name="TURBO">     0</i>
   <i type="int" name="IRESTART">     0</i>
   <i type="int" name="NREBOOT">     0</i>
   <i type="int" name="NMIN">     0</i>
   <i name="EREF">      0.00000000</i>
   <separator name="electronic smearing" >
    <i type="int" name="ISMEAR">     1</i>
    <i name="SIGMA">      0.15000000</i>
    <i name="KSPACING">      0.50000000</i>
    <i type="logical" name="KGAMMA"> T  </i>
   </separator>
   <separator name="electronic projectors" >
    <i type="logical" name="LREAL"> T  </i>
    <v name="ROPT">     -0.00025000     -0.00025000     -0.00025000     -0.00025000</v>
    <i type="int" name="LMAXPAW">  -100</i>
    <i type="int" name="LMAXMIX">     2</i>
    <i type="logical" name="NLSPLINE"> F  </i>
   </separator>
   <separator name="electronic startup" >
    <i type="int" name="ISTART">     0</i>
    <i type="int" name="ICHARG">     2</i>
    <i type="int" name="INIWAV">     1</i>
   </separator>
   <separator name="electronic spin" >
    <i type="int" name="ISPIN">     1</i>
    <i type="logical" name="LNONCOLLINEAR"> F  </i>
    <v name="MAGMOM">      1.00000000      1.00000000      1.00000000      1.00000000      1.00000000      1.00000000      1.00000000      1.00000000      1.00000000      1.00000000      1.00000000      1.00000000      1.00000000      1.00000000      1.00000000      1.00000000      1.00000000      1.00000000      1.00000000      1.00000000
      1.00000000      1.00000000      1.00000000      1.00000000      1.00000000      1.00000000      1.00000000      1.00000000      1.00000000      1.00000000      1.00000000      1.00000000      1.00000000      1.00000000      1.00000000      1.00000000</v>
    <i name="NUPDOWN">     -1.00000000</i>
    <i type="logical" name="LSORBIT"> F  </i>
    <v name="SAXIS">      0.00000000      0.00000000      1.00000000</v>
    <i type="logical" name="LSPIRAL"> F  </i>
    <v name="QSPIRAL">      0.00000000      0.00000000      0.00000000</v>
    <i type="logical" name="LZEROZ"> F  </i>
   </separator>
   <separator name="electronic exchange-correlation" >
    <i type="logical" name="LASPH"> F  </i>
    <i type="logical" name="LMETAGGA"> F  </i>
   </separator>
   <separator name="electronic convergence" >
    <i type="int" name="NELM">    70</i>
    <i type="int" name="NELMDL">    -5</i>
    <i type="int" name="NELMIN">     2</i>
    <i name="ENINI">    300.00000000</i>
    <separator name="electronic convergence detail" >
     <i type="logical" name="LDIAG"> T  </i>
     <i type="logical" name="LSUBROT"> F  </i>
     <i name="WEIMIN">      0.00100000</i>
     <i name="EBREAK">      0.00000001</i>
     <i name="DEPER">      0.30000000</i>
     <i type="int" name="NRMM">     4</i>
     <i name="TIME">      0.40000000</i>
    </separator>
   </separator>
   <separator name="electronic mixer" >
    <i name="AMIX">      0.40000000</i>
    <i name="BMIX">      1.00000000</i>
    <i name="AMIN">      0.10000000</i>
    <i name="AMIX_MAG">      1.60000000</i>
    <i name="BMIX_MAG">      1.00000000</i>
    <separator name="electronic mixer details" >
     <i type="int" name="IMIX">     4</i>
     <i type="logical" name="MIXFIRST"> F  </i>
     <i type="int" name="MAXMIX">   -45</i>
     <i name="WC">    100.00000000</i>
     <i type="int" name="INIMIX">     1</i>
     <i type="int" name="MIXPRE">     1</i>
     <i type="int" name="MREMOVE">     5</i>
    </separator>
   </separator>
   <separator name="electronic dipolcorrection" >
    <i type="logical" name="LDIPOL"> F  </i>
    <i type="logical" name="LMONO"> F  </i>
    <i type="int" name="IDIPOL">     0</i>
    <i name="EPSILON">      1.00000000</i>
    <v name="DIPOL">   -100.00000000   -100.00000000   -100.00000000</v>
    <i name="EFIELD">      0.00000000</i>
   </separator>
  </separator>
  <separator name="grids" >
   <i type="int" name="NGX">    40</i>
   <i type="int" name="NGY">    60</i>
   <i type="int" name="NGZ">    60</i>
   <i type="int" name="NGXF">    80</i>
   <i type="int" name="NGYF">   120</i>
   <i type="int" name="NGZF">   120</i>
   <i type="logical" name="ADDGRID"> F  </i>
  </separator>
  <separator name="ionic" >
   <i type="int" name="NSW">   300</i>
   <i type="int" name="IBRION">     2</i>
   <i type="int" name="ISIF">     3</i>
   <i name="PSTRESS">      0.00000000</i>
   <i name="EDIFFG">     -0.01000000</i>
   <i type="int" name="NFREE">     1</i>
   <i name="POTIM">      0.15000000</i>
   <i name="SMASS">     -3.00000000</i>
   <i name="SCALEE">      1.00000000</i>
  </separator>
  <separator name="ionic md" >
   <i name="TEBEG">      0.00010000</i>
   <i name="TEEND">      0.00010000</i>
   <i type="int" name="NBLOCK">     1</i>
   <i type="int" name="KBLOCK">   300</i>
   <i type="int" name="NPACO">   256</i>
   <i name="APACO">     16.00000000</i>
  </separator>
  <separator name="symmetry" >
   <i type="int" name="ISYM">     1</i>
   <i name="SYMPREC">      0.00001000</i>
  </separator>
  <separator name="dos" >
   <i type="logical" name="LORBIT"> F  </i>
   <v name="RWIGS">     -1.00000000     -1.00000000     -1.00000000     -1.00000000</v>
   <i type="int" name="NEDOS">   301</i>
   <i name="EMIN">     10.00000000</i>
   <i name="EMAX">    -10.00000000</i>
   <i name="EFERMI">      0.00000000</i>
  </separator>
  <separator name="writing" >
   <i type="int" name="NWRITE">     2</i>
   <i type="logical" name="LWAVE"> F  </i>
   <i type="logical" name="LCHARG"> F  </i>
   <i type="logical" name="LPARD"> F  </i>
   <i type="logical" name="LVTOT"> F  </i>
   <i type="logical" name="LVHAR"> F  </i>
   <i type="logical" name="LELF"> F  </i>
   <i type="logical" name="LOPTICS"> F  </i>
   <v name="STM">      0.00000000      0.00000000      0.00000000      0.00000000      0.00000000      0.00000000      0.00000000</v>
  </separator>
  <separator name="performance" >
   <i type="int" name="NPAR">     4</i>
   <i type="int" name="NSIM">     4</i>
   <i type="int" name="NBLK">    -1</i>
   <i type="logical" name="LPLANE"> T  </i>
   <i type="logical" name="LSCALAPACK"> T  </i>
   <i type="logical" name="LSCAAWARE"> F  </i>
   <i type="logical" name="LSCALU"> F  </i>
   <i type="logical" name="LASYNC"> F  </i>
   <i type="logical" name="LORBITALREAL"> F  </i>
  </separator>
  <separator name="miscellaneous" >
   <i type="int" name="IDIOT">     3</i>
   <i type="logical" name="LMUSIC"> F  </i>
   <v name="POMASS">     91.22400000    178.49000000    180.94800000     92.91000000</v>
   <v name="DARWINR">      0.00000000      0.00000000      0.00000000      0.00000000</v>
   <v name="DARWINV">      1.00000000      1.00000000      1.00000000      1.00000000</v>
   <i type="logical" name="LCORR"> T  </i>
  </separator>
  <i type="logical" name="GGA_COMPAT"> T  </i>
  <i type="logical" name="LBERRY"> F  </i>
  <i type="int" name="ICORELEVEL">     0</i>
  <i type="logical" name="LDAU"> F  </i>
  <i type="int" name="I_CONSTRAINED_M">     0</i>
  <separator name="electronic exchange-correlation" >
   <i type="string" name="GGA">--</i>
   <i type="int" name="VOSKOWN">     0</i>
   <i type="logical" name="LHFCALC"> F  </i>
   <i type="string" name="PRECFOCK"></i>
   <i type="logical" name="LSYMGRAD"> F  </i>
   <i type="logical" name="LHFONE"> F  </i>
   <i type="logical" name="LRHFCALC"> F  </i>
   <i type="logical" name="LTHOMAS"> F  </i>
   <i type="logical" name="LMODELHF"> F  </i>
   <i name="ENCUT4O">     -1.00000000</i>
   <i type="int" name="EXXOEP">     0</i>
   <i type="int" name="FOURORBIT">     0</i>
   <i name="AEXX">      0.00000000</i>
   <i name="HFALPHA">      0.00000000</i>
   <i name="MCALPHA">      0.00000000</i>
   <i name="ALDAX">      1.00000000</i>
   <i name="AGGAX">      1.00000000</i>
   <i name="ALDAC">      1.00000000</i>
   <i name="AGGAC">      1.00000000</i>
   <i type="int" name="NKREDX">     1</i>
   <i type="int" name="NKREDY">     1</i>
   <i type="int" name="NKREDZ">     1</i>
   <i type="logical" name="SHIFTRED"> F  </i>
   <i type="logical" name="ODDONLY"> F  </i>
   <i type="logical" name="EVENONLY"> F  </i>
   <i type="int" name="LMAXFOCK">     0</i>
   <i type="int" name="NMAXFOCKAE">     0</i>
   <i type="logical" name="LFOCKAEDFT"> F  </i>
   <i name="HFSCREEN">      0.00000000</i>
   <i name="HFSCREENC">      0.00000000</i>
   <i type="int" name="NBANDSGWLOW">     0</i>
  </separator>
  <separator name="vdW DFT" >
   <i type="logical" name="LUSE_VDW"> F  </i>
   <i name="Zab_VDW">     -0.84910000</i>
   <i name="PARAM1">      0.12340000</i>
   <i name="PARAM2">      1.00000000</i>
   <i name="PARAM3">      0.00000000</i>
  </separator>
  <separator name="model GW" >
   <i type="int" name="MODEL_GW">     0</i>
   <i name="MODEL_EPS0">     12.45722686</i>
   <i name="MODEL_ALPHA">      1.00000000</i>
  </separator>
  <separator name="linear response parameters" >
   <i type="logical" name="LEPSILON"> F  </i>
   <i type="logical" name="LRPA"> F  </i>
   <i type="logical" name="LNABLA"> F  </i>
   <i type="logical" name="LVEL"> F  </i>
   <i type="int" name="KINTER">     0</i>
   <i name="CSHIFT">      0.10000000</i>
   <i name="OMEGAMAX">     -1.00000000</i>
   <i name="DEG_THRESHOLD">      0.00200000</i>
  </separator>
  <separator name="orbital magnetization" >
   <i type="logical" name="NUCIND"> F  </i>
   <v name="MAGPOS">      0.00000000      0.00000000      0.00000000</v>
   <i type="logical" name="LNICSALL"> T  </i>
   <i type="logical" name="ORBITALMAG"> F  </i>
   <i type="logical" name="LMAGBLOCH"> F  </i>
   <i type="logical" name="LCHIMAG"> F  </i>
   <i type="logical" name="LGAUGE"> T  </i>
   <i type="int" name="MAGATOM">     0</i>
   <v name="MAGDIPOL">      0.00000000      0.00000000      0.00000000</v>
   <v name="AVECCONST">      0.00000000      0.00000000      0.00000000</v>
  </separator>
  <separator name="response functions" >
   <i type="logical" name="LADDER"> F  </i>
   <i type="logical" name="LFXC"> F  </i>
   <i type="logical" name="LHARTREE"> T  </i>
   <i type="int" name="IBSE">     0</i>
   <v type="int" name="KPOINT">    -1     0     0     0</v>
   <i type="logical" name="LTCTE"> F  </i>
   <i type="logical" name="LTETE"> F  </i>
   <i type="logical" name="LTRIPLET"> F  </i>
   <i type="logical" name="LFXCEPS"> F  </i>
   <i type="logical" name="LFXHEG"> F  </i>
   <i type="int" name="NATURALO">     0</i>
   <i type="logical" name="L2ORDER"> F  </i>
   <i type="logical" name="LUSEW"> F  </i>
   <i name="ENCUTGW">     -2.00000000</i>
   <i name="ENCUTGWSOFT">     -2.00000000</i>
   <i name="ENCUTLF">     -1.00000000</i>
   <i type="int" name="LMAXMP2">    -1</i>
   <i name="SCISSOR">      0.00000000</i>
   <i type="int" name="NOMEGA">     0</i>
   <i type="int" name="NOMEGAR">     0</i>
   <i type="int" name="NBANDSGW">    -1</i>
   <i type="int" name="NBANDSO">    -1</i>
   <i type="int" name="NBANDSV">    -1</i>
   <i type="int" name="NELM">    70</i>
   <i type="int" name="NELMHF">     1</i>
   <i type="int" name="DIM">     3</i>
   <i type="int" name="ANTIRES">     0</i>
   <i name="OMEGAMAX">    -30.00000000</i>
   <i name="OMEGAMIN">    -30.00000000</i>
   <i name="OMEGATL">   -200.00000000</i>
   <i type="int" name="OMEGAGRID">     0</i>
   <i name="CSHIFT">     -0.10000000</i>
   <i type="logical" name="SELFENERGY"> F  </i>
   <i type="logical" name="LSPECTRAL"> F  </i>
   <i type="logical" name="LSPECTRALGW"> F  </i>
   <i type="logical" name="LSINGLES"> F  </i>
   <i type="logical" name="LFERMIGW"> F  </i>
   <i type="logical" name="ODDONLYGW"> F  </i>
   <i type="logical" name="EVENONLYGW"> F  </i>
   <i type="int" name="NKREDLFX">     1</i>
   <i type="int" name="NKREDLFY">     1</i>
   <i type="int" name="NKREDLFZ">     1</i>
   <i type="int" name="MAXMEM">  1800</i>
   <i type="int" name="TELESCOPE">     0</i>
   <i type="int" name="TAUPAR">     1</i>
   <i type="int" name="OMEGAPAR">    -1</i>
   <i name="LAMBDA">      1.00000000</i>
  </separator>
  <separator name="External order field" >
   <i name="OFIELD_KAPPA">      0.00000000</i>
   <v name="OFIELD_K">      0.00000000      0.00000000      0.00000000</v>
   <i name="OFIELD_Q6_NEAR">      0.00000000</i>
   <i name="OFIELD_Q6_FAR">      0.00000000</i>
   <i name="OFIELD_A">      0.00000000</i>
  </separator>
 </parameters>
 <atominfo>
  <atoms>      36 </atoms>
  <types>       4 </types>
  <array name="atoms" >
   <dimension dim="1">ion</dimension>
   <field type="string">element</field>
   <field type="int">atomtype</field>
   <set>
    <rc><c>Zr</c><c>   1</c></rc>
    <rc><c>Zr</c><c>   1</c></rc>
    <rc><c>Zr</c><c>   1</c></rc>
    <rc><c>Zr</c><c>   1</c></rc>
    <rc><c>Zr</c><c>   1</c></rc>
    <rc><c>Zr</c><c>   1</c></rc>
    <rc><c>Zr</c><c>   1</c></rc>
    <rc><c>Zr</c><c>   1</c></rc>
    <rc><c>Zr</c><c>   1</c></rc>
    <rc><c>Zr</c><c>   1</c></rc>
    <rc><c>Zr</c><c>   1</c></rc>
    <rc><c>Zr</c><c>   1</c></rc>
    <rc><c>Zr</c><c>   1</c></rc>
    <rc><c>Hf</c><c>   2</c></rc>
    <rc><c>Hf</c><c>   2</c></rc>
    <rc><c>Hf</c><c>   2</c></rc>
    <rc><c>Hf</c><c>   2</c></rc>
    <rc><c>Hf</c><c>   2</c></rc>
    <rc><c>Hf</c><c>   2</c></rc>
    <rc><c>Hf</c><c>   2</c></rc>
    <rc><c>Hf</c><c>   2</c></rc>
    <rc><c>Hf</c><c>   2</c></rc>
    <rc><c>Ta</c><c>   3</c></rc>
    <rc><c>Ta</c><c>   3</c></rc>
    <rc><c>Ta</c><c>   3</c></rc>
    <rc><c>Ta</c><c>   3</c></rc>
    <rc><c>Ta</c><c>   3</c></rc>
    <rc><c>Ta</c><c>   3</c></rc>
    <rc><c>Ta</c><c>   3</c></rc>
    <rc><c>Ta</c><c>   3</c></rc>
    <rc><c>Ta</c><c>   3</c></rc>
    <rc><c>Ta</c><c>   3</c></rc>
    <rc><c>Nb</c><c>   4</c></rc>
    <rc><c>Nb</c><c>   4</c></rc>
    <rc><c>Nb</c><c>   4</c></rc>
    <rc><c>Nb</c><c>   4</c></rc>
   </set>
  </array>
  <array name="atomtypes" >
   <dimension dim="1">type</dimension>
   <field type="int">atomspertype</field>
   <field type="string">element</field>
   <field>mass</field>
   <field>valence</field>
   <field type="string">pseudopotential</field>
   <set>
    <rc><c>  13</c><c>Zr</c><c>     91.22400000</c><c>     12.00000000</c><c>  PAW_PBE Zr_sv 04Jan2005               </c></rc>
    <rc><c>   9</c><c>Hf</c><c>    178.49000000</c><c>      4.00000000</c><c>  PAW_PBE Hf 20Jan2003                  </c></rc>
    <rc><c>  10</c><c>Ta</c><c>    180.94800000</c><c>      5.00000000</c><c>  PAW_PBE Ta 17Jan2003                  </c></rc>
    <rc><c>   4</c><c>Nb</c><c>     92.91000000</c><c>     13.00000000</c><c>  PAW_PBE Nb_sv 25May2007               </c></rc>
   </set>
  </array>
 </atominfo>
 <structure name="initialpos" >
  <crystal>
   <varray name="basis" >
    <v>       7.04130884       0.02023259       0.07346284 </v>
    <v>       0.03021419      10.29107807      -0.00262884 </v>
    <v>       0.10687953      -0.00313266      10.31594480 </v>
   </varray>
   <i name="volume">    747.43361139 </i>
   <varray name="rec_basis" >
    <v>       0.14203560      -0.00041739      -0.00147170 </v>
    <v>      -0.00027955       0.09717238       0.00003240 </v>
    <v>      -0.00101155       0.00002774       0.09694780 </v>
   </varray>
  </crystal>
  <varray name="positions" >
   <v>       0.72383500       0.16238100       0.82949700 </v>
   <v>       0.51156700       0.33662600       0.33994600 </v>
   <v>       0.01940400       0.32298000       0.67562200 </v>
   <v>       0.26192800       0.49485600       0.15456800 </v>
   <v>       0.97058800       0.33918800       0.32431700 </v>
   <v>       0.49544000       0.66662500       0.33651000 </v>
   <v>       0.21339500       0.15863800       0.47588200 </v>
   <v>       0.78235300       0.51326900       0.52412900 </v>
   <v>       0.77426900       0.83487200       0.51312700 </v>
   <v>       0.26326000       0.49843400       0.84459100 </v>
   <v>       0.25897500       0.16326700       0.16618800 </v>
   <v>       0.74855800       0.82507500       0.83281100 </v>
   <v>       0.29142000       0.17201600       0.85502900 </v>
   <v>       0.51538100       0.99377800       0.33584800 </v>
   <v>       0.47613200       0.99886300       0.65055800 </v>
   <v>       0.00006800       0.99855400       0.99913300 </v>
   <v>       0.02548700       0.99968300       0.68321500 </v>
   <v>       0.99500700       0.66689200       0.31686800 </v>
   <v>       0.48814300       0.33080600       0.64417700 </v>
   <v>       0.97739300       0.32438900       0.00006600 </v>
   <v>       0.75197700       0.51160000       0.83594700 </v>
   <v>       0.46403100       0.67420200       0.65356000 </v>
   <v>       0.49831200       0.67627000       0.00895300 </v>
   <v>       0.00389700       0.67655000       0.01169200 </v>
   <v>       0.74543900       0.83021800       0.15620700 </v>
   <v>       0.97107300       0.99415400       0.31851600 </v>
   <v>       0.24897800       0.83785900       0.16795300 </v>
   <v>       0.77085000       0.15468100       0.50124100 </v>
   <v>       0.21863300       0.50469700       0.50108400 </v>
   <v>       0.04161700       0.67689800       0.67386800 </v>
   <v>       0.73824400       0.51223400       0.14855000 </v>
   <v>       0.22130500       0.83736400       0.48206700 </v>
   <v>       0.73344100       0.16011900       0.16406400 </v>
   <v>       0.25912000       0.82826600       0.84949300 </v>
   <v>       0.53737300       0.33678300       0.01155500 </v>
   <v>       0.50309100       0.98692100       0.01316000 </v>
  </varray>
 </structure>
 <calculation>
  <scstep>
   <time name="dav">    1.07    1.10</time>
   <time name="total">    1.15    1.69</time>
   <energy>
    <i name="alphaZ">   1475.03067079 </i>
    <i name="ewald"> -19315.49950113 </i>
    <i name="hartreedc">  -6413.40165789 </i>
    <i name="XCdc">   -267.93146437 </i>
    <i name="pawpsdc">  20992.71092910 </i>
    <i name="pawaedc"> -19401.19708689 </i>
    <i name="eentropy">      0.00330901 </i>
    <i name="bandstr">   -140.35477660 </i>
    <i name="atom">  24904.19112557 </i>
    <i name="e_fr_energy">   1833.55154759 </i>
    <i name="e_wo_entrp">   1833.54823858 </i>
    <i name="e_0_energy">   1833.55044459 </i>
   </energy>
  </scstep>
  <scstep>
   <time name="dav">    1.01    1.02</time>
   <time name="total">    1.02    1.22</time>
   <energy>
    <i name="e_fr_energy">    -65.38479622 </i>
    <i name="e_wo_entrp">    -65.39085724 </i>
    <i name="e_0_energy">    -65.38681656 </i>
   </energy>
  </scstep>
  <scstep>
   <time name="dav">    1.48    1.49</time>
   <time name="total">    1.48    1.53</time>
   <energy>
    <i name="e_fr_energy">   -332.41303945 </i>
    <i name="e_wo_entrp">   -332.41938009 </i>
    <i name="e_0_energy">   -332.41515299 </i>
   </energy>
  </scstep>
  <scstep>
   <time name="dav">    1.43    1.43</time>
   <time name="total">    1.43    1.49</time>
   <energy>
    <i name="e_fr_energy">   -367.16627086 </i>
    <i name="e_wo_entrp">   -367.17699690 </i>
    <i name="e_0_energy">   -367.16984620 </i>
   </energy>
  </scstep>
  <scstep>
   <time name="dav">    1.32    1.32</time>
   <time name="total">    1.35    1.39</time>
   <energy>
    <i name="e_fr_energy">   -370.81178741 </i>
    <i name="e_wo_entrp">   -370.82179434 </i>
    <i name="e_0_energy">   -370.81512305 </i>
   </energy>
  </scstep>
  <scstep>
   <time name="diag">    0.08    0.08</time>
   <time name="diis">    0.73    0.74</time>
   <time name="orth">    0.01    0.01</time>
   <time name="total">    0.90    0.97</time>
   <energy>
    <i name="e_fr_energy">   -360.51621446 </i>
    <i name="e_wo_entrp">   -360.53209507 </i>
    <i name="e_0_energy">   -360.52150800 </i>
   </energy>
  </scstep>
  <scstep>
   <time name="diag">    0.08    0.08</time>
   <time name="diis">    0.75    0.76</time>
   <time name="orth">    0.01    0.01</time>
   <time name="total">    0.91    0.98</time>
   <energy>
    <i name="e_fr_energy">   -361.47204088 </i>
    <i name="e_wo_entrp">   -361.46365618 </i>
    <i name="e_0_energy">   -361.46924598 </i>
   </energy>
  </scstep>
  <scstep>
   <time name="diag">    0.10    0.10</time>
   <time name="diis">    0.81    0.81</time>
   <time name="orth">    0.02    0.02</time>
   <time name="total">    1.01    1.08</time>
   <energy>
    <i name="e_fr_energy">   -356.45026344 </i>
    <i name="e_wo_entrp">   -356.46647106 </i>
    <i name="e_0_energy">   -356.45566598 </i>
   </energy>
  </scstep>
  <scstep>
   <time name="diag">    0.14    0.14</time>
   <time name="diis">    0.79    0.80</time>
   <time name="orth">    0.01    0.01</time>
   <time name="total">    1.02    1.11</time>
   <energy>
    <i name="e_fr_energy">   -356.27000608 </i>
    <i name="e_wo_entrp">   -356.28073248 </i>
    <i name="e_0_energy">   -356.27358155 </i>
   </energy>
  </scstep>
  <scstep>
   <time name="diag">    0.11    0.11</time>
   <time name="diis">    0.78    0.79</time>
   <time name="orth">    0.01    0.01</time>
   <time name="total">    0.97    1.03</time>
   <energy>
    <i name="e_fr_energy">   -356.25184240 </i>
    <i name="e_wo_entrp">   -356.26380424 </i>
    <i name="e_0_energy">   -356.25582968 </i>
   </energy>
  </scstep>
  <scstep>
   <time name="diag">    0.08    0.08</time>
   <time name="diis">    0.75    0.76</time>
   <time name="orth">    0.01    0.01</time>
   <time name="total">    0.91    0.97</time>
   <energy>
    <i name="e_fr_energy">   -356.22364223 </i>
    <i name="e_wo_entrp">   -356.23686911 </i>
    <i name="e_0_energy">   -356.22805119 </i>
   </energy>
  </scstep>
  <scstep>
   <time name="diag">    0.08    0.08</time>
   <time name="diis">    0.75    0.76</time>
   <time name="orth">    0.01    0.01</time>
   <time name="total">    0.91    0.96</time>
   <energy>
    <i name="e_fr_energy">   -356.22081838 </i>
    <i name="e_wo_entrp">   -356.23397300 </i>
    <i name="e_0_energy">   -356.22520325 </i>
   </energy>
  </scstep>
  <scstep>
   <time name="diag">    0.08    0.08</time>
   <time name="diis">    0.75    0.75</time>
   <time name="orth">    0.01    0.01</time>
   <time name="total">    0.92    0.98</time>
   <energy>
    <i name="e_fr_energy">   -356.22012988 </i>
    <i name="e_wo_entrp">   -356.23339310 </i>
    <i name="e_0_energy">   -356.22455096 </i>
   </energy>
  </scstep>
  <scstep>
   <time name="diag">    0.08    0.08</time>
   <time name="diis">    0.85    0.86</time>
   <time name="orth">    0.01    0.01</time>
   <time name="total">    1.02    1.07</time>
   <energy>
    <i name="e_fr_energy">   -356.22063117 </i>
    <i name="e_wo_entrp">   -356.23392895 </i>
    <i name="e_0_energy">   -356.22506376 </i>
   </energy>
  </scstep>
  <scstep>
   <time name="diag">    0.08    0.08</time>
   <time name="diis">    0.80    0.81</time>
   <time name="orth">    0.01    0.01</time>
   <time name="total">    0.97    1.02</time>
   <energy>
    <i name="e_fr_energy">   -356.22098100 </i>
    <i name="e_wo_entrp">   -356.23418185 </i>
    <i name="e_0_energy">   -356.22538129 </i>
   </energy>
  </scstep>
  <scstep>
   <time name="diag">    0.09    0.09</time>
   <time name="diis">    0.69    0.69</time>
   <time name="orth">    0.01    0.01</time>
   <time name="total">    0.91    0.97</time>
   <energy>
    <i name="e_fr_energy">   -356.22111699 </i>
    <i name="e_wo_entrp">   -356.23425453 </i>
    <i name="e_0_energy">   -356.22549617 </i>
   </energy>
  </scstep>
  <scstep>
   <time name="diag">    0.08    0.08</time>
   <time name="diis">    0.61    0.61</time>
   <time name="orth">    0.01    0.01</time>
   <time name="total">    0.77    0.84</time>
   <energy>
    <i name="e_fr_energy">   -356.22115591 </i>
    <i name="e_wo_entrp">   -356.23440730 </i>
    <i name="e_0_energy">   -356.22557304 </i>
   </energy>
  </scstep>
  <scstep>
   <time name="diag">    0.08    0.08</time>
   <time name="diis">    0.61    0.61</time>
   <time name="orth">    0.01    0.01</time>
   <time name="total">    0.76    0.82</time>
   <energy>
    <i name="e_fr_energy">   -356.22119630 </i>
    <i name="e_wo_entrp">   -356.23445852 </i>
    <i name="e_0_energy">   -356.22561704 </i>
   </energy>
  </scstep>
  <scstep>
   <time name="diag">    0.08    0.08</time>
   <time name="diis">    0.62    0.62</time>
   <time name="orth">    0.01    0.01</time>
   <time name="total">    0.77    0.82</time>
   <energy>
    <i name="e_fr_energy">   -356.22121535 </i>
    <i name="e_wo_entrp">   -356.23449052 </i>
    <i name="e_0_energy">   -356.22564041 </i>
   </energy>
  </scstep>
  <scstep>
   <time name="diag">    0.08    0.08</time>
   <time name="diis">    0.47    0.47</time>
   <time name="orth">    0.01    0.01</time>
   <time name="total">    0.76    0.81</time>
   <energy>
    <i name="e_fr_energy">   -356.22122386 </i>
    <i name="e_wo_entrp">   -356.23449645 </i>
    <i name="e_0_energy">   -356.22564806 </i>
   </energy>
  </scstep>
  <scstep>
   <time name="diag">    0.08    0.08</time>
   <time name="diis">    0.52    0.52</time>
   <time name="orth">    0.01    0.01</time>
   <time name="total">    0.65    0.70</time>
   <energy>
    <i name="alphaZ">   1475.03067079 </i>
    <i name="ewald"> -19315.49950113 </i>
    <i name="hartreedc">  -6170.74432094 </i>
    <i name="XCdc">   -268.20158231 </i>
    <i name="pawpsdc">  34306.49906200 </i>
    <i name="pawaedc"> -32699.69473372 </i>
    <i name="eentropy">      0.01326893 </i>
    <i name="bandstr">  -2587.81521604 </i>
    <i name="atom">  24904.19112557 </i>
    <i name="e_fr_energy">   -356.22122684 </i>
    <i name="e_wo_entrp">   -356.23449577 </i>
    <i name="e_0_energy">   -356.22564981 </i>
   </energy>
  </scstep>
  <structure>
   <crystal>
    <varray name="basis" >
     <v>       7.04130884       0.02023259       0.07346284 </v>
     <v>       0.03021419      10.29107807      -0.00262884 </v>
     <v>       0.10687953      -0.00313266      10.31594480 </v>
    </varray>
    <i name="volume">    747.43361139 </i>
    <varray name="rec_basis" >
     <v>       0.14203560      -0.00041739      -0.00147170 </v>
     <v>      -0.00027955       0.09717238       0.00003240 </v>
     <v>      -0.00101155       0.00002774       0.09694780 </v>
    </varray>
   </crystal>
   <varray name="positions" >
    <v>       0.72383500       0.16238100       0.82949700 </v>
    <v>       0.51156700       0.33662600       0.33994600 </v>
    <v>       0.01940400       0.32298000       0.67562200 </v>
    <v>       0.26192800       0.49485600       0.15456800 </v>
    <v>       0.97058800       0.33918800       0.32431700 </v>
    <v>       0.49544000       0.66662500       0.33651000 </v>
    <v>       0.21339500       0.15863800       0.47588200 </v>
    <v>       0.78235300       0.51326900       0.52412900 </v>
    <v>       0.77426900       0.83487200       0.51312700 </v>
    <v>       0.26326000       0.49843400       0.84459100 </v>
    <v>       0.25897500       0.16326700       0.16618800 </v>
    <v>       0.74855800       0.82507500       0.83281100 </v>
    <v>       0.29142000       0.17201600       0.85502900 </v>
    <v>       0.51538100       0.99377800       0.33584800 </v>
    <v>       0.47613200       0.99886300       0.65055800 </v>
    <v>       0.00006800       0.99855400       0.99913300 </v>
    <v>       0.02548700       0.99968300       0.68321500 </v>
    <v>       0.99500700       0.66689200       0.31686800 </v>
    <v>       0.48814300       0.33080600       0.64417700 </v>
    <v>       0.97739300       0.32438900       0.00006600 </v>
    <v>       0.75197700       0.51160000       0.83594700 </v>
    <v>       0.46403100       0.67420200       0.65356000 </v>
    <v>       0.49831200       0.67627000       0.00895300 </v>
    <v>       0.00389700       0.67655000       0.01169200 </v>
    <v>       0.74543900       0.83021800       0.15620700 </v>
    <v>       0.97107300       0.99415400       0.31851600 </v>
    <v>       0.24897800       0.83785900       0.16795300 </v>
    <v>       0.77085000       0.15468100       0.50124100 </v>
    <v>       0.21863300       0.50469700       0.50108400 </v>
    <v>       0.04161700       0.67689800       0.67386800 </v>
    <v>       0.73824400       0.51223400       0.14855000 </v>
    <v>       0.22130500       0.83736400       0.48206700 </v>
    <v>       0.73344100       0.16011900       0.16406400 </v>
    <v>       0.25912000       0.82826600       0.84949300 </v>
    <v>       0.53737300       0.33678300       0.01155500 </v>
    <v>       0.50309100       0.98692100       0.01316000 </v>
   </varray>
  </structure>
  <varray name="forces" >
   <v>       0.07870503      -0.01707690      -0.01991895 </v>
   <v>       0.00099398       0.00154387       0.01179266 </v>
   <v>      -0.01958134       0.03323378      -0.02001402 </v>
   <v>       0.00228507      -0.00092745      -0.00534033 </v>
   <v>       0.01388474      -0.00258267       0.00050035 </v>
   <v>       0.00413308      -0.00151389      -0.00434529 </v>
   <v>       0.01142493       0.00406914      -0.01216134 </v>
   <v>      -0.01296930      -0.00679216       0.00900035 </v>
   <v>       0.00167202       0.00073993       0.00569858 </v>
   <v>      -0.01494963       0.10128756      -0.00834122 </v>
   <v>      -0.01875909      -0.01753157       0.09106087 </v>
   <v>      -0.01333132       0.02818564       0.00045665 </v>
   <v>      -0.01675444      -0.00561450      -0.03370601 </v>
   <v>       0.00008723       0.00015248       0.00023227 </v>
   <v>       0.02000303      -0.05042674      -0.03450280 </v>
   <v>      -0.03844229      -0.04702311       0.05081386 </v>
   <v>      -0.03267939      -0.02500748      -0.02298490 </v>
   <v>      -0.00504709       0.00235078      -0.00819166 </v>
   <v>       0.03369410       0.05382933      -0.05365599 </v>
   <v>      -0.03173793       0.04604823       0.03873453 </v>
   <v>       0.00794418      -0.02103728      -0.01417036 </v>
   <v>      -0.00137048      -0.00584194       0.00831545 </v>
   <v>       0.00698069      -0.00731084       0.00894950 </v>
   <v>       0.00423332      -0.01336843      -0.00408416 </v>
   <v>      -0.00516651      -0.00197976      -0.02670991 </v>
   <v>      -0.00459916      -0.00994144      -0.00276925 </v>
   <v>      -0.00393728       0.00883305      -0.00672711 </v>
   <v>       0.00416098       0.00109006       0.02671962 </v>
   <v>      -0.00073875      -0.00257747       0.00676047 </v>
   <v>       0.01509447      -0.00966888      -0.00783705 </v>
   <v>      -0.00012054      -0.00850282      -0.00467010 </v>
   <v>       0.00304728       0.00281402       0.01519531 </v>
   <v>       0.00425876       0.00258745      -0.02899464 </v>
   <v>      -0.00386560      -0.05655003       0.00304600 </v>
   <v>       0.00526843       0.05185240       0.02496231 </v>
   <v>       0.00617881      -0.02734234       0.01688632 </v>
  </varray>
  <varray name="stress" >
   <v>       0.17305006       0.05041392      -0.28017195 </v>
   <v>       0.05041393       1.21315557      -0.07783977 </v>
   <v>      -0.28017195      -0.07783972       0.40571677 </v>
  </varray>
  <energy>
   <i name="e_fr_energy">   -356.22122684 </i>
   <i name="e_wo_entrp">   -356.22564981 </i>
   <i name="e_0_energy">      0.01326893 </i>
  </energy>
  <time name="totalsc">   22.17   24.17</time>
 </calculation>
 <calculation>
  <scstep>
   <time name="dav">    0.96    0.96</time>
   <time name="total">    1.04    1.29</time>
   <energy>
    <i name="alphaZ">   1474.53508660 </i>
    <i name="ewald"> -19314.59215269 </i>
    <i name="hartreedc">  -6168.81790684 </i>
    <i name="XCdc">   -268.30116132 </i>
    <i name="pawpsdc">  34306.48872426 </i>
    <i name="pawaedc"> -32699.68430672 </i>
    <i name="eentropy">      0.01338340 </i>
    <i name="bandstr">  -2590.05513300 </i>
    <i name="atom">  24904.19112557 </i>
    <i name="e_fr_energy">   -356.22234074 </i>
    <i name="e_wo_entrp">   -356.23572414 </i>
    <i name="e_0_energy">   -356.22680187 </i>
   </energy>
  </scstep>
  <scstep>
   <time name="diag">    0.09    0.09</time>
   <time name="diis">    0.80    0.81</time>
   <time name="orth">    0.01    0.01</time>
   <time name="total">    0.97    1.04</time>
   <energy>
    <i name="e_fr_energy">   -356.22237524 </i>
    <i name="e_wo_entrp">   -356.23568532 </i>
    <i name="e_0_energy">   -356.22681194 </i>
   </energy>
  </scstep>
  <scstep>
   <time name="diag">    0.08    0.08</time>
   <time name="diis">    0.80    0.82</time>
   <time name="orth">    0.01    0.01</time>
   <time name="total">    0.96    1.02</time>
   <energy>
    <i name="e_fr_energy">   -356.22234188 </i>
    <i name="e_wo_entrp">   -356.23572584 </i>
    <i name="e_0_energy">   -356.22680320 </i>
   </energy>
  </scstep>
  <scstep>
   <time name="diag">    0.08    0.08</time>
   <time name="diis">    0.65    0.65</time>
   <time name="orth">    0.01    0.01</time>
   <time name="total">    0.81    0.86</time>
   <energy>
    <i name="e_fr_energy">   -356.22230578 </i>
    <i name="e_wo_entrp">   -356.23566714 </i>
    <i name="e_0_energy">   -356.22675956 </i>
   </energy>
  </scstep>
  <scstep>
   <time name="diag">    0.08    0.08</time>
   <time name="diis">    0.41    0.41</time>
   <time name="orth">    0.01    0.01</time>
   <time name="total">    0.53    0.61</time>
   <energy>
    <i name="alphaZ">   1474.53508660 </i>
    <i name="ewald"> -19314.59215269 </i>
    <i name="hartreedc">  -6170.14462178 </i>
    <i name="XCdc">   -268.24127858 </i>
    <i name="pawpsdc">  34287.49122305 </i>
    <i name="pawaedc"> -32680.65128628 </i>
    <i name="eentropy">      0.01334546 </i>
    <i name="bandstr">  -2588.82374206 </i>
    <i name="atom">  24904.19112557 </i>
    <i name="e_fr_energy">   -356.22230071 </i>
    <i name="e_wo_entrp">   -356.23564617 </i>
    <i name="e_0_energy">   -356.22674919 </i>
   </energy>
  </scstep>
  <structure>
   <crystal>
    <varray name="basis" >
     <v>       7.04153370       0.02030269       0.07309815 </v>
     <v>       0.03031261      10.29341987      -0.00278086 </v>
     <v>       0.10634091      -0.00328296      10.31672418 </v>
    </varray>
    <i name="volume">    747.68482025 </i>
    <varray name="rec_basis" >
     <v>       0.14203092      -0.00041866      -0.00146413 </v>
     <v>      -0.00028046       0.09715028       0.00003381 </v>
     <v>      -0.00100642       0.00002915       0.09694038 </v>
    </varray>
   </crystal>
   <varray name="positions" >
    <v>       0.72399732       0.16235666       0.82946789 </v>
    <v>       0.51156878       0.33662817       0.33996253 </v>
    <v>       0.01936397       0.32302681       0.67559422 </v>
    <v>       0.26193282       0.49485468       0.15456047 </v>
    <v>       0.97061655       0.33918431       0.32431750 </v>
    <v>       0.49544860       0.66662285       0.33650384 </v>
    <v>       0.21341872       0.15864367       0.47586477 </v>
    <v>       0.78232619       0.51325950       0.52414182 </v>
    <v>       0.77427231       0.83487304       0.51313497 </v>
    <v>       0.26322883       0.49857650       0.84457956 </v>
    <v>       0.25893460       0.16324246       0.16631604 </v>
    <v>       0.74853042       0.82511469       0.83281185 </v>
    <v>       0.29138631       0.17200816       0.85498195 </v>
    <v>       0.51538117       0.99377821       0.33584832 </v>
    <v>       0.47617416       0.99879198       0.65050928 </v>
    <v>      -0.00001182       0.99848805       0.99920484 </v>
    <v>       0.02542046       0.99964795       0.68318322 </v>
    <v>       0.99499679       0.66689532       0.31685658 </v>
    <v>       0.48821308       0.33088154       0.64410124 </v>
    <v>       0.97732665       0.32445391       0.00012083 </v>
    <v>       0.75199376       0.51157038       0.83592699 </v>
    <v>       0.46402804       0.67419379       0.65357169 </v>
    <v>       0.49832620       0.67625969       0.00896545 </v>
    <v>       0.00390587       0.67653118       0.01168620 </v>
    <v>       0.74542896       0.83021522       0.15616960 </v>
    <v>       0.97106366       0.99414004       0.31851218 </v>
    <v>       0.24897000       0.83787144       0.16794362 </v>
    <v>       0.77085798       0.15468253       0.50127843 </v>
    <v>       0.21863135       0.50469338       0.50109350 </v>
    <v>       0.04164825       0.67688434       0.67385678 </v>
    <v>       0.73824390       0.51222204       0.14854345 </v>
    <v>       0.22131092       0.83736795       0.48208828 </v>
    <v>       0.73345036       0.16012261       0.16402326 </v>
    <v>       0.25911233       0.82818649       0.84949731 </v>
    <v>       0.53738299       0.33685591       0.01158997 </v>
    <v>       0.50310351       0.98688253       0.01318359 </v>
   </varray>
  </structure>
  <varray name="forces" >
   <v>       0.06759484      -0.01314935      -0.01840390 </v>
   <v>       0.00115147       0.00065139       0.01075185 </v>
   <v>      -0.01573785       0.02993395      -0.01859986 </v>
   <v>       0.00215311      -0.00059652      -0.00422670 </v>
   <v>       0.01256306      -0.00226052       0.00163601 </v>
   <v>       0.00293782      -0.00028129      -0.00406974 </v>
   <v>       0.01214630       0.00301951      -0.00850779 </v>
   <v>      -0.00956437      -0.00374273       0.00646166 </v>
   <v>       0.00306648      -0.00196858       0.00386143 </v>
   <v>      -0.01472794       0.08977751      -0.00756892 </v>
   <v>      -0.01883874      -0.01700485       0.08004964 </v>
   <v>      -0.01293886       0.02372297       0.00111218 </v>
   <v>      -0.01275028      -0.00279939      -0.02993327 </v>
   <v>       0.00129942       0.00060434      -0.00025865 </v>
   <v>       0.01685682      -0.04476694      -0.03142369 </v>
   <v>      -0.03202073      -0.04166141       0.04676492 </v>
   <v>      -0.02571296      -0.02227763      -0.02177845 </v>
   <v>      -0.00416299       0.00240018      -0.00668557 </v>
   <v>       0.03013769       0.04777295      -0.04578879 </v>
   <v>      -0.02526438       0.04131799       0.03612311 </v>
   <v>       0.00673747      -0.01865885      -0.01270961 </v>
   <v>      -0.00011127      -0.00457588       0.00528620 </v>
   <v>       0.00577880      -0.00646669       0.00844102 </v>
   <v>       0.00252361      -0.01081214      -0.00293333 </v>
   <v>      -0.00556801      -0.00336320      -0.02352350 </v>
   <v>      -0.00519534      -0.00869859      -0.00138427 </v>
   <v>      -0.00341027       0.00580792      -0.00563216 </v>
   <v>       0.00314068       0.00139956       0.02456689 </v>
   <v>      -0.00100099      -0.00075346       0.00447964 </v>
   <v>       0.01234652      -0.00737001      -0.00900031 </v>
   <v>      -0.00022805      -0.00530050      -0.00255345 </v>
   <v>       0.00192683       0.00012246       0.01278798 </v>
   <v>       0.00220142       0.00213336      -0.02535847 </v>
   <v>      -0.00418175      -0.05331577       0.00404424 </v>
   <v>       0.00254336       0.04439751       0.01906342 </v>
   <v>       0.00430907      -0.02323729       0.01491023 </v>
  </varray>
  <varray name="stress" >
   <v>      -0.18457573       0.04178875      -0.23169452 </v>
   <v>       0.04178874       0.86929625      -0.06875825 </v>
   <v>      -0.23169456      -0.06875826       0.07439466 </v>
  </varray>
  <energy>
   <i name="e_fr_energy">   -356.22230071 </i>
   <i name="e_wo_entrp">   -356.22674919 </i>
   <i name="e_0_energy">      0.01334546 </i>
  </energy>
  <time name="totalsc">    5.87    6.54</time>
 </calculation>
 <calculation>
  <scstep>
   <time name="dav">    0.90    0.91</time>
   <time name="total">    0.98    1.18</time>
   <energy>
    <i name="alphaZ">   1473.04990462 </i>
    <i name="ewald"> -19311.83620491 </i>
    <i name="hartreedc">  -6164.40764122 </i>
    <i name="XCdc">   -268.53840256 </i>
    <i name="pawpsdc">  34289.06964299 </i>
    <i name="pawaedc"> -32682.23252747 </i>
    <i name="eentropy">      0.01366418 </i>
    <i name="bandstr">  -2595.53449295 </i>
    <i name="atom">  24904.19112557 </i>
    <i name="e_fr_energy">   -356.22493176 </i>
    <i name="e_wo_entrp">   -356.23859593 </i>
    <i name="e_0_energy">   -356.22948648 </i>
   </energy>
  </scstep>
  <scstep>
   <time name="diag">    0.12    0.13</time>
   <time name="diis">    0.74    0.75</time>
   <time name="orth">    0.01    0.01</time>
   <time name="total">    0.95    0.99</time>
   <energy>
    <i name="e_fr_energy">   -356.22499242 </i>
    <i name="e_wo_entrp">   -356.23841204 </i>
    <i name="e_0_energy">   -356.22946562 </i>
   </energy>
  </scstep>
  <scstep>
   <time name="diag">    0.08    0.08</time>
   <time name="diis">    0.78    0.78</time>
   <time name="orth">    0.01    0.01</time>
   <time name="total">    0.94    0.99</time>
   <energy>
    <i name="e_fr_energy">   -356.22469012 </i>
    <i name="e_wo_entrp">   -356.23835918 </i>
    <i name="e_0_energy">   -356.22924647 </i>
   </energy>
  </scstep>
  <scstep>
   <time name="diag">    0.08    0.08</time>
   <time name="diis">    0.75    0.76</time>
   <time name="orth">    0.01    0.01</time>
   <time name="total">    0.91    0.95</time>
   <energy>
    <i name="e_fr_energy">   -356.22437803 </i>
    <i name="e_wo_entrp">   -356.23796087 </i>
    <i name="e_0_energy">   -356.22890564 </i>
   </energy>
  </scstep>
  <scstep>
   <time name="diag">    0.08    0.08</time>
   <time name="diis">    0.78    0.79</time>
   <time name="orth">    0.01    0.01</time>
   <time name="total">    0.94    0.99</time>
   <energy>
    <i name="e_fr_energy">   -356.22435285 </i>
    <i name="e_wo_entrp">   -356.23789410 </i>
    <i name="e_0_energy">   -356.22886660 </i>
   </energy>
  </scstep>
  <scstep>
   <time name="diag">    0.08    0.08</time>
   <time name="diis">    0.70    0.71</time>
   <time name="orth">    0.01    0.01</time>
   <time name="total">    0.86    0.91</time>
   <energy>
    <i name="e_fr_energy">   -356.22434120 </i>
    <i name="e_wo_entrp">   -356.23793489 </i>
    <i name="e_0_energy">   -356.22887243 </i>
   </energy>
  </scstep>
  <scstep>
   <time name="diag">    0.08    0.08</time>
   <time name="diis">    0.52    0.52</time>
   <time name="orth">    0.01    0.01</time>
   <time name="total">    0.64    0.69</time>
   <energy>
    <i name="alphaZ">   1473.04990462 </i>
    <i name="ewald"> -19311.83620491 </i>
    <i name="hartreedc">  -6168.19020225 </i>
    <i name="XCdc">   -268.36763633 </i>
    <i name="pawpsdc">  34239.90490437 </i>
    <i name="pawaedc"> -32633.08364106 </i>
    <i name="eentropy">      0.01357278 </i>
    <i name="bandstr">  -2591.90615758 </i>
    <i name="atom">  24904.19112557 </i>
    <i name="e_fr_energy">   -356.22433478 </i>
    <i name="e_wo_entrp">   -356.23790757 </i>
    <i name="e_0_energy">   -356.22885904 </i>
   </energy>
  </scstep>
  <structure>
   <crystal>
    <varray name="basis" >
     <v>       7.04220827       0.02051301       0.07200406 </v>
     <v>       0.03060788      10.30044527      -0.00323693 </v>
     <v>       0.10472506      -0.00373386      10.31906233 </v>
    </varray>
    <i name="volume">    748.43866302 </i>
    <varray name="rec_basis" >
     <v>       0.14201688      -0.00042246      -0.00144144 </v>
     <v>      -0.00028318       0.09708404       0.00003800 </v>
     <v>      -0.00099105       0.00003340       0.09691810 </v>
    </varray>
   </crystal>
   <varray name="positions" >
    <v>       0.72448425       0.16228364       0.82938059 </v>
    <v>       0.51157413       0.33663469       0.34001213 </v>
    <v>       0.01924389       0.32316720       0.67551088 </v>
    <v>       0.26194726       0.49485074       0.15453789 </v>
    <v>       0.97070219       0.33917325       0.32431899 </v>
    <v>       0.49547439       0.66661641       0.33648537 </v>
    <v>       0.21348987       0.15866068       0.47581309 </v>
    <v>       0.78224576       0.51323103       0.52418026 </v>
    <v>       0.77428225       0.83487615       0.51315888 </v>
    <v>       0.26313533       0.49900391       0.84454523 </v>
    <v>       0.25881345       0.16316888       0.16670011 </v>
    <v>       0.74844766       0.82523375       0.83281439 </v>
    <v>       0.29128523       0.17198463       0.85484081 </v>
    <v>       0.51538169       0.99377886       0.33584930 </v>
    <v>       0.47630062       0.99857899       0.65036312 </v>
    <v>      -0.00025126       0.99829024       0.99942034 </v>
    <v>       0.02522085       0.99954283       0.68308787 </v>
    <v>       0.99496614       0.66690529       0.31682233 </v>
    <v>       0.48842330       0.33110811       0.64387400 </v>
    <v>       0.97712764       0.32464859       0.00028531 </v>
    <v>       0.75204403       0.51148152       0.83586698 </v>
    <v>       0.46401917       0.67416918       0.65360674 </v>
    <v>       0.49836882       0.67622878       0.00900281 </v>
    <v>       0.00393248       0.67647473       0.01166881 </v>
    <v>       0.74539883       0.83020690       0.15605740 </v>
    <v>       0.97103566       0.99409815       0.31850071 </v>
    <v>       0.24894598       0.83790873       0.16791549 </v>
    <v>       0.77088192       0.15468712       0.50139071 </v>
    <v>       0.21862641       0.50468253       0.50112198 </v>
    <v>       0.04174201       0.67684336       0.67382312 </v>
    <v>       0.73824361       0.51218617       0.14852378 </v>
    <v>       0.22132870       0.83737981       0.48215210 </v>
    <v>       0.73347842       0.16013343       0.16390104 </v>
    <v>       0.25908933       0.82794800       0.84951023 </v>
    <v>       0.53741294       0.33707460       0.01169487 </v>
    <v>       0.50314103       0.98676715       0.01325436 </v>
   </varray>
  </structure>
  <varray name="forces" >
   <v>       0.03595919      -0.00415106      -0.01146233 </v>
   <v>       0.00136133      -0.00277216       0.00517433 </v>
   <v>      -0.00431808       0.02233957      -0.01622993 </v>
   <v>       0.00239459      -0.00034236      -0.00217706 </v>
   <v>       0.00888131      -0.00212413       0.00417761 </v>
   <v>       0.00011112       0.00294111      -0.00390101 </v>
   <v>       0.01386958       0.00062863       0.00253374 </v>
   <v>       0.00072981       0.00656119      -0.00087393 </v>
   <v>       0.00715318      -0.01106856      -0.00057457 </v>
   <v>      -0.01441536       0.06181340      -0.00482212 </v>
   <v>      -0.01821958      -0.01608432       0.04886959 </v>
   <v>      -0.01199936       0.01333725       0.00338131 </v>
   <v>       0.00163570       0.00244533      -0.01771528 </v>
   <v>       0.00497968       0.00229848      -0.00073445 </v>
   <v>       0.00647904      -0.03091394      -0.02152872 </v>
   <v>      -0.01327919      -0.02836707       0.03412760 </v>
   <v>      -0.00452603      -0.01738935      -0.01835977 </v>
   <v>      -0.00241540       0.00213339      -0.00055167 </v>
   <v>       0.01955581       0.03137602      -0.02379132 </v>
   <v>      -0.00785554       0.02776804       0.03041757 </v>
   <v>       0.00299938      -0.01171867      -0.00944782 </v>
   <v>       0.00490915       0.00058310      -0.00234415 </v>
   <v>       0.00254162      -0.00360866       0.00583573 </v>
   <v>      -0.00149739      -0.00288156      -0.00130982 </v>
   <v>      -0.00737152      -0.00719691      -0.01614200 </v>
   <v>      -0.00709116      -0.00507438       0.00232317 </v>
   <v>      -0.00193900      -0.00162943      -0.00227545 </v>
   <v>       0.00138519       0.00190764       0.01915038 </v>
   <v>      -0.00260174       0.00529581      -0.00184611 </v>
   <v>       0.00234047      -0.00052450      -0.01198288 </v>
   <v>      -0.00124307       0.00343755       0.00360051 </v>
   <v>      -0.00177099      -0.00818336       0.00715232 </v>
   <v>      -0.00321587       0.00042088      -0.01795060 </v>
   <v>      -0.00609152      -0.04295585       0.00746391 </v>
   <v>      -0.00510019       0.02238256       0.00205916 </v>
   <v>      -0.00233515      -0.01068366       0.00975408 </v>
  </varray>
  <varray name="stress" >
   <v>      -1.25070136       0.02195876      -0.03552784 </v>
   <v>       0.02195876      -0.41091227      -0.06524714 </v>
   <v>      -0.03552785      -0.06524716      -0.99018623 </v>
  </varray>
  <energy>
   <i name="e_fr_energy">   -356.22433478 </i>
   <i name="e_wo_entrp">   -356.22885904 </i>
   <i name="e_0_energy">      0.01357278 </i>
  </energy>
  <time name="totalsc">    7.77    8.43</time>
 </calculation>
 <calculation>
  <scstep>
   <time name="dav">    0.88    0.89</time>
   <time name="total">    0.96    1.16</time>
   <energy>
    <i name="alphaZ">   1470.08659113 </i>
    <i name="ewald"> -19306.17142819 </i>
    <i name="hartreedc">  -6156.87979901 </i>
    <i name="XCdc">   -268.95941979 </i>
    <i name="pawpsdc">  34240.96408230 </i>
    <i name="pawaedc"> -32634.17028806 </i>
    <i name="eentropy">      0.01414184 </i>
    <i name="bandstr">  -2605.30071354 </i>
    <i name="atom">  24904.19112557 </i>
    <i name="e_fr_energy">   -356.22570776 </i>
    <i name="e_wo_entrp">   -356.23984960 </i>
    <i name="e_0_energy">   -356.23042170 </i>
   </energy>
  </scstep>
  <scstep>
   <time name="diag">    0.14    0.14</time>
   <time name="diis">    0.76    0.76</time>
   <time name="orth">    0.01    0.01</time>
   <time name="total">    0.97    1.06</time>
   <energy>
    <i name="e_fr_energy">   -356.22594391 </i>
    <i name="e_wo_entrp">   -356.23961433 </i>
    <i name="e_0_energy">   -356.23050072 </i>
   </energy>
  </scstep>
  <scstep>
   <time name="diag">    0.08    0.08</time>
   <time name="diis">    0.79    0.80</time>
   <time name="orth">    0.01    0.01</time>
   <time name="total">    0.95    1.03</time>
   <energy>
    <i name="e_fr_energy">   -356.22476944 </i>
    <i name="e_wo_entrp">   -356.23892572 </i>
    <i name="e_0_energy">   -356.22948820 </i>
   </energy>
  </scstep>
  <scstep>
   <time name="diag">    0.07    0.08</time>
   <time name="diis">    0.75    0.75</time>
   <time name="orth">    0.01    0.01</time>
   <time name="total">    0.90    0.96</time>
   <energy>
    <i name="e_fr_energy">   -356.22353573 </i>
    <i name="e_wo_entrp">   -356.23752604 </i>
    <i name="e_0_energy">   -356.22819916 </i>
   </energy>
  </scstep>
  <scstep>
   <time name="diag">    0.08    0.08</time>
   <time name="diis">    0.81    0.82</time>
   <time name="orth">    0.01    0.01</time>
   <time name="total">    0.97    1.03</time>
   <energy>
    <i name="e_fr_energy">   -356.22343361 </i>
    <i name="e_wo_entrp">   -356.23735090 </i>
    <i name="e_0_energy">   -356.22807270 </i>
   </energy>
  </scstep>
  <scstep>
   <time name="diag">    0.08    0.08</time>
   <time name="diis">    0.80    0.81</time>
   <time name="orth">    0.01    0.01</time>
   <time name="total">    0.96    1.03</time>
   <energy>
    <i name="e_fr_energy">   -356.22341226 </i>
    <i name="e_wo_entrp">   -356.23742769 </i>
    <i name="e_0_energy">   -356.22808407 </i>
   </energy>
  </scstep>
  <scstep>
   <time name="diag">    0.08    0.08</time>
   <time name="diis">    0.81    0.81</time>
   <time name="orth">    0.01    0.01</time>
   <time name="total">    0.97    1.03</time>
   <energy>
    <i name="e_fr_energy">   -356.22340388 </i>
    <i name="e_wo_entrp">   -356.23737846 </i>
    <i name="e_0_energy">   -356.22806207 </i>
   </energy>
  </scstep>
  <scstep>
   <time name="diag">    0.08    0.08</time>
   <time name="diis">    0.62    0.62</time>
   <time name="orth">    0.01    0.01</time>
   <time name="total">    0.77    0.82</time>
   <energy>
    <i name="e_fr_energy">   -356.22340626 </i>
    <i name="e_wo_entrp">   -356.23738516 </i>
    <i name="e_0_energy">   -356.22806589 </i>
   </energy>
  </scstep>
  <scstep>
   <time name="diag">    0.08    0.08</time>
   <time name="diis">    0.53    0.53</time>
   <time name="orth">    0.01    0.01</time>
   <time name="total">    0.66    0.72</time>
   <energy>
    <i name="alphaZ">   1470.08659113 </i>
    <i name="ewald"> -19306.17142819 </i>
    <i name="hartreedc">  -6164.42008676 </i>
    <i name="XCdc">   -268.61872543 </i>
    <i name="pawpsdc">  34143.03348731 </i>
    <i name="pawaedc"> -32536.41724836 </i>
    <i name="eentropy">      0.01397470 </i>
    <i name="bandstr">  -2597.92109872 </i>
    <i name="atom">  24904.19112557 </i>
    <i name="e_fr_energy">   -356.22340874 </i>
    <i name="e_wo_entrp">   -356.23738345 </i>
    <i name="e_0_energy">   -356.22806698 </i>
   </energy>
  </scstep>
  <structure>
   <crystal>
    <varray name="basis" >
     <v>       7.04355742       0.02093365       0.06981589 </v>
     <v>       0.03119840      10.31449606      -0.00414908 </v>
     <v>       0.10149334      -0.00463567      10.32373863 </v>
    </varray>
    <i name="volume">    749.94732136 </i>
    <varray name="rec_basis" >
     <v>       0.14198883      -0.00043004      -0.00139609 </v>
     <v>      -0.00028860       0.09695182       0.00004637 </v>
     <v>      -0.00096034       0.00004187       0.09687359 </v>
    </varray>
   </crystal>
   <varray name="positions" >
    <v>       0.72545798       0.16213767       0.82920613 </v>
    <v>       0.51158486       0.33664772       0.34011129 </v>
    <v>       0.01900369       0.32344779       0.67534422 </v>
    <v>       0.26197615       0.49484284       0.15449275 </v>
    <v>       0.97087345       0.33915114       0.32432200 </v>
    <v>       0.49552596       0.66660353       0.33644844 </v>
    <v>       0.21363214       0.15869466       0.47570977 </v>
    <v>       0.78208494       0.51317411       0.52425710 </v>
    <v>       0.77430213       0.83488236       0.51320670 </v>
    <v>       0.26294830       0.49985816       0.84447661 </v>
    <v>       0.25857135       0.16302184       0.16746804 </v>
    <v>       0.74828217       0.82547169       0.83281946 </v>
    <v>       0.29108304       0.17193760       0.85455856 </v>
    <v>       0.51538273       0.99378014       0.33585125 </v>
    <v>       0.47655347       0.99815326       0.65007087 </v>
    <v>      -0.00072998       0.99789493       0.99985116 </v>
    <v>       0.02482164       0.99933273       0.68289717 </v>
    <v>       0.99490484       0.66692520       0.31675383 </v>
    <v>       0.48884356       0.33156091       0.64341969 </v>
    <v>       0.97672970       0.32503770       0.00061417 </v>
    <v>       0.75214455       0.51130392       0.83574697 </v>
    <v>       0.46400144       0.67411999       0.65367682 </v>
    <v>       0.49845405       0.67616701       0.00907750 </v>
    <v>       0.00398569       0.67636191       0.01163403 </v>
    <v>       0.74533853       0.83019025       0.15583305 </v>
    <v>       0.97097965       0.99401445       0.31847777 </v>
    <v>       0.24889795       0.83798327       0.16785924 </v>
    <v>       0.77092985       0.15469629       0.50161523 </v>
    <v>       0.21861655       0.50466084       0.50117893 </v>
    <v>       0.04192950       0.67676145       0.67375584 </v>
    <v>       0.73824302       0.51211447       0.14848447 </v>
    <v>       0.22136427       0.83740351       0.48227973 </v>
    <v>       0.73353447       0.16015504       0.16365666 </v>
    <v>       0.25904335       0.82747137       0.84953603 </v>
    <v>       0.53747289       0.33751170       0.01190465 </v>
    <v>       0.50321612       0.98653654       0.01339587 </v>
   </varray>
  </structure>
  <varray name="forces" >
   <v>      -0.02622736       0.01522905       0.00136037 </v>
   <v>       0.00265335      -0.00900869      -0.00548389 </v>
   <v>       0.01920618       0.00465540      -0.00971393 </v>
   <v>       0.00268705       0.00279720       0.00215653 </v>
   <v>      -0.00025502      -0.00058130       0.00994542 </v>
   <v>      -0.00655940       0.01123579      -0.00456718 </v>
   <v>       0.01620354      -0.00524654       0.02732511 </v>
   <v>       0.02172545       0.02613131      -0.01666179 </v>
   <v>       0.01537516      -0.02725566      -0.01155159 </v>
   <v>      -0.01448568       0.00209997      -0.00021276 </v>
   <v>      -0.01690151      -0.01537666      -0.01530941 </v>
   <v>      -0.00964634      -0.00778963       0.00927317 </v>
   <v>       0.02846617       0.01385664       0.00478816 </v>
   <v>       0.01264259       0.00321143      -0.00251509 </v>
   <v>      -0.01355813      -0.00255466      -0.00123318 </v>
   <v>       0.02395201      -0.00338780       0.01017282 </v>
   <v>       0.03701498      -0.00652301      -0.00976072 </v>
   <v>       0.00182452       0.00227893       0.00827299 </v>
   <v>      -0.00201476      -0.00095028       0.02132097 </v>
   <v>       0.02757992       0.00257606       0.01806860 </v>
   <v>      -0.00435396       0.00183187      -0.00030921 </v>
   <v>       0.01344014       0.01045899      -0.01656856 </v>
   <v>      -0.00366911       0.00163197       0.00110371 </v>
   <v>      -0.00949684       0.01277177       0.00190707 </v>
   <v>      -0.01024660      -0.01536253      -0.00226928 </v>
   <v>      -0.01120515       0.00021327       0.00767219 </v>
   <v>       0.00025253      -0.01785067       0.00305566 </v>
   <v>      -0.00340110       0.00297158       0.00937234 </v>
   <v>      -0.00409936       0.01695036      -0.01420558 </v>
   <v>      -0.01512129       0.01331372      -0.01594003 </v>
   <v>      -0.00320366       0.02203835       0.01507563 </v>
   <v>      -0.00921072      -0.02390439      -0.00455678 </v>
   <v>      -0.01528352      -0.00454943      -0.00034159 </v>
   <v>      -0.00971801      -0.01754234       0.01399145 </v>
   <v>      -0.01948777      -0.02351405      -0.03376950 </v>
   <v>      -0.01487828       0.01514395       0.00010786 </v>
  </varray>
  <varray name="stress" >
   <v>      -3.69325080      -0.03626630       0.34950973 </v>
   <v>      -0.03626629      -3.23771821      -0.03149639 </v>
   <v>       0.34950975      -0.03149639      -3.35320370 </v>
  </varray>
  <energy>
   <i name="e_fr_energy">   -356.22340874 </i>
   <i name="e_wo_entrp">   -356.22806698 </i>
   <i name="e_0_energy">      0.01397470 </i>
  </energy>
  <time name="totalsc">    9.65   10.56</time>
 </calculation>
 <calculation>
  <scstep>
   <time name="dav">    1.01    1.02</time>
   <time name="total">    1.09    1.30</time>
   <energy>
    <i name="alphaZ">   1471.88390073 </i>
    <i name="ewald"> -19309.63790271 </i>
    <i name="hartreedc">  -6171.17846977 </i>
    <i name="XCdc">   -268.26264094 </i>
    <i name="pawpsdc">  34142.88676584 </i>
    <i name="pawaedc"> -32536.34505981 </i>
    <i name="eentropy">      0.01363482 </i>
    <i name="bandstr">  -2589.77721173 </i>
    <i name="atom">  24904.19112557 </i>
    <i name="e_fr_energy">   -356.22585800 </i>
    <i name="e_wo_entrp">   -356.23949282 </i>
    <i name="e_0_energy">   -356.23040294 </i>
   </energy>
  </scstep>
  <scstep>
   <time name="diag">    0.08    0.08</time>
   <time name="diis">    0.73    0.73</time>
   <time name="orth">    0.01    0.01</time>
   <time name="total">    0.88    0.94</time>
   <energy>
    <i name="e_fr_energy">   -356.22566676 </i>
    <i name="e_wo_entrp">   -356.23957809 </i>
    <i name="e_0_energy">   -356.23030387 </i>
   </energy>
  </scstep>
  <scstep>
   <time name="diag">    0.13    0.14</time>
   <time name="diis">    0.75    0.76</time>
   <time name="orth">    0.01    0.01</time>
   <time name="total">    0.98    1.04</time>
   <energy>
    <i name="e_fr_energy">   -356.22521649 </i>
    <i name="e_wo_entrp">   -356.23884048 </i>
    <i name="e_0_energy">   -356.22975782 </i>
   </energy>
  </scstep>
  <scstep>
   <time name="diag">    0.08    0.08</time>
   <time name="diis">    0.75    0.76</time>
   <time name="orth">    0.01    0.01</time>
   <time name="total">    0.91    0.96</time>
   <energy>
    <i name="e_fr_energy">   -356.22474242 </i>
    <i name="e_wo_entrp">   -356.23846845 </i>
    <i name="e_0_energy">   -356.22931776 </i>
   </energy>
  </scstep>
  <scstep>
   <time name="diag">    0.08    0.08</time>
   <time name="diis">    0.80    0.80</time>
   <time name="orth">    0.01    0.01</time>
   <time name="total">    0.96    1.00</time>
   <energy>
    <i name="e_fr_energy">   -356.22471507 </i>
    <i name="e_wo_entrp">   -356.23849324 </i>
    <i name="e_0_energy">   -356.22930779 </i>
   </energy>
  </scstep>
  <scstep>
   <time name="diag">    0.08    0.08</time>
   <time name="diis">    0.70    0.71</time>
   <time name="orth">    0.01    0.01</time>
   <time name="total">    0.86    0.90</time>
   <energy>
    <i name="e_fr_energy">   -356.22472199 </i>
    <i name="e_wo_entrp">   -356.23843702 </i>
    <i name="e_0_energy">   -356.22929366 </i>
   </energy>
  </scstep>
  <scstep>
   <time name="diag">    0.08    0.08</time>
   <time name="diis">    0.62    0.62</time>
   <time name="orth">    0.01    0.01</time>
   <time name="total">    0.74    0.79</time>
   <energy>
    <i name="alphaZ">   1471.88390073 </i>
    <i name="ewald"> -19309.63790271 </i>
    <i name="hartreedc">  -6166.38032045 </i>
    <i name="XCdc">   -268.47866629 </i>
    <i name="pawpsdc">  34201.38550006 </i>
    <i name="pawaedc"> -32595.00968776 </i>
    <i name="eentropy">      0.01373970 </i>
    <i name="bandstr">  -2594.19241948 </i>
    <i name="atom">  24904.19112557 </i>
    <i name="e_fr_energy">   -356.22473063 </i>
    <i name="e_wo_entrp">   -356.23847033 </i>
    <i name="e_0_energy">   -356.22931053 </i>
   </energy>
  </scstep>
  <structure>
   <crystal>
    <varray name="basis" >
     <v>       7.04273862       0.02067837       0.07114388 </v>
     <v>       0.03084002      10.30596866      -0.00359550 </v>
     <v>       0.10345466      -0.00408837      10.32090059 </v>
    </varray>
    <i name="volume">    749.03156467 </i>
    <varray name="rec_basis" >
     <v>       0.14200585      -0.00042544      -0.00142361 </v>
     <v>      -0.00028532       0.09703202       0.00004130 </v>
     <v>      -0.00097897       0.00003674       0.09690060 </v>
    </varray>
   </crystal>
   <varray name="positions" >
    <v>       0.72486718       0.16222617       0.82931185 </v>
    <v>       0.51157832       0.33663982       0.34005113 </v>
    <v>       0.01914950       0.32327774       0.67544533 </v>
    <v>       0.26195863       0.49484763       0.15452013 </v>
    <v>       0.97076953       0.33916454       0.32432016 </v>
    <v>       0.49549468       0.66661134       0.33647084 </v>
    <v>       0.21354585       0.15867407       0.47577242 </v>
    <v>       0.78218250       0.51320860       0.52421051 </v>
    <v>       0.77429005       0.83487859       0.51317769 </v>
    <v>       0.26306185       0.49934042       0.84451821 </v>
    <v>       0.25871803       0.16311091       0.16700224 </v>
    <v>       0.74838260       0.82532748       0.83281639 </v>
    <v>       0.29120580       0.17196611       0.85472981 </v>
    <v>       0.51538210       0.99377936       0.33585006 </v>
    <v>       0.47640011       0.99841130       0.65024814 </v>
    <v>      -0.00043964       0.99813448       0.99958990 </v>
    <v>       0.02506392       0.99946007       0.68301292 </v>
    <v>       0.99494205       0.66691314       0.31679539 </v>
    <v>       0.48858870       0.33128652       0.64369520 </v>
    <v>       0.97697108       0.32480184       0.00041471 </v>
    <v>       0.75208358       0.51141157       0.83581977 </v>
    <v>       0.46401217       0.67414980       0.65363431 </v>
    <v>       0.49840231       0.67620445       0.00903218 </v>
    <v>       0.00395341       0.67643029       0.01165513 </v>
    <v>       0.74537519       0.83020035       0.15596915 </v>
    <v>       0.97101364       0.99406518       0.31849170 </v>
    <v>       0.24892711       0.83793810       0.16789337 </v>
    <v>       0.77090070       0.15469072       0.50147903 </v>
    <v>       0.21862252       0.50467398       0.50114439 </v>
    <v>       0.04181575       0.67681110       0.67379663 </v>
    <v>       0.73824339       0.51215793       0.14850832 </v>
    <v>       0.22134265       0.83738914       0.48220231 </v>
    <v>       0.73350053       0.16014196       0.16380489 </v>
    <v>       0.25907122       0.82776024       0.84952041 </v>
    <v>       0.53743648       0.33724678       0.01177736 </v>
    <v>       0.50317051       0.98667630       0.01331003 </v>
   </varray>
  </structure>
  <varray name="forces" >
   <v>       0.01120041       0.00396377      -0.00572220 </v>
   <v>       0.00256470      -0.00500071       0.00066663 </v>
   <v>       0.00578309       0.01442613      -0.01233115 </v>
   <v>       0.00243036       0.00168231      -0.00052744 </v>
   <v>       0.00412472      -0.00074713       0.00699934 </v>
   <v>      -0.00270752       0.00721825      -0.00438963 </v>
   <v>       0.01394203      -0.00203820       0.01447914 </v>
   <v>       0.00923507       0.01404092      -0.00815318 </v>
   <v>       0.01020512      -0.01705972      -0.00619037 </v>
   <v>      -0.01523832       0.03611195      -0.00326387 </v>
   <v>      -0.01657327      -0.01626240       0.02197878 </v>
   <v>      -0.01060877       0.00528631       0.00612383 </v>
   <v>       0.01238717       0.00734243      -0.00915191 </v>
   <v>       0.00849583       0.00177093      -0.00183512 </v>
   <v>      -0.00136799      -0.02021444      -0.01254573 </v>
   <v>       0.00115174      -0.01943873       0.02507324 </v>
   <v>       0.01111879      -0.01301770      -0.01336840 </v>
   <v>      -0.00064769       0.00238330       0.00098481 </v>
   <v>       0.01109688       0.01936163      -0.00526648 </v>
   <v>       0.00664019       0.01926418       0.02509303 </v>
   <v>       0.00029597      -0.00669799      -0.00505800 </v>
   <v>       0.00803979       0.00419615      -0.00637198 </v>
   <v>       0.00061132      -0.00225806       0.00394293 </v>
   <v>      -0.00413923       0.00274193      -0.00082572 </v>
   <v>      -0.00855100      -0.01032623      -0.01239266 </v>
   <v>      -0.00919866      -0.00416333       0.00252508 </v>
   <v>      -0.00138143      -0.00782115      -0.00132848 </v>
   <v>      -0.00027783       0.00240436       0.01670610 </v>
   <v>      -0.00249948       0.00942322      -0.00594571 </v>
   <v>      -0.00344429       0.00451320      -0.01127382 </v>
   <v>      -0.00216959       0.01042738       0.00705344 </v>
   <v>      -0.00481775      -0.01376098       0.00261467 </v>
   <v>      -0.00858829      -0.00200064      -0.01094230 </v>
   <v>      -0.00753003      -0.03027699       0.01003456 </v>
   <v>      -0.01179594       0.00343268      -0.01309340 </v>
   <v>      -0.00778611       0.00109338       0.00570196 </v>
  </varray>
  <varray name="stress" >
   <v>      -2.57058378      -0.01012390       0.15128551 </v>
   <v>      -0.01012391      -2.00248216      -0.03503714 </v>
   <v>       0.15128555      -0.03503710      -2.27084098 </v>
  </varray>
  <energy>
   <i name="e_fr_energy">   -356.22473063 </i>
   <i name="e_wo_entrp">   -356.22931053 </i>
   <i name="e_0_energy">      0.01373970 </i>
  </energy>
  <time name="totalsc">    7.99    8.65</time>
 </calculation>
 <calculation>
  <scstep>
   <time name="dav">    0.91    0.92</time>
   <time name="total">    1.00    1.20</time>
   <energy>
    <i name="alphaZ">   1472.64759661 </i>
    <i name="ewald"> -19314.35971014 </i>
    <i name="hartreedc">  -6166.10631921 </i>
    <i name="XCdc">   -268.33091021 </i>
    <i name="pawpsdc">  34200.11584422 </i>
    <i name="pawaedc"> -32593.71222125 </i>
    <i name="eentropy">      0.01366050 </i>
    <i name="bandstr">  -2590.68492973 </i>
    <i name="atom">  24904.19112557 </i>
    <i name="e_fr_energy">   -356.22586365 </i>
    <i name="e_wo_entrp">   -356.23952415 </i>
    <i name="e_0_energy">   -356.23041715 </i>
   </energy>
  </scstep>
  <scstep>
   <time name="diag">    0.08    0.08</time>
   <time name="diis">    0.76    0.76</time>
   <time name="orth">    0.01    0.01</time>
   <time name="total">    0.94    0.98</time>
   <energy>
    <i name="e_fr_energy">   -356.22570463 </i>
    <i name="e_wo_entrp">   -356.23955267 </i>
    <i name="e_0_energy">   -356.23032065 </i>
   </energy>
  </scstep>
  <scstep>
   <time name="diag">    0.10    0.10</time>
   <time name="diis">    0.75    0.75</time>
   <time name="orth">    0.01    0.01</time>
   <time name="total">    0.92    0.97</time>
   <energy>
    <i name="e_fr_energy">   -356.22556819 </i>
    <i name="e_wo_entrp">   -356.23930528 </i>
    <i name="e_0_energy">   -356.23014722 </i>
   </energy>
  </scstep>
  <scstep>
   <time name="diag">    0.08    0.08</time>
   <time name="diis">    0.81    0.81</time>
   <time name="orth">    0.01    0.01</time>
   <time name="total">    0.96    1.01</time>
   <energy>
    <i name="e_fr_energy">   -356.22547760 </i>
    <i name="e_wo_entrp">   -356.23920776 </i>
    <i name="e_0_energy">   -356.23005432 </i>
   </energy>
  </scstep>
  <scstep>
   <time name="diag">    0.08    0.08</time>
   <time name="diis">    0.61    0.61</time>
   <time name="orth">    0.01    0.01</time>
   <time name="total">    0.73    0.78</time>
   <energy>
    <i name="alphaZ">   1472.64759661 </i>
    <i name="ewald"> -19314.35971014 </i>
    <i name="hartreedc">  -6163.94510180 </i>
    <i name="XCdc">   -268.42572431 </i>
    <i name="pawpsdc">  34228.51981351 </i>
    <i name="pawaedc"> -32622.10786107 </i>
    <i name="eentropy">      0.01376213 </i>
    <i name="bandstr">  -2592.75937767 </i>
    <i name="atom">  24904.19112557 </i>
    <i name="e_fr_energy">   -356.22547718 </i>
    <i name="e_wo_entrp">   -356.23923931 </i>
    <i name="e_0_energy">   -356.23006456 </i>
   </energy>
  </scstep>
  <structure>
   <crystal>
    <varray name="basis" >
     <v>       7.04075511       0.02072926       0.07091643 </v>
     <v>       0.03090875      10.30563381      -0.00377828 </v>
     <v>       0.10311409      -0.00427031      10.31878400 </v>
    </varray>
    <i name="volume">    748.64312665 </i>
    <varray name="rec_basis" >
     <v>       0.14204577      -0.00042655      -0.00141962 </v>
     <v>      -0.00028612       0.09703518       0.00004302 </v>
     <v>      -0.00097632       0.00003846       0.09692042 </v>
    </varray>
   </crystal>
   <varray name="positions" >
    <v>       0.72503184       0.16220728       0.82927975 </v>
    <v>       0.51158338       0.33663729       0.34006696 </v>
    <v>       0.01912031       0.32333391       0.67540851 </v>
    <v>       0.26196629       0.49484793       0.15451269 </v>
    <v>       0.97080124       0.33916046       0.32432691 </v>
    <v>       0.49549905       0.66661590       0.33646122 </v>
    <v>       0.21358601       0.15867742       0.47576949 </v>
    <v>       0.78217005       0.51321253       0.52421488 </v>
    <v>       0.77430677       0.83486408       0.51317935 </v>
    <v>       0.26301279       0.49950447       0.84450486 </v>
    <v>       0.25865864       0.16307364       0.16714035 </v>
    <v>       0.74834299       0.82536887       0.83282280 </v>
    <v>       0.29119119       0.17196549       0.85467801 </v>
    <v>       0.51539353       0.99378114       0.33584863 </v>
    <v>       0.47643743       0.99832755       0.65019187 </v>
    <v>      -0.00051199       0.99805613       0.99967879 </v>
    <v>       0.02501746       0.99941595       0.68297139 </v>
    <v>       0.99493174       0.66691836       0.31678575 </v>
    <v>       0.48866802       0.33137361       0.64362049 </v>
    <v>       0.97691827       0.32487909       0.00048790 </v>
    <v>       0.75209953       0.51137820       0.83579673 </v>
    <v>       0.46402016       0.67414601       0.65363926 </v>
    <v>       0.49841619       0.67619291       0.00904723 </v>
    <v>       0.00395611       0.67641544       0.01164907 </v>
    <v>       0.74535479       0.83018846       0.15592352 </v>
    <v>       0.97099283       0.99404857       0.31849053 </v>
    <v>       0.24891794       0.83794248       0.16788352 </v>
    <v>       0.77090748       0.15469431       0.50152866 </v>
    <v>       0.21861774       0.50467918       0.50114780 </v>
    <v>       0.04184016       0.67680259       0.67377613 </v>
    <v>       0.73824029       0.51215635       0.14850867 </v>
    <v>       0.22134177       0.83738034       0.48222434 </v>
    <v>       0.73349792       0.16014349       0.16375750 </v>
    <v>       0.25905416       0.82765959       0.84953350 </v>
    <v>       0.53743024       0.33731711       0.01179791 </v>
    <v>       0.50317167       0.98664186       0.01333702 </v>
   </varray>
  </structure>
  <varray name="forces" >
   <v>       0.00350105       0.00637800      -0.00543317 </v>
   <v>       0.00080452      -0.00515951      -0.00032226 </v>
   <v>       0.00803845       0.01311973      -0.01046104 </v>
   <v>       0.00120951       0.00085150       0.00256154 </v>
   <v>       0.00536283      -0.00129975       0.00692647 </v>
   <v>      -0.00246063       0.00648247      -0.00304793 </v>
   <v>       0.01645340      -0.00082561       0.01586364 </v>
   <v>       0.00869617       0.01547491      -0.01128942 </v>
   <v>       0.00887441      -0.01978584      -0.00696562 </v>
   <v>      -0.01446836       0.02624499      -0.00302140 </v>
   <v>      -0.01781951      -0.01438424       0.01396287 </v>
   <v>      -0.01056166       0.00297451       0.00499660 </v>
   <v>       0.01406187       0.00832563      -0.00638129 </v>
   <v>       0.00733698       0.00227786      -0.00101178 </v>
   <v>      -0.00343786      -0.01543669      -0.00700474 </v>
   <v>       0.00743994      -0.01248142       0.01824714 </v>
   <v>       0.01685601      -0.01055415      -0.01148789 </v>
   <v>      -0.00025084       0.00078574       0.00559220 </v>
   <v>       0.00826575       0.01474426       0.00290065 </v>
   <v>       0.01486857       0.01400142       0.02173252 </v>
   <v>      -0.00104093      -0.00456565      -0.00664459 </v>
   <v>       0.01377531       0.00516308      -0.00885096 </v>
   <v>      -0.00187471      -0.00315486       0.00075030 </v>
   <v>      -0.00486675       0.00311120      -0.00285984 </v>
   <v>      -0.00939765      -0.01149207      -0.00576165 </v>
   <v>      -0.00766881      -0.00183145       0.00473089 </v>
   <v>      -0.00056106      -0.01000106       0.00243953 </v>
   <v>      -0.00216924       0.00420955       0.01484362 </v>
   <v>      -0.00009624       0.00985817      -0.01130868 </v>
   <v>      -0.01148740       0.00553538      -0.01065702 </v>
   <v>      -0.00138511       0.01166364       0.01298888 </v>
   <v>      -0.00383547      -0.01643582      -0.00014736 </v>
   <v>      -0.00818977      -0.00099226      -0.00727822 </v>
   <v>      -0.00741362      -0.02651589       0.00937339 </v>
   <v>      -0.01737116      -0.00226193      -0.01936528 </v>
   <v>      -0.00918800       0.00597618       0.00138988 </v>
  </varray>
  <varray name="stress" >
   <v>      -1.89544760      -0.00254689       0.13555782 </v>
   <v>      -0.00254691      -1.19216573      -0.06196819 </v>
   <v>       0.13555776      -0.06196822      -1.57291678 </v>
  </varray>
  <energy>
   <i name="e_fr_energy">   -356.22547718 </i>
   <i name="e_wo_entrp">   -356.23006456 </i>
   <i name="e_0_energy">      0.01376213 </i>
  </energy>
  <time name="totalsc">    6.13    6.96</time>
 </calculation>
 <calculation>
  <scstep>
   <time name="dav">    1.04    1.07</time>
   <time name="total">    1.11    1.35</time>
   <energy>
    <i name="alphaZ">   1474.43009778 </i>
    <i name="ewald"> -19325.34942514 </i>
    <i name="hartreedc">  -6163.34523710 </i>
    <i name="XCdc">   -268.08004762 </i>
    <i name="pawpsdc">  34226.38216300 </i>
    <i name="pawaedc"> -32619.93508813 </i>
    <i name="eentropy">      0.01355217 </i>
    <i name="bandstr">  -2584.53524645 </i>
    <i name="atom">  24904.19112557 </i>
    <i name="e_fr_energy">   -356.22810591 </i>
    <i name="e_wo_entrp">   -356.24165808 </i>
    <i name="e_0_energy">   -356.23262330 </i>
[...]
       <r>    6.5941    1.0000 </r>
       <r>    6.6739    1.0000 </r>
       <r>    6.6898    1.0000 </r>
       <r>    6.7349    1.0000 </r>
       <r>    6.7539    1.0000 </r>
       <r>    6.7953    1.0000 </r>
       <r>    6.8243    1.0000 </r>
       <r>    6.8646    1.0000 </r>
       <r>    6.9179    1.0000 </r>
       <r>    6.9875    1.0005 </r>
       <r>    7.0016    1.0007 </r>
       <r>    7.0254    1.0015 </r>
       <r>    7.0734    1.0052 </r>
       <r>    7.1173    1.0132 </r>
       <r>    7.1469    1.0214 </r>
       <r>    7.1832    1.0320 </r>
       <r>    7.2243    1.0335 </r>
       <r>    7.2356    1.0292 </r>
       <r>    7.2773    0.9812 </r>
       <r>    7.3278    0.8296 </r>
       <r>    7.3764    0.5895 </r>
       <r>    7.4107    0.3973 </r>
       <r>    7.4419    0.2368 </r>
       <r>    7.4843    0.0742 </r>
       <r>    7.5065    0.0206 </r>
       <r>    7.5476   -0.0284 </r>
       <r>    7.6147   -0.0284 </r>
       <r>    7.6442   -0.0195 </r>
       <r>    7.6849   -0.0094 </r>
       <r>    7.7104   -0.0053 </r>
       <r>    7.7374   -0.0027 </r>
       <r>    7.8357   -0.0001 </r>
       <r>    7.8639   -0.0000 </r>
       <r>    7.9088   -0.0000 </r>
       <r>    7.9611   -0.0000 </r>
       <r>    7.9985   -0.0000 </r>
       <r>    8.0157   -0.0000 </r>
       <r>    8.0297   -0.0000 </r>
       <r>    8.0829   -0.0000 </r>
       <r>    8.1274   -0.0000 </r>
       <r>    8.1591   -0.0000 </r>
       <r>    8.2263   -0.0000 </r>
       <r>    8.2805   -0.0000 </r>
       <r>    8.3157   -0.0000 </r>
       <r>    8.3536   -0.0000 </r>
       <r>    8.5580   -0.0000 </r>
       <r>    8.6789   -0.0000 </r>
       <r>    8.7485   -0.0000 </r>
       <r>    9.1539   -0.0000 </r>
      </set>
     </set>
    </set>
   </array>
  </eigenvalues>
  <separator name="orbital magnetization" >
   <v name="MAGDIPOLOUT">      0.00000000      0.00000000      0.00000000</v>
  </separator>
  <dos>
   <i name="efermi">      7.39234670 </i>
   <total>
    <array>
     <dimension dim="1">gridpoints</dimension>
     <dimension dim="2">spin</dimension>
     <field>energy</field>
     <field>total</field>
     <field>integrated</field>
     <set>
      <set comment="spin 1">
       <r>   -49.6239     0.0000     0.0000 </r>
       <r>   -49.4186     0.0000     0.0000 </r>
       <r>   -49.2132     0.0000     0.0000 </r>
       <r>   -49.0079     0.0000     0.0000 </r>
       <r>   -48.8026     0.0000     0.0000 </r>
       <r>   -48.5972     0.0000     0.0000 </r>
       <r>   -48.3919     0.0000     0.0000 </r>
       <r>   -48.1866    -0.0000    -0.0000 </r>
       <r>   -47.9812    -0.0000    -0.0000 </r>
       <r>   -47.7759    -0.0000    -0.0000 </r>
       <r>   -47.5706    -0.0000    -0.0000 </r>
       <r>   -47.3652    -0.0000    -0.0000 </r>
       <r>   -47.1599    -0.0570    -0.0117 </r>
       <r>   -46.9546    -0.7709    -0.1700 </r>
       <r>   -46.7492    24.3782     4.8357 </r>
       <r>   -46.5439    16.2892     8.1804 </r>
       <r>   -46.3386    -0.8580     8.0042 </r>
       <r>   -46.1332    -0.0204     8.0000 </r>
       <r>   -45.9279    -0.0000     8.0000 </r>
       <r>   -45.7226    -0.0000     8.0000 </r>
       <r>   -45.5172     0.0000     8.0000 </r>
       <r>   -45.3119     0.0000     8.0000 </r>
       <r>   -45.1066     0.0000     8.0000 </r>
       <r>   -44.9012     0.0000     8.0000 </r>
       <r>   -44.6959     0.0000     8.0000 </r>
       <r>   -44.4906     0.0000     8.0000 </r>
       <r>   -44.2852     0.0000     8.0000 </r>
       <r>   -44.0799     0.0000     8.0000 </r>
       <r>   -43.8746     0.0000     8.0000 </r>
       <r>   -43.6692     0.0000     8.0000 </r>
       <r>   -43.4639     0.0000     8.0000 </r>
       <r>   -43.2586     0.0000     8.0000 </r>
       <r>   -43.0532     0.0000     8.0000 </r>
       <r>   -42.8479     0.0000     8.0000 </r>
       <r>   -42.6426     0.0000     8.0000 </r>
       <r>   -42.4372     0.0000     8.0000 </r>
       <r>   -42.2319    -0.0000     8.0000 </r>
       <r>   -42.0266    -0.0000     8.0000 </r>
       <r>   -41.8212    -0.0000     8.0000 </r>
       <r>   -41.6159    -0.0000     8.0000 </r>
       <r>   -41.4106    -0.0011     7.9998 </r>
       <r>   -41.2052    -0.4831     7.9006 </r>
       <r>   -40.9999     2.1254     8.3370 </r>
       <r>   -40.7946    85.1798    25.8273 </r>
       <r>   -40.5892    42.1528    34.4827 </r>
       <r>   -40.3839    -2.2977    34.0109 </r>
       <r>   -40.1785    -0.0532    34.0000 </r>
       <r>   -39.9732    -0.0000    34.0000 </r>
       <r>   -39.7679    -0.0000    34.0000 </r>
       <r>   -39.5625     0.0000    34.0000 </r>
       <r>   -39.3572     0.0000    34.0000 </r>
       <r>   -39.1519     0.0000    34.0000 </r>
       <r>   -38.9465     0.0000    34.0000 </r>
       <r>   -38.7412     0.0000    34.0000 </r>
       <r>   -38.5359     0.0000    34.0000 </r>
       <r>   -38.3305     0.0000    34.0000 </r>
       <r>   -38.1252     0.0000    34.0000 </r>
       <r>   -37.9199     0.0000    34.0000 </r>
       <r>   -37.7145     0.0000    34.0000 </r>
       <r>   -37.5092     0.0000    34.0000 </r>
       <r>   -37.3039     0.0000    34.0000 </r>
       <r>   -37.0985     0.0000    34.0000 </r>
       <r>   -36.8932     0.0000    34.0000 </r>
       <r>   -36.6879     0.0000    34.0000 </r>
       <r>   -36.4825     0.0000    34.0000 </r>
       <r>   -36.2772     0.0000    34.0000 </r>
       <r>   -36.0719     0.0000    34.0000 </r>
       <r>   -35.8665     0.0000    34.0000 </r>
       <r>   -35.6612     0.0000    34.0000 </r>
       <r>   -35.4559     0.0000    34.0000 </r>
       <r>   -35.2505     0.0000    34.0000 </r>
       <r>   -35.0452     0.0000    34.0000 </r>
       <r>   -34.8399     0.0000    34.0000 </r>
       <r>   -34.6345     0.0000    34.0000 </r>
       <r>   -34.4292     0.0000    34.0000 </r>
       <r>   -34.2239     0.0000    34.0000 </r>
       <r>   -34.0185     0.0000    34.0000 </r>
       <r>   -33.8132     0.0000    34.0000 </r>
       <r>   -33.6079     0.0000    34.0000 </r>
       <r>   -33.4025     0.0000    34.0000 </r>
       <r>   -33.1972     0.0000    34.0000 </r>
       <r>   -32.9919     0.0000    34.0000 </r>
       <r>   -32.7865     0.0000    34.0000 </r>
       <r>   -32.5812     0.0000    34.0000 </r>
       <r>   -32.3759     0.0000    34.0000 </r>
       <r>   -32.1705     0.0000    34.0000 </r>
       <r>   -31.9652     0.0000    34.0000 </r>
       <r>   -31.7599     0.0000    34.0000 </r>
       <r>   -31.5545     0.0000    34.0000 </r>
       <r>   -31.3492     0.0000    34.0000 </r>
       <r>   -31.1438     0.0000    34.0000 </r>
       <r>   -30.9385     0.0000    34.0000 </r>
       <r>   -30.7332     0.0000    34.0000 </r>
       <r>   -30.5278     0.0000    34.0000 </r>
       <r>   -30.3225     0.0000    34.0000 </r>
       <r>   -30.1172     0.0000    34.0000 </r>
       <r>   -29.9118     0.0000    34.0000 </r>
       <r>   -29.7065     0.0000    34.0000 </r>
       <r>   -29.5012     0.0000    34.0000 </r>
       <r>   -29.2958     0.0000    34.0000 </r>
       <r>   -29.0905     0.0000    34.0000 </r>
       <r>   -28.8852     0.0000    34.0000 </r>
       <r>   -28.6798     0.0000    34.0000 </r>
       <r>   -28.4745     0.0000    34.0000 </r>
       <r>   -28.2692     0.0000    34.0000 </r>
       <r>   -28.0638     0.0000    34.0000 </r>
       <r>   -27.8585     0.0000    34.0000 </r>
       <r>   -27.6532     0.0000    34.0000 </r>
       <r>   -27.4478     0.0000    34.0000 </r>
       <r>   -27.2425     0.0000    34.0000 </r>
       <r>   -27.0372     0.0000    34.0000 </r>
       <r>   -26.8318     0.0000    34.0000 </r>
       <r>   -26.6265     0.0000    34.0000 </r>
       <r>   -26.4212     0.0000    34.0000 </r>
       <r>   -26.2158     0.0000    34.0000 </r>
       <r>   -26.0105     0.0000    34.0000 </r>
       <r>   -25.8052     0.0000    34.0000 </r>
       <r>   -25.5998     0.0000    34.0000 </r>
       <r>   -25.3945     0.0000    34.0000 </r>
       <r>   -25.1892     0.0000    34.0000 </r>
       <r>   -24.9838     0.0000    34.0000 </r>
       <r>   -24.7785     0.0000    34.0000 </r>
       <r>   -24.5732    -0.0000    34.0000 </r>
       <r>   -24.3678    -0.0000    34.0000 </r>
       <r>   -24.1625    -0.0000    34.0000 </r>
       <r>   -23.9572    -0.0000    34.0000 </r>
       <r>   -23.7518    -0.0000    34.0000 </r>
       <r>   -23.5465    -0.0295    33.9939 </r>
       <r>   -23.3412    -0.5503    33.8809 </r>
       <r>   -23.1358    12.2607    36.3985 </r>
       <r>   -22.9305    40.9927    44.8157 </r>
       <r>   -22.7252    47.3723    54.5428 </r>
       <r>   -22.5198    15.3161    57.6877 </r>
       <r>   -22.3145     1.6956    58.0359 </r>
       <r>   -22.1092    -0.1746    58.0001 </r>
       <r>   -21.9038    -0.0003    58.0000 </r>
       <r>   -21.6985    -0.0000    58.0000 </r>
       <r>   -21.4931    -0.0000    58.0000 </r>
       <r>   -21.2878     0.0000    58.0000 </r>
       <r>   -21.0825     0.0000    58.0000 </r>
       <r>   -20.8771     0.0000    58.0000 </r>
       <r>   -20.6718    -0.0000    58.0000 </r>
       <r>   -20.4665    -0.0000    58.0000 </r>
       <r>   -20.2611    -0.0000    58.0000 </r>
       <r>   -20.0558    -0.0000    58.0000 </r>
       <r>   -19.8505    -0.0003    57.9999 </r>
       <r>   -19.6451    -0.1359    57.9720 </r>
       <r>   -19.4398    -0.3164    57.9071 </r>
       <r>   -19.2345    31.7858    64.4338 </r>
       <r>   -19.0291    96.5826    84.2655 </r>
       <r>   -18.8238   139.8430   112.9800 </r>
       <r>   -18.6185    96.1331   132.7194 </r>
       <r>   -18.4131    17.3985   136.2919 </r>
       <r>   -18.2078    -1.4103   136.0023 </r>
       <r>   -18.0025    -0.0114   136.0000 </r>
       <r>   -17.7971    -0.0000   136.0000 </r>
       <r>   -17.5918    -0.0000   136.0000 </r>
       <r>   -17.3865     0.0000   136.0000 </r>
       <r>   -17.1811     0.0000   136.0000 </r>
       <r>   -16.9758     0.0000   136.0000 </r>
       <r>   -16.7705     0.0000   136.0000 </r>
       <r>   -16.5651     0.0000   136.0000 </r>
       <r>   -16.3598     0.0000   136.0000 </r>
       <r>   -16.1545     0.0000   136.0000 </r>
       <r>   -15.9491     0.0000   136.0000 </r>
       <r>   -15.7438     0.0000   136.0000 </r>
       <r>   -15.5385     0.0000   136.0000 </r>
       <r>   -15.3331     0.0000   136.0000 </r>
       <r>   -15.1278     0.0000   136.0000 </r>
       <r>   -14.9225     0.0000   136.0000 </r>
       <r>   -14.7171     0.0000   136.0000 </r>
       <r>   -14.5118     0.0000   136.0000 </r>
       <r>   -14.3065     0.0000   136.0000 </r>
       <r>   -14.1011     0.0000   136.0000 </r>
       <r>   -13.8958     0.0000   136.0000 </r>
       <r>   -13.6905     0.0000   136.0000 </r>
       <r>   -13.4851     0.0000   136.0000 </r>
       <r>   -13.2798     0.0000   136.0000 </r>
       <r>   -13.0745     0.0000   136.0000 </r>
       <r>   -12.8691     0.0000   136.0000 </r>
       <r>   -12.6638     0.0000   136.0000 </r>
       <r>   -12.4584     0.0000   136.0000 </r>
       <r>   -12.2531     0.0000   136.0000 </r>
       <r>   -12.0478     0.0000   136.0000 </r>
       <r>   -11.8424     0.0000   136.0000 </r>
       <r>   -11.6371     0.0000   136.0000 </r>
       <r>   -11.4318     0.0000   136.0000 </r>
       <r>   -11.2264     0.0000   136.0000 </r>
       <r>   -11.0211     0.0000   136.0000 </r>
       <r>   -10.8158     0.0000   136.0000 </r>
       <r>   -10.6104     0.0000   136.0000 </r>
       <r>   -10.4051     0.0000   136.0000 </r>
       <r>   -10.1998     0.0000   136.0000 </r>
       <r>    -9.9944     0.0000   136.0000 </r>
       <r>    -9.7891     0.0000   136.0000 </r>
       <r>    -9.5838     0.0000   136.0000 </r>
       <r>    -9.3784     0.0000   136.0000 </r>
       <r>    -9.1731     0.0000   136.0000 </r>
       <r>    -8.9678     0.0000   136.0000 </r>
       <r>    -8.7624     0.0000   136.0000 </r>
       <r>    -8.5571     0.0000   136.0000 </r>
       <r>    -8.3518     0.0000   136.0000 </r>
       <r>    -8.1464     0.0000   136.0000 </r>
       <r>    -7.9411     0.0000   136.0000 </r>
       <r>    -7.7358     0.0000   136.0000 </r>
       <r>    -7.5304     0.0000   136.0000 </r>
       <r>    -7.3251     0.0000   136.0000 </r>
       <r>    -7.1198     0.0000   136.0000 </r>
       <r>    -6.9144     0.0000   136.0000 </r>
       <r>    -6.7091     0.0000   136.0000 </r>
       <r>    -6.5038     0.0000   136.0000 </r>
       <r>    -6.2984     0.0000   136.0000 </r>
       <r>    -6.0931     0.0000   136.0000 </r>
       <r>    -5.8878     0.0000   136.0000 </r>
       <r>    -5.6824     0.0000   136.0000 </r>
       <r>    -5.4771     0.0000   136.0000 </r>
       <r>    -5.2718     0.0000   136.0000 </r>
       <r>    -5.0664     0.0000   136.0000 </r>
       <r>    -4.8611     0.0000   136.0000 </r>
       <r>    -4.6558     0.0000   136.0000 </r>
       <r>    -4.4504     0.0000   136.0000 </r>
       <r>    -4.2451     0.0000   136.0000 </r>
       <r>    -4.0398     0.0000   136.0000 </r>
       <r>    -3.8344     0.0000   136.0000 </r>
       <r>    -3.6291     0.0000   136.0000 </r>
       <r>    -3.4238     0.0000   136.0000 </r>
       <r>    -3.2184     0.0000   136.0000 </r>
       <r>    -3.0131     0.0000   136.0000 </r>
       <r>    -2.8077     0.0000   136.0000 </r>
       <r>    -2.6024     0.0000   136.0000 </r>
       <r>    -2.3971     0.0000   136.0000 </r>
       <r>    -2.1917     0.0000   136.0000 </r>
       <r>    -1.9864     0.0000   136.0000 </r>
       <r>    -1.7811     0.0000   136.0000 </r>
       <r>    -1.5757     0.0000   136.0000 </r>
       <r>    -1.3704     0.0000   136.0000 </r>
       <r>    -1.1651     0.0000   136.0000 </r>
       <r>    -0.9597     0.0000   136.0000 </r>
       <r>    -0.7544     0.0000   136.0000 </r>
       <r>    -0.5491    -0.0000   136.0000 </r>
       <r>    -0.3437    -0.0000   136.0000 </r>
       <r>    -0.1384    -0.0000   136.0000 </r>
       <r>     0.0669    -0.0000   136.0000 </r>
       <r>     0.2723    -0.0002   136.0000 </r>
       <r>     0.4776    -0.0134   135.9972 </r>
       <r>     0.6829     0.1750   136.0331 </r>
       <r>     0.8883     0.9707   136.2324 </r>
       <r>     1.0936     1.7078   136.5831 </r>
       <r>     1.2989     1.9117   136.9757 </r>
       <r>     1.5043     3.5572   137.7061 </r>
       <r>     1.7096     3.5510   138.4352 </r>
       <r>     1.9149     1.5306   138.7495 </r>
       <r>     2.1203     5.2140   139.8201 </r>
       <r>     2.3256     2.7698   140.3889 </r>
       <r>     2.5309     5.7284   141.5651 </r>
       <r>     2.7363     5.5762   142.7101 </r>
       <r>     2.9416     7.5033   144.2508 </r>
       <r>     3.1469     7.1432   145.7175 </r>
       <r>     3.3523     9.1879   147.6041 </r>
       <r>     3.5576     8.2713   149.3025 </r>
       <r>     3.7629    13.4253   152.0591 </r>
       <r>     3.9683    21.4052   156.4544 </r>
       <r>     4.1736    23.1230   161.2023 </r>
       <r>     4.3789    25.1449   166.3654 </r>
       <r>     4.5843    28.2508   172.1662 </r>
       <r>     4.7896    33.6226   179.0701 </r>
       <r>     4.9949    41.6408   187.6204 </r>
       <r>     5.2003    38.5723   195.5406 </r>
       <r>     5.4056    36.9846   203.1348 </r>
       <r>     5.6109    32.2116   209.7489 </r>
       <r>     5.8163    26.5941   215.2096 </r>
       <r>     6.0216    27.3817   220.8320 </r>
       <r>     6.2269    51.0262   231.3094 </r>
       <r>     6.4323    56.5253   242.9160 </r>
       <r>     6.6376    55.9512   254.4047 </r>
       <r>     6.8430    53.7399   265.4393 </r>
       <r>     7.0483    54.4280   276.6152 </r>
       <r>     7.2536    53.6843   287.6385 </r>
       <r>     7.4590    46.0354   297.0911 </r>
       <r>     7.6643    48.3943   307.0281 </r>
       <r>     7.8696    46.7319   316.6237 </r>
       <r>     8.0750    43.8028   325.6179 </r>
       <r>     8.2803    36.9634   333.2078 </r>
       <r>     8.4856    32.2468   339.8291 </r>
       <r>     8.6910    24.7652   344.9143 </r>
       <r>     8.8963    15.2565   348.0470 </r>
       <r>     9.1016    15.5197   351.2337 </r>
       <r>     9.3070     3.9787   352.0506 </r>
       <r>     9.5123    -0.2409   352.0012 </r>
       <r>     9.7176    -0.0057   352.0000 </r>
       <r>     9.9230    -0.0000   352.0000 </r>
       <r>    10.1283    -0.0000   352.0000 </r>
       <r>    10.3336     0.0000   352.0000 </r>
       <r>    10.5390     0.0000   352.0000 </r>
       <r>    10.7443     0.0000   352.0000 </r>
       <r>    10.9496     0.0000   352.0000 </r>
       <r>    11.1550     0.0000   352.0000 </r>
       <r>    11.3603     0.0000   352.0000 </r>
       <r>    11.5656     0.0000   352.0000 </r>
       <r>    11.7710     0.0000   352.0000 </r>
       <r>    11.9763     0.0000   352.0000 </r>
      </set>
     </set>
    </array>
   </total>
  </dos>
 </calculation>
 <structure name="finalpos" >
  <crystal>
   <varray name="basis" >
    <v>       7.03093016       0.02047996       0.07182634 </v>
    <v>       0.03048683      10.31593367      -0.00546783 </v>
    <v>       0.10439856      -0.00597891      10.30991155 </v>
   </varray>
   <i name="volume">    747.70011866 </i>
   <varray name="rec_basis" >
    <v>       0.14224464      -0.00042114      -0.00144062 </v>
    <v>      -0.00028297       0.09693829       0.00005908 </v>
    <v>      -0.00099113       0.00005434       0.09700411 </v>
   </varray>
  </crystal>
  <varray name="positions" >
   <v>       0.72601512       0.16242545       0.82901868 </v>
   <v>       0.51167279       0.33649545       0.34010291 </v>
   <v>       0.01985200       0.32390142       0.67512901 </v>
   <v>       0.26195199       0.49484105       0.15471308 </v>
   <v>       0.97086393       0.33887300       0.32450395 </v>
   <v>       0.49544969       0.66669107       0.33638454 </v>
   <v>       0.21446419       0.15872113       0.47631441 </v>
   <v>       0.78243420       0.51333306       0.52368776 </v>
   <v>       0.77468807       0.83449120       0.51301827 </v>
   <v>       0.26212968       0.50036082       0.84428369 </v>
   <v>       0.25787805       0.16260789       0.16778166 </v>
   <v>       0.74782891       0.82575007       0.83300380 </v>
   <v>       0.29147918       0.17217492       0.85429066 </v>
   <v>       0.51575587       0.99379489       0.33586838 </v>
   <v>       0.47659820       0.99760618       0.65034470 </v>
   <v>      -0.00017693       0.99778726       0.00009394 </v>
   <v>       0.02569105       0.99905534       0.68271237 </v>
   <v>       0.99498674       0.66685381       0.31667600 </v>
   <v>       0.48926088       0.33221010       0.64383540 </v>
   <v>       0.97737715       0.32524488       0.00118731 </v>
   <v>       0.75222836       0.51118889       0.83560210 </v>
   <v>       0.46467482       0.67420984       0.65342611 </v>
   <v>       0.49827046       0.67601240       0.00898967 </v>
   <v>       0.00336397       0.67643232       0.01157502 </v>
   <v>       0.74472876       0.82994400       0.15562749 </v>
   <v>       0.97041859       0.99415764       0.31887929 </v>
   <v>       0.24887356       0.83777635       0.16793234 </v>
   <v>       0.77071950       0.15491233       0.50235727 </v>
   <v>       0.21903475       0.50490588       0.50071999 </v>
   <v>       0.04130676       0.67680509       0.67354596 </v>
   <v>       0.73786754       0.51221561       0.14852350 </v>
   <v>       0.22126242       0.83699098       0.48215294 </v>
   <v>       0.73310619       0.16015833       0.16331138 </v>
   <v>       0.25885399       0.82689265       0.84975543 </v>
   <v>       0.53664018       0.33726991       0.01133386 </v>
   <v>       0.50243340       0.98691680       0.01330914 </v>
  </varray>
 </structure>
</modeling>
