       N       E                     dE             d eps       ncg     rms          rms(c)
DAV:   1     0.170080692017E+04    0.17008E+04   -0.10562E+05  5336   0.104E+03
DAV:   2    -0.117208151716E+03   -0.18180E+04   -0.17531E+04  5496   0.376E+02
DAV:   3    -0.356323007278E+03   -0.23911E+03   -0.22645E+03  8136   0.954E+01
DAV:   4    -0.384574284560E+03   -0.28251E+02   -0.26834E+02  8112   0.300E+01
DAV:   5    -0.387330457304E+03   -0.27562E+01   -0.26934E+01  7752   0.950E+00    0.662E+01
RMM:   6    -0.376864076433E+03    0.10466E+02   -0.28155E+01  7014   0.106E+01    0.319E+01
RMM:   7    -0.378978398214E+03   -0.21143E+01   -0.29506E+01  7264   0.857E+00    0.129E+01
RMM:   8    -0.372039010945E+03    0.69394E+01   -0.81759E+00  7247   0.447E+00    0.399E+00
RMM:   9    -0.371814998993E+03    0.22401E+00   -0.27285E+00  7462   0.207E+00    0.284E+00
RMM:  10    -0.371760842566E+03    0.54156E-01   -0.49037E-01  7489   0.120E+00    0.160E+00
RMM:  11    -0.371722657735E+03    0.38185E-01   -0.14846E-01  7374   0.624E-01    0.779E-01
RMM:  12    -0.371717845341E+03    0.48124E-02   -0.55031E-02  7529   0.369E-01    0.390E-01
RMM:  13    -0.371717301166E+03    0.54418E-03   -0.15994E-02  7490   0.180E-01    0.231E-01
RMM:  14    -0.371717257275E+03    0.43891E-04   -0.69437E-03  7600   0.107E-01    0.133E-01
RMM:  15    -0.371717496840E+03   -0.23957E-03   -0.34261E-03  7631   0.654E-02    0.615E-02
RMM:  16    -0.371717510671E+03   -0.13831E-04   -0.12873E-03  6685   0.379E-02    0.346E-02
RMM:  17    -0.371717523896E+03   -0.13225E-04   -0.51577E-04  6031   0.250E-02    0.172E-02
RMM:  18    -0.371717539848E+03   -0.15953E-04   -0.25901E-04  5659   0.192E-02    0.875E-03
RMM:  19    -0.371717543768E+03   -0.39199E-05   -0.84113E-05  4129   0.133E-02
   1 F= -.37171754E+03 E0= -.37172603E+03  d E =-.371718E+03
       N       E                     dE             d eps       ncg     rms          rms(c)
DAV:   1    -0.371777538677E+03   -0.59999E-01   -0.20814E+00  5792   0.485E+00    0.168E+00
RMM:   2    -0.371761159986E+03    0.16379E-01   -0.22481E-01  7091   0.130E+00    0.583E-01
RMM:   3    -0.371752728724E+03    0.84313E-02   -0.44842E-02  7368   0.386E-01    0.400E-01
RMM:   4    -0.371748752812E+03    0.39759E-02   -0.12005E-02  7542   0.237E-01    0.221E-01
RMM:   5    -0.371748071041E+03    0.68177E-03   -0.38482E-03  7442   0.124E-01    0.171E-01
RMM:   6    -0.371748181326E+03   -0.11028E-03   -0.16138E-03  7622   0.663E-02    0.105E-01
RMM:   7    -0.371748271050E+03   -0.89724E-04   -0.65806E-04  7104   0.476E-02    0.558E-02
RMM:   8    -0.371748339717E+03   -0.68667E-04   -0.37275E-04  6723   0.281E-02    0.400E-02
RMM:   9    -0.371748382451E+03   -0.42734E-04   -0.12876E-04  5286   0.217E-02    0.299E-02
RMM:  10    -0.371748423513E+03   -0.41062E-04   -0.89574E-05  4903   0.166E-02    0.171E-02
RMM:  11    -0.371748441720E+03   -0.18208E-04   -0.40449E-05  4034   0.141E-02    0.702E-03
RMM:  12    -0.371748447332E+03   -0.56114E-05   -0.21265E-05  3574   0.128E-02
   2 F= -.37174845E+03 E0= -.37175696E+03  d E =-.309036E-01
       N       E                     dE             d eps       ncg     rms          rms(c)
DAV:   1    -0.371878962094E+03   -0.13052E+00   -0.76515E+00  5512   0.931E+00    0.327E+00
RMM:   2    -0.371817621048E+03    0.61341E-01   -0.81874E-01  7001   0.248E+00    0.111E+00
RMM:   3    -0.371787252987E+03    0.30368E-01   -0.16445E-01  7372   0.741E-01    0.765E-01
RMM:   4    -0.371772364434E+03    0.14889E-01   -0.43614E-02  7540   0.451E-01    0.423E-01
RMM:   5    -0.371770042709E+03    0.23217E-02   -0.14204E-02  7483   0.234E-01    0.331E-01
RMM:   6    -0.371770379525E+03   -0.33682E-03   -0.57026E-03  7736   0.126E-01    0.200E-01
RMM:   7    -0.371770676869E+03   -0.29734E-03   -0.25619E-03  7987   0.889E-02    0.108E-01
RMM:   8    -0.371770897142E+03   -0.22027E-03   -0.12896E-03  7789   0.509E-02    0.774E-02
RMM:   9    -0.371771033822E+03   -0.13668E-03   -0.47337E-04  6836   0.362E-02    0.589E-02
RMM:  10    -0.371771155369E+03   -0.12155E-03   -0.30188E-04  6288   0.272E-02    0.353E-02
RMM:  11    -0.371771207066E+03   -0.51697E-04   -0.14355E-04  5309   0.213E-02    0.151E-02
RMM:  12    -0.371771224899E+03   -0.17833E-04   -0.78913E-05  5093   0.169E-02    0.669E-03
RMM:  13    -0.371771228007E+03   -0.31080E-05   -0.26170E-05  3780   0.130E-02
   3 F= -.37177123E+03 E0= -.37177976E+03  d E =-.536842E-01
       N       E                     dE             d eps       ncg     rms          rms(c)
DAV:   1    -0.371792150904E+03   -0.20926E-01   -0.16587E+00  4960   0.349E+00    0.445E-01
RMM:   2    -0.371798492733E+03   -0.63418E-02   -0.78570E-02  6969   0.724E-01    0.293E-01
RMM:   3    -0.371795262011E+03    0.32307E-02   -0.98586E-03  7275   0.218E-01    0.174E-01
RMM:   4    -0.371795006022E+03    0.25599E-03   -0.21958E-03  7603   0.656E-02    0.120E-01
RMM:   5    -0.371794919253E+03    0.86769E-04   -0.75840E-04  7450   0.474E-02    0.718E-02
RMM:   6    -0.371794890257E+03    0.28995E-04   -0.36774E-04  7396   0.369E-02    0.331E-02
RMM:   7    -0.371794883244E+03    0.70135E-05   -0.14058E-04  6498   0.182E-02    0.214E-02
RMM:   8    -0.371794879911E+03    0.33330E-05   -0.31933E-05  3662   0.116E-02
   4 F= -.37179488E+03 E0= -.37180340E+03  d E =-.236519E-01
       N       E                     dE             d eps       ncg     rms          rms(c)
DAV:   1    -0.371814466083E+03   -0.19583E-01   -0.14925E+01  4816   0.104E+01    0.133E+00
RMM:   2    -0.371868828353E+03   -0.54362E-01   -0.70279E-01  6876   0.218E+00    0.832E-01
RMM:   3    -0.371844470523E+03    0.24358E-01   -0.89647E-02  7327   0.660E-01    0.530E-01
RMM:   4    -0.371841930905E+03    0.25396E-02   -0.18880E-02  7726   0.196E-01    0.364E-01
RMM:   5    -0.371841244047E+03    0.68686E-03   -0.67932E-03  7528   0.142E-01    0.222E-01
RMM:   6    -0.371841009081E+03    0.23497E-03   -0.33100E-03  7544   0.112E-01    0.101E-01
RMM:   7    -0.371840978263E+03    0.30818E-04   -0.13169E-03  7925   0.543E-02    0.668E-02
RMM:   8    -0.371840984234E+03   -0.59715E-05   -0.45294E-04  6801   0.283E-02    0.462E-02
RMM:   9    -0.371840987226E+03   -0.29916E-05   -0.20957E-04  6404   0.224E-02    0.279E-02
RMM:  10    -0.371840985816E+03    0.14098E-05   -0.78733E-05  5089   0.159E-02
   5 F= -.37184099E+03 E0= -.37184936E+03  d E =-.697578E-01
       N       E                     dE             d eps       ncg     rms          rms(c)
DAV:   1    -0.371703944846E+03    0.13704E+00   -0.59788E+01  4816   0.210E+01    0.261E+00
RMM:   2    -0.371902897003E+03   -0.19895E+00   -0.28296E+00  6760   0.446E+00    0.147E+00
RMM:   3    -0.371838381199E+03    0.64516E-01   -0.36011E-01  7358   0.137E+00    0.106E+00
RMM:   4    -0.371826734606E+03    0.11647E-01   -0.72277E-02  7674   0.396E-01    0.732E-01
RMM:   5    -0.371824120053E+03    0.26146E-02   -0.27397E-02  7507   0.286E-01    0.458E-01
RMM:   6    -0.371823020109E+03    0.10999E-02   -0.13432E-02  7550   0.229E-01    0.204E-01
RMM:   7    -0.371822947314E+03    0.72796E-04   -0.53119E-03  8205   0.110E-01    0.133E-01
RMM:   8    -0.371822971526E+03   -0.24212E-04   -0.18676E-03  7999   0.558E-02    0.951E-02
RMM:   9    -0.371822993032E+03   -0.21506E-04   -0.78661E-04  7330   0.394E-02    0.615E-02
RMM:  10    -0.371823008752E+03   -0.15720E-04   -0.32455E-04  6589   0.273E-02    0.248E-02
RMM:  11    -0.371823011017E+03   -0.22648E-05   -0.15401E-04  6154   0.196E-02    0.172E-02
RMM:  12    -0.371823009393E+03    0.16242E-05   -0.54960E-05  4533   0.136E-02
   6 F= -.37182301E+03 E0= -.37183040E+03  d E =-.517814E-01
       N       E                     dE             d eps       ncg     rms          rms(c)
DAV:   1    -0.371816051750E+03    0.69593E-02   -0.23378E+01  4816   0.131E+01    0.168E+00
RMM:   2    -0.371896680055E+03   -0.80628E-01   -0.10992E+00  6926   0.277E+00    0.991E-01
RMM:   3    -0.371855363679E+03    0.41316E-01   -0.12713E-01  7283   0.787E-01    0.594E-01
RMM:   4    -0.371852402972E+03    0.29607E-02   -0.30575E-02  7748   0.247E-01    0.408E-01
RMM:   5    -0.371851259352E+03    0.11436E-02   -0.96880E-03  7578   0.175E-01    0.245E-01
RMM:   6    -0.371851278219E+03   -0.18867E-04   -0.48603E-03  7641   0.127E-01    0.131E-01
RMM:   7    -0.371851219083E+03    0.59137E-04   -0.17474E-03  7966   0.664E-02    0.807E-02
RMM:   8    -0.371851284885E+03   -0.65802E-04   -0.71924E-04  7251   0.340E-02    0.560E-02
RMM:   9    -0.371851304660E+03   -0.19776E-04   -0.27642E-04  6624   0.258E-02    0.299E-02
RMM:  10    -0.371851325146E+03   -0.20486E-04   -0.10731E-04  5603   0.171E-02    0.155E-02
RMM:  11    -0.371851332200E+03   -0.70539E-05   -0.55753E-05  4399   0.139E-02
   7 F= -.37185133E+03 E0= -.37185945E+03  d E =-.801042E-01
       N       E                     dE             d eps       ncg     rms          rms(c)
DAV:   1    -0.371858141722E+03   -0.68166E-02   -0.41598E-01  5120   0.200E+00    0.465E-01
RMM:   2    -0.371857997670E+03    0.14405E-03   -0.30114E-02  6799   0.475E-01    0.181E-01
RMM:   3    -0.371857236495E+03    0.76117E-03   -0.44646E-03  7276   0.148E-01    0.125E-01
RMM:   4    -0.371856911012E+03    0.32548E-03   -0.11631E-03  7541   0.654E-02    0.725E-02
RMM:   5    -0.371856836146E+03    0.74866E-04   -0.43214E-04  7523   0.368E-02    0.511E-02
RMM:   6    -0.371856824429E+03    0.11717E-04   -0.16837E-04  6740   0.225E-02    0.322E-02
RMM:   7    -0.371856816186E+03    0.82428E-05   -0.75751E-05  5306   0.159E-02
   8 F= -.37185682E+03 E0= -.37186499E+03  d E =-.548399E-02
       N       E                     dE             d eps       ncg     rms          rms(c)
DAV:   1    -0.371874925977E+03   -0.18102E-01   -0.37386E+00  4928   0.601E+00    0.137E+00
RMM:   2    -0.371873669393E+03    0.12566E-02   -0.26583E-01  6719   0.141E+00    0.532E-01
RMM:   3    -0.371866988296E+03    0.66811E-02   -0.39054E-02  7292   0.443E-01    0.364E-01
RMM:   4    -0.371864241418E+03    0.27469E-02   -0.10152E-02  7553   0.193E-01    0.213E-01
RMM:   5    -0.371863636261E+03    0.60516E-03   -0.37795E-03  7601   0.107E-01    0.152E-01
RMM:   6    -0.371863613191E+03    0.23070E-04   -0.14813E-03  7688   0.651E-02    0.968E-02
RMM:   7    -0.371863613556E+03   -0.36483E-06   -0.74654E-04  7463   0.461E-02    0.504E-02
RMM:   8    -0.371863621874E+03   -0.83186E-05   -0.32838E-04  6510   0.282E-02    0.347E-02
RMM:   9    -0.371863630446E+03   -0.85717E-05   -0.15021E-04  5236   0.220E-02    0.273E-02
RMM:  10    -0.371863635282E+03   -0.48358E-05   -0.75376E-05  4885   0.156E-02
   9 F= -.37186364E+03 E0= -.37187187E+03  d E =-.123031E-01
       N       E                     dE             d eps       ncg     rms          rms(c)
DAV:   1    -0.371867124531E+03   -0.34941E-02   -0.20124E-01  5112   0.136E+00    0.259E-01
RMM:   2    -0.371867319022E+03   -0.19449E-03   -0.12385E-02  6928   0.302E-01    0.109E-01
RMM:   3    -0.371867088515E+03    0.23051E-03   -0.16905E-03  7270   0.903E-02    0.764E-02
RMM:   4    -0.371866997871E+03    0.90644E-04   -0.48255E-04  7479   0.392E-02    0.438E-02
RMM:   5    -0.371866978743E+03    0.19128E-04   -0.18793E-04  6877   0.238E-02    0.312E-02
RMM:   6    -0.371866979875E+03   -0.11320E-05   -0.67170E-05  4849   0.143E-02
  10 F= -.37186698E+03 E0= -.37187520E+03  d E =-.334459E-02
       N       E                     dE             d eps       ncg     rms          rms(c)
DAV:   1    -0.371874842138E+03   -0.78634E-02   -0.18059E+00  4920   0.407E+00    0.770E-01
RMM:   2    -0.371876531389E+03   -0.16893E-02   -0.10905E-01  6743   0.897E-01    0.315E-01
RMM:   3    -0.371874357481E+03    0.21739E-02   -0.14128E-02  7198   0.267E-01    0.219E-01
RMM:   4    -0.371873563925E+03    0.79356E-03   -0.39912E-03  7551   0.115E-01    0.124E-01
RMM:   5    -0.371873417335E+03    0.14659E-03   -0.15433E-03  7569   0.678E-02    0.913E-02
RMM:   6    -0.371873423669E+03   -0.63343E-05   -0.59675E-04  7548   0.409E-02    0.552E-02
RMM:   7    -0.371873449622E+03   -0.25952E-04   -0.26479E-04  6668   0.274E-02    0.319E-02
RMM:   8    -0.371873471410E+03   -0.21788E-04   -0.10844E-04  5370   0.177E-02    0.199E-02
RMM:   9    -0.371873484282E+03   -0.12873E-04   -0.61598E-05  4436   0.153E-02    0.147E-02
RMM:  10    -0.371873494680E+03   -0.10397E-04   -0.28213E-05  3764   0.124E-02    0.822E-03
RMM:  11    -0.371873500387E+03   -0.57074E-05   -0.15290E-05  3153   0.113E-02
  11 F= -.37187350E+03 E0= -.37188163E+03  d E =-.986511E-02
       N       E                     dE             d eps       ncg     rms          rms(c)
DAV:   1    -0.371875896503E+03   -0.24018E-02   -0.72281E+00  4928   0.813E+00    0.157E+00
RMM:   2    -0.371882359578E+03   -0.64631E-02   -0.43800E-01  6730   0.180E+00    0.630E-01
RMM:   3    -0.371873725166E+03    0.86344E-02   -0.56593E-02  7195   0.538E-01    0.435E-01
RMM:   4    -0.371870489517E+03    0.32356E-02   -0.16062E-02  7565   0.232E-01    0.241E-01
RMM:   5    -0.371869938885E+03    0.55063E-03   -0.60395E-03  7577   0.135E-01    0.179E-01
RMM:   6    -0.371869915437E+03    0.23448E-04   -0.23130E-03  7635   0.806E-02    0.108E-01
RMM:   7    -0.371869987868E+03   -0.72431E-04   -0.10004E-03  7720   0.542E-02    0.627E-02
RMM:   8    -0.371870055969E+03   -0.68101E-04   -0.45417E-04  6740   0.312E-02    0.398E-02
RMM:   9    -0.371870091624E+03   -0.35655E-04   -0.20574E-04  5953   0.245E-02    0.302E-02
RMM:  10    -0.371870122134E+03   -0.30510E-04   -0.99630E-05  5019   0.176E-02    0.172E-02
RMM:  11    -0.371870137399E+03   -0.15265E-04   -0.46410E-05  4200   0.141E-02    0.749E-03
RMM:  12    -0.371870141410E+03   -0.40110E-05   -0.23953E-05  3539   0.126E-02
  12 F= -.37187014E+03 E0= -.37187798E+03  d E =-.650613E-02
       N       E                     dE             d eps       ncg     rms          rms(c)
DAV:   1    -0.371877212935E+03   -0.70755E-02   -0.31538E+00  4928   0.538E+00    0.102E+00
RMM:   2    -0.371880606478E+03   -0.33935E-02   -0.19001E-01  6684   0.119E+00    0.418E-01
RMM:   3    -0.371876778712E+03    0.38278E-02   -0.24724E-02  7236   0.360E-01    0.293E-01
RMM:   4    -0.371875247010E+03    0.15317E-02   -0.65393E-03  7539   0.150E-01    0.166E-01
RMM:   5    -0.371874927292E+03    0.31972E-03   -0.25637E-03  7563   0.864E-02    0.121E-01
RMM:   6    -0.371874850472E+03    0.76820E-04   -0.96184E-04  7589   0.541E-02    0.714E-02
RMM:   7    -0.371874836300E+03    0.14172E-04   -0.45815E-04  7259   0.343E-02    0.405E-02
RMM:   8    -0.371874838380E+03   -0.20803E-05   -0.17414E-04  6202   0.214E-02    0.250E-02
RMM:   9    -0.371874840320E+03   -0.19400E-05   -0.84096E-05  4539   0.171E-02
  13 F= -.37187484E+03 E0= -.37188289E+03  d E =-.112050E-01
       N       E                     dE             d eps       ncg     rms          rms(c)
DAV:   1    -0.371876661129E+03   -0.18227E-02   -0.14973E-01  4912   0.108E+00    0.792E-02
RMM:   2    -0.371877022811E+03   -0.36168E-03   -0.46369E-03  6561   0.204E-01    0.474E-02
RMM:   3    -0.371876979589E+03    0.43222E-04   -0.58005E-04  7063   0.562E-02    0.346E-02
RMM:   4    -0.371876969625E+03    0.99637E-05   -0.14580E-04  6252   0.171E-02    0.230E-02
RMM:   5    -0.371876964295E+03    0.53300E-05   -0.44928E-05  4102   0.112E-02
  14 F= -.37187696E+03 E0= -.37188493E+03  d E =-.212397E-02
       N       E                     dE             d eps       ncg     rms          rms(c)
DAV:   1    -0.371879645950E+03   -0.26763E-02   -0.13480E+00  4816   0.323E+00    0.240E-01
RMM:   2    -0.371882955862E+03   -0.33099E-02   -0.42175E-02  6694   0.613E-01    0.145E-01
RMM:   3    -0.371882655652E+03    0.30021E-03   -0.57819E-03  7334   0.167E-01    0.107E-01
RMM:   4    -0.371882576817E+03    0.78836E-04   -0.13429E-03  8076   0.500E-02    0.702E-02
RMM:   5    -0.371882550916E+03    0.25900E-04   -0.50674E-04  7365   0.376E-02    0.360E-02
RMM:   6    -0.371882548198E+03    0.27179E-05   -0.19508E-04  6737   0.237E-02    0.173E-02
RMM:   7    -0.371882543763E+03    0.44354E-05   -0.52906E-05  4072   0.127E-02
  15 F= -.37188254E+03 E0= -.37189024E+03  d E =-.770344E-02
       N       E                     dE             d eps       ncg     rms          rms(c)
DAV:   1    -0.371878644180E+03    0.39040E-02   -0.53957E+00  4816   0.646E+00    0.488E-01
RMM:   2    -0.371891941025E+03   -0.13297E-01   -0.16975E-01  6683   0.123E+00    0.291E-01
RMM:   3    -0.371890670029E+03    0.12710E-02   -0.22885E-02  7344   0.335E-01    0.216E-01
RMM:   4    -0.371890347571E+03    0.32246E-03   -0.53175E-03  8226   0.996E-02    0.144E-01
RMM:   5    -0.371890239778E+03    0.10779E-03   -0.19738E-03  7713   0.744E-02    0.743E-02
RMM:   6    -0.371890228156E+03    0.11623E-04   -0.78900E-04  7765   0.485E-02    0.342E-02
RMM:   7    -0.371890219722E+03    0.84339E-05   -0.28794E-04  6443   0.220E-02    0.206E-02
RMM:   8    -0.371890223721E+03   -0.39995E-05   -0.10826E-04  4702   0.164E-02    0.121E-02
RMM:   9    -0.371890225652E+03   -0.19306E-05   -0.50385E-05  4053   0.120E-02
  16 F= -.37189023E+03 E0= -.37189732E+03  d E =-.153853E-01
       N       E                     dE             d eps       ncg     rms          rms(c)
DAV:   1    -0.371845035598E+03    0.45188E-01   -0.21565E+01  4816   0.129E+01    0.101E+00
RMM:   2    -0.371898983827E+03   -0.53948E-01   -0.68630E-01  6654   0.247E+00    0.596E-01
RMM:   3    -0.371893441382E+03    0.55424E-02   -0.91337E-02  7351   0.675E-01    0.447E-01
RMM:   4    -0.371892131531E+03    0.13099E-02   -0.21227E-02  8325   0.199E-01    0.301E-01
RMM:   5    -0.371891707539E+03    0.42399E-03   -0.77677E-03  7783   0.149E-01    0.161E-01
RMM:   6    -0.371891598008E+03    0.10953E-03   -0.32423E-03  7883   0.102E-01    0.708E-02
RMM:   7    -0.371891567015E+03    0.30993E-04   -0.12572E-03  8032   0.452E-02    0.428E-02
RMM:   8    -0.371891578662E+03   -0.11647E-04   -0.39741E-04  6550   0.260E-02    0.262E-02
RMM:   9    -0.371891591654E+03   -0.12992E-04   -0.22518E-04  6492   0.217E-02    0.135E-02
RMM:  10    -0.371891593194E+03   -0.15395E-05   -0.67967E-05  4516   0.139E-02
  17 F= -.37189159E+03 E0= -.37189728E+03  d E =-.167529E-01
       N       E                     dE             d eps       ncg     rms          rms(c)
DAV:   1    -0.371883918152E+03    0.76735E-02   -0.45826E+00  4816   0.595E+00    0.435E-01
RMM:   2    -0.371894839339E+03   -0.10921E-01   -0.14167E-01  6537   0.112E+00    0.258E-01
RMM:   3    -0.371893691760E+03    0.11476E-02   -0.18415E-02  7327   0.309E-01    0.191E-01
RMM:   4    -0.371893384682E+03    0.30708E-03   -0.42482E-03  8151   0.909E-02    0.123E-01
RMM:   5    -0.371893279793E+03    0.10489E-03   -0.15656E-03  7688   0.687E-02    0.632E-02
RMM:   6    -0.371893285761E+03   -0.59684E-05   -0.60151E-04  7694   0.414E-02    0.312E-02
RMM:   7    -0.371893276210E+03    0.95507E-05   -0.20822E-04  6196   0.196E-02    0.186E-02
RMM:   8    -0.371893280914E+03   -0.47034E-05   -0.77720E-05  4235   0.154E-02
  18 F= -.37189328E+03 E0= -.37189964E+03  d E =-.184406E-01
       N       E                     dE             d eps       ncg     rms          rms(c)
DAV:   1    -0.371895501886E+03   -0.22257E-02   -0.13229E+00  4816   0.323E+00    0.385E-01
RMM:   2    -0.371898247225E+03   -0.27453E-02   -0.53208E-02  7334   0.653E-01    0.205E-01
RMM:   3    -0.371897570200E+03    0.67702E-03   -0.60993E-03  7327   0.162E-01    0.132E-01
RMM:   4    -0.371897446239E+03    0.12396E-03   -0.17003E-03  7415   0.658E-02    0.805E-02
RMM:   5    -0.371897415670E+03    0.30568E-04   -0.70968E-04  7479   0.439E-02    0.486E-02
RMM:   6    -0.371897397936E+03    0.17735E-04   -0.27286E-04  7082   0.270E-02    0.266E-02
RMM:   7    -0.371897404315E+03   -0.63799E-05   -0.95196E-05  4994   0.154E-02
  19 F= -.37189740E+03 E0= -.37190350E+03  d E =-.412340E-02
       N       E                     dE             d eps       ncg     rms          rms(c)
DAV:   1    -0.371895975011E+03    0.14229E-02   -0.23794E+00  4816   0.433E+00    0.518E-01
RMM:   2    -0.371900975717E+03   -0.50007E-02   -0.96698E-02  7330   0.878E-01    0.277E-01
RMM:   3    -0.371899805503E+03    0.11702E-02   -0.11594E-02  7323   0.218E-01    0.180E-01
RMM:   4    -0.371899602406E+03    0.20310E-03   -0.33177E-03  7438   0.892E-02    0.110E-01
RMM:   5    -0.371899553903E+03    0.48503E-04   -0.13873E-03  7531   0.605E-02    0.660E-02
RMM:   6    -0.371899527620E+03    0.26284E-04   -0.54455E-04  7587   0.372E-02    0.368E-02
RMM:   7    -0.371899540288E+03   -0.12668E-04   -0.19772E-04  5912   0.200E-02    0.240E-02
RMM:   8    -0.371899549244E+03   -0.89568E-05   -0.78208E-05  4813   0.155E-02
  20 F= -.37189955E+03 E0= -.37190529E+03  d E =-.626833E-02
       N       E                     dE             d eps       ncg     rms          rms(c)
DAV:   1    -0.371912904770E+03   -0.13364E-01   -0.16230E+00  5156   0.399E+00    0.114E+00
RMM:   2    -0.371907023246E+03    0.58815E-02   -0.12849E-01  6918   0.962E-01    0.418E-01
RMM:   3    -0.371902722428E+03    0.43008E-02   -0.24723E-02  7396   0.309E-01    0.287E-01
RMM:   4    -0.371900853442E+03    0.18690E-02   -0.61748E-03  7575   0.172E-01    0.151E-01
RMM:   5    -0.371900671005E+03    0.18244E-03   -0.20008E-03  7548   0.787E-02    0.121E-01
RMM:   6    -0.371900640914E+03    0.30091E-04   -0.78706E-04  7685   0.462E-02    0.736E-02
RMM:   7    -0.371900633278E+03    0.76362E-05   -0.36814E-04  6833   0.336E-02    0.374E-02
RMM:   8    -0.371900641002E+03   -0.77242E-05   -0.18872E-04  6353   0.226E-02    0.235E-02
RMM:   9    -0.371900644628E+03   -0.36262E-05   -0.71117E-05  4373   0.163E-02
  21 F= -.37190064E+03 E0= -.37190623E+03  d E =-.109538E-02
       N       E                     dE             d eps       ncg     rms          rms(c)
DAV:   1    -0.371902412990E+03   -0.17720E-02   -0.17713E-01  5296   0.132E+00    0.383E-01
RMM:   2    -0.371901707827E+03    0.70516E-03   -0.14336E-02  6911   0.319E-01    0.141E-01
RMM:   3    -0.371901236166E+03    0.47166E-03   -0.27634E-03  7374   0.104E-01    0.975E-02
RMM:   4    -0.371901023624E+03    0.21254E-03   -0.67109E-04  7472   0.572E-02    0.505E-02
RMM:   5    -0.371901006229E+03    0.17395E-04   -0.20967E-04  6764   0.271E-02    0.388E-02
RMM:   6    -0.371901009739E+03   -0.35100E-05   -0.79751E-05  5137   0.163E-02
  22 F= -.37190101E+03 E0= -.37190665E+03  d E =-.146049E-02
       N       E                     dE             d eps       ncg     rms          rms(c)
DAV:   1    -0.371901556508E+03   -0.55028E-03   -0.56963E-01  4856   0.205E+00    0.177E-01
RMM:   2    -0.371902725409E+03   -0.11689E-02   -0.16657E-02  6563   0.394E-01    0.948E-02
RMM:   3    -0.371902631624E+03    0.93785E-04   -0.24697E-03  7334   0.105E-01    0.741E-02
RMM:   4    -0.371902577294E+03    0.54329E-04   -0.54641E-04  7741   0.350E-02    0.453E-02
RMM:   5    -0.371902571902E+03    0.53925E-05   -0.23031E-04  6909   0.256E-02    0.245E-02
RMM:   6    -0.371902570545E+03    0.13568E-05   -0.85575E-05  6116   0.168E-02
  23 F= -.37190257E+03 E0= -.37190815E+03  d E =-.156081E-02
       N       E                     dE             d eps       ncg     rms          rms(c)
DAV:   1    -0.371900420812E+03    0.21511E-02   -0.18274E+00  4816   0.367E+00    0.321E-01
RMM:   2    -0.371904227298E+03   -0.38065E-02   -0.54208E-02  6742   0.707E-01    0.176E-01
RMM:   3    -0.371903985239E+03    0.24206E-03   -0.84835E-03  7368   0.186E-01    0.137E-01
RMM:   4    -0.371903804675E+03    0.18056E-03   -0.18923E-03  8120   0.642E-02    0.831E-02
RMM:   5    -0.371903779694E+03    0.24980E-04   -0.80822E-04  7582   0.467E-02    0.432E-02
RMM:   6    -0.371903765811E+03    0.13884E-04   -0.28814E-04  7063   0.290E-02    0.190E-02
RMM:   7    -0.371903770123E+03   -0.43119E-05   -0.77296E-05  4614   0.149E-02
  24 F= -.37190377E+03 E0= -.37190924E+03  d E =-.276038E-02
       N       E                     dE             d eps       ncg     rms          rms(c)
DAV:   1    -0.371904742304E+03   -0.97649E-03   -0.19379E-01  4936   0.133E+00    0.263E-01
RMM:   2    -0.371904825069E+03   -0.82766E-04   -0.12106E-02  6966   0.295E-01    0.109E-01
RMM:   3    -0.371904555812E+03    0.26926E-03   -0.16339E-03  7299   0.868E-02    0.741E-02
RMM:   4    -0.371904462780E+03    0.93032E-04   -0.42698E-04  7308   0.381E-02    0.413E-02
RMM:   5    -0.371904448549E+03    0.14231E-04   -0.16572E-04  6815   0.222E-02    0.306E-02
RMM:   6    -0.371904449935E+03   -0.13853E-05   -0.62924E-05  4886   0.139E-02
  25 F= -.37190445E+03 E0= -.37190985E+03  d E =-.679812E-03
       N       E                     dE             d eps       ncg     rms          rms(c)
DAV:   1    -0.371904638581E+03   -0.19003E-03   -0.66289E-02  5024   0.780E-01    0.152E-01
RMM:   2    -0.371904656848E+03   -0.18267E-04   -0.41037E-03  7089   0.172E-01    0.633E-02
RMM:   3    -0.371904572822E+03    0.84025E-04   -0.57149E-04  7266   0.504E-02    0.430E-02
RMM:   4    -0.371904549014E+03    0.23809E-04   -0.16212E-04  6856   0.231E-02    0.246E-02
RMM:   5    -0.371904547200E+03    0.18137E-05   -0.61410E-05  4771   0.136E-02
  26 F= -.37190455E+03 E0= -.37190991E+03  d E =-.777077E-03
       N       E                     dE             d eps       ncg     rms          rms(c)
DAV:   1    -0.371905074057E+03   -0.52504E-03   -0.56014E-02  5096   0.727E-01    0.174E-01
RMM:   2    -0.371905060775E+03    0.13282E-04   -0.39073E-03  7089   0.169E-01    0.696E-02
RMM:   3    -0.371904967463E+03    0.93313E-04   -0.67917E-04  7293   0.540E-02    0.484E-02
RMM:   4    -0.371904921591E+03    0.45872E-04   -0.17523E-04  7151   0.264E-02    0.266E-02
RMM:   5    -0.371904911112E+03    0.10479E-04   -0.62062E-05  4967   0.140E-02    0.189E-02
RMM:   6    -0.371904906568E+03    0.45436E-05   -0.20660E-05  3028   0.103E-02
  27 F= -.37190491E+03 E0= -.37191023E+03  d E =-.359368E-03
       N       E                     dE             d eps       ncg     rms          rms(c)
DAV:   1    -0.371905386988E+03   -0.47588E-03   -0.10739E-01  4976   0.101E+00    0.229E-01
RMM:   2    -0.371905349296E+03    0.37692E-04   -0.71792E-03  6891   0.230E-01    0.907E-02
RMM:   3    -0.371905153376E+03    0.19592E-03   -0.11311E-03  7279   0.731E-02    0.618E-02
RMM:   4    -0.371905075595E+03    0.77781E-04   -0.29867E-04  7382   0.342E-02    0.361E-02
RMM:   5    -0.371905058005E+03    0.17590E-04   -0.11233E-04  6460   0.184E-02    0.263E-02
RMM:   6    -0.371905052238E+03    0.57670E-05   -0.38554E-05  3725   0.119E-02
  28 F= -.37190505E+03 E0= -.37191032E+03  d E =-.505038E-03
       N       E                     dE             d eps       ncg     rms          rms(c)
DAV:   1    -0.371905139824E+03   -0.81819E-04   -0.76351E-03  5152   0.247E-01    0.271E-02
RMM:   2    -0.371905153068E+03   -0.13244E-04   -0.28601E-04  6729   0.499E-02    0.139E-02
RMM:   3    -0.371905148758E+03    0.43104E-05   -0.36960E-05  3634   0.147E-02
  29 F= -.37190515E+03 E0= -.37191041E+03  d E =-.965200E-04
       N       E                     dE             d eps       ncg     rms          rms(c)
DAV:   1    -0.371905293147E+03   -0.14008E-03   -0.68587E-02  4904   0.738E-01    0.828E-02
RMM:   2    -0.371905405286E+03   -0.11214E-03   -0.25176E-03  7190   0.147E-01    0.440E-02
RMM:   3    -0.371905380729E+03    0.24557E-04   -0.37241E-04  7057   0.383E-02    0.306E-02
RMM:   4    -0.371905370789E+03    0.99406E-05   -0.10837E-04  5988   0.176E-02    0.169E-02
RMM:   5    -0.371905368087E+03    0.27018E-05   -0.38205E-05  3688   0.106E-02
  30 F= -.37190537E+03 E0= -.37191058E+03  d E =-.315849E-03
       N       E                     dE             d eps       ncg     rms          rms(c)
DAV:   1    -0.371905135413E+03    0.23538E-03   -0.27372E-01  4816   0.148E+00    0.161E-01
RMM:   2    -0.371905605968E+03   -0.47056E-03   -0.98340E-03  7246   0.294E-01    0.847E-02
RMM:   3    -0.371905522346E+03    0.83622E-04   -0.13834E-03  7328   0.751E-02    0.589E-02
RMM:   4    -0.371905485568E+03    0.36778E-04   -0.38714E-04  7489   0.334E-02    0.320E-02
RMM:   5    -0.371905482677E+03    0.28908E-05   -0.15307E-04  6153   0.205E-02    0.185E-02
RMM:   6    -0.371905476609E+03    0.60679E-05   -0.56005E-05  4221   0.129E-02
  31 F= -.37190548E+03 E0= -.37191060E+03  d E =-.424371E-03
       N       E                     dE             d eps       ncg     rms          rms(c)
DAV:   1    -0.371905472828E+03    0.98497E-05   -0.23321E-02  4896   0.433E-01    0.477E-02
RMM:   2    -0.371905506962E+03   -0.34134E-04   -0.80607E-04  6746   0.854E-02    0.232E-02
RMM:   3    -0.371905495364E+03    0.11598E-04   -0.86679E-05  6026   0.230E-02    0.165E-02
RMM:   4    -0.371905490068E+03    0.52961E-05   -0.17171E-05  2798   0.105E-02
  32 F= -.37190549E+03 E0= -.37191064E+03  d E =-.437830E-03
       N       E                     dE             d eps       ncg     rms          rms(c)
DAV:   1    -0.371905642544E+03   -0.14718E-03   -0.11069E-02  5208   0.329E-01    0.897E-02
RMM:   2    -0.371905603355E+03    0.39189E-04   -0.81199E-04  6311   0.775E-02    0.331E-02
RMM:   3    -0.371905579431E+03    0.23924E-04   -0.13676E-04  6133   0.256E-02    0.221E-02
RMM:   4    -0.371905568722E+03    0.10709E-04   -0.26525E-05  2875   0.151E-02    0.154E-02
RMM:   5    -0.371905568366E+03    0.35589E-06   -0.91108E-06  2665   0.111E-02
  33 F= -.37190557E+03 E0= -.37191070E+03  d E =-.782976E-04
       N       E                     dE             d eps       ncg     rms          rms(c)
DAV:   1    -0.371905899445E+03   -0.33072E-03   -0.46988E-02  5096   0.675E-01    0.181E-01
RMM:   2    -0.371905769991E+03    0.12945E-03   -0.35124E-03  6588   0.159E-01    0.672E-02
RMM:   3    -0.371905658232E+03    0.11176E-03   -0.62713E-04  7213   0.512E-02    0.453E-02
RMM:   4    -0.371905615761E+03    0.42471E-04   -0.16834E-04  7104   0.261E-02    0.255E-02
RMM:   5    -0.371905610489E+03    0.52717E-05   -0.48703E-05  3989   0.152E-02
  34 F= -.37190561E+03 E0= -.37191071E+03  d E =-.120421E-03
       N       E                     dE             d eps       ncg     rms          rms(c)
DAV:   1    -0.371905670122E+03   -0.54361E-04   -0.49179E-03  5008   0.194E-01    0.264E-02
RMM:   2    -0.371905681144E+03   -0.11022E-04   -0.20215E-04  7223   0.407E-02    0.164E-02
RMM:   3    -0.371905682090E+03   -0.94660E-06   -0.32335E-05  3598   0.126E-02
  35 F= -.37190568E+03 E0= -.37191077E+03  d E =-.716008E-04
       N       E                     dE             d eps       ncg     rms          rms(c)
DAV:   1    -0.371905781293E+03   -0.10015E-03   -0.43958E-02  4856   0.579E-01    0.671E-02
RMM:   2    -0.371905832241E+03   -0.50948E-04   -0.16006E-03  7310   0.117E-01    0.371E-02
RMM:   3    -0.371905823401E+03    0.88404E-05   -0.27571E-04  6758   0.320E-02    0.243E-02
RMM:   4    -0.371905818671E+03    0.47298E-05   -0.95974E-05  5440   0.159E-02
  36 F= -.37190582E+03 E0= -.37191088E+03  d E =-.208181E-03
