 vasp.5.4.1 05Feb16 (build Jan 29 2020 16:04:39) complex                        
  
 executed on           IFC91_ompi date 2020.06.15  08:03:22
 running on  160 total cores
 distrk:  each k-point on   20 cores,    8 groups
 distr:  one band on NCORES_PER_BAND=   5 cores,    4 groups


--------------------------------------------------------------------------------------------------------


 INCAR:
 POTCAR:    PAW_PBE Nb_sv 25May2007               
 POTCAR:    PAW_PBE Hf 20Jan2003                  
 POTCAR:    PAW_PBE Zr_sv 04Jan2005               
 POTCAR:    PAW_PBE Ta 17Jan2003                  

 ----------------------------------------------------------------------------- 
|                                                                             |
|           W    W    AA    RRRRR   N    N  II  N    N   GGGG   !!!           |
|           W    W   A  A   R    R  NN   N  II  NN   N  G    G  !!!           |
|           W    W  A    A  R    R  N N  N  II  N N  N  G       !!!           |
|           W WW W  AAAAAA  RRRRR   N  N N  II  N  N N  G  GGG   !            |
|           WW  WW  A    A  R   R   N   NN  II  N   NN  G    G                |
|           W    W  A    A  R    R  N    N  II  N    N   GGGG   !!!           |
|                                                                             |
|      For optimal performance we recommend to set                            |
|        NCORE= 4 - approx SQRT( number of cores)                             |
|      NCORE specifies how many cores store one orbital (NPAR=cpu/NCORE).     |
|      This setting can  greatly improve the performance of VASP for DFT.     |
|      The default, NPAR=number of cores might be grossly inefficient         |
|      on modern multi-core architectures or massively parallel machines.     |
|      Do your own testing !!!!                                               |
|      Unfortunately you need to use the default for GW and RPA calculations. |
|      (for HF NCORE is supported but not extensively tested yet)             |
|                                                                             |
 ----------------------------------------------------------------------------- 


 ----------------------------------------------------------------------------- 
|                                                                             |
|           W    W    AA    RRRRR   N    N  II  N    N   GGGG   !!!           |
|           W    W   A  A   R    R  NN   N  II  NN   N  G    G  !!!           |
|           W    W  A    A  R    R  N N  N  II  N N  N  G       !!!           |
|           W WW W  AAAAAA  RRRRR   N  N N  II  N  N N  G  GGG   !            |
|           WW  WW  A    A  R   R   N   NN  II  N   NN  G    G                |
|           W    W  A    A  R    R  N    N  II  N    N   GGGG   !!!           |
|                                                                             |
|      You have enabled k-point parallelism (KPAR>1).                         |
|      This developmental code was originally  written by Paul Kent at ORNL,  |
|      and carefully double checked in Vienna.                                |
|      GW as well as linear response parallelism added by Martijn Marsman     |
|      and Georg Kresse.                                                      |
|      Carefully verify results versus KPAR=1.                                |
|      Report problems to Paul Kent and Vienna.                               |
|                                                                             |
 ----------------------------------------------------------------------------- 

 POTCAR:    PAW_PBE Nb_sv 25May2007               
   VRHFIN =Nb: 4p5s4d                                                           
   LEXCH  = PE                                                                  
   EATOM  =  1555.1913 eV,  114.3033 Ry                                         
                                                                                
   TITEL  = PAW_PBE Nb_sv 25May2007                                             
   LULTRA =        F    use ultrasoft PP ?                                      
   IUNSCR =        1    unscreen: 0-lin 1-nonlin 2-no                           
   RPACOR =    1.800    partial core radius                                     
   POMASS =   92.910; ZVAL   =   13.000    mass and valenz                      
   RCORE  =    2.400    outmost cutoff radius                                   
   RWIGS  =    2.400; RWIGS  =    1.270    wigner-seitz radius (au A)           
   ENMAX  =  293.235; ENMIN  =  219.927 eV                                      
   ICORE  =        3    local potential                                         
   LCOR   =        T    correct aug charges                                     
   LPAW   =        T    paw PP                                                  
   EAUG   =  455.659                                                            
   DEXC   =    0.000                                                            
   RMAX   =    2.456    core radius for proj-oper                               
   RAUG   =    1.300    factor for augmentation sphere                          
   RDEP   =    2.451    radius for radial grids                                 
   RDEPT  =    1.956    core radius for aug-charge                              
                                                                                
   Atomic configuration                                                         
   11 entries                                                                   
     n  l   j            E        occ.                                          
     1  0  0.50    -18805.2457   2.0000                                         
     2  0  0.50     -2630.2869   2.0000                                         
     2  1  1.50     -2348.4046   6.0000                                         
     3  0  0.50      -438.8757   2.0000                                         
     3  1  1.50      -346.7588   6.0000                                         
     3  2  2.50      -196.2560  10.0000                                         
     4  0  0.50       -58.3859   2.0000                                         
     5  0  0.50        -3.9816   1.0000                                         
     4  1  1.50       -34.5141   6.0000                                         
     4  2  2.50        -3.0408   4.0000                                         
     4  3  2.50        -1.3606   0.0000                                         
   Description                                                                  
     l       E           TYP  RCUT    TYP  RCUT                                 
     0    -58.3859094     23  2.200                                             
     0     -3.9816262     23  2.200                                             
     1    -34.5140738     23  2.200                                             
     1     13.6058260     23  2.200                                             
     2     -3.0408010     23  2.200                                             
     2     -0.1283038     23  2.200                                             
     3     -1.3605826     23  2.400                                             
  local pseudopotential read in
  partial core-charges read in
  partial kinetic energy density read in
  atomic valenz-charges read in
  non local Contribution for L=           0  read in
    real space projection operators read in
  non local Contribution for L=           0  read in
    real space projection operators read in
  non local Contribution for L=           1  read in
    real space projection operators read in
  non local Contribution for L=           1  read in
    real space projection operators read in
  non local Contribution for L=           2  read in
    real space projection operators read in
  non local Contribution for L=           2  read in
    real space projection operators read in
    PAW grid and wavefunctions read in
 
   number of l-projection  operators is LMAX  =           6
   number of lm-projection operators is LMMAX =          18
 
 POTCAR:    PAW_PBE Hf 20Jan2003                  
   VRHFIN =Hf: 6s5d                                                             
   LEXCH  = PE                                                                  
   EATOM  =    75.9011 eV,    5.5786 Ry                                         
                                                                                
   TITEL  = PAW_PBE Hf 20Jan2003                                                
   LULTRA =        F    use ultrasoft PP ?                                      
   IUNSCR =        1    unscreen: 0-lin 1-nonlin 2-no                           
   RPACOR =    2.500    partial core radius                                     
   POMASS =  178.490; ZVAL   =    4.000    mass and valenz                      
   RCORE  =    3.000    outmost cutoff radius                                   
   RWIGS  =    3.050; RWIGS  =    1.614    wigner-seitz radius (au A)           
   ENMAX  =  220.334; ENMIN  =  165.250 eV                                      
   RCLOC  =    2.212    cutoff for local pot                                    
   LCOR   =        T    correct aug charges                                     
   LPAW   =        T    paw PP                                                  
   EAUG   =  335.116                                                            
   DEXC   =    0.000                                                            
   RMAX   =    3.077    core radius for proj-oper                               
   RAUG   =    1.300    factor for augmentation sphere                          
   RDEP   =    3.047    radius for radial grids                                 
   RDEPT  =    2.344    core radius for aug-charge                              
                                                                                
   Atomic configuration                                                         
   16 entries                                                                   
     n  l   j            E        occ.                                          
     1  0  0.50    -65259.4397   2.0000                                         
     2  0  0.50    -11157.9882   2.0000                                         
     2  1  1.50     -9795.2113   6.0000                                         
     3  0  0.50     -2541.4058   2.0000                                         
     3  1  1.50     -2134.4770   6.0000                                         
     3  2  2.50     -1653.5418  10.0000                                         
     4  0  0.50      -510.9575   2.0000                                         
     4  1  1.50      -377.5023   6.0000                                         
     4  2  2.50      -205.2085  10.0000                                         
     4  3  3.50       -15.4905  14.0000                                         
     5  0  0.50       -65.6020   2.0000                                         
     5  1  1.50       -34.2798   6.0000                                         
     5  2  2.50        -1.9877   3.0000                                         
     6  0  0.50        -4.7357   1.0000                                         
     6  1  1.50        -1.3606   0.0000                                         
     5  3  2.50        -1.3606   0.0000                                         
   Description                                                                  
     l       E           TYP  RCUT    TYP  RCUT                                 
     2     -1.9876627     23  2.500                                             
     2      0.0744703     23  2.500                                             
     0     -4.7356889     23  2.600                                             
     0      3.2364747     23  2.600                                             
     1     -1.3605826     23  3.000                                             
     1     27.2116520     23  3.000                                             
  local pseudopotential read in
  partial core-charges read in
  partial kinetic energy density read in
  atomic valenz-charges read in
  non local Contribution for L=           2  read in
    real space projection operators read in
  non local Contribution for L=           2  read in
    real space projection operators read in
  non local Contribution for L=           0  read in
    real space projection operators read in
  non local Contribution for L=           0  read in
    real space projection operators read in
  non local Contribution for L=           1  read in
    real space projection operators read in
  non local Contribution for L=           1  read in
    real space projection operators read in
    PAW grid and wavefunctions read in
 
   number of l-projection  operators is LMAX  =           6
   number of lm-projection operators is LMMAX =          18
 
 POTCAR:    PAW_PBE Zr_sv 04Jan2005               
   VRHFIN =Zr: 4s4p5s4d                                                         
   LEXCH  = PE                                                                  
   EATOM  =  1284.2219 eV,   94.3876 Ry                                         
                                                                                
   TITEL  = PAW_PBE Zr_sv 04Jan2005                                             
   LULTRA =        F    use ultrasoft PP ?                                      
   IUNSCR =        1    unscreen: 0-lin 1-nonlin 2-no                           
   RPACOR =    2.200    partial core radius                                     
   POMASS =   91.224; ZVAL   =   12.000    mass and valenz                      
   RCORE  =    2.500    outmost cutoff radius                                   
   RWIGS  =    3.070; RWIGS  =    1.625    wigner-seitz radius (au A)           
   ENMAX  =  229.898; ENMIN  =  172.424 eV                                      
   ICORE  =        3    local potential                                         
   LCOR   =        T    correct aug charges                                     
   LPAW   =        T    paw PP                                                  
   EAUG   =  461.257                                                            
   DEXC   =    0.000                                                            
   RMAX   =    2.561    core radius for proj-oper                               
   RAUG   =    1.300    factor for augmentation sphere                          
   RDEP   =    2.597    radius for radial grids                                 
   RDEPT  =    2.007    core radius for aug-charge                              
                                                                                
   Atomic configuration                                                         
   11 entries                                                                   
     n  l   j            E        occ.                                          
     1  0  0.50    -17820.0161   2.0000                                         
     2  0  0.50     -2467.0882   2.0000                                         
     2  1  1.50     -2199.6095   6.0000                                         
     3  0  0.50      -402.4863   2.0000                                         
     3  1  1.50      -315.3675   6.0000                                         
     3  2  2.50      -172.4472  10.0000                                         
     4  0  0.50       -52.4146   2.0000                                         
     5  0  0.50        -3.8421   1.0000                                         
     4  1  1.50       -30.5054   6.0000                                         
     4  2  2.50        -2.3341   3.0000                                         
     4  3  2.50        -1.3606   0.0000                                         
   Description                                                                  
     l       E           TYP  RCUT    TYP  RCUT                                 
     0    -52.4145962     23  2.200                                             
     0     -3.8421270     23  2.500                                             
     1    -30.5053914     23  2.200                                             
     1     20.4087390     23  2.200                                             
     2     -2.3340816     23  2.500                                             
     2     -0.6120942     23  2.500                                             
     3     -4.0817478     23  2.500                                             
  local pseudopotential read in
  partial core-charges read in
  partial kinetic energy density read in
  atomic valenz-charges read in
  non local Contribution for L=           0  read in
    real space projection operators read in
  non local Contribution for L=           0  read in
    real space projection operators read in
  non local Contribution for L=           1  read in
    real space projection operators read in
  non local Contribution for L=           1  read in
    real space projection operators read in
  non local Contribution for L=           2  read in
    real space projection operators read in
  non local Contribution for L=           2  read in
    real space projection operators read in
    PAW grid and wavefunctions read in
 
   number of l-projection  operators is LMAX  =           6
   number of lm-projection operators is LMMAX =          18
 
 POTCAR:    PAW_PBE Ta 17Jan2003                  
   VRHFIN =Ta:  6s5d                                                            
   LEXCH  = PE                                                                  
   EATOM  =   130.6506 eV,    9.6025 Ry                                         
                                                                                
   TITEL  = PAW_PBE Ta 17Jan2003                                                
   LULTRA =        F    use ultrasoft PP ?                                      
   IUNSCR =        1    unscreen: 0-lin 1-nonlin 2-no                           
   RPACOR =    2.330    partial core radius                                     
   POMASS =  180.948; ZVAL   =    5.000    mass and valenz                      
   RCORE  =    2.900    outmost cutoff radius                                   
   RWIGS  =    2.840; RWIGS  =    1.503    wigner-seitz radius (au A)           
   ENMAX  =  223.667; ENMIN  =  167.750 eV                                      
   RCLOC  =    2.205    cutoff for local pot                                    
   LCOR   =        T    correct aug charges                                     
   LPAW   =        T    paw PP                                                  
   EAUG   =  332.075                                                            
   DEXC   =    0.000                                                            
   RMAX   =    2.970    core radius for proj-oper                               
   RAUG   =    1.300    factor for augmentation sphere                          
   RDEP   =    3.060    radius for radial grids                                 
   RDEPT  =    2.354    core radius for aug-charge                              
                                                                                
   Atomic configuration                                                         
   16 entries                                                                   
     n  l   j            E        occ.                                          
     1  0  0.50    -67341.2807   2.0000                                         
     2  0  0.50    -11566.9376   2.0000                                         
     2  1  1.50    -10134.1182   6.0000                                         
     3  0  0.50     -2648.5620   2.0000                                         
     3  1  1.50     -2222.6012   6.0000                                         
     3  2  2.50     -1726.3120  10.0000                                         
     4  0  0.50      -538.6961   2.0000                                         
     4  1  1.50      -399.0129   6.0000                                         
     4  2  2.50      -220.3959  10.0000                                         
     4  3  3.50       -23.0374  14.0000                                         
     5  0  0.50       -71.2901   2.0000                                         
     5  1  1.50       -37.8225   6.0000                                         
     5  2  2.50        -2.6455   4.0000                                         
     6  0  0.50        -4.9623   1.0000                                         
     6  1  1.50        -1.3606   0.0000                                         
     5  3  2.50        -1.3606   0.0000                                         
   Description                                                                  
     l       E           TYP  RCUT    TYP  RCUT                                 
     2     -2.6455043     23  2.500                                             
     2     -0.6258895     23  2.500                                             
     0     -4.9622780     23  2.500                                             
     0      4.7531321     23  2.500                                             
     1     -1.3605826     23  2.900                                             
     1     27.2116520     23  2.900                                             
  local pseudopotential read in
  partial core-charges read in
  partial kinetic energy density read in
  atomic valenz-charges read in
  non local Contribution for L=           2  read in
    real space projection operators read in
  non local Contribution for L=           2  read in
    real space projection operators read in
  non local Contribution for L=           0  read in
    real space projection operators read in
  non local Contribution for L=           0  read in
    real space projection operators read in
  non local Contribution for L=           1  read in
    real space projection operators read in
  non local Contribution for L=           1  read in
    real space projection operators read in
    PAW grid and wavefunctions read in
 
   number of l-projection  operators is LMAX  =           6
   number of lm-projection operators is LMMAX =          18
 
 Optimization of the real space projectors (new method)

 maximal supplied QI-value         = 15.68
 optimisation between [QCUT,QGAM] = [  8.78, 17.72] = [ 21.60, 87.97] Ry 
 Optimized for a Real-space Cutoff    1.96 Angstroem

   l    n(q)    QCUT    max X(q) W(low)/X(q) W(high)/X(q)  e(spline) 
   0     10     8.783    10.201    0.29E-04    0.25E-05    0.69E-07
   0     10     8.783     8.174    0.45E-04    0.57E-05    0.14E-06
   1     10     8.783     3.488    0.76E-05    0.24E-04    0.95E-07
   1     10     8.783     4.917    0.78E-04    0.14E-03    0.46E-06
   2      9     8.783   153.744    0.22E-03    0.34E-04    0.15E-05
   2      9     8.783   126.342    0.22E-03    0.35E-04    0.15E-05
 Optimization of the real space projectors (new method)

 maximal supplied QI-value         = 12.47
 optimisation between [QCUT,QGAM] = [  8.86, 17.71] = [ 21.96, 87.83] Ry 
 Optimized for a Real-space Cutoff    1.90 Angstroem

   l    n(q)    QCUT    max X(q) W(low)/X(q) W(high)/X(q)  e(spline) 
   2      9     8.855    48.111    0.22E-03    0.80E-04    0.10E-05
   2      9     8.855    40.545    0.21E-03    0.76E-04    0.95E-06
   0     10     8.855   121.658    0.27E-04    0.12E-04    0.11E-06
   0     10     8.855    71.177    0.22E-04    0.11E-04    0.99E-07
   1     10     8.855    14.183    0.65E-04    0.10E-03    0.98E-07
   1     10     8.855     8.257    0.43E-04    0.73E-04    0.72E-07
 Optimization of the real space projectors (new method)

 maximal supplied QI-value         = 15.12
 optimisation between [QCUT,QGAM] = [  8.77, 17.69] = [ 21.53, 87.61] Ry 
 Optimized for a Real-space Cutoff    1.74 Angstroem

   l    n(q)    QCUT    max X(q) W(low)/X(q) W(high)/X(q)  e(spline) 
   0      9     8.768    12.107    0.28E-04    0.53E-06    0.29E-07
   0      9     8.768     9.948    0.36E-04    0.50E-05    0.64E-07
   1      9     8.768     3.563    0.14E-04    0.16E-04    0.88E-07
   1      9     8.768     4.524    0.21E-03    0.33E-03    0.19E-06
   2      8     8.768    87.261    0.19E-03    0.25E-03    0.24E-06
   2      8     8.768    70.950    0.19E-03    0.24E-03    0.24E-06
 Optimization of the real space projectors (new method)

 maximal supplied QI-value         = 12.85
 optimisation between [QCUT,QGAM] = [  8.87, 17.73] = [ 22.01, 88.06] Ry 
 Optimized for a Real-space Cutoff    1.90 Angstroem

   l    n(q)    QCUT    max X(q) W(low)/X(q) W(high)/X(q)  e(spline) 
   2      9     8.867    62.315    0.23E-03    0.62E-04    0.11E-05
   2      9     8.867    52.185    0.23E-03    0.62E-04    0.11E-05
   0     10     8.867   103.837    0.15E-04    0.23E-04    0.98E-07
   0     10     8.867    59.728    0.12E-04    0.21E-04    0.89E-07
   1     10     8.867    13.958    0.50E-04    0.22E-04    0.14E-06
   1     10     8.867     8.441    0.36E-04    0.19E-04    0.98E-07
  PAW_PBE Nb_sv 25May2007               :
 energy of atom  1       EATOM=-1555.1913
 kinetic energy error for atom=    0.0655 (will be added to EATOM!!)
  PAW_PBE Hf 20Jan2003                  :
 energy of atom  2       EATOM=  -75.9011
 kinetic energy error for atom=    0.0071 (will be added to EATOM!!)
  PAW_PBE Zr_sv 04Jan2005               :
 energy of atom  3       EATOM=-1284.2219
 kinetic energy error for atom=    0.0483 (will be added to EATOM!!)
  PAW_PBE Ta 17Jan2003                  :
 energy of atom  4       EATOM= -130.6506
 kinetic energy error for atom=    0.0121 (will be added to EATOM!!)
 
 
 POSCAR: generated by pypospack                  
  positions in direct lattice
  No initial velocities read in
 exchange correlation table for  LEXCH =        8
   RHO(1)=    0.500       N(1)  =     2000
   RHO(2)=  100.500       N(2)  =     4000
 


--------------------------------------------------------------------------------------------------------


 ion  position               nearest neighbor table
   1  0.257  0.166  0.159-  31 2.82  22 2.82  20 2.87  13 2.88  34 2.93  26 2.96  14 2.97  19 2.99
                            15 3.41
   2  0.976  0.679  0.002-  36 2.78  29 2.87   4 2.87   7 2.93  10 2.94   6 2.97   9 3.05  16 3.20
                            28 3.26  19 3.30  11 3.45  21 3.47
   3  0.740  0.183  0.834-  31 2.83  17 2.83  20 2.85  30 2.87  34 3.00  27 3.00  23 3.03  19 3.08
                             9 3.13
   4  0.743  0.834  0.172-  33 2.87   2 2.87  16 2.90  34 2.96  19 2.97  22 2.97  14 3.00  11 3.00
                             8 3.31
   5  0.262  0.168  0.830-  31 2.79  30 2.80  20 2.81  17 2.82  27 2.93  34 2.96  23 2.99  19 3.09
                            25 3.28
   6  0.762  0.492  0.171-   2 2.97  33 3.00  16 3.01  26 3.06  13 3.09  11 3.13  20 3.15  31 3.16
                            15 3.21  10 3.24  18 3.31   9 3.45  10 3.74
   7  0.252  0.828  0.843-   2 2.93  34 2.96  16 2.97  35 2.99  19 3.02  21 3.05  17 3.09  23 3.10
                            29 3.12  24 3.40  28 3.41  36 3.45  36 3.52
   8  0.724  0.828  0.496-  33 3.00  35 3.01  11 3.01  22 3.04  24 3.05  17 3.06  21 3.10  14 3.15
                            23 3.16   4 3.31  18 3.41  36 3.45  12 3.60
   9  0.747  0.488  0.833-  35 2.87  31 2.97  27 2.98  30 2.98  16 3.01  20 3.02  21 3.04   2 3.05
                             3 3.13  28 3.39  18 3.44   6 3.45  36 3.47  28 3.57
  10  0.227  0.507  0.155-  26 2.92  33 2.92   2 2.94  20 2.97  11 2.98  13 3.01  16 3.01  31 3.08
                             6 3.24  29 3.28  28 3.35  32 3.62   6 3.74
  11  0.017  0.681  0.339-  29 2.92  24 2.97  10 2.98   4 3.00   8 3.01  32 3.06  18 3.12   6 3.13
                            14 3.24  33 3.29  21 3.31   2 3.45  26 3.58  33 3.70
  12  0.763  0.179  0.492-  26 2.90  27 3.00  23 3.01  30 3.05  14 3.06  17 3.10  13 3.10  22 3.20
                            15 3.24  18 3.27  25 3.28   8 3.60  25 3.69
  13  0.463  0.336  0.333-  32 2.84   1 2.88  25 2.91  26 2.97  10 3.01  15 3.02  18 3.05   6 3.09
                            12 3.10  33 3.38  30 3.41  22 3.43  31 3.46
  14  0.016  0.997  0.331-   1 2.97  25 3.00   4 3.00  29 3.04  12 3.06  15 3.10   8 3.15  24 3.17
                            22 3.22  11 3.24  19 3.37  26 3.45  23 3.48  22 3.75
  15  0.745  0.179  0.175-  31 2.99  22 3.00  13 3.02  20 3.03  34 3.06  26 3.07  19 3.08  14 3.10
                             6 3.21  12 3.24   1 3.41
  16  0.516  0.667  0.004-  36 2.86  29 2.89   4 2.90   7 2.97   6 3.01   9 3.01  10 3.01  28 3.08
                            33 3.17   2 3.20  35 3.30  34 3.42  31 3.52
  17  0.512  0.013  0.681-   5 2.82   3 2.83  36 2.97  24 3.03   8 3.06   7 3.09  25 3.09  12 3.10
                            30 3.24  34 3.26  23 3.35  23 3.62  22 3.66  35 3.67
  18  0.743  0.497  0.496-  21 3.01  35 3.02  30 3.03  13 3.05  27 3.08  26 3.09  33 3.10  11 3.12
                            12 3.27   6 3.31  32 3.35   8 3.41   9 3.44  32 3.62
  19  0.989  0.000  0.001-  29 2.96   4 2.97  36 2.99   1 2.99   7 3.02   3 3.08  15 3.08   5 3.09
                            20 3.26   2 3.30  23 3.36  14 3.37  34 3.37  34 3.59
  20  0.017  0.317  0.988-   5 2.81   3 2.85   1 2.87  28 2.97  10 2.97   9 3.02  15 3.03   6 3.15
                            31 3.25  19 3.26  27 3.27  26 3.61  31 3.72
  21  0.003  0.661  0.663-  32 2.91  28 2.98  18 3.01  24 3.01  36 3.03   9 3.04   7 3.05   8 3.10
                            11 3.31  27 3.34   2 3.47  35 3.48  35 3.50  23 3.54
  22  0.478  0.002  0.323-   1 2.82  24 2.95   4 2.97  29 2.99  15 3.00   8 3.04  25 3.12  12 3.20
                            14 3.22  34 3.30  13 3.43  33 3.46  17 3.66  14 3.75
  23  0.992  0.006  0.672-  25 2.92   5 2.99  36 3.00  12 3.01   3 3.03   7 3.10   8 3.16  24 3.23
                            17 3.35  19 3.36  27 3.39  14 3.48  21 3.54  17 3.62
  24  0.287  0.825  0.511-  35 2.88  22 2.95  33 2.95  11 2.97  21 3.01  17 3.03   8 3.05  14 3.17
                            23 3.23  32 3.33   7 3.40  25 3.61  29 3.70
  25  0.234  0.175  0.509-  26 2.73  27 2.77  30 2.85  13 2.91  23 2.92  14 3.00  17 3.09  22 3.12
                             5 3.28  12 3.28  32 3.34  24 3.61  12 3.69
  26  0.036  0.332  0.341-  25 2.73  12 2.90  32 2.90  10 2.92   1 2.96  13 2.97   6 3.06  15 3.07
                            18 3.09  27 3.34  14 3.45  11 3.58  20 3.61
  27  0.018  0.336  0.668-  25 2.77  28 2.87  32 2.88   5 2.93   9 2.98  12 3.00   3 3.00  18 3.08
                            30 3.26  20 3.27  21 3.34  26 3.34  23 3.39
  28  0.260  0.496  0.828-  35 2.77  27 2.87  30 2.87  31 2.89  20 2.97  21 2.98  16 3.08  32 3.26
                             2 3.26  10 3.35   9 3.39   7 3.41   9 3.57
  29  0.250  0.826  0.149-   2 2.87  33 2.87  16 2.89  11 2.92  34 2.93  19 2.96  22 2.99  14 3.04
                             7 3.12  10 3.28  24 3.70
  30  0.486  0.328  0.667-   5 2.80  25 2.85  32 2.86   3 2.87  28 2.87   9 2.98  18 3.03  12 3.05
                            17 3.24  27 3.26  31 3.34  35 3.36  13 3.41
  31  0.484  0.325  0.994-   5 2.79   1 2.82   3 2.83  28 2.89   9 2.97  15 2.99  10 3.08   6 3.16
                            20 3.25  34 3.34  30 3.34  13 3.46  16 3.52  20 3.72
  32  0.262  0.501  0.509-  13 2.84  30 2.86  27 2.88  35 2.90  26 2.90  21 2.91  33 3.03  11 3.06
                            28 3.26  24 3.33  25 3.34  18 3.35  10 3.62  18 3.62
  33  0.487  0.665  0.314-   4 2.87  29 2.87  10 2.92  24 2.95   8 3.00   6 3.00  32 3.03  18 3.10
                            16 3.17  11 3.29  13 3.38  22 3.46  11 3.70
  34  0.505  0.000  1.000-   1 2.93  29 2.93   4 2.96   7 2.96   5 2.96  36 2.99   3 3.00  15 3.06
                            17 3.26  22 3.30  31 3.34  19 3.37  16 3.42  19 3.59
  35  0.502  0.655  0.682-  28 2.77   9 2.87  24 2.88  36 2.90  32 2.90   7 2.99   8 3.01  18 3.02
                            16 3.30  30 3.36  21 3.48  21 3.50  17 3.67
  36  0.746  0.826  0.834-   2 2.78  16 2.86  35 2.90  17 2.97  34 2.99  19 2.99  23 3.00  21 3.03
                             7 3.45   8 3.45   9 3.47   7 3.52
 
  LATTYP: Found a triclinic cell.
 ALAT       =    20.0823210463
 B/A-ratio  =     0.3467697056
 C/A-ratio  =     0.5080170985
 COS(alpha) =     0.0004975478
 COS(beta)  =     0.5112574969
 COS(gamma) =     0.6913521130
  
  Lattice vectors:
  
 A1 = ( -13.9063756998, -10.2551173473, -10.2344956738)
 A2 = (  -6.9639201989,   0.0167657099,  -0.0015713177)
 A3 = (  -0.0028433367,  -0.0287576072, -10.2021215419)


Analysis of symmetry for initial positions (statically):
=====================================================================
 Subroutine PRICEL returns:
 Original cell was already a primitive cell.
 

 Routine SETGRP: Setting up the symmetry group for a 
 triclinic supercell.


 Subroutine GETGRP returns: Found  1 space group operations
 (whereof  1 operations were pure point group operations)
 out of a pool of  2 trial point group operations.


The static configuration has the point symmetry C_1 .


Analysis of symmetry for dynamics (positions and initial velocities):
=====================================================================
 Subroutine PRICEL returns:
 Original cell was already a primitive cell.
 

 Routine SETGRP: Setting up the symmetry group for a 
 triclinic supercell.


 Subroutine GETGRP returns: Found  1 space group operations
 (whereof  1 operations were pure point group operations)
 out of a pool of  2 trial point group operations.


The dynamic configuration has the point symmetry C_1 .


 Subroutine INISYM returns: Found  1 space group operations
 (whereof  1 operations are pure point group operations),
 and found     1 'primitive' translations

 
 
 KPOINTS: k-points                                

Automatic generation of k-mesh.
Space group operators:
 irot       det(A)        alpha          n_x          n_y          n_z        tau_x        tau_y        tau_z
    1     1.000000     0.000002     1.000000     0.000000     0.000000     0.000000     0.000000     0.000000
 
 Subroutine IBZKPT returns following result:
 ===========================================
 
 Found     14 irreducible k-points:
 
 Following reciprocal coordinates:
            Coordinates               Weight
  0.000000  0.000000  0.000000      1.000000
  0.333333  0.000000  0.000000      2.000000
  0.000000  0.333333  0.000000      2.000000
  0.333333  0.333333  0.000000      2.000000
 -0.333333  0.333333  0.000000      2.000000
 -0.000000 -0.000000  0.333333      2.000000
  0.333333 -0.000000  0.333333      2.000000
 -0.333333 -0.000000  0.333333      2.000000
  0.000000  0.333333  0.333333      2.000000
  0.333333  0.333333  0.333333      2.000000
 -0.333333  0.333333  0.333333      2.000000
 -0.000000 -0.333333  0.333333      2.000000
  0.333333 -0.333333  0.333333      2.000000
 -0.333333 -0.333333  0.333333      2.000000
 
 Following cartesian coordinates:
            Coordinates               Weight
  0.000000  0.000000  0.000000      1.000000
  0.238771  0.000566 -0.000068      2.000000
  0.000390  0.162067 -0.000457      2.000000
  0.239161  0.162633 -0.000525      2.000000
 -0.238380  0.161501 -0.000389      2.000000
 -0.000038 -0.000464  0.162984      2.000000
  0.238733  0.000101  0.162916      2.000000
 -0.238809 -0.001030  0.163052      2.000000
  0.000352  0.161603  0.162527      2.000000
  0.239123  0.162169  0.162459      2.000000
 -0.238418  0.161037  0.162595      2.000000
 -0.000428 -0.162532  0.163441      2.000000
  0.238342 -0.161966  0.163373      2.000000
 -0.239199 -0.163098  0.163509      2.000000
 


--------------------------------------------------------------------------------------------------------




 Dimension of arrays:
   k-points           NKPTS =     14   k-points in BZ     NKDIM =     14   number of bands    NBANDS=    156
   number of dos      NEDOS =    301   number of ions     NIONS =     36
   non local maximal  LDIM  =      6   non local SUM 2l+1 LMDIM =     18
   total plane-waves  NPLWV = 144000
   max r-space proj   IRMAX =   6285   max aug-charges    IRDMAX=  13646
   dimension x,y,z NGX =    40 NGY =   60 NGZ =   60
   dimension x,y,z NGXF=    80 NGYF=  120 NGZF=  120
   support grid    NGXF=    80 NGYF=  120 NGZF=  120
   ions per type =               5  12   7  12
 NGX,Y,Z   is equivalent  to a cutoff of   9.55,  9.72,  9.78 a.u.
 NGXF,Y,Z  is equivalent  to a cutoff of  19.10, 19.44, 19.55 a.u.


 I would recommend the setting:
   dimension x,y,z NGX =    39 NGY =   58 NGZ =   58
 SYSTEM =  automatically generated by mexm         
 POSCAR =  generated by pypospack                  

 Startparameter for this run:
   NWRITE =      2    write-flag & timer
   PREC   = accura    normal or accurate (medium, high low for compatibility)
   ISTART =      0    job   : 0-new  1-cont  2-samecut
   ICHARG =      2    charge: 1-file 2-atom 10-const
   ISPIN  =      1    spin polarized calculation?
   LNONCOLLINEAR =      F non collinear calculations
   LSORBIT =      F    spin-orbit coupling
   INIWAV =      1    electr: 0-lowe 1-rand  2-diag
   LASPH  =      F    aspherical Exc in radial PAW
   METAGGA=      F    non-selfconsistent MetaGGA calc.

 Electronic Relaxation 1
   ENCUT  =  300.0 eV  22.05 Ry    4.70 a.u.   9.83 14.49 14.41*2*pi/ulx,y,z
   ENINI  =  300.0     initial cutoff
   ENAUG  =  461.3 eV  augmentation charge cutoff
   NELM   =     70;   NELMIN=  2; NELMDL= -5     # of ELM steps 
   EDIFF  = 0.1E-04   stopping-criterion for ELM
   LREAL  =      T    real-space projection
   NLSPLINE    = F    spline interpolate recip. space projectors
   LCOMPAT=      F    compatible to vasp.4.4
   GGA_COMPAT  = T    GGA compatible to vasp.4.4-vasp.4.6
   LMAXPAW     = -100 max onsite density
   LMAXMIX     =    2 max onsite mixed and CHGCAR
   VOSKOWN=      0    Vosko Wilk Nusair interpolation
   ROPT   =   -0.00025  -0.00025  -0.00025  -0.00025
 Ionic relaxation
   EDIFFG = -.1E-01   stopping-criterion for IOM
   NSW    =    300    number of steps for IOM
   NBLOCK =      1;   KBLOCK =    300    inner block; outer block 
   IBRION =      2    ionic relax: 0-MD 1-quasi-New 2-CG
   NFREE  =      1    steps in history (QN), initial steepest desc. (CG)
   ISIF   =      3    stress and relaxation
   IWAVPR =     11    prediction:  0-non 1-charg 2-wave 3-comb
   ISYM   =      1    0-nonsym 1-usesym 2-fastsym
   LCORR  =      T    Harris-Foulkes like correction to forces

   POTIM  = 0.1500    time-step for ionic-motion
   TEIN   =    0.0    initial temperature
   TEBEG  =    0.0;   TEEND  =   0.0 temperature during run
   SMASS  =  -3.00    Nose mass-parameter (am)
   estimated Nose-frequenzy (Omega)   =  0.10E-29 period in steps =****** mass=  -0.111E-26a.u.
   SCALEE = 1.0000    scale energy and forces
   NPACO  =    256;   APACO  = 16.0  distance and # of slots for P.C.
   PSTRESS=    0.0 pullay stress

  Mass of Ions in am
   POMASS =  92.91178.49 91.22180.95
  Ionic Valenz
   ZVAL   =  13.00  4.00 12.00  5.00
  Atomic Wigner-Seitz radii
   RWIGS  =  -1.00 -1.00 -1.00 -1.00
  virtual crystal weights 
   VCA    =   1.00  1.00  1.00  1.00
   NELECT =     257.0000    total number of electrons
   NUPDOWN=      -1.0000    fix difference up-down

 DOS related values:
   EMIN   =  10.00;   EMAX   =-10.00  energy-range for DOS
   EFERMI =   0.00
   ISMEAR =     1;   SIGMA  =   0.15  broadening in eV -4-tet -1-fermi 0-gaus

 Electronic relaxation 2 (details)
   IALGO  =     68    algorithm
   LDIAG  =      T    sub-space diagonalisation (order eigenvalues)
   LSUBROT=      F    optimize rotation matrix (better conditioning)
   TURBO    =      0    0=normal 1=particle mesh
   IRESTART =      0    0=no restart 2=restart with 2 vectors
   NREBOOT  =      0    no. of reboots
   NMIN     =      0    reboot dimension
   EREF     =   0.00    reference energy to select bands
   IMIX   =      4    mixing-type and parameters
     AMIX     =   0.40;   BMIX     =  1.00
     AMIX_MAG =   1.60;   BMIX_MAG =  1.00
     AMIN     =   0.10
     WC   =   100.;   INIMIX=   1;  MIXPRE=   1;  MAXMIX= -45

 Intra band minimization:
   WEIMIN = 0.0010     energy-eigenvalue tresh-hold
   EBREAK =  0.16E-07  absolut break condition
   DEPER  =   0.30     relativ break condition  

   TIME   =   0.40     timestep for ELM

  volume/ion in A,a.u.               =      20.25       136.64
  Fermi-wavevector in a.u.,A,eV,Ry     =   1.156535  2.185535 18.198795  1.337574
  Thomas-Fermi vector in A             =   2.293155
 
 Write flags
   LWAVE  =      F    write WAVECAR
   LCHARG =      F    write CHGCAR
   LVTOT  =      F    write LOCPOT, total local potential
   LVHAR  =      F    write LOCPOT, Hartree potential only
   LELF   =      F    write electronic localiz. function (ELF)
   LORBIT =      0    0 simple, 1 ext, 2 COOP (PROOUT)


 Dipole corrections
   LMONO  =      F    monopole corrections only (constant potential shift)
   LDIPOL =      F    correct potential (dipole corrections)
   IDIPOL =      0    1-x, 2-y, 3-z, 4-all directions 
   EPSILON=  1.0000000 bulk dielectric constant

 Exchange correlation treatment:
   GGA     =    --    GGA type
   LEXCH   =     8    internal setting for exchange type
   VOSKOWN=      0    Vosko Wilk Nusair interpolation
   LHFCALC =     F    Hartree Fock is set to
   LHFONE  =     F    Hartree Fock one center treatment
   AEXX    =    0.0000 exact exchange contribution

 Linear response parameters
   LEPSILON=     F    determine dielectric tensor
   LRPA    =     F    only Hartree local field effects (RPA)
   LNABLA  =     F    use nabla operator in PAW spheres
   LVEL    =     F    velocity operator in full k-point grid
   LINTERFAST=   F  fast interpolation
   KINTER  =     0    interpolate to denser k-point grid
   CSHIFT  =0.1000    complex shift for real part using Kramers Kronig
   OMEGAMAX=  -1.0    maximum frequency
   DEG_THRESHOLD= 0.2000000E-02 threshold for treating states as degnerate
   RTIME   =    0.100 relaxation time in fs

 Orbital magnetization related:
   ORBITALMAG=     F  switch on orbital magnetization
   LCHIMAG   =     F  perturbation theory with respect to B field
   DQ        =  0.001000  dq finite difference perturbation B field



--------------------------------------------------------------------------------------------------------


 conjugate gradient relaxation of ions
 charge density and potential will be updated during run
 non-spin polarized calculation
 RMM-DIIS sequential band-by-band and
  variant of blocked Davidson during initial phase
 perform sub-space diagonalisation
    before iterative eigenvector-optimisation
 modified Broyden-mixing scheme, WC =      100.0
 initial mixing is a Kerker type mixing with AMIX =  0.4000 and BMIX =      1.0000
 Hartree-type preconditioning will be used
 using additional bands           27
 real space projection scheme for non local part
 use partial core corrections
 calculate Harris-corrections to forces 
   (improved forces if not selfconsistent)
 use gradient corrections 
 use of overlap-Matrix (Vanderbilt PP)
 Methfessel and Paxton  Order N= 1 SIGMA  =   0.15


--------------------------------------------------------------------------------------------------------


  energy-cutoff  :      300.00
  volume of cell :      728.92
      direct lattice vectors                 reciprocal lattice vectors
     6.963920199 -0.016765710  0.001571318     0.143598109  0.000340334 -0.000040980
    -0.024308035 10.259891160  0.029231497     0.000234718  0.097468260 -0.000274808
     0.002843337  0.028757607 10.202121542    -0.000022789 -0.000279322  0.098019622

  length of vectors
     6.963940558 10.259961597 10.202162469     0.143598518  0.097468930  0.098020023


 
 k-points in units of 2pi/SCALE and weight: k-points                                
   0.00000000  0.00000000  0.00000000       0.037
   0.23877063  0.00056590 -0.00006814       0.074
   0.00039028  0.16206730 -0.00045694       0.074
   0.23916091  0.16263320 -0.00052508       0.074
  -0.23838035  0.16150140 -0.00038880       0.074
  -0.00003789 -0.00046445  0.16298409       0.074
   0.23873273  0.00010145  0.16291595       0.074
  -0.23880852 -0.00103034  0.16305223       0.074
   0.00035239  0.16160285  0.16252714       0.074
   0.23912302  0.16216875  0.16245900       0.074
  -0.23841824  0.16103695  0.16259529       0.074
  -0.00042818 -0.16253175  0.16344103       0.074
   0.23834245 -0.16196585  0.16337289       0.074
  -0.23919880 -0.16309764  0.16350917       0.074
 
 k-points in reciprocal lattice and weights: k-points                                
   0.00000000  0.00000000  0.00000000       0.037
   0.33333333  0.00000000  0.00000000       0.074
   0.00000000  0.33333333  0.00000000       0.074
   0.33333333  0.33333333  0.00000000       0.074
  -0.33333333  0.33333333  0.00000000       0.074
  -0.00000000 -0.00000000  0.33333333       0.074
   0.33333333 -0.00000000  0.33333333       0.074
  -0.33333333 -0.00000000  0.33333333       0.074
   0.00000000  0.33333333  0.33333333       0.074
   0.33333333  0.33333333  0.33333333       0.074
  -0.33333333  0.33333333  0.33333333       0.074
  -0.00000000 -0.33333333  0.33333333       0.074
   0.33333333 -0.33333333  0.33333333       0.074
  -0.33333333 -0.33333333  0.33333333       0.074
 
 position of ions in fractional coordinates (direct lattice) 
   0.25650800  0.16609200  0.15901700
   0.97573200  0.67891600  0.00159000
   0.73988300  0.18322900  0.83383400
   0.74339900  0.83427400  0.17235300
   0.26207000  0.16780100  0.83038200
   0.76195600  0.49246000  0.17146500
   0.25163200  0.82828300  0.84303100
   0.72401200  0.82843800  0.49604400
   0.74738000  0.48803200  0.83315000
   0.22661400  0.50691500  0.15539300
   0.01688200  0.68070200  0.33880500
   0.76332700  0.17866500  0.49187000
   0.46262800  0.33635900  0.33284500
   0.01596100  0.99675900  0.33067500
   0.74504200  0.17927500  0.17472000
   0.51623700  0.66701900  0.00431400
   0.51159700  0.01274700  0.68070900
   0.74267300  0.49654700  0.49597500
   0.98901500  0.00007200  0.00124400
   0.01721500  0.31730300  0.98817600
   0.00314400  0.66106300  0.66300300
   0.47763600  0.00237700  0.32267400
   0.99222800  0.00578300  0.67161900
   0.28694200  0.82505100  0.51105200
   0.23405300  0.17502500  0.50941100
   0.03592500  0.33219300  0.34107900
   0.01836900  0.33597000  0.66806600
   0.26016500  0.49632400  0.82825300
   0.25033300  0.82625800  0.14921400
   0.48606400  0.32778200  0.66699900
   0.48390700  0.32511700  0.99421900
   0.26220600  0.50057100  0.50910400
   0.48655800  0.66525500  0.31408000
   0.50473700  0.00019500  0.99956400
   0.50165200  0.65522100  0.68171600
   0.74630900  0.82593400  0.83435200
 
 position of ions in cartesian coordinates  (Angst):
   1.78271601  1.70435825  1.62756893
   6.77842119  6.94929115  0.03760029
   5.15040310  1.89148400  8.51339446
   5.15718181  8.55205329  1.78392145
   1.82331671  1.74110601  8.47697496
   5.29471758  5.04474219  1.76489939
   1.73460826  8.51811819  8.62531207
   5.02323451  8.50181018  5.08605531
   5.19520051  5.01858425  8.51533784
   1.56624154  5.20156211  1.60051224
   0.10198171  6.99338861  3.47645425
   5.31280387  1.83443074  5.02453960
   3.21447464  3.45282227  3.40628436
   0.08786210 10.23588068  3.40274838
   5.18455200  1.83187536  1.78892585
   3.57883162  6.83501132  0.06432109
   3.56434631  0.14178111  6.94585245
   5.16125565  5.09632979  5.07567902
   6.88742332 -0.01580705  0.01424760
   0.11498059  3.28362320 10.09079395
   0.00771056  6.80144810  6.78336599
   3.32707868  0.02565919  3.29277937
   6.91156568  0.06201170  6.85366682
   1.97963891  8.47481931  5.23838297
   1.62712033  1.80646283  5.20255695
   0.24307368  3.41747033  3.48949636
   0.12165302  3.46591964  6.82554030
   1.80205864  5.11168694  8.46485487
   1.72363859  8.47741118  1.54684547
   3.37883967  3.37403973  6.81515019
   3.36481368  3.35614335 10.15340711
   1.81526132  5.14604852  5.20898533
   3.37307308  6.82631859  3.22449327
   3.51778555  0.02228347 10.19847222
   3.47947571  6.73369011  6.97489083
   5.17953183  8.48547451  8.53747649
 


--------------------------------------------------------------------------------------------------------


 k-point  1 :   0.0000 0.0000 0.0000  plane waves:    8641
 k-point  2 :   0.3333 0.0000 0.0000  plane waves:    8606
 k-point  3 :   0.0000 0.3333 0.0000  plane waves:    8602
 k-point  4 :   0.3333 0.3333 0.0000  plane waves:    8592
 k-point  5 :  -0.3333 0.3333 0.0000  plane waves:    8601
 k-point  6 :  -0.0000-0.0000 0.3333  plane waves:    8611
 k-point  7 :   0.3333-0.0000 0.3333  plane waves:    8605
 k-point  8 :  -0.3333-0.0000 0.3333  plane waves:    8597
 k-point  9 :   0.0000 0.3333 0.3333  plane waves:    8583
 k-point 10 :   0.3333 0.3333 0.3333  plane waves:    8612
 k-point 11 :  -0.3333 0.3333 0.3333  plane waves:    8613
 k-point 12 :  -0.0000-0.3333 0.3333  plane waves:    8598
 k-point 13 :   0.3333-0.3333 0.3333  plane waves:    8603
 k-point 14 :  -0.3333-0.3333 0.3333  plane waves:    8603

 maximum and minimum number of plane-waves per node :      1750     1685

 maximum number of plane-waves:      8641
 maximum index in each direction: 
   IXMAX=   10   IYMAX=   14   IZMAX=   14
   IXMIN=  -10   IYMIN=  -14   IZMIN=  -14

 WARNING: aliasing errors must be expected set NGX to  42 to avoid them
 NGY is ok and might be reduce to  58
 NGZ is ok and might be reduce to  58
 aliasing errors are usually negligible using standard VASP settings
 and one can safely disregard these warnings

 real space projection operators:
  total allocation   :      27126.00 KBytes
  max/ min on nodes  :       5475.80       5364.42


 parallel 3D FFT for wavefunctions:
    minimum data exchange during FFTs selected (reduces bandwidth)
 parallel 3D FFT for charge:
    minimum data exchange during FFTs selected (reduces bandwidth)


 total amount of memory used by VASP on root node    65296. kBytes
========================================================================

   base      :      30000. kBytes
   nonlr-proj:      10435. kBytes
   fftplans  :       2814. kBytes
   grid      :       5360. kBytes
   one-center:        124. kBytes
   wavefun   :      16563. kBytes
 
     INWAV:  cpu time    0.0000: real time    0.0000
 Broyden mixing: mesh for mixing (old mesh)
   NGX = 19   NGY = 29   NGZ = 29
  (NGX  = 80   NGY  =120   NGZ  =120)
  gives a total of  15979 points

 initial charge density was supplied:
 charge density of overlapping atoms calculated
 number of electron     257.0000000 magnetization 
 keeping initial charge density in first step


--------------------------------------------------------------------------------------------------------


 Maximum index for non-local projection operator         1216
 Maximum index for augmentation-charges          683 (set IRDMAX)


--------------------------------------------------------------------------------------------------------


 First call to EWALD:  gamma=   0.197
 Maximum number of real-space cells 3x 2x 2
 Maximum number of reciprocal cells 2x 3x 3

 FEWALD executed in parallel
    FEWALD:  cpu time    0.0739: real time    0.0746


----------------------------------------- Iteration    1(   1)  ---------------------------------------


    POTLOK:  cpu time    0.0489: real time    0.0815
    SETDIJ:  cpu time    0.1665: real time    0.1680
     EDDAV:  cpu time    0.9013: real time    0.9053
       DOS:  cpu time    0.0018: real time    0.0018
    --------------------------------------------
      LOOP:  cpu time    1.1235: real time    1.3283

 eigenvalue-minimisations  :  4728
 total energy-change (2. order) : 0.1339795E+04  (-0.9155226E+04)
 number of electron     257.0000000 magnetization 
 augmentation part      257.0000000 magnetization 

 Free energy of the ion-electron system (eV)
  ---------------------------------------------------
  alpha Z        PSCENC =      1293.85091987
  Ewald energy   TEWEN  =    -15006.63254022
  -Hartree energ DENC   =     -5347.67563633
  -exchange      EXHF   =         0.00000000
  -V(xc)+E(xc)   XCENC  =      -803.95704952
  PAW double counting   =     16951.39188451   -15130.78105618
  entropy T*S    EENTRO =        -0.00598131
  eigenvalues    EBANDS =       140.36949571
  atomic energy  EATOM  =     19243.23461550
  Solvation  Ediel_sol  =         0.00000000
  ---------------------------------------------------
  free energy    TOTEN  =      1339.79465202 eV

  energy without entropy =     1339.80063333  energy(sigma->0) =     1339.79664579


--------------------------------------------------------------------------------------------------------




----------------------------------------- Iteration    1(   2)  ---------------------------------------


     EDDAV:  cpu time    0.8695: real time    0.8745
       DOS:  cpu time    0.0008: real time    0.0008
    --------------------------------------------
      LOOP:  cpu time    0.8731: real time    0.9725

 eigenvalue-minimisations  :  4940
 total energy-change (2. order) :-0.1490932E+04  (-0.1433598E+04)
 number of electron     257.0000000 magnetization 
 augmentation part      257.0000000 magnetization 

 Free energy of the ion-electron system (eV)
  ---------------------------------------------------
  alpha Z        PSCENC =      1293.85091987
  Ewald energy   TEWEN  =    -15006.63254022
  -Hartree energ DENC   =     -5347.67563633
  -exchange      EXHF   =         0.00000000
  -V(xc)+E(xc)   XCENC  =      -803.95704952
  PAW double counting   =     16951.39188451   -15130.78105618
  entropy T*S    EENTRO =         0.00609050
  eigenvalues    EBANDS =     -1350.57482510
  atomic energy  EATOM  =     19243.23461550
  Solvation  Ediel_sol  =         0.00000000
  ---------------------------------------------------
  free energy    TOTEN  =      -151.13759698 eV

  energy without entropy =     -151.14368748  energy(sigma->0) =     -151.13962715


--------------------------------------------------------------------------------------------------------




----------------------------------------- Iteration    1(   3)  ---------------------------------------


     EDDAV:  cpu time    1.2221: real time    1.2345
       DOS:  cpu time    0.0009: real time    0.0009
    --------------------------------------------
      LOOP:  cpu time    1.2236: real time    1.2496

 eigenvalue-minimisations  :  7576
 total energy-change (2. order) :-0.2058955E+03  (-0.1946614E+03)
 number of electron     257.0000000 magnetization 
 augmentation part      257.0000000 magnetization 

 Free energy of the ion-electron system (eV)
  ---------------------------------------------------
  alpha Z        PSCENC =      1293.85091987
  Ewald energy   TEWEN  =    -15006.63254022
  -Hartree energ DENC   =     -5347.67563633
  -exchange      EXHF   =         0.00000000
  -V(xc)+E(xc)   XCENC  =      -803.95704952
  PAW double counting   =     16951.39188451   -15130.78105618
  entropy T*S    EENTRO =         0.01690154
  eigenvalues    EBANDS =     -1556.48113087
  atomic energy  EATOM  =     19243.23461550
  Solvation  Ediel_sol  =         0.00000000
  ---------------------------------------------------
  free energy    TOTEN  =      -357.03309172 eV

  energy without entropy =     -357.04999325  energy(sigma->0) =     -357.03872556


--------------------------------------------------------------------------------------------------------




----------------------------------------- Iteration    1(   4)  ---------------------------------------


     EDDAV:  cpu time    1.4173: real time    1.4260
       DOS:  cpu time    0.0102: real time    0.0103
    --------------------------------------------
      LOOP:  cpu time    1.4280: real time    1.4523

 eigenvalue-minimisations  :  7312
 total energy-change (2. order) :-0.2398361E+02  (-0.2264164E+02)
 number of electron     257.0000000 magnetization 
 augmentation part      257.0000000 magnetization 

 Free energy of the ion-electron system (eV)
  ---------------------------------------------------
  alpha Z        PSCENC =      1293.85091987
  Ewald energy   TEWEN  =    -15006.63254022
  -Hartree energ DENC   =     -5347.67563633
  -exchange      EXHF   =         0.00000000
  -V(xc)+E(xc)   XCENC  =      -803.95704952
  PAW double counting   =     16951.39188451   -15130.78105618
  entropy T*S    EENTRO =         0.00350028
  eigenvalues    EBANDS =     -1580.45134275
  atomic energy  EATOM  =     19243.23461550
  Solvation  Ediel_sol  =         0.00000000
  ---------------------------------------------------
  free energy    TOTEN  =      -381.01670485 eV

  energy without entropy =     -381.02020513  energy(sigma->0) =     -381.01787161


--------------------------------------------------------------------------------------------------------




----------------------------------------- Iteration    1(   5)  ---------------------------------------


     EDDAV:  cpu time    1.3037: real time    1.3664
       DOS:  cpu time    0.0011: real time    0.0011
    CHARGE:  cpu time    0.0374: real time    0.0378
    MIXING:  cpu time    0.0019: real time    0.0019
    --------------------------------------------
      LOOP:  cpu time    1.3445: real time    1.4234

 eigenvalue-minimisations  :  7152
 total energy-change (2. order) :-0.2451460E+01  (-0.2382612E+01)
 number of electron     256.9999999 magnetization 
 augmentation part       13.7738293 magnetization 

 Broyden mixing:
  rms(total) = 0.66781E+01    rms(broyden)= 0.66777E+01
  rms(prec ) = 0.69250E+01
  weight for this iteration     100.00

 Free energy of the ion-electron system (eV)
  ---------------------------------------------------
  alpha Z        PSCENC =      1293.85091987
  Ewald energy   TEWEN  =    -15006.63254022
  -Hartree energ DENC   =     -5347.67563633
  -exchange      EXHF   =         0.00000000
  -V(xc)+E(xc)   XCENC  =      -803.95704952
  PAW double counting   =     16951.39188451   -15130.78105618
  entropy T*S    EENTRO =         0.00368526
  eigenvalues    EBANDS =     -1582.90298822
  atomic energy  EATOM  =     19243.23461550
  Solvation  Ediel_sol  =         0.00000000
  ---------------------------------------------------
  free energy    TOTEN  =      -383.46816534 eV

  energy without entropy =     -383.47185061  energy(sigma->0) =     -383.46939377


--------------------------------------------------------------------------------------------------------




----------------------------------------- Iteration    1(   6)  ---------------------------------------


    POTLOK:  cpu time    0.0345: real time    0.0347
    SETDIJ:  cpu time    0.0040: real time    0.0040
    EDDIAG:  cpu time    0.0670: real time    0.0675
  RMM-DIIS:  cpu time    0.7359: real time    0.7406
    ORTHCH:  cpu time    0.0099: real time    0.0100
       DOS:  cpu time    0.0142: real time    0.0142
    CHARGE:  cpu time    0.0437: real time    0.0439
    MIXING:  cpu time    0.0017: real time    0.0204
    --------------------------------------------
      LOOP:  cpu time    0.9116: real time    0.9506

 eigenvalue-minimisations  :  6062
 total energy-change (2. order) : 0.1036351E+02  (-0.1915059E+01)
 number of electron     256.9999999 magnetization 
 augmentation part       14.3354361 magnetization 

 Broyden mixing:
  rms(total) = 0.32653E+01    rms(broyden)= 0.32652E+01
  rms(prec ) = 0.34426E+01
  weight for this iteration     100.00

 eigenvalues of (default mixing * dielectric matrix)
  average eigenvalue GAMMA=   1.9060
  1.9060

 Free energy of the ion-electron system (eV)
  ---------------------------------------------------
  alpha Z        PSCENC =      1293.85091987
  Ewald energy   TEWEN  =    -15006.63254022
  -Hartree energ DENC   =     -5221.75785862
  -exchange      EXHF   =         0.00000000
  -V(xc)+E(xc)   XCENC  =      -803.53725671
  PAW double counting   =     22044.59358478   -20233.02972877
  entropy T*S    EENTRO =         0.00000663
  eigenvalues    EBANDS =     -1689.82639755
  atomic energy  EATOM  =     19243.23461550
  Solvation  Ediel_sol  =         0.00000000
  ---------------------------------------------------
  free energy    TOTEN  =      -373.10465509 eV

  energy without entropy =     -373.10466172  energy(sigma->0) =     -373.10465730


--------------------------------------------------------------------------------------------------------




----------------------------------------- Iteration    1(   7)  ---------------------------------------


    POTLOK:  cpu time    0.0294: real time    0.0296
    SETDIJ:  cpu time    0.0122: real time    0.0123
    EDDIAG:  cpu time    0.0809: real time    0.0814
  RMM-DIIS:  cpu time    0.7181: real time    0.7220
    ORTHCH:  cpu time    0.0095: real time    0.0096
       DOS:  cpu time    0.0009: real time    0.0009
    CHARGE:  cpu time    0.0269: real time    0.0270
    MIXING:  cpu time    0.0013: real time    0.0013
    --------------------------------------------
      LOOP:  cpu time    0.8799: real time    0.8988

 eigenvalue-minimisations  :  5927
 total energy-change (2. order) : 0.1665812E+01  (-0.2173840E+01)
 number of electron     256.9999999 magnetization 
 augmentation part       14.8649846 magnetization 

 Broyden mixing:
  rms(total) = 0.74087E+00    rms(broyden)= 0.74064E+00
  rms(prec ) = 0.19471E+01
  weight for this iteration     100.00

 eigenvalues of (default mixing * dielectric matrix)
  average eigenvalue GAMMA=   1.2645
  1.9045  0.6244

 Free energy of the ion-electron system (eV)
  ---------------------------------------------------
  alpha Z        PSCENC =      1293.85091987
  Ewald energy   TEWEN  =    -15006.63254022
  -Hartree energ DENC   =     -5161.96918976
  -exchange      EXHF   =         0.00000000
  -V(xc)+E(xc)   XCENC  =      -799.32196963
  PAW double counting   =     28094.62838564   -26280.91587423
  entropy T*S    EENTRO =         0.01952685
  eigenvalues    EBANDS =     -1754.33271719
  atomic energy  EATOM  =     19243.23461550
  Solvation  Ediel_sol  =         0.00000000
  ---------------------------------------------------
  free energy    TOTEN  =      -371.43884318 eV

  energy without entropy =     -371.45837003  energy(sigma->0) =     -371.44535213


--------------------------------------------------------------------------------------------------------




----------------------------------------- Iteration    1(   8)  ---------------------------------------


    POTLOK:  cpu time    0.0302: real time    0.0304
    SETDIJ:  cpu time    0.0038: real time    0.0038
    EDDIAG:  cpu time    0.0803: real time    0.0809
  RMM-DIIS:  cpu time    0.7130: real time    0.7219
    ORTHCH:  cpu time    0.0098: real time    0.0098
       DOS:  cpu time    0.0023: real time    0.0023
    CHARGE:  cpu time    0.0284: real time    0.0285
    MIXING:  cpu time    0.0013: real time    0.0013
    --------------------------------------------
      LOOP:  cpu time    0.8695: real time    0.8930

 eigenvalue-minimisations  :  6940
 total energy-change (2. order) : 0.2649381E+01  (-0.3783601E+00)
 number of electron     256.9999999 magnetization 
 augmentation part       14.7446970 magnetization 

 Broyden mixing:
  rms(total) = 0.37821E+00    rms(broyden)= 0.37797E+00
  rms(prec ) = 0.63359E+00
  weight for this iteration     100.00

 eigenvalues of (default mixing * dielectric matrix)
  average eigenvalue GAMMA=   1.1695
  1.8078  1.2648  0.4358

 Free energy of the ion-electron system (eV)
  ---------------------------------------------------
  alpha Z        PSCENC =      1293.85091987
  Ewald energy   TEWEN  =    -15006.63254022
  -Hartree energ DENC   =     -5155.10303163
  -exchange      EXHF   =         0.00000000
  -V(xc)+E(xc)   XCENC  =      -798.87063268
  PAW double counting   =     28674.66264624   -26859.98382577
  entropy T*S    EENTRO =         0.01610010
  eigenvalues    EBANDS =     -1759.96371348
  atomic energy  EATOM  =     19243.23461550
  Solvation  Ediel_sol  =         0.00000000
  ---------------------------------------------------
  free energy    TOTEN  =      -368.78946208 eV

  energy without entropy =     -368.80556218  energy(sigma->0) =     -368.79482878


--------------------------------------------------------------------------------------------------------




----------------------------------------- Iteration    1(   9)  ---------------------------------------


    POTLOK:  cpu time    0.0334: real time    0.0337
    SETDIJ:  cpu time    0.0041: real time    0.0041
    EDDIAG:  cpu time    0.0654: real time    0.0666
  RMM-DIIS:  cpu time    0.8043: real time    0.8083
    ORTHCH:  cpu time    0.0096: real time    0.0096
       DOS:  cpu time    0.0034: real time    0.0034
    CHARGE:  cpu time    0.0276: real time    0.0279
    MIXING:  cpu time    0.0014: real time    0.0014
    --------------------------------------------
      LOOP:  cpu time    0.9498: real time    0.9685

 eigenvalue-minimisations  :  6913
 total energy-change (2. order) : 0.1254083E+00  (-0.1238160E+00)
 number of electron     256.9999999 magnetization 
 augmentation part       14.6456715 magnetization 

 Broyden mixing:
  rms(total) = 0.25781E+00    rms(broyden)= 0.25778E+00
  rms(prec ) = 0.32622E+00
  weight for this iteration     100.00

 eigenvalues of (default mixing * dielectric matrix)
  average eigenvalue GAMMA=   1.2432
  2.0255  2.0255  0.5255  0.3962

 Free energy of the ion-electron system (eV)
  ---------------------------------------------------
  alpha Z        PSCENC =      1293.85091987
  Ewald energy   TEWEN  =    -15006.63254022
  -Hartree energ DENC   =     -5154.81051773
  -exchange      EXHF   =         0.00000000
  -V(xc)+E(xc)   XCENC  =      -798.56745025
  PAW double counting   =     28757.04015136   -26940.04278949
  entropy T*S    EENTRO =         0.01418126
  eigenvalues    EBANDS =     -1762.75062410
  atomic energy  EATOM  =     19243.23461550
  Solvation  Ediel_sol  =         0.00000000
  ---------------------------------------------------
  free energy    TOTEN  =      -368.66405380 eV

  energy without entropy =     -368.67823505  energy(sigma->0) =     -368.66878088


--------------------------------------------------------------------------------------------------------




----------------------------------------- Iteration    1(  10)  ---------------------------------------


    POTLOK:  cpu time    0.0301: real time    0.0310
    SETDIJ:  cpu time    0.0038: real time    0.0038
    EDDIAG:  cpu time    0.0678: real time    0.0680
  RMM-DIIS:  cpu time    0.7114: real time    0.7168
    ORTHCH:  cpu time    0.0097: real time    0.0097
       DOS:  cpu time    0.0013: real time    0.0013
    CHARGE:  cpu time    0.0270: real time    0.0270
    MIXING:  cpu time    0.0014: real time    0.0014
    --------------------------------------------
      LOOP:  cpu time    0.8530: real time    0.8751

 eigenvalue-minimisations  :  6857
 total energy-change (2. order) : 0.3681183E-01  (-0.2729710E-01)
 number of electron     256.9999999 magnetization 
 augmentation part       14.5834617 magnetization 

 Broyden mixing:
  rms(total) = 0.10284E+00    rms(broyden)= 0.10280E+00
  rms(prec ) = 0.18077E+00
  weight for this iteration     100.00

 eigenvalues of (default mixing * dielectric matrix)
  average eigenvalue GAMMA=   1.1687
  2.0395  2.0395  0.8622  0.5156  0.3866

 Free energy of the ion-electron system (eV)
  ---------------------------------------------------
  alpha Z        PSCENC =      1293.85091987
  Ewald energy   TEWEN  =    -15006.63254022
  -Hartree energ DENC   =     -5167.91036363
  -exchange      EXHF   =         0.00000000
  -V(xc)+E(xc)   XCENC  =      -797.58010059
  PAW double counting   =     28951.10954748   -27128.24187022
  entropy T*S    EENTRO =         0.01717774
  eigenvalues    EBANDS =     -1756.47462789
  atomic energy  EATOM  =     19243.23461550
  Solvation  Ediel_sol  =         0.00000000
  ---------------------------------------------------
  free energy    TOTEN  =      -368.62724196 eV

  energy without entropy =     -368.64441970  energy(sigma->0) =     -368.63296788


--------------------------------------------------------------------------------------------------------




----------------------------------------- Iteration    1(  11)  ---------------------------------------


    POTLOK:  cpu time    0.0301: real time    0.0303
    SETDIJ:  cpu time    0.0038: real time    0.0038
    EDDIAG:  cpu time    0.0662: real time    0.0667
  RMM-DIIS:  cpu time    0.7190: real time    0.7237
    ORTHCH:  cpu time    0.0096: real time    0.0096
       DOS:  cpu time    0.0016: real time    0.0016
    CHARGE:  cpu time    0.0276: real time    0.0276
    MIXING:  cpu time    0.0014: real time    0.0014
    --------------------------------------------
      LOOP:  cpu time    0.8598: real time    0.8802

 eigenvalue-minimisations  :  6950
 total energy-change (2. order) : 0.1113285E-01  (-0.9610907E-02)
 number of electron     257.0000000 magnetization 
 augmentation part       14.5721861 magnetization 

 Broyden mixing:
  rms(total) = 0.55345E-01    rms(broyden)= 0.55303E-01
  rms(prec ) = 0.11296E+00
  weight for this iteration     100.00

 eigenvalues of (default mixing * dielectric matrix)
  average eigenvalue GAMMA=   1.1157
  2.1732  1.7688  1.3785  0.5113  0.4776  0.3850

 Free energy of the ion-electron system (eV)
  ---------------------------------------------------
  alpha Z        PSCENC =      1293.85091987
  Ewald energy   TEWEN  =    -15006.63254022
  -Hartree energ DENC   =     -5170.58536498
  -exchange      EXHF   =         0.00000000
  -V(xc)+E(xc)   XCENC  =      -797.25715560
  PAW double counting   =     29117.71294874   -27292.75947831
  entropy T*S    EENTRO =         0.01594552
  eigenvalues    EBANDS =     -1756.19599962
  atomic energy  EATOM  =     19243.23461550
  Solvation  Ediel_sol  =         0.00000000
  ---------------------------------------------------
  free energy    TOTEN  =      -368.61610911 eV

  energy without entropy =     -368.63205463  energy(sigma->0) =     -368.62142428


--------------------------------------------------------------------------------------------------------




----------------------------------------- Iteration    1(  12)  ---------------------------------------


    POTLOK:  cpu time    0.0307: real time    0.0310
    SETDIJ:  cpu time    0.0038: real time    0.0038
    EDDIAG:  cpu time    0.0644: real time    0.0648
  RMM-DIIS:  cpu time    0.7200: real time    0.7245
    ORTHCH:  cpu time    0.0097: real time    0.0097
       DOS:  cpu time    0.0016: real time    0.0016
    CHARGE:  cpu time    0.0270: real time    0.0271
    MIXING:  cpu time    0.0015: real time    0.0015
    --------------------------------------------
      LOOP:  cpu time    0.8593: real time    0.8799

 eigenvalue-minimisations  :  6969
 total energy-change (2. order) : 0.3314076E-02  (-0.3479860E-02)
 number of electron     257.0000000 magnetization 
 augmentation part       14.5739429 magnetization 

 Broyden mixing:
  rms(total) = 0.33508E-01    rms(broyden)= 0.33497E-01
  rms(prec ) = 0.49225E-01
  weight for this iteration     100.00

 eigenvalues of (default mixing * dielectric matrix)
  average eigenvalue GAMMA=   1.1090
  2.2157  1.8048  1.8048  0.6527  0.5138  0.4168  0.3545

 Free energy of the ion-electron system (eV)
  ---------------------------------------------------
  alpha Z        PSCENC =      1293.85091987
  Ewald energy   TEWEN  =    -15006.63254022
  -Hartree energ DENC   =     -5170.70766593
  -exchange      EXHF   =         0.00000000
  -V(xc)+E(xc)   XCENC  =      -797.19428613
  PAW double counting   =     29219.82249906   -27394.22630186
  entropy T*S    EENTRO =         0.01706040
  eigenvalues    EBANDS =     -1756.77709572
  atomic energy  EATOM  =     19243.23461550
  Solvation  Ediel_sol  =         0.00000000
  ---------------------------------------------------
  free energy    TOTEN  =      -368.61279503 eV

  energy without entropy =     -368.62985544  energy(sigma->0) =     -368.61848183


--------------------------------------------------------------------------------------------------------




----------------------------------------- Iteration    1(  13)  ---------------------------------------


    POTLOK:  cpu time    0.0308: real time    0.0310
    SETDIJ:  cpu time    0.0038: real time    0.0039
    EDDIAG:  cpu time    0.0645: real time    0.0649
  RMM-DIIS:  cpu time    0.7157: real time    0.7200
    ORTHCH:  cpu time    0.0096: real time    0.0096
       DOS:  cpu time    0.0010: real time    0.0010
    CHARGE:  cpu time    0.0269: real time    0.0271
    MIXING:  cpu time    0.0015: real time    0.0015
    --------------------------------------------
      LOOP:  cpu time    0.8546: real time    0.8767

 eigenvalue-minimisations  :  6927
 total energy-change (2. order) : 0.3495702E-03  (-0.1334452E-02)
 number of electron     257.0000000 magnetization 
 augmentation part       14.5759610 magnetization 

 Broyden mixing:
  rms(total) = 0.21557E-01    rms(broyden)= 0.21552E-01
  rms(prec ) = 0.26692E-01
  weight for this iteration     100.00

 eigenvalues of (default mixing * dielectric matrix)
  average eigenvalue GAMMA=   1.1305
  2.4553  2.0259  1.8011  0.9294  0.5621  0.5248  0.3825  0.3632

 Free energy of the ion-electron system (eV)
  ---------------------------------------------------
  alpha Z        PSCENC =      1293.85091987
  Ewald energy   TEWEN  =    -15006.63254022
  -Hartree energ DENC   =     -5170.24216491
  -exchange      EXHF   =         0.00000000
  -V(xc)+E(xc)   XCENC  =      -797.20134201
  PAW double counting   =     29283.95396135   -27457.95648610
  entropy T*S    EENTRO =         0.01707105
  eigenvalues    EBANDS =     -1757.63647999
  atomic energy  EATOM  =     19243.23461550
  Solvation  Ediel_sol  =         0.00000000
  ---------------------------------------------------
  free energy    TOTEN  =      -368.61244546 eV

  energy without entropy =     -368.62951651  energy(sigma->0) =     -368.61813581


--------------------------------------------------------------------------------------------------------




----------------------------------------- Iteration    1(  14)  ---------------------------------------


    POTLOK:  cpu time    0.0306: real time    0.0307
    SETDIJ:  cpu time    0.0038: real time    0.0038
    EDDIAG:  cpu time    0.0647: real time    0.0652
  RMM-DIIS:  cpu time    0.8423: real time    0.8471
    ORTHCH:  cpu time    0.0095: real time    0.0096
       DOS:  cpu time    0.0023: real time    0.0023
    CHARGE:  cpu time    0.0452: real time    0.0454
    MIXING:  cpu time    0.0016: real time    0.0016
    --------------------------------------------
      LOOP:  cpu time    1.0007: real time    1.0214

 eigenvalue-minimisations  :  7167
 total energy-change (2. order) :-0.4067805E-03  (-0.6036636E-03)
 number of electron     257.0000000 magnetization 
 augmentation part       14.5746067 magnetization 

 Broyden mixing:
  rms(total) = 0.92734E-02    rms(broyden)= 0.92706E-02
  rms(prec ) = 0.14859E-01
  weight for this iteration     100.00

 eigenvalues of (default mixing * dielectric matrix)
  average eigenvalue GAMMA=   1.1037
  2.6004  2.1004  1.6797  1.0953  0.6831  0.5449  0.4824  0.3949  0.3527

 Free energy of the ion-electron system (eV)
  ---------------------------------------------------
  alpha Z        PSCENC =      1293.85091987
  Ewald energy   TEWEN  =    -15006.63254022
  -Hartree energ DENC   =     -5170.78134973
  -exchange      EXHF   =         0.00000000
  -V(xc)+E(xc)   XCENC  =      -797.18781568
  PAW double counting   =     29313.71328901   -27487.27622623
  entropy T*S    EENTRO =         0.01691721
  eigenvalues    EBANDS =     -1757.55066197
  atomic energy  EATOM  =     19243.23461550
  Solvation  Ediel_sol  =         0.00000000
  ---------------------------------------------------
  free energy    TOTEN  =      -368.61285224 eV

  energy without entropy =     -368.62976945  energy(sigma->0) =     -368.61849131


--------------------------------------------------------------------------------------------------------




----------------------------------------- Iteration    1(  15)  ---------------------------------------


    POTLOK:  cpu time    0.0294: real time    0.0295
    SETDIJ:  cpu time    0.0058: real time    0.0058
    EDDIAG:  cpu time    0.1579: real time    0.1586
  RMM-DIIS:  cpu time    0.7341: real time    0.7899
    ORTHCH:  cpu time    0.0095: real time    0.0096
       DOS:  cpu time    0.0020: real time    0.0020
    CHARGE:  cpu time    0.0265: real time    0.0288
    MIXING:  cpu time    0.0016: real time    0.0016
    --------------------------------------------
      LOOP:  cpu time    0.9672: real time    1.0423

 eigenvalue-minimisations  :  6891
 total energy-change (2. order) :-0.1505620E-03  (-0.2510333E-03)
 number of electron     257.0000000 magnetization 
 augmentation part       14.5732664 magnetization 

 Broyden mixing:
  rms(total) = 0.38594E-02    rms(broyden)= 0.38581E-02
  rms(prec ) = 0.80522E-02
  weight for this iteration     100.00

 eigenvalues of (default mixing * dielectric matrix)
  average eigenvalue GAMMA=   1.0828
  2.6658  2.0855  1.5612  1.3741  0.8572  0.5818  0.4986  0.4627  0.3882  0.3529

 Free energy of the ion-electron system (eV)
  ---------------------------------------------------
  alpha Z        PSCENC =      1293.85091987
  Ewald energy   TEWEN  =    -15006.63254022
  -Hartree energ DENC   =     -5170.98813070
  -exchange      EXHF   =         0.00000000
  -V(xc)+E(xc)   XCENC  =      -797.18194740
  PAW double counting   =     29327.31042431   -27500.62606067
  entropy T*S    EENTRO =         0.01706936
  eigenvalues    EBANDS =     -1757.59735285
  atomic energy  EATOM  =     19243.23461550
  Solvation  Ediel_sol  =         0.00000000
  ---------------------------------------------------
  free energy    TOTEN  =      -368.61300281 eV

  energy without entropy =     -368.63007217  energy(sigma->0) =     -368.61869259


--------------------------------------------------------------------------------------------------------




----------------------------------------- Iteration    1(  16)  ---------------------------------------


    POTLOK:  cpu time    0.0291: real time    0.0312
    SETDIJ:  cpu time    0.0038: real time    0.0039
    EDDIAG:  cpu time    0.0660: real time    0.1159
  RMM-DIIS:  cpu time    0.6156: real time    0.6278
    ORTHCH:  cpu time    0.0097: real time    0.0097
       DOS:  cpu time    0.0011: real time    0.0011
    CHARGE:  cpu time    0.0287: real time    0.0289
    MIXING:  cpu time    0.0017: real time    0.0017
    --------------------------------------------
      LOOP:  cpu time    0.7562: real time    0.8375

 eigenvalue-minimisations  :  5886
 total energy-change (2. order) :-0.7137997E-04  (-0.1134569E-03)
 number of electron     257.0000000 magnetization 
 augmentation part       14.5724261 magnetization 

 Broyden mixing:
  rms(total) = 0.24022E-02    rms(broyden)= 0.24010E-02
  rms(prec ) = 0.39557E-02
  weight for this iteration     100.00

 eigenvalues of (default mixing * dielectric matrix)
  average eigenvalue GAMMA=   1.0556
  2.6231  2.0302  1.6673  1.5312  0.9923  0.6231  0.5146  0.5146  0.3486  0.3834
  0.3834

 Free energy of the ion-electron system (eV)
  ---------------------------------------------------
  alpha Z        PSCENC =      1293.85091987
[...]
     78       4.6236      2.00000
     79       4.7167      2.00000
     80       4.7620      2.00000
     81       4.8060      2.00000
     82       4.8469      2.00000
     83       4.8825      2.00000
     84       4.9543      2.00000
     85       5.0225      2.00000
     86       5.0659      2.00000
     87       5.0977      2.00000
     88       5.1711      2.00000
     89       5.2092      2.00000
     90       5.3925      2.00000
     91       5.4540      2.00000
     92       5.5179      2.00000
     93       5.5529      2.00000
     94       5.5665      2.00000
     95       5.6174      2.00000
     96       5.6462      2.00000
     97       5.6982      2.00000
     98       5.7141      2.00000
     99       5.7435      2.00000
    100       5.7504      2.00000
    101       5.7869      2.00000
    102       5.8366      2.00000
    103       5.8685      2.00000
    104       5.9306      2.00000
    105       5.9623      2.00000
    106       5.9925      2.00000
    107       6.0351      2.00000
    108       6.0604      2.00000
    109       6.1090      2.00000
    110       6.1422      2.00000
    111       6.1791      2.00000
    112       6.2407      2.00000
    113       6.2749      2.00000
    114       6.3422      2.00000
    115       6.3654      2.00001
    116       6.4032      2.00006
    117       6.4350      2.00022
    118       6.4892      2.00139
    119       6.5204      2.00352
    120       6.5508      2.00792
    121       6.5796      2.01553
    122       6.6131      2.02999
    123       6.6351      2.04258
    124       6.6823      2.06826
    125       6.7037      2.07031
    126       6.7452      2.02437
    127       6.7607      1.98068
    128       6.7828      1.88567
    129       6.8243      1.59110
    130       6.8546      1.29238
    131       6.8996      0.79041
    132       6.9317      0.46162
    133       6.9734      0.14558
    134       6.9941      0.04509
    135       7.0395     -0.06014
    136       7.0785     -0.06861
    137       7.1594     -0.02473
    138       7.1947     -0.01176
    139       7.2300     -0.00484
    140       7.2707     -0.00147
    141       7.2740     -0.00133
    142       7.3332     -0.00017
    143       7.3787     -0.00003
    144       7.4327     -0.00000
    145       7.4471     -0.00000
    146       7.4938     -0.00000
    147       7.5447     -0.00000
    148       7.5824     -0.00000
    149       7.6722     -0.00000
    150       7.6992     -0.00000
    151       7.7329     -0.00000
    152       7.8087     -0.00000
    153       8.0732     -0.00000
    154       8.1478     -0.00000
    155       8.2340     -0.00000
    156       8.8066     -0.00000


--------------------------------------------------------------------------------------------------------


 soft charge-density along one line, spin component           1
         0         1         2         3         4         5         6         7         8         9
 total charge-density along one line
 
 pseudopotential strength for first ion, spin component:           1
  5.859 -21.165   0.000   0.000  -0.000  -0.001   0.000   0.001
-21.165  10.001   0.001   0.000  -0.001  -0.000   0.000   0.000
  0.000   0.001 -10.360  -0.006   0.001   6.734   0.006  -0.001
  0.000   0.000  -0.006 -10.355   0.001   0.006   6.729  -0.001
 -0.000  -0.001   0.001   0.001 -10.360  -0.001  -0.001   6.735
 -0.001  -0.000   6.734   0.006  -0.001   7.478  -0.004   0.001
  0.000   0.000   0.006   6.729  -0.001  -0.004   7.481   0.001
  0.001   0.000  -0.001  -0.001   6.735   0.001   0.001   7.477
  0.001   0.000  -0.001   0.000   0.001   0.000   0.000  -0.001
 -0.004  -0.002  -0.001  -0.001   0.000   0.001  -0.000   0.000
  0.002   0.001  -0.001   0.000   0.000   0.001   0.000   0.000
  0.001   0.000   0.000  -0.000   0.001   0.000   0.000   0.000
 -0.000  -0.000  -0.000   0.001   0.000   0.001  -0.000  -0.001
  0.001   0.000  -0.001   0.000   0.001   0.001   0.000  -0.001
 -0.005  -0.002  -0.001  -0.001   0.000   0.001  -0.000   0.000
  0.003   0.001  -0.001   0.000   0.000   0.001   0.000   0.000
  0.001   0.000   0.000  -0.001   0.001   0.000   0.000  -0.000
 -0.000  -0.000  -0.000   0.001   0.000   0.001  -0.000  -0.001
 total augmentation occupancy for first ion, spin component:           1
  1.998  -0.029  -0.000   0.000  -0.000  -0.000   0.001  -0.000   0.002  -0.013   0.006   0.013  -0.003  -0.002   0.011  -0.005
 -0.029   1.376  -0.003   0.004  -0.003   0.007  -0.005   0.011   0.009  -0.051   0.001   0.034   0.008  -0.004   0.012  -0.007
 -0.000  -0.003   1.997   0.000  -0.000  -0.022  -0.002   0.000   0.001   0.007  -0.002   0.004  -0.000  -0.002  -0.007   0.000
  0.000   0.004   0.000   1.997  -0.001  -0.002  -0.021   0.003   0.003  -0.008   0.013   0.003   0.000  -0.002   0.002  -0.008
 -0.000  -0.003  -0.000  -0.001   1.997   0.000   0.003  -0.022  -0.000   0.004   0.007   0.014  -0.011   0.001  -0.002  -0.004
 -0.000   0.007  -0.022  -0.002   0.000   0.054   0.002  -0.000   0.015   0.011   0.010  -0.006  -0.004  -0.006  -0.004  -0.004
  0.001  -0.005  -0.002  -0.021   0.003   0.002   0.054  -0.005  -0.004   0.030  -0.008   0.007  -0.008   0.001  -0.013   0.002
 -0.000   0.011   0.000   0.003  -0.022  -0.000  -0.005   0.053  -0.003  -0.006  -0.010  -0.021   0.013  -0.000   0.002   0.004
  0.002   0.009   0.001   0.003  -0.000   0.015  -0.004  -0.003   2.504  -0.055  -0.030  -0.092   0.003  -0.903   0.036   0.009
 -0.013  -0.051   0.007  -0.008   0.004   0.011   0.030  -0.006  -0.055   2.745  -0.037  -0.018   0.050   0.036  -1.001   0.017
  0.006   0.001  -0.002   0.013   0.007   0.010  -0.008  -0.010  -0.030  -0.037   2.126   0.061  -0.003   0.009   0.016  -0.865
  0.013   0.034   0.004   0.003   0.014  -0.006   0.007  -0.021  -0.092  -0.018   0.061   2.620   0.100   0.025   0.007  -0.018
 -0.003   0.008  -0.000   0.000  -0.011  -0.004  -0.008   0.013   0.003   0.050  -0.003   0.100   2.124  -0.003  -0.022  -0.002
 -0.002  -0.004  -0.002  -0.002   0.001  -0.006   0.001  -0.000  -0.903   0.036   0.009   0.025  -0.003   0.339  -0.018  -0.003
  0.011   0.012  -0.007   0.002  -0.002  -0.004  -0.013   0.002   0.036  -1.001   0.016   0.007  -0.022  -0.018   0.379  -0.007
 -0.005  -0.007   0.000  -0.008  -0.004  -0.004   0.002   0.004   0.009   0.017  -0.865  -0.018  -0.002  -0.003  -0.007   0.359
 -0.010   0.001  -0.002  -0.003  -0.007   0.002  -0.004   0.006   0.025   0.007  -0.017  -0.945  -0.039  -0.007  -0.003   0.005
  0.002   0.002   0.001   0.001   0.006   0.002   0.003  -0.006  -0.003  -0.024  -0.002  -0.039  -0.856   0.002   0.010   0.002


------------------------ aborting loop because EDIFF is reached ----------------------------------------


    CHARGE:  cpu time    0.0299: real time    0.0302
    FORLOC:  cpu time    0.0133: real time    0.0134
    FORNL :  cpu time    0.2761: real time    0.2780
    STRESS:  cpu time    0.9095: real time    0.9145
    FORCOR:  cpu time    0.0428: real time    0.0431
    FORHAR:  cpu time    0.0181: real time    0.0182
    MIXING:  cpu time    0.0012: real time    0.0013
    OFIELD:  cpu time    0.0000: real time    0.0000

  FORCE on cell =-STRESS in cart. coord.  units (eV):
  Direction    XX          YY          ZZ          XY          YZ          ZX
  --------------------------------------------------------------------------------------
  Alpha Z  1293.21477  1293.21477  1293.21477
  Ewald   -4712.39245 -5158.44042 -5130.64397  -103.00044  -207.89930  -172.83235
  Hartree  1981.35446  1577.09816  1616.01400  -100.66208  -178.09931  -160.58607
  E(xc)   -1113.28193 -1113.51205 -1113.82611     0.14187     0.07968     0.24717
  Local   -1401.54138  -553.65722  -622.52198   204.73107   386.60652   332.76866
  n-local  -246.37792  -249.52921  -247.61075    -1.90223     0.94629    -1.31306
  augment   160.10778   160.47455   160.42247     0.33294    -0.45903     0.35223
  Kinetic  4038.92134  4044.32666  4044.95270     0.38237    -1.15565     1.29899
  Fock        0.00000     0.00000     0.00000     0.00000     0.00000     0.00000
  -------------------------------------------------------------------------------------
  Total       0.00467    -0.02476     0.00113     0.02350     0.01920    -0.06444
  in kB       0.01025    -0.05439     0.00248     0.05164     0.04218    -0.14157
  external pressure =       -0.01 kB  Pullay stress =        0.00 kB


 VOLUME and BASIS-vectors are now :
 -----------------------------------------------------------------------------
  energy-cutoff  :      300.00
  volume of cell :      729.28
      direct lattice vectors                 reciprocal lattice vectors
     6.954061975 -0.017139456 -0.010958288     0.143802047  0.000347620  0.000217961
    -0.024856857 10.266686464  0.025515958     0.000239692  0.097403582 -0.000238117
    -0.015543123  0.025009890 10.214850945     0.000153669 -0.000242934  0.097897509

  length of vectors
     6.954091730 10.266748263 10.214893387     0.143802632  0.097404168  0.097897931


 FORCES acting on ions
    electron-ion (+dipol)            ewald-force                    non-local-force                 convergence-correction
 -----------------------------------------------------------------------------------------------
   -.575E+02 -.164E+03 -.269E+03   0.580E+02 0.165E+03 0.268E+03   -.527E+00 -.418E+00 0.449E+00   -.694E-03 -.131E-01 -.169E-01
   -.681E+02 0.232E+03 -.193E+02   0.671E+02 -.231E+03 0.198E+02   0.984E+00 -.116E+01 -.589E+00   -.914E-02 0.196E-01 -.362E-02
   0.150E+03 -.103E+03 0.134E+03   -.151E+03 0.104E+03 -.134E+03   0.944E+00 -.112E+01 0.138E+00   -.813E-02 -.112E-01 -.111E-03
   0.683E+02 0.148E+03 -.175E+03   -.687E+02 -.149E+03 0.175E+03   0.408E+00 0.430E+00 0.103E+00   -.783E-02 0.302E-01 -.419E-02
   -.162E+03 -.470E+02 0.190E+03   0.163E+03 0.478E+02 -.190E+03   -.958E+00 -.812E+00 0.152E+00   0.562E-02 -.134E-01 -.616E-02
   0.358E+02 0.193E+02 -.403E+02   -.356E+02 -.190E+02 0.403E+02   -.229E+00 -.291E+00 0.144E-01   -.171E-02 -.448E-02 -.394E-02
   -.722E+02 0.530E+02 0.132E+02   0.727E+02 -.531E+02 -.128E+02   -.559E+00 0.143E+00 -.417E+00   0.347E-02 0.893E-02 0.220E-02
   -.568E+01 0.848E+01 0.614E+01   0.505E+01 -.895E+01 -.592E+01   0.639E+00 0.455E+00 -.219E+00   -.115E-02 0.991E-02 0.237E-02
   0.507E+02 -.302E+02 -.102E+01   -.513E+02 0.300E+02 0.574E+00   0.641E+00 0.233E+00 0.442E+00   -.419E-02 -.592E-02 0.227E-02
   -.408E+02 -.157E+02 -.535E+02   0.408E+02 0.160E+02 0.537E+02   0.715E-01 -.298E+00 -.226E+00   0.188E-02 -.219E-02 -.466E-02
   -.880E+01 0.508E+02 -.158E+01   0.902E+01 -.506E+02 0.124E+01   -.227E+00 -.220E+00 0.345E+00   -.118E-02 0.545E-02 -.362E-02
   0.150E+02 -.229E+02 0.456E+02   -.142E+02 0.234E+02 -.455E+02   -.734E+00 -.534E+00 -.436E-01   0.639E-03 -.442E-02 0.302E-02
   -.255E+02 -.504E+02 -.145E+02   0.243E+02 0.502E+02 0.147E+02   0.122E+01 0.256E+00 -.221E+00   0.229E-02 -.770E-02 -.102E-03
   0.318E+02 -.120E+02 -.578E+02   -.315E+02 0.119E+02 0.573E+02   -.325E+00 0.926E-01 0.495E+00   -.187E-02 0.388E-02 0.661E-03
   0.105E+02 -.693E+02 -.846E+02   -.110E+02 0.693E+02 0.846E+02   0.426E+00 -.593E-01 0.241E-01   -.371E-03 -.407E-02 -.304E-02
   0.371E+02 0.640E+02 0.106E+02   -.366E+02 -.634E+02 -.104E+02   -.504E+00 -.589E+00 -.188E+00   -.677E-03 0.315E-02 -.226E-02
   -.166E+02 0.412E+02 0.622E+02   0.168E+02 -.406E+02 -.615E+02   -.231E+00 -.598E+00 -.654E+00   -.556E-03 0.564E-02 0.373E-02
   0.517E+02 0.537E+02 0.126E+03   -.521E+02 -.538E+02 -.126E+03   0.392E+00 0.974E-01 -.238E+00   -.355E-02 -.204E-01 0.580E-02
   0.197E+02 0.118E+03 -.731E+02   -.198E+02 -.118E+03 0.733E+02   0.128E+00 0.105E-01 -.206E+00   -.342E-02 0.124E-01 -.129E-01
   0.909E+02 -.348E+03 -.172E+03   -.900E+02 0.347E+03 0.171E+03   -.856E+00 0.762E+00 0.621E+00   -.615E-03 -.239E-01 -.154E-01
   0.218E+02 0.598E+02 0.351E+02   -.213E+02 -.604E+02 -.353E+02   -.495E+00 0.605E+00 0.131E+00   -.124E-02 0.118E-01 0.135E-01
   -.863E+02 -.679E+02 -.169E+03   0.858E+02 0.681E+02 0.168E+03   0.431E+00 -.221E+00 0.766E+00   0.665E-02 0.804E-02 -.698E-03
   0.609E+02 0.882E+02 0.256E+03   -.612E+02 -.877E+02 -.256E+03   0.306E+00 -.487E+00 -.231E+00   0.109E-03 0.234E-01 0.905E-02
   -.280E+02 0.710E+02 0.251E+02   0.289E+02 -.721E+02 -.250E+02   -.892E+00 0.100E+01 -.158E+00   0.439E-02 0.327E-01 0.698E-02
   -.175E+02 -.521E+02 0.513E+02   0.171E+02 0.528E+02 -.508E+02   0.473E+00 -.709E+00 -.457E+00   -.137E-02 -.590E-02 0.613E-02
   0.245E+02 -.473E+02 -.230E+02   -.235E+02 0.471E+02 0.231E+02   -.924E+00 0.294E+00 -.939E-01   -.364E-02 -.104E-01 0.560E-03
   0.389E+01 -.595E+02 0.100E+03   -.286E+01 0.595E+02 -.100E+03   -.103E+01 0.573E-01 -.218E+00   0.219E-03 -.148E-01 0.506E-02
   -.626E+02 -.538E+02 -.226E+01   0.633E+02 0.533E+02 0.177E+01   -.637E+00 0.548E+00 0.487E+00   0.575E-02 -.811E-02 0.354E-02
   -.299E+02 0.903E+02 -.354E+02   0.303E+02 -.907E+02 0.351E+02   -.365E+00 0.409E+00 0.373E+00   0.337E-02 0.848E-02 -.505E-02
   -.776E+01 -.645E+02 0.912E+02   0.676E+01 0.643E+02 -.911E+02   0.100E+01 0.136E+00 -.173E+00   -.197E-03 -.126E-01 0.671E-02
   -.535E+02 -.152E+03 -.731E+02   0.530E+02 0.152E+03 0.727E+02   0.560E+00 0.365E+00 0.390E+00   0.117E-02 -.785E-02 -.680E-02
   -.206E+02 0.303E+02 0.625E+02   0.207E+02 -.304E+02 -.620E+02   -.147E+00 0.594E-01 -.455E+00   0.192E-02 -.770E-02 0.347E-02
   0.182E+02 0.965E+02 0.603E+01   -.184E+02 -.962E+02 -.694E+01   0.235E+00 -.266E+00 0.916E+00   0.154E-02 0.677E-02 -.566E-02
   -.348E+01 0.664E+02 0.144E+02   0.355E+01 -.667E+02 -.143E+02   -.740E-01 0.234E+00 -.142E+00   0.867E-03 0.379E-02 -.473E-02
   -.171E+02 0.174E+02 -.230E+02   0.168E+02 -.178E+02 0.238E+02   0.255E+00 0.324E+00 -.848E+00   0.781E-03 0.310E-02 0.764E-02
   0.931E+02 0.528E+02 0.554E+02   -.932E+02 -.534E+02 -.554E+02   0.200E+00 0.582E+00 0.581E-01   -.467E-02 0.119E-01 0.318E-02
 -----------------------------------------------------------------------------------------------
   0.417E+00 0.651E+00 -.113E+00   0.142E-13 0.171E-12 0.398E-12   -.401E+00 -.685E+00 0.125E+00   -.155E-01 0.308E-01 -.140E-01
 
 
 POSITION                                       TOTAL-FORCE (eV/Angst)
 -----------------------------------------------------------------------------------
      1.78669      1.68535      1.62703         0.001752     -0.002425     -0.000495
      6.77408      6.95110      0.03034         0.005058     -0.004918      0.000421
      5.12358      1.89343      8.51129         0.001157     -0.003658      0.000843
      5.15839      8.56541      1.71181        -0.000445      0.000182     -0.002963
      1.79643      1.75453      8.49002        -0.004134      0.000240      0.000662
      5.28637      5.03667      1.76206        -0.002604      0.001756     -0.003994
      1.71659      8.52136      8.64591        -0.000895      0.000621     -0.002141
      5.00843      8.49808      5.20135         0.001440     -0.001502      0.002265
      5.17138      5.05554      8.51607        -0.001854     -0.002741      0.000681
      1.57473      5.21156      1.62082         0.001523      0.003392      0.001606
      0.04211      7.01843      3.45936        -0.005862     -0.000076     -0.000421
      5.31391      1.83925      5.02396        -0.000958     -0.001817      0.001179
      3.20372      3.43164      3.41197        -0.008273      0.002457     -0.000091
      0.06716     10.22452      3.40568        -0.003152      0.001351     -0.001411
      5.18084      1.83207      1.77978         0.000007      0.002423     -0.001151
      3.57056      6.83706      0.07693         0.005499      0.001643     -0.002742
      3.50676      0.17048      6.93437        -0.003710     -0.002465      0.000553
      5.14722      5.09260      5.05656         0.001568      0.002454      0.003040
      6.87738     -0.01317     -0.00305         0.003278      0.002396      0.000435
      0.09592      3.29481     10.10289        -0.000903      0.002233      0.000620
      0.03903      6.78705      6.78998        -0.003483     -0.002423      0.003859
      3.36638      0.00127      3.29664         0.001742     -0.001611     -0.000897
      6.89089      0.07156      6.86458        -0.000130     -0.001727     -0.000469
      1.96724      8.47103      5.19875        -0.006384     -0.002169     -0.000245
      1.59790      1.80372      5.20032        -0.000359      0.003986     -0.005389
      0.24493      3.41407      3.48386         0.007016      0.001914      0.001820
      0.09928      3.48119      6.84066        -0.003068     -0.001867     -0.000409
      1.77931      5.10097      8.48219         0.002293      0.002198     -0.000291
      1.73013      8.48515      1.55825        -0.001094      0.000915      0.001132
      3.36514      3.38006      6.81976         0.002552     -0.000937     -0.002048
      3.35039      3.35412     10.15136         0.001305     -0.000503      0.002908
      1.80037      5.14729      5.18981         0.000381      0.000303      0.000267
      3.41329      6.84731      3.21868         0.003697     -0.000764     -0.001335
      3.49895      0.01486     10.19646         0.000748     -0.001426      0.001558
      3.40139      6.70993      6.96092         0.004051     -0.000788      0.002371
      5.11761      8.46414      8.47737         0.002242      0.003354      0.000272
 -----------------------------------------------------------------------------------
    total drift:                                0.000130     -0.002954     -0.002077


--------------------------------------------------------------------------------------------------------



  FREE ENERGIE OF THE ION-ELECTRON SYSTEM (eV)
  ---------------------------------------------------
  free  energy   TOTEN  =      -368.63400115 eV

  energy  without entropy=     -368.65274147  energy(sigma->0) =     -368.64024792
 
 d Force = 0.7973925E-04[ 0.484E-04, 0.111E-03]  d Energy = 0.1237333E-03-0.440E-04
 d Force =-0.2647769E+00[-0.266E+00,-0.264E+00]  d Ewald  = 0.1244965E+01-0.151E+01


--------------------------------------------------------------------------------------------------------


    POTLOK:  cpu time    0.0409: real time    0.0412


--------------------------------------------------------------------------------------------------------


 Conjugate gradient step on ions:
 trial-energy change:   -0.000124  1 .order   -0.000104   -0.000157   -0.000050
  (g-gl).g = 0.411E-04      g.g   = 0.365E-04  gl.gl    = 0.671E-04
 g(Force)  = 0.148E-04   g(Stress)= 0.216E-04 ortho     = 0.254E-05
 gamma     =   0.61279
 trial     =   4.12967
 opt step  =   6.07226  (harmonic =   6.07226) maximal distance =0.00278609
 next E    =  -368.633993   (d E  =  -0.00012)


--------------------------------------------------------------------------------------------------------


  
 reached required accuracy - stopping structural energy minimisation
     LOOP+:  cpu time    5.4643: real time    5.9196
    4ORBIT:  cpu time    0.0000: real time    0.0000

 total amount of memory used by VASP on root node    65296. kBytes
========================================================================

   base      :      30000. kBytes
   nonlr-proj:      10435. kBytes
   fftplans  :       2814. kBytes
   grid      :       5360. kBytes
   one-center:        124. kBytes
   wavefun   :      16563. kBytes
 
  
  
 General timing and accounting informations for this job:
 ========================================================
  
                  Total CPU time used (sec):      243.563
                            User time (sec):      242.382
                          System time (sec):        1.181
                         Elapsed time (sec):      261.910
  
                   Maximum memory used (kb):      269680.
                   Average memory used (kb):           0.
  
                          Minor page faults:       142103
                          Major page faults:           44
                 Voluntary context switches:        10956
