<?xml version="1.0" encoding="ISO-8859-1"?>
<modeling>
 <generator>
  <i name="program" type="string">vasp </i>
  <i name="version" type="string">5.4.1  </i>
  <i name="subversion" type="string">05Feb16 (build Jan 29 2020 16:04:39) complex                          parallel </i>
  <i name="platform" type="string">IFC91_ompi </i>
  <i name="date" type="string">2020 06 15 </i>
  <i name="time" type="string">08:03:22 </i>
 </generator>
 <incar>
  <i type="string" name="SYSTEM"> automatically generated by mexm</i>
  <i type="int" name="ISTART">     0</i>
  <i type="string" name="PREC">accurate               ! avoid wrap aro</i>
  <i type="string" name="ALGO"> Fast                   ! blocked Davids</i>
  <i type="int" name="ISPIN">     1</i>
  <i type="int" name="ICHARG">     2</i>
  <i type="int" name="NELM">    70</i>
  <i type="int" name="IBRION">     2</i>
  <i name="EDIFF">      0.00001000</i>
  <i name="EDIFFG">     -0.01000000</i>
  <i type="int" name="NSW">   300</i>
  <i type="int" name="ISIF">     3</i>
  <i type="int" name="ISYM">     1</i>
  <i name="ENCUT">    300.00000000</i>
  <i name="POTIM">      0.15000000</i>
  <i type="string" name="LREAL"> Auto                  ! unpublished met</i>
  <i type="int" name="ISMEAR">     1</i>
  <i name="SIGMA">      0.15000000</i>
  <i type="logical" name="LWAVE"> F  </i>
  <i type="logical" name="LCHARG"> F  </i>
  <i type="logical" name="LVTOT"> F  </i>
  <v type="int" name="KPOINT_BSE">    -1     0     0     0</v>
  <i type="int" name="NELM">    70</i>
 </incar>
 <kpoints>
  <generation param="Gamma">
   <v type="int" name="divisions">       3        3        3 </v>
   <v name="usershift">      0.00000000       0.00000000       0.00000000 </v>
   <v name="genvec1">      0.33333333      -0.00000000       0.00000000 </v>
   <v name="genvec2">      0.00000000       0.33333333      -0.00000000 </v>
   <v name="genvec3">      0.00000000       0.00000000       0.33333333 </v>
   <v name="shift">      0.00000000       0.00000000       0.00000000 </v>
  </generation>
  <varray name="kpointlist" >
   <v>       0.00000000       0.00000000       0.00000000 </v>
   <v>       0.33333333       0.00000000       0.00000000 </v>
   <v>       0.00000000       0.33333333       0.00000000 </v>
   <v>       0.33333333       0.33333333       0.00000000 </v>
   <v>      -0.33333333       0.33333333       0.00000000 </v>
   <v>      -0.00000000      -0.00000000       0.33333333 </v>
   <v>       0.33333333      -0.00000000       0.33333333 </v>
   <v>      -0.33333333      -0.00000000       0.33333333 </v>
   <v>       0.00000000       0.33333333       0.33333333 </v>
   <v>       0.33333333       0.33333333       0.33333333 </v>
   <v>      -0.33333333       0.33333333       0.33333333 </v>
   <v>      -0.00000000      -0.33333333       0.33333333 </v>
   <v>       0.33333333      -0.33333333       0.33333333 </v>
   <v>      -0.33333333      -0.33333333       0.33333333 </v>
  </varray>
  <varray name="weights" >
   <v>       0.03703704 </v>
   <v>       0.07407407 </v>
   <v>       0.07407407 </v>
   <v>       0.07407407 </v>
   <v>       0.07407407 </v>
   <v>       0.07407407 </v>
   <v>       0.07407407 </v>
   <v>       0.07407407 </v>
   <v>       0.07407407 </v>
   <v>       0.07407407 </v>
   <v>       0.07407407 </v>
   <v>       0.07407407 </v>
   <v>       0.07407407 </v>
   <v>       0.07407407 </v>
  </varray>
 </kpoints>
 <parameters>
  <separator name="general" >
   <i type="string" name="SYSTEM">automatically generated by mexm</i>
   <i type="logical" name="LCOMPAT"> F  </i>
  </separator>
  <separator name="electronic" >
   <i type="string" name="PREC">accura</i>
   <i name="ENMAX">    300.00000000</i>
   <i name="ENAUG">    461.25700000</i>
   <i name="EDIFF">      0.00001000</i>
   <i type="int" name="IALGO">    68</i>
   <i type="int" name="IWAVPR">    11</i>
   <i type="int" name="NBANDS">   156</i>
   <i name="NELECT">    257.00000000</i>
   <i type="int" name="TURBO">     0</i>
   <i type="int" name="IRESTART">     0</i>
   <i type="int" name="NREBOOT">     0</i>
   <i type="int" name="NMIN">     0</i>
   <i name="EREF">      0.00000000</i>
   <separator name="electronic smearing" >
    <i type="int" name="ISMEAR">     1</i>
    <i name="SIGMA">      0.15000000</i>
    <i name="KSPACING">      0.50000000</i>
    <i type="logical" name="KGAMMA"> T  </i>
   </separator>
   <separator name="electronic projectors" >
    <i type="logical" name="LREAL"> T  </i>
    <v name="ROPT">     -0.00025000     -0.00025000     -0.00025000     -0.00025000</v>
    <i type="int" name="LMAXPAW">  -100</i>
    <i type="int" name="LMAXMIX">     2</i>
    <i type="logical" name="NLSPLINE"> F  </i>
   </separator>
   <separator name="electronic startup" >
    <i type="int" name="ISTART">     0</i>
    <i type="int" name="ICHARG">     2</i>
    <i type="int" name="INIWAV">     1</i>
   </separator>
   <separator name="electronic spin" >
    <i type="int" name="ISPIN">     1</i>
    <i type="logical" name="LNONCOLLINEAR"> F  </i>
    <v name="MAGMOM">      1.00000000      1.00000000      1.00000000      1.00000000      1.00000000      1.00000000      1.00000000      1.00000000      1.00000000      1.00000000      1.00000000      1.00000000      1.00000000      1.00000000      1.00000000      1.00000000      1.00000000      1.00000000      1.00000000      1.00000000
      1.00000000      1.00000000      1.00000000      1.00000000      1.00000000      1.00000000      1.00000000      1.00000000      1.00000000      1.00000000      1.00000000      1.00000000      1.00000000      1.00000000      1.00000000      1.00000000</v>
    <i name="NUPDOWN">     -1.00000000</i>
    <i type="logical" name="LSORBIT"> F  </i>
    <v name="SAXIS">      0.00000000      0.00000000      1.00000000</v>
    <i type="logical" name="LSPIRAL"> F  </i>
    <v name="QSPIRAL">      0.00000000      0.00000000      0.00000000</v>
    <i type="logical" name="LZEROZ"> F  </i>
   </separator>
   <separator name="electronic exchange-correlation" >
    <i type="logical" name="LASPH"> F  </i>
    <i type="logical" name="LMETAGGA"> F  </i>
   </separator>
   <separator name="electronic convergence" >
    <i type="int" name="NELM">    70</i>
    <i type="int" name="NELMDL">    -5</i>
    <i type="int" name="NELMIN">     2</i>
    <i name="ENINI">    300.00000000</i>
    <separator name="electronic convergence detail" >
     <i type="logical" name="LDIAG"> T  </i>
     <i type="logical" name="LSUBROT"> F  </i>
     <i name="WEIMIN">      0.00100000</i>
     <i name="EBREAK">      0.00000002</i>
     <i name="DEPER">      0.30000000</i>
     <i type="int" name="NRMM">     4</i>
     <i name="TIME">      0.40000000</i>
    </separator>
   </separator>
   <separator name="electronic mixer" >
    <i name="AMIX">      0.40000000</i>
    <i name="BMIX">      1.00000000</i>
    <i name="AMIN">      0.10000000</i>
    <i name="AMIX_MAG">      1.60000000</i>
    <i name="BMIX_MAG">      1.00000000</i>
    <separator name="electronic mixer details" >
     <i type="int" name="IMIX">     4</i>
     <i type="logical" name="MIXFIRST"> F  </i>
     <i type="int" name="MAXMIX">   -45</i>
     <i name="WC">    100.00000000</i>
     <i type="int" name="INIMIX">     1</i>
     <i type="int" name="MIXPRE">     1</i>
     <i type="int" name="MREMOVE">     5</i>
    </separator>
   </separator>
   <separator name="electronic dipolcorrection" >
    <i type="logical" name="LDIPOL"> F  </i>
    <i type="logical" name="LMONO"> F  </i>
    <i type="int" name="IDIPOL">     0</i>
    <i name="EPSILON">      1.00000000</i>
    <v name="DIPOL">   -100.00000000   -100.00000000   -100.00000000</v>
    <i name="EFIELD">      0.00000000</i>
   </separator>
  </separator>
  <separator name="grids" >
   <i type="int" name="NGX">    40</i>
   <i type="int" name="NGY">    60</i>
   <i type="int" name="NGZ">    60</i>
   <i type="int" name="NGXF">    80</i>
   <i type="int" name="NGYF">   120</i>
   <i type="int" name="NGZF">   120</i>
   <i type="logical" name="ADDGRID"> F  </i>
  </separator>
  <separator name="ionic" >
   <i type="int" name="NSW">   300</i>
   <i type="int" name="IBRION">     2</i>
   <i type="int" name="ISIF">     3</i>
   <i name="PSTRESS">      0.00000000</i>
   <i name="EDIFFG">     -0.01000000</i>
   <i type="int" name="NFREE">     1</i>
   <i name="POTIM">      0.15000000</i>
   <i name="SMASS">     -3.00000000</i>
   <i name="SCALEE">      1.00000000</i>
  </separator>
  <separator name="ionic md" >
   <i name="TEBEG">      0.00010000</i>
   <i name="TEEND">      0.00010000</i>
   <i type="int" name="NBLOCK">     1</i>
   <i type="int" name="KBLOCK">   300</i>
   <i type="int" name="NPACO">   256</i>
   <i name="APACO">     16.00000000</i>
  </separator>
  <separator name="symmetry" >
   <i type="int" name="ISYM">     1</i>
   <i name="SYMPREC">      0.00001000</i>
  </separator>
  <separator name="dos" >
   <i type="logical" name="LORBIT"> F  </i>
   <v name="RWIGS">     -1.00000000     -1.00000000     -1.00000000     -1.00000000</v>
   <i type="int" name="NEDOS">   301</i>
   <i name="EMIN">     10.00000000</i>
   <i name="EMAX">    -10.00000000</i>
   <i name="EFERMI">      0.00000000</i>
  </separator>
  <separator name="writing" >
   <i type="int" name="NWRITE">     2</i>
   <i type="logical" name="LWAVE"> F  </i>
   <i type="logical" name="LCHARG"> F  </i>
   <i type="logical" name="LPARD"> F  </i>
   <i type="logical" name="LVTOT"> F  </i>
   <i type="logical" name="LVHAR"> F  </i>
   <i type="logical" name="LELF"> F  </i>
   <i type="logical" name="LOPTICS"> F  </i>
   <v name="STM">      0.00000000      0.00000000      0.00000000      0.00000000      0.00000000      0.00000000      0.00000000</v>
  </separator>
  <separator name="performance" >
   <i type="int" name="NPAR">     4</i>
   <i type="int" name="NSIM">     4</i>
   <i type="int" name="NBLK">    -1</i>
   <i type="logical" name="LPLANE"> T  </i>
   <i type="logical" name="LSCALAPACK"> T  </i>
   <i type="logical" name="LSCAAWARE"> F  </i>
   <i type="logical" name="LSCALU"> F  </i>
   <i type="logical" name="LASYNC"> F  </i>
   <i type="logical" name="LORBITALREAL"> F  </i>
  </separator>
  <separator name="miscellaneous" >
   <i type="int" name="IDIOT">     3</i>
   <i type="logical" name="LMUSIC"> F  </i>
   <v name="POMASS">     92.91000000    178.49000000     91.22400000    180.94800000</v>
   <v name="DARWINR">      0.00000000      0.00000000      0.00000000      0.00000000</v>
   <v name="DARWINV">      1.00000000      1.00000000      1.00000000      1.00000000</v>
   <i type="logical" name="LCORR"> T  </i>
  </separator>
  <i type="logical" name="GGA_COMPAT"> T  </i>
  <i type="logical" name="LBERRY"> F  </i>
  <i type="int" name="ICORELEVEL">     0</i>
  <i type="logical" name="LDAU"> F  </i>
  <i type="int" name="I_CONSTRAINED_M">     0</i>
  <separator name="electronic exchange-correlation" >
   <i type="string" name="GGA">--</i>
   <i type="int" name="VOSKOWN">     0</i>
   <i type="logical" name="LHFCALC"> F  </i>
   <i type="string" name="PRECFOCK"></i>
   <i type="logical" name="LSYMGRAD"> F  </i>
   <i type="logical" name="LHFONE"> F  </i>
   <i type="logical" name="LRHFCALC"> F  </i>
   <i type="logical" name="LTHOMAS"> F  </i>
   <i type="logical" name="LMODELHF"> F  </i>
   <i name="ENCUT4O">     -1.00000000</i>
   <i type="int" name="EXXOEP">     0</i>
   <i type="int" name="FOURORBIT">     0</i>
   <i name="AEXX">      0.00000000</i>
   <i name="HFALPHA">      0.00000000</i>
   <i name="MCALPHA">      0.00000000</i>
   <i name="ALDAX">      1.00000000</i>
   <i name="AGGAX">      1.00000000</i>
   <i name="ALDAC">      1.00000000</i>
   <i name="AGGAC">      1.00000000</i>
   <i type="int" name="NKREDX">     1</i>
   <i type="int" name="NKREDY">     1</i>
   <i type="int" name="NKREDZ">     1</i>
   <i type="logical" name="SHIFTRED"> F  </i>
   <i type="logical" name="ODDONLY"> F  </i>
   <i type="logical" name="EVENONLY"> F  </i>
   <i type="int" name="LMAXFOCK">     0</i>
   <i type="int" name="NMAXFOCKAE">     0</i>
   <i type="logical" name="LFOCKAEDFT"> F  </i>
   <i name="HFSCREEN">      0.00000000</i>
   <i name="HFSCREENC">      0.00000000</i>
   <i type="int" name="NBANDSGWLOW">     0</i>
  </separator>
  <separator name="vdW DFT" >
   <i type="logical" name="LUSE_VDW"> F  </i>
   <i name="Zab_VDW">     -0.84910000</i>
   <i name="PARAM1">      0.12340000</i>
   <i name="PARAM2">      1.00000000</i>
   <i name="PARAM3">      0.00000000</i>
  </separator>
  <separator name="model GW" >
   <i type="int" name="MODEL_GW">     0</i>
   <i name="MODEL_EPS0">     12.14869946</i>
   <i name="MODEL_ALPHA">      1.00000000</i>
  </separator>
  <separator name="linear response parameters" >
   <i type="logical" name="LEPSILON"> F  </i>
   <i type="logical" name="LRPA"> F  </i>
   <i type="logical" name="LNABLA"> F  </i>
   <i type="logical" name="LVEL"> F  </i>
   <i type="int" name="KINTER">     0</i>
   <i name="CSHIFT">      0.10000000</i>
   <i name="OMEGAMAX">     -1.00000000</i>
   <i name="DEG_THRESHOLD">      0.00200000</i>
  </separator>
  <separator name="orbital magnetization" >
   <i type="logical" name="NUCIND"> F  </i>
   <v name="MAGPOS">      0.00000000      0.00000000      0.00000000</v>
   <i type="logical" name="LNICSALL"> T  </i>
   <i type="logical" name="ORBITALMAG"> F  </i>
   <i type="logical" name="LMAGBLOCH"> F  </i>
   <i type="logical" name="LCHIMAG"> F  </i>
   <i type="logical" name="LGAUGE"> T  </i>
   <i type="int" name="MAGATOM">     0</i>
   <v name="MAGDIPOL">      0.00000000      0.00000000      0.00000000</v>
   <v name="AVECCONST">      0.00000000      0.00000000      0.00000000</v>
  </separator>
  <separator name="response functions" >
   <i type="logical" name="LADDER"> F  </i>
   <i type="logical" name="LFXC"> F  </i>
   <i type="logical" name="LHARTREE"> T  </i>
   <i type="int" name="IBSE">     0</i>
   <v type="int" name="KPOINT">    -1     0     0     0</v>
   <i type="logical" name="LTCTE"> F  </i>
   <i type="logical" name="LTETE"> F  </i>
   <i type="logical" name="LTRIPLET"> F  </i>
   <i type="logical" name="LFXCEPS"> F  </i>
   <i type="logical" name="LFXHEG"> F  </i>
   <i type="int" name="NATURALO">     0</i>
   <i type="logical" name="L2ORDER"> F  </i>
   <i type="logical" name="LUSEW"> F  </i>
   <i name="ENCUTGW">     -2.00000000</i>
   <i name="ENCUTGWSOFT">     -2.00000000</i>
   <i name="ENCUTLF">     -1.00000000</i>
   <i type="int" name="LMAXMP2">    -1</i>
   <i name="SCISSOR">      0.00000000</i>
   <i type="int" name="NOMEGA">     0</i>
   <i type="int" name="NOMEGAR">     0</i>
   <i type="int" name="NBANDSGW">    -1</i>
   <i type="int" name="NBANDSO">    -1</i>
   <i type="int" name="NBANDSV">    -1</i>
   <i type="int" name="NELM">    70</i>
   <i type="int" name="NELMHF">     1</i>
   <i type="int" name="DIM">     3</i>
   <i type="int" name="ANTIRES">     0</i>
   <i name="OMEGAMAX">    -30.00000000</i>
   <i name="OMEGAMIN">    -30.00000000</i>
   <i name="OMEGATL">   -200.00000000</i>
   <i type="int" name="OMEGAGRID">     0</i>
   <i name="CSHIFT">     -0.10000000</i>
   <i type="logical" name="SELFENERGY"> F  </i>
   <i type="logical" name="LSPECTRAL"> F  </i>
   <i type="logical" name="LSPECTRALGW"> F  </i>
   <i type="logical" name="LSINGLES"> F  </i>
   <i type="logical" name="LFERMIGW"> F  </i>
   <i type="logical" name="ODDONLYGW"> F  </i>
   <i type="logical" name="EVENONLYGW"> F  </i>
   <i type="int" name="NKREDLFX">     1</i>
   <i type="int" name="NKREDLFY">     1</i>
   <i type="int" name="NKREDLFZ">     1</i>
   <i type="int" name="MAXMEM">  1800</i>
   <i type="int" name="TELESCOPE">     0</i>
   <i type="int" name="TAUPAR">     1</i>
   <i type="int" name="OMEGAPAR">    -1</i>
   <i name="LAMBDA">      1.00000000</i>
  </separator>
  <separator name="External order field" >
   <i name="OFIELD_KAPPA">      0.00000000</i>
   <v name="OFIELD_K">      0.00000000      0.00000000      0.00000000</v>
   <i name="OFIELD_Q6_NEAR">      0.00000000</i>
   <i name="OFIELD_Q6_FAR">      0.00000000</i>
   <i name="OFIELD_A">      0.00000000</i>
  </separator>
 </parameters>
 <atominfo>
  <atoms>      36 </atoms>
  <types>       4 </types>
  <array name="atoms" >
   <dimension dim="1">ion</dimension>
   <field type="string">element</field>
   <field type="int">atomtype</field>
   <set>
    <rc><c>Nb</c><c>   1</c></rc>
    <rc><c>Nb</c><c>   1</c></rc>
    <rc><c>Nb</c><c>   1</c></rc>
    <rc><c>Nb</c><c>   1</c></rc>
    <rc><c>Nb</c><c>   1</c></rc>
    <rc><c>Hf</c><c>   2</c></rc>
    <rc><c>Hf</c><c>   2</c></rc>
    <rc><c>Hf</c><c>   2</c></rc>
    <rc><c>Hf</c><c>   2</c></rc>
    <rc><c>Hf</c><c>   2</c></rc>
    <rc><c>Hf</c><c>   2</c></rc>
    <rc><c>Hf</c><c>   2</c></rc>
    <rc><c>Hf</c><c>   2</c></rc>
    <rc><c>Hf</c><c>   2</c></rc>
    <rc><c>Hf</c><c>   2</c></rc>
    <rc><c>Hf</c><c>   2</c></rc>
    <rc><c>Hf</c><c>   2</c></rc>
    <rc><c>Zr</c><c>   3</c></rc>
    <rc><c>Zr</c><c>   3</c></rc>
    <rc><c>Zr</c><c>   3</c></rc>
    <rc><c>Zr</c><c>   3</c></rc>
    <rc><c>Zr</c><c>   3</c></rc>
    <rc><c>Zr</c><c>   3</c></rc>
    <rc><c>Zr</c><c>   3</c></rc>
    <rc><c>Ta</c><c>   4</c></rc>
    <rc><c>Ta</c><c>   4</c></rc>
    <rc><c>Ta</c><c>   4</c></rc>
    <rc><c>Ta</c><c>   4</c></rc>
    <rc><c>Ta</c><c>   4</c></rc>
    <rc><c>Ta</c><c>   4</c></rc>
    <rc><c>Ta</c><c>   4</c></rc>
    <rc><c>Ta</c><c>   4</c></rc>
    <rc><c>Ta</c><c>   4</c></rc>
    <rc><c>Ta</c><c>   4</c></rc>
    <rc><c>Ta</c><c>   4</c></rc>
    <rc><c>Ta</c><c>   4</c></rc>
   </set>
  </array>
  <array name="atomtypes" >
   <dimension dim="1">type</dimension>
   <field type="int">atomspertype</field>
   <field type="string">element</field>
   <field>mass</field>
   <field>valence</field>
   <field type="string">pseudopotential</field>
   <set>
    <rc><c>   5</c><c>Nb</c><c>     92.91000000</c><c>     13.00000000</c><c>  PAW_PBE Nb_sv 25May2007               </c></rc>
    <rc><c>  12</c><c>Hf</c><c>    178.49000000</c><c>      4.00000000</c><c>  PAW_PBE Hf 20Jan2003                  </c></rc>
    <rc><c>   7</c><c>Zr</c><c>     91.22400000</c><c>     12.00000000</c><c>  PAW_PBE Zr_sv 04Jan2005               </c></rc>
    <rc><c>  12</c><c>Ta</c><c>    180.94800000</c><c>      5.00000000</c><c>  PAW_PBE Ta 17Jan2003                  </c></rc>
   </set>
  </array>
 </atominfo>
 <structure name="initialpos" >
  <crystal>
   <varray name="basis" >
    <v>       6.96392020      -0.01676571       0.00157132 </v>
    <v>      -0.02430803      10.25989116       0.02923150 </v>
    <v>       0.00284334       0.02875761      10.20212154 </v>
   </varray>
   <i name="volume">    728.92196752 </i>
   <varray name="rec_basis" >
    <v>       0.14359811       0.00034033      -0.00004098 </v>
    <v>       0.00023472       0.09746826      -0.00027481 </v>
    <v>      -0.00002279      -0.00027932       0.09801962 </v>
   </varray>
  </crystal>
  <varray name="positions" >
   <v>       0.25650800       0.16609200       0.15901700 </v>
   <v>       0.97573200       0.67891600       0.00159000 </v>
   <v>       0.73988300       0.18322900       0.83383400 </v>
   <v>       0.74339900       0.83427400       0.17235300 </v>
   <v>       0.26207000       0.16780100       0.83038200 </v>
   <v>       0.76195600       0.49246000       0.17146500 </v>
   <v>       0.25163200       0.82828300       0.84303100 </v>
   <v>       0.72401200       0.82843800       0.49604400 </v>
   <v>       0.74738000       0.48803200       0.83315000 </v>
   <v>       0.22661400       0.50691500       0.15539300 </v>
   <v>       0.01688200       0.68070200       0.33880500 </v>
   <v>       0.76332700       0.17866500       0.49187000 </v>
   <v>       0.46262800       0.33635900       0.33284500 </v>
   <v>       0.01596100       0.99675900       0.33067500 </v>
   <v>       0.74504200       0.17927500       0.17472000 </v>
   <v>       0.51623700       0.66701900       0.00431400 </v>
   <v>       0.51159700       0.01274700       0.68070900 </v>
   <v>       0.74267300       0.49654700       0.49597500 </v>
   <v>       0.98901500       0.00007200       0.00124400 </v>
   <v>       0.01721500       0.31730300       0.98817600 </v>
   <v>       0.00314400       0.66106300       0.66300300 </v>
   <v>       0.47763600       0.00237700       0.32267400 </v>
   <v>       0.99222800       0.00578300       0.67161900 </v>
   <v>       0.28694200       0.82505100       0.51105200 </v>
   <v>       0.23405300       0.17502500       0.50941100 </v>
   <v>       0.03592500       0.33219300       0.34107900 </v>
   <v>       0.01836900       0.33597000       0.66806600 </v>
   <v>       0.26016500       0.49632400       0.82825300 </v>
   <v>       0.25033300       0.82625800       0.14921400 </v>
   <v>       0.48606400       0.32778200       0.66699900 </v>
   <v>       0.48390700       0.32511700       0.99421900 </v>
   <v>       0.26220600       0.50057100       0.50910400 </v>
   <v>       0.48655800       0.66525500       0.31408000 </v>
   <v>       0.50473700       0.00019500       0.99956400 </v>
   <v>       0.50165200       0.65522100       0.68171600 </v>
   <v>       0.74630900       0.82593400       0.83435200 </v>
  </varray>
 </structure>
 <calculation>
  <scstep>
   <time name="dav">    0.90    0.91</time>
   <time name="total">    1.12    1.33</time>
   <energy>
    <i name="alphaZ">   1293.85091987 </i>
    <i name="ewald"> -15006.63254022 </i>
    <i name="hartreedc">  -5347.67563633 </i>
    <i name="XCdc">   -803.95704952 </i>
    <i name="pawpsdc">  16951.39188451 </i>
    <i name="pawaedc"> -15130.78105618 </i>
    <i name="eentropy">     -0.00598131 </i>
    <i name="bandstr">    140.36949571 </i>
    <i name="atom">  19243.23461550 </i>
    <i name="e_fr_energy">   1339.79465202 </i>
    <i name="e_wo_entrp">   1339.80063333 </i>
    <i name="e_0_energy">   1339.79664579 </i>
   </energy>
  </scstep>
  <scstep>
   <time name="dav">    0.87    0.87</time>
   <time name="total">    0.87    0.97</time>
   <energy>
    <i name="e_fr_energy">   -151.13759698 </i>
    <i name="e_wo_entrp">   -151.14368748 </i>
    <i name="e_0_energy">   -151.13962715 </i>
   </energy>
  </scstep>
  <scstep>
   <time name="dav">    1.22    1.23</time>
   <time name="total">    1.22    1.25</time>
   <energy>
    <i name="e_fr_energy">   -357.03309172 </i>
    <i name="e_wo_entrp">   -357.04999325 </i>
    <i name="e_0_energy">   -357.03872556 </i>
   </energy>
  </scstep>
  <scstep>
   <time name="dav">    1.42    1.43</time>
   <time name="total">    1.43    1.45</time>
   <energy>
    <i name="e_fr_energy">   -381.01670485 </i>
    <i name="e_wo_entrp">   -381.02020513 </i>
    <i name="e_0_energy">   -381.01787161 </i>
   </energy>
  </scstep>
  <scstep>
   <time name="dav">    1.30    1.37</time>
   <time name="total">    1.34    1.42</time>
   <energy>
    <i name="e_fr_energy">   -383.46816534 </i>
    <i name="e_wo_entrp">   -383.47185061 </i>
    <i name="e_0_energy">   -383.46939377 </i>
   </energy>
  </scstep>
  <scstep>
   <time name="diag">    0.07    0.07</time>
   <time name="diis">    0.74    0.74</time>
   <time name="orth">    0.01    0.01</time>
   <time name="total">    0.91    0.95</time>
   <energy>
    <i name="e_fr_energy">   -373.10465509 </i>
    <i name="e_wo_entrp">   -373.10466172 </i>
    <i name="e_0_energy">   -373.10465730 </i>
   </energy>
  </scstep>
  <scstep>
   <time name="diag">    0.08    0.08</time>
   <time name="diis">    0.72    0.72</time>
   <time name="orth">    0.01    0.01</time>
   <time name="total">    0.88    0.90</time>
   <energy>
    <i name="e_fr_energy">   -371.43884318 </i>
    <i name="e_wo_entrp">   -371.45837003 </i>
    <i name="e_0_energy">   -371.44535213 </i>
   </energy>
  </scstep>
  <scstep>
   <time name="diag">    0.08    0.08</time>
   <time name="diis">    0.71    0.72</time>
   <time name="orth">    0.01    0.01</time>
   <time name="total">    0.87    0.89</time>
   <energy>
    <i name="e_fr_energy">   -368.78946208 </i>
    <i name="e_wo_entrp">   -368.80556218 </i>
    <i name="e_0_energy">   -368.79482878 </i>
   </energy>
  </scstep>
  <scstep>
   <time name="diag">    0.07    0.07</time>
   <time name="diis">    0.80    0.81</time>
   <time name="orth">    0.01    0.01</time>
   <time name="total">    0.95    0.97</time>
   <energy>
    <i name="e_fr_energy">   -368.66405380 </i>
    <i name="e_wo_entrp">   -368.67823505 </i>
    <i name="e_0_energy">   -368.66878088 </i>
   </energy>
  </scstep>
  <scstep>
   <time name="diag">    0.07    0.07</time>
   <time name="diis">    0.71    0.72</time>
   <time name="orth">    0.01    0.01</time>
   <time name="total">    0.85    0.88</time>
   <energy>
    <i name="e_fr_energy">   -368.62724196 </i>
    <i name="e_wo_entrp">   -368.64441970 </i>
    <i name="e_0_energy">   -368.63296788 </i>
   </energy>
  </scstep>
  <scstep>
   <time name="diag">    0.07    0.07</time>
   <time name="diis">    0.72    0.72</time>
   <time name="orth">    0.01    0.01</time>
   <time name="total">    0.86    0.88</time>
   <energy>
    <i name="e_fr_energy">   -368.61610911 </i>
    <i name="e_wo_entrp">   -368.63205463 </i>
    <i name="e_0_energy">   -368.62142428 </i>
   </energy>
  </scstep>
  <scstep>
   <time name="diag">    0.06    0.06</time>
   <time name="diis">    0.72    0.72</time>
   <time name="orth">    0.01    0.01</time>
   <time name="total">    0.86    0.88</time>
   <energy>
    <i name="e_fr_energy">   -368.61279503 </i>
    <i name="e_wo_entrp">   -368.62985544 </i>
    <i name="e_0_energy">   -368.61848183 </i>
   </energy>
  </scstep>
  <scstep>
   <time name="diag">    0.06    0.06</time>
   <time name="diis">    0.72    0.72</time>
   <time name="orth">    0.01    0.01</time>
   <time name="total">    0.85    0.88</time>
   <energy>
    <i name="e_fr_energy">   -368.61244546 </i>
    <i name="e_wo_entrp">   -368.62951651 </i>
    <i name="e_0_energy">   -368.61813581 </i>
   </energy>
  </scstep>
  <scstep>
   <time name="diag">    0.06    0.07</time>
   <time name="diis">    0.84    0.85</time>
   <time name="orth">    0.01    0.01</time>
   <time name="total">    1.00    1.02</time>
   <energy>
    <i name="e_fr_energy">   -368.61285224 </i>
    <i name="e_wo_entrp">   -368.62976945 </i>
    <i name="e_0_energy">   -368.61849131 </i>
   </energy>
  </scstep>
  <scstep>
   <time name="diag">    0.16    0.16</time>
   <time name="diis">    0.73    0.79</time>
   <time name="orth">    0.01    0.01</time>
   <time name="total">    0.97    1.04</time>
   <energy>
    <i name="e_fr_energy">   -368.61300281 </i>
    <i name="e_wo_entrp">   -368.63007217 </i>
    <i name="e_0_energy">   -368.61869259 </i>
   </energy>
  </scstep>
  <scstep>
   <time name="diag">    0.07    0.12</time>
   <time name="diis">    0.62    0.63</time>
   <time name="orth">    0.01    0.01</time>
   <time name="total">    0.76    0.84</time>
   <energy>
    <i name="e_fr_energy">   -368.61307419 </i>
    <i name="e_wo_entrp">   -368.63013188 </i>
    <i name="e_0_energy">   -368.61876008 </i>
   </energy>
  </scstep>
  <scstep>
   <time name="diag">    0.09    0.09</time>
   <time name="diis">    0.60    0.61</time>
   <time name="orth">    0.01    0.01</time>
   <time name="total">    0.80    0.82</time>
   <energy>
    <i name="e_fr_energy">   -368.61310774 </i>
    <i name="e_wo_entrp">   -368.63016604 </i>
    <i name="e_0_energy">   -368.61879384 </i>
   </energy>
  </scstep>
  <scstep>
   <time name="diag">    0.06    0.06</time>
   <time name="diis">    0.57    0.57</time>
   <time name="orth">    0.01    0.01</time>
   <time name="total">    0.74    0.76</time>
   <energy>
    <i name="e_fr_energy">   -368.61312383 </i>
    <i name="e_wo_entrp">   -368.63019794 </i>
    <i name="e_0_energy">   -368.61881520 </i>
   </energy>
  </scstep>
  <scstep>
   <time name="diag">    0.07    0.07</time>
   <time name="diis">    0.43    0.43</time>
   <time name="orth">    0.01    0.01</time>
   <time name="total">    0.58    0.62</time>
   <energy>
    <i name="e_fr_energy">   -368.61312999 </i>
    <i name="e_wo_entrp">   -368.63020783 </i>
    <i name="e_0_energy">   -368.61882260 </i>
   </energy>
  </scstep>
  <scstep>
   <time name="diag">    0.07    0.07</time>
   <time name="diis">    0.37    0.38</time>
   <time name="orth">    0.01    0.01</time>
   <time name="total">    0.49    0.51</time>
   <energy>
    <i name="alphaZ">   1293.85091987 </i>
    <i name="ewald"> -15006.63254022 </i>
    <i name="hartreedc">  -5171.18158531 </i>
    <i name="XCdc">   -797.18117960 </i>
    <i name="pawpsdc">  29337.84769089 </i>
    <i name="pawaedc"> -27511.02594324 </i>
    <i name="eentropy">      0.01708056 </i>
    <i name="bandstr">  -1757.54219111 </i>
    <i name="atom">  19243.23461550 </i>
    <i name="e_fr_energy">   -368.61313266 </i>
    <i name="e_wo_entrp">   -368.63021322 </i>
    <i name="e_0_energy">   -368.61882618 </i>
   </energy>
  </scstep>
  <structure>
   <crystal>
    <varray name="basis" >
     <v>       6.96392020      -0.01676571       0.00157132 </v>
     <v>      -0.02430803      10.25989116       0.02923150 </v>
     <v>       0.00284334       0.02875761      10.20212154 </v>
    </varray>
    <i name="volume">    728.92196752 </i>
    <varray name="rec_basis" >
     <v>       0.14359811       0.00034033      -0.00004098 </v>
     <v>       0.00023472       0.09746826      -0.00027481 </v>
     <v>      -0.00002279      -0.00027932       0.09801962 </v>
    </varray>
   </crystal>
   <varray name="positions" >
    <v>       0.25650800       0.16609200       0.15901700 </v>
    <v>       0.97573200       0.67891600       0.00159000 </v>
    <v>       0.73988300       0.18322900       0.83383400 </v>
    <v>       0.74339900       0.83427400       0.17235300 </v>
    <v>       0.26207000       0.16780100       0.83038200 </v>
    <v>       0.76195600       0.49246000       0.17146500 </v>
    <v>       0.25163200       0.82828300       0.84303100 </v>
    <v>       0.72401200       0.82843800       0.49604400 </v>
    <v>       0.74738000       0.48803200       0.83315000 </v>
    <v>       0.22661400       0.50691500       0.15539300 </v>
    <v>       0.01688200       0.68070200       0.33880500 </v>
    <v>       0.76332700       0.17866500       0.49187000 </v>
    <v>       0.46262800       0.33635900       0.33284500 </v>
    <v>       0.01596100       0.99675900       0.33067500 </v>
    <v>       0.74504200       0.17927500       0.17472000 </v>
    <v>       0.51623700       0.66701900       0.00431400 </v>
    <v>       0.51159700       0.01274700       0.68070900 </v>
    <v>       0.74267300       0.49654700       0.49597500 </v>
    <v>       0.98901500       0.00007200       0.00124400 </v>
    <v>       0.01721500       0.31730300       0.98817600 </v>
    <v>       0.00314400       0.66106300       0.66300300 </v>
    <v>       0.47763600       0.00237700       0.32267400 </v>
    <v>       0.99222800       0.00578300       0.67161900 </v>
    <v>       0.28694200       0.82505100       0.51105200 </v>
    <v>       0.23405300       0.17502500       0.50941100 </v>
    <v>       0.03592500       0.33219300       0.34107900 </v>
    <v>       0.01836900       0.33597000       0.66806600 </v>
    <v>       0.26016500       0.49632400       0.82825300 </v>
    <v>       0.25033300       0.82625800       0.14921400 </v>
    <v>       0.48606400       0.32778200       0.66699900 </v>
    <v>       0.48390700       0.32511700       0.99421900 </v>
    <v>       0.26220600       0.50057100       0.50910400 </v>
    <v>       0.48655800       0.66525500       0.31408000 </v>
    <v>       0.50473700       0.00019500       0.99956400 </v>
    <v>       0.50165200       0.65522100       0.68171600 </v>
    <v>       0.74630900       0.82593400       0.83435200 </v>
   </varray>
  </structure>
  <varray name="forces" >
   <v>       0.00493230      -0.00125966       0.01046552 </v>
   <v>       0.02932743      -0.04242919       0.07260081 </v>
   <v>       0.00698995      -0.04838571      -0.01354826 </v>
   <v>       0.00920457       0.00039526      -0.08354610 </v>
   <v>      -0.00940641       0.01095783      -0.00275190 </v>
   <v>      -0.00066661      -0.01328324       0.02855923 </v>
   <v>       0.00159125       0.00239387      -0.01460587 </v>
   <v>       0.00605251       0.00546632       0.12134876 </v>
   <v>       0.00044565       0.10439937      -0.00188250 </v>
   <v>      -0.00543987       0.00605266      -0.00398442 </v>
   <v>      -0.01349334       0.01121583      -0.01357163 </v>
   <v>       0.00308018       0.00926898      -0.00813009 </v>
   <v>       0.00545378       0.00044930       0.00572998 </v>
   <v>      -0.00305046      -0.02056300       0.00626041 </v>
   <v>      -0.00376703       0.00742642       0.00946459 </v>
   <v>      -0.00911211      -0.02935257       0.04497069 </v>
   <v>      -0.00136271       0.01827759      -0.00947243 </v>
   <v>      -0.00164916      -0.01563344      -0.01697503 </v>
   <v>       0.02712048       0.03437437       0.02478834 </v>
   <v>       0.00151969       0.00197215      -0.00860363 </v>
   <v>       0.00854934       0.00093640      -0.02592153 </v>
   <v>      -0.00418528      -0.01355816      -0.00072851 </v>
   <v>      -0.00003095       0.02075189      -0.00651977 </v>
   <v>      -0.00035194      -0.00303751      -0.02744802 </v>
   <v>      -0.00532594       0.00079010      -0.00485224 </v>
   <v>      -0.00659438       0.00845170      -0.01247294 </v>
   <v>       0.00270647       0.00722471       0.01158524 </v>
   <v>       0.00116954      -0.02563332      -0.00320953 </v>
   <v>       0.01247680       0.00647002       0.03505255 </v>
   <v>      -0.00589565       0.01369426       0.02176798 </v>
   <v>       0.00299165      -0.00581681      -0.01357508 </v>
   <v>       0.01506081      -0.00246287      -0.00574884 </v>
   <v>      -0.00278522       0.00361930      -0.01585446 </v>
   <v>       0.01494820      -0.01465201      -0.03090284 </v>
   <v>       0.00324067       0.00446443       0.00448451 </v>
   <v>      -0.08374419      -0.04298527      -0.07277300 </v>
  </varray>
  <varray name="stress" >
   <v>       0.00084411       0.03101585       0.03008491 </v>
   <v>       0.03101583       0.53280675      -0.18478156 </v>
   <v>       0.03008487      -0.18478154       0.23225566 </v>
  </varray>
  <energy>
   <i name="e_fr_energy">   -368.61313266 </i>
   <i name="e_wo_entrp">   -368.61882618 </i>
   <i name="e_0_energy">      0.01708056 </i>
  </energy>
  <time name="totalsc">   20.00   20.95</time>
 </calculation>
 <calculation>
  <scstep>
   <time name="dav">    0.99    1.10</time>
   <time name="total">    1.14    1.32</time>
   <energy>
    <i name="alphaZ">   1293.66969043 </i>
    <i name="ewald"> -15006.18218925 </i>
    <i name="hartreedc">  -5170.70516668 </i>
    <i name="XCdc">   -797.21260479 </i>
    <i name="pawpsdc">  29337.68066199 </i>
    <i name="pawaedc"> -27510.85884976 </i>
    <i name="eentropy">      0.01719050 </i>
    <i name="bandstr">  -1758.25744316 </i>
    <i name="atom">  19243.23461550 </i>
    <i name="e_fr_energy">   -368.61409523 </i>
    <i name="e_wo_entrp">   -368.63128573 </i>
    <i name="e_0_energy">   -368.61982540 </i>
   </energy>
  </scstep>
  <scstep>
   <time name="diag">    0.08    0.08</time>
   <time name="diis">    0.71    0.72</time>
   <time name="orth">    0.01    0.01</time>
   <time name="total">    0.87    0.88</time>
   <energy>
    <i name="e_fr_energy">   -368.61422564 </i>
    <i name="e_wo_entrp">   -368.63137941 </i>
    <i name="e_0_energy">   -368.61994356 </i>
   </energy>
  </scstep>
  <scstep>
   <time name="diag">    0.07    0.07</time>
   <time name="diis">    0.63    0.67</time>
   <time name="orth">    0.01    0.01</time>
   <time name="total">    0.89    0.95</time>
   <energy>
    <i name="e_fr_energy">   -368.61420970 </i>
    <i name="e_wo_entrp">   -368.63138636 </i>
    <i name="e_0_energy">   -368.61993525 </i>
   </energy>
  </scstep>
  <scstep>
   <time name="diag">    0.07    0.07</time>
   <time name="diis">    0.41    0.41</time>
   <time name="orth">    0.01    0.01</time>
   <time name="total">    0.66    0.69</time>
   <energy>
    <i name="alphaZ">   1293.66969043 </i>
    <i name="ewald"> -15006.18218925 </i>
    <i name="hartreedc">  -5171.10657218 </i>
    <i name="XCdc">   -797.19651581 </i>
    <i name="pawpsdc">  29332.09887813 </i>
    <i name="pawaedc"> -27505.26731330 </i>
    <i name="eentropy">      0.01717798 </i>
    <i name="bandstr">  -1757.88197753 </i>
    <i name="atom">  19243.23461550 </i>
    <i name="e_fr_energy">   -368.61420602 </i>
    <i name="e_wo_entrp">   -368.63138400 </i>
    <i name="e_0_energy">   -368.61993202 </i>
   </energy>
  </scstep>
  <structure>
   <crystal>
    <varray name="basis" >
     <v>       6.96392119      -0.01672789       0.00161027 </v>
     <v>      -0.02424967      10.26088988       0.02888585 </v>
     <v>       0.00289964       0.02841562      10.20255397 </v>
    </varray>
    <i name="volume">    729.02408178 </i>
    <varray name="rec_basis" >
     <v>       0.14359808       0.00033948      -0.00004176 </v>
     <v>       0.00023417       0.09745875      -0.00027150 </v>
     <v>      -0.00002333      -0.00027598       0.09801545 </v>
    </varray>
   </crystal>
   <varray name="positions" >
    <v>       0.25651824       0.16609020       0.15903185 </v>
    <v>       0.97579270       0.67885596       0.00169315 </v>
    <v>       0.73989730       0.18316082       0.83381497 </v>
    <v>       0.74341818       0.83427492       0.17223448 </v>
    <v>       0.26205051       0.16781644       0.83037805 </v>
    <v>       0.76195453       0.49244115       0.17150557 </v>
    <v>       0.25163533       0.82828644       0.84301027 </v>
    <v>       0.72402453       0.82844525       0.49621612 </v>
    <v>       0.74738144       0.48817928       0.83314691 </v>
    <v>       0.22660273       0.50692354       0.15538732 </v>
    <v>       0.01685402       0.68071783       0.33878571 </v>
    <v>       0.76333345       0.17867812       0.49185843 </v>
    <v>       0.46263933       0.33635963       0.33285313 </v>
    <v>       0.01595456       0.99672996       0.33068397 </v>
    <v>       0.74503420       0.17928543       0.17473340 </v>
    <v>       0.51621789       0.66697738       0.00437792 </v>
    <v>       0.51159426       0.01277282       0.68069549 </v>
    <v>       0.74266951       0.49652501       0.49595098 </v>
    <v>       0.98907152       0.00012048       0.00127902 </v>
    <v>       0.01721817       0.31730582       0.98816379 </v>
    <v>       0.00316179       0.66106445       0.66296622 </v>
    <v>       0.47762724       0.00235786       0.32267302 </v>
    <v>       0.99222804       0.00581230       0.67160967 </v>
    <v>       0.28694127       0.82504682       0.51101307 </v>
    <v>       0.23404194       0.17502612       0.50940412 </v>
    <v>       0.03591134       0.33220495       0.34106127 </v>
    <v>       0.01837465       0.33598015       0.66808240 </v>
    <v>       0.26016731       0.49628786       0.82824855 </v>
    <v>       0.25035894       0.82626703       0.14926370 </v>
    <v>       0.48605180       0.32780121       0.66702983 </v>
    <v>       0.48391320       0.32510886       0.99419976 </v>
    <v>       0.26223729       0.50056760       0.50909585 </v>
    <v>       0.48655224       0.66526016       0.31405749 </v>
    <v>       0.50476801       0.00017451       0.99952021 </v>
    <v>       0.50165875       0.65522729       0.68172234 </v>
    <v>       0.74613479       0.82587337       0.83424896 </v>
   </varray>
  </structure>
  <varray name="forces" >
   <v>       0.00461610      -0.00171923       0.00897770 </v>
   <v>       0.02423289      -0.03402061       0.06264140 </v>
   <v>       0.00625534      -0.03995910      -0.01005814 </v>
   <v>       0.00987776       0.00002740      -0.07564518 </v>
   <v>      -0.00690576       0.01059406      -0.00270879 </v>
   <v>       0.00042229      -0.01222263       0.02670234 </v>
   <v>       0.00314047       0.00029484      -0.01101875 </v>
   <v>       0.00392761       0.00424766       0.11439475 </v>
   <v>       0.00180263       0.09492248      -0.00057070 </v>
   <v>      -0.00436324       0.00247417      -0.00129273 </v>
   <v>      -0.01500192       0.00985165      -0.01288126 </v>
   <v>       0.00348788       0.00944067      -0.00715127 </v>
   <v>       0.00184204       0.00001221       0.00621044 </v>
   <v>      -0.00414788      -0.01910743       0.00609739 </v>
   <v>      -0.00345596       0.00612504       0.00792616 </v>
   <v>      -0.01044190      -0.02540251       0.04214009 </v>
   <v>      -0.00382169       0.01849276      -0.00961317 </v>
   <v>      -0.00103828      -0.01418596      -0.01621236 </v>
   <v>       0.02340878       0.02864334       0.02110618 </v>
   <v>      -0.00133459       0.00304720      -0.00922557 </v>
   <v>       0.00927819       0.00012945      -0.02563765 </v>
   <v>      -0.00039892      -0.01369783       0.00037859 </v>
   <v>      -0.00156840       0.01895118      -0.00556976 </v>
   <v>       0.00135760      -0.00318512      -0.02684710 </v>
   <v>      -0.00544735       0.00365073      -0.00645839 </v>
   <v>      -0.00372338       0.00717533      -0.00975345 </v>
   <v>       0.00198466       0.00739847       0.01056878 </v>
   <v>       0.00122546      -0.02250717      -0.00143550 </v>
   <v>       0.01133311       0.00518872       0.03044585 </v>
   <v>      -0.00418744       0.01167026       0.02043757 </v>
   <v>       0.00535897      -0.00610710      -0.01559173 </v>
   <v>       0.01320729      -0.00141002      -0.00490474 </v>
   <v>       0.00090259       0.00537618      -0.01245906 </v>
   <v>       0.01391445      -0.01337077      -0.02912953 </v>
   <v>      -0.00132608       0.00208624       0.00165194 </v>
   <v>      -0.07441330      -0.04290455      -0.06551435 </v>
  </varray>
  <varray name="stress" >
   <v>      -0.13285184       0.03032265       0.01241610 </v>
   <v>       0.03032267       0.40100019      -0.19118564 </v>
   <v>       0.01241611      -0.19118564       0.10016074 </v>
  </varray>
  <energy>
   <i name="e_fr_energy">   -368.61420602 </i>
   <i name="e_wo_entrp">   -368.61993202 </i>
   <i name="e_0_energy">      0.01717798 </i>
  </energy>
  <time name="totalsc">    5.00    5.35</time>
 </calculation>
 <calculation>
  <scstep>
   <time name="dav">    0.97    0.97</time>
   <time name="total">    1.12    1.20</time>
   <energy>
    <i name="alphaZ">   1293.12626076 </i>
    <i name="ewald"> -15004.81714525 </i>
    <i name="hartreedc">  -5169.70993828 </i>
    <i name="XCdc">   -797.28856323 </i>
    <i name="pawpsdc">  29331.53899863 </i>
    <i name="pawaedc"> -27504.70356416 </i>
    <i name="eentropy">      0.01747804 </i>
    <i name="bandstr">  -1760.01401097 </i>
    <i name="atom">  19243.23461550 </i>
    <i name="e_fr_energy">   -368.61586898 </i>
    <i name="e_wo_entrp">   -368.63334702 </i>
    <i name="e_0_energy">   -368.62169499 </i>
   </energy>
  </scstep>
  <scstep>
   <time name="diag">    0.07    0.07</time>
   <time name="diis">    0.80    0.80</time>
   <time name="orth">    0.01    0.01</time>
   <time name="total">    0.94    0.96</time>
   <energy>
    <i name="e_fr_energy">   -368.61695544 </i>
    <i name="e_wo_entrp">   -368.63432006 </i>
    <i name="e_0_energy">   -368.62274364 </i>
   </energy>
  </scstep>
  <scstep>
   <time name="diag">    0.07    0.07</time>
   <time name="diis">    0.72    0.73</time>
   <time name="orth">    0.01    0.01</time>
   <time name="total">    0.87    0.89</time>
   <energy>
    <i name="e_fr_energy">   -368.61683767 </i>
    <i name="e_wo_entrp">   -368.63426556 </i>
    <i name="e_0_energy">   -368.62264696 </i>
   </energy>
  </scstep>
  <scstep>
   <time name="diag">    0.07    0.07</time>
   <time name="diis">    0.77    0.77</time>
   <time name="orth">    0.01    0.01</time>
   <time name="total">    0.91    0.93</time>
   <energy>
    <i name="e_fr_energy">   -368.61681235 </i>
    <i name="e_wo_entrp">   -368.63425153 </i>
    <i name="e_0_energy">   -368.62262541 </i>
   </energy>
  </scstep>
  <scstep>
   <time name="diag">    0.10    0.10</time>
   <time name="diis">    0.68    0.68</time>
   <time name="orth">    0.01    0.01</time>
   <time name="total">    0.87    0.90</time>
   <energy>
    <i name="e_fr_energy">   -368.61680057 </i>
    <i name="e_wo_entrp">   -368.63420976 </i>
    <i name="e_0_energy">   -368.62260364 </i>
   </energy>
  </scstep>
  <scstep>
   <time name="diag">    0.12    0.12</time>
   <time name="diis">    0.54    0.55</time>
   <time name="orth">    0.01    0.01</time>
   <time name="total">    0.72    0.73</time>
   <energy>
    <i name="alphaZ">   1293.12626076 </i>
    <i name="ewald"> -15004.81714525 </i>
    <i name="hartreedc">  -5170.95740473 </i>
    <i name="XCdc">   -797.23776862 </i>
    <i name="pawpsdc">  29312.52605206 </i>
    <i name="pawaedc"> -27485.67758984 </i>
    <i name="eentropy">      0.01743101 </i>
    <i name="bandstr">  -1758.83124489 </i>
    <i name="atom">  19243.23461550 </i>
    <i name="e_fr_energy">   -368.61679401 </i>
    <i name="e_wo_entrp">   -368.63422502 </i>
    <i name="e_0_energy">   -368.62260435 </i>
   </energy>
  </scstep>
  <structure>
   <crystal>
    <varray name="basis" >
     <v>       6.96392415      -0.01661444       0.00172713 </v>
     <v>      -0.02407459      10.26388604       0.02784891 </v>
     <v>       0.00306854       0.02738967      10.20385127 </v>
    </varray>
    <i name="volume">    729.33045041 </i>
    <varray name="rec_basis" >
     <v>       0.14359801       0.00033694      -0.00004409 </v>
     <v>       0.00023251       0.09743024      -0.00026160 </v>
     <v>      -0.00002494      -0.00026597       0.09800293 </v>
    </varray>
   </crystal>
   <varray name="positions" >
    <v>       0.25654895       0.16608479       0.15907640 </v>
    <v>       0.97597479       0.67867586       0.00200260 </v>
    <v>       0.73994019       0.18295631       0.83375789 </v>
    <v>       0.74347573       0.83427767       0.17187892 </v>
    <v>       0.26199203       0.16786274       0.83036622 </v>
    <v>       0.76195013       0.49238459       0.17162727 </v>
    <v>       0.25164531       0.82829676       0.84294808 </v>
    <v>       0.72406213       0.82846701       0.49673247 </v>
    <v>       0.74738576       0.48862107       0.83313764 </v>
    <v>       0.22656891       0.50694914       0.15537030 </v>
    <v>       0.01677008       0.68076531       0.33872783 </v>
    <v>       0.76335281       0.17871747       0.49182371 </v>
    <v>       0.46267333       0.33636152       0.33287750 </v>
    <v>       0.01593522       0.99664284       0.33071086 </v>
    <v>       0.74501081       0.17931670       0.17477359 </v>
    <v>       0.51616056       0.66685256       0.00456966 </v>
    <v>       0.51158605       0.01285026       0.68065496 </v>
    <v>       0.74265902       0.49645904       0.49587893 </v>
    <v>       0.98924107       0.00026592       0.00138407 </v>
    <v>       0.01722769       0.31731428       0.98812715 </v>
    <v>       0.00321515       0.66106881       0.66285589 </v>
    <v>       0.47760094       0.00230046       0.32267009 </v>
    <v>       0.99222817       0.00590019       0.67158167 </v>
    <v>       0.28693908       0.82503429       0.51089630 </v>
    <v>       0.23400875       0.17502946       0.50938346 </v>
    <v>       0.03587038       0.33224079       0.34100810 </v>
    <v>       0.01839161       0.33601062       0.66813162 </v>
    <v>       0.26017423       0.49617944       0.82823520 </v>
    <v>       0.25043676       0.82629412       0.14941278 </v>
    <v>       0.48601521       0.32785884       0.66712231 </v>
    <v>       0.48393179       0.32508444       0.99414206 </v>
    <v>       0.26233117       0.50055740       0.50907140 </v>
    <v>       0.48653496       0.66527563       0.31398998 </v>
    <v>       0.50486105       0.00011302       0.99938886 </v>
    <v>       0.50167902       0.65524616       0.68174137 </v>
    <v>       0.74561216       0.82569148       0.83393987 </v>
   </varray>
  </structure>
  <varray name="forces" >
   <v>       0.00676942      -0.00178777       0.00933795 </v>
   <v>       0.01386225      -0.01363173       0.04213337 </v>
   <v>       0.00566366      -0.02543844      -0.00172267 </v>
   <v>       0.01155935      -0.00087836      -0.06550986 </v>
   <v>      -0.00308953       0.01222337      -0.00234839 </v>
   <v>       0.00237209      -0.00927484       0.02038978 </v>
   <v>       0.00713276      -0.00330618      -0.00001092 </v>
   <v>      -0.00180062       0.00202798       0.09741966 </v>
   <v>       0.00578988       0.06992027       0.00409115 </v>
   <v>      -0.00145201      -0.00720201       0.00502578 </v>
   <v>      -0.01980486       0.00693590      -0.01138910 </v>
   <v>       0.00434673       0.00918856      -0.00338730 </v>
   <v>      -0.00999848      -0.00182852       0.00698284 </v>
   <v>      -0.00796428      -0.01501139       0.00590866 </v>
   <v>      -0.00264486       0.00178633       0.00199037 </v>
   <v>      -0.01445170      -0.01346093       0.03439426 </v>
   <v>      -0.01225737       0.02038297      -0.00834551 </v>
   <v>       0.00041558      -0.01012247      -0.01400587 </v>
   <v>       0.01461498       0.01309712       0.01025014 </v>
   <v>      -0.01020347       0.00546260      -0.01143396 </v>
   <v>       0.01310223      -0.00210597      -0.02329836 </v>
   <v>       0.01086242      -0.01518223       0.00236689 </v>
   <v>      -0.00401665       0.01522146      -0.00167227 </v>
   <v>       0.00664989      -0.00378857      -0.02420520 </v>
   <v>      -0.00697636       0.01125405      -0.00975093 </v>
   <v>       0.00549701       0.00304942      -0.00209600 </v>
   <v>       0.00002602       0.00707715       0.00869305 </v>
   <v>       0.00128889      -0.01531473       0.00288697 </v>
   <v>       0.00854760       0.00336489       0.01582808 </v>
   <v>      -0.00061215       0.00575178       0.01873114 </v>
   <v>       0.01145126      -0.00759717      -0.02351258 </v>
   <v>       0.00848875       0.00124798      -0.00192987 </v>
   <v>       0.01072045       0.01170626      -0.00381554 </v>
   <v>       0.01113172      -0.00996274      -0.02578039 </v>
   <v>      -0.01415572      -0.00234226      -0.00467045 </v>
   <v>      -0.05086489      -0.04146180      -0.04754492 </v>
  </varray>
  <varray name="stress" >
   <v>      -0.68608703       0.01281200      -0.05781336 </v>
   <v>       0.01281201      -0.40205476      -0.06243526 </v>
   <v>      -0.05781334      -0.06243525      -0.52862701 </v>
  </varray>
  <energy>
   <i name="e_fr_energy">   -368.61679401 </i>
   <i name="e_wo_entrp">   -368.62260435 </i>
   <i name="e_0_energy">      0.01743101 </i>
  </energy>
  <time name="totalsc">    6.90    7.16</time>
 </calculation>
 <calculation>
  <scstep>
   <time name="dav">    0.80    0.80</time>
   <time name="total">    0.93    1.01</time>
   <energy>
    <i name="alphaZ">   1292.04056394 </i>
    <i name="ewald"> -15002.02449497 </i>
    <i name="hartreedc">  -5168.14415003 </i>
    <i name="XCdc">   -797.42464382 </i>
    <i name="pawpsdc">  29312.68910567 </i>
    <i name="pawaedc"> -27485.84992440 </i>
    <i name="eentropy">      0.01801661 </i>
    <i name="bandstr">  -1763.15473388 </i>
    <i name="atom">  19243.23461550 </i>
    <i name="e_fr_energy">   -368.61564539 </i>
    <i name="e_wo_entrp">   -368.63366199 </i>
    <i name="e_0_energy">   -368.62165092 </i>
   </energy>
  </scstep>
  <scstep>
   <time name="diag">    0.07    0.07</time>
   <time name="diis">    0.70    0.71</time>
   <time name="orth">    0.01    0.01</time>
   <time name="total">    0.84    0.86</time>
   <energy>
    <i name="e_fr_energy">   -368.61994709 </i>
    <i name="e_wo_entrp">   -368.63770380 </i>
    <i name="e_0_energy">   -368.62586599 </i>
   </energy>
  </scstep>
  <scstep>
   <time name="diag">    0.08    0.08</time>
   <time name="diis">    0.70    0.70</time>
   <time name="orth">    0.01    0.01</time>
   <time name="total">    0.86    0.88</time>
   <energy>
    <i name="e_fr_energy">   -368.61943542 </i>
    <i name="e_wo_entrp">   -368.63731705 </i>
    <i name="e_0_energy">   -368.62539596 </i>
   </energy>
  </scstep>
  <scstep>
   <time name="diag">    0.07    0.07</time>
   <time name="diis">    0.77    0.77</time>
   <time name="orth">    0.01    0.01</time>
   <time name="total">    0.91    0.93</time>
   <energy>
    <i name="e_fr_energy">   -368.61936541 </i>
    <i name="e_wo_entrp">   -368.63727811 </i>
    <i name="e_0_energy">   -368.62533631 </i>
   </energy>
  </scstep>
  <scstep>
   <time name="diag">    0.07    0.07</time>
   <time name="diis">    0.85    0.86</time>
   <time name="orth">    0.01    0.01</time>
   <time name="total">    0.99    1.01</time>
   <energy>
    <i name="e_fr_energy">   -368.61932945 </i>
    <i name="e_wo_entrp">   -368.63717605 </i>
    <i name="e_0_energy">   -368.62527832 </i>
   </energy>
  </scstep>
  <scstep>
   <time name="diag">    0.08    0.08</time>
   <time name="diis">    0.69    0.70</time>
   <time name="orth">    0.01    0.01</time>
   <time name="total">    0.84    0.86</time>
   <energy>
    <i name="e_fr_energy">   -368.61930942 </i>
    <i name="e_wo_entrp">   -368.63719567 </i>
    <i name="e_0_energy">   -368.62527150 </i>
   </energy>
  </scstep>
  <scstep>
   <time name="diag">    0.07    0.07</time>
   <time name="diis">    0.56    0.56</time>
   <time name="orth">    0.02    0.02</time>
   <time name="total">    0.72    0.74</time>
   <energy>
    <i name="e_fr_energy">   -368.61930667 </i>
    <i name="e_wo_entrp">   -368.63719189 </i>
    <i name="e_0_energy">   -368.62526841 </i>
   </energy>
  </scstep>
  <scstep>
   <time name="diag">    0.11    0.11</time>
   <time name="diis">    0.39    0.39</time>
   <time name="orth">    0.01    0.01</time>
   <time name="total">    0.55    0.57</time>
   <energy>
    <i name="alphaZ">   1292.04056394 </i>
    <i name="ewald"> -15002.02449497 </i>
    <i name="hartreedc">  -5170.57370124 </i>
    <i name="XCdc">   -797.32583948 </i>
    <i name="pawpsdc">  29275.91129971 </i>
    <i name="pawaedc"> -27449.12015050 </i>
    <i name="eentropy">      0.01789177 </i>
    <i name="bandstr">  -1760.77949168 </i>
    <i name="atom">  19243.23461550 </i>
    <i name="e_fr_energy">   -368.61930696 </i>
    <i name="e_wo_entrp">   -368.63719873 </i>
    <i name="e_0_energy">   -368.62527088 </i>
   </energy>
  </scstep>
  <structure>
   <crystal>
    <varray name="basis" >
     <v>       6.96393009      -0.01638752       0.00196085 </v>
     <v>      -0.02372443      10.26987836       0.02577503 </v>
     <v>       0.00340636       0.02533778      10.20644586 </v>
    </varray>
    <i name="volume">    729.94330404 </i>
    <varray name="rec_basis" >
     <v>       0.14359787       0.00033185      -0.00004875 </v>
     <v>       0.00022921       0.09737327      -0.00024181 </v>
     <v>      -0.00002817      -0.00024597       0.09797792 </v>
    </varray>
   </crystal>
   <varray name="positions" >
    <v>       0.25661038       0.16607400       0.15916548 </v>
    <v>       0.97633897       0.67831583       0.00262137 </v>
    <v>       0.74002599       0.18254739       0.83364369 </v>
    <v>       0.74359084       0.83428310       0.17116789 </v>
    <v>       0.26187506       0.16795532       0.83034257 </v>
    <v>       0.76194132       0.49227155       0.17187062 </v>
    <v>       0.25166528       0.82831738       0.84282372 </v>
    <v>       0.72413730       0.82851062       0.49776504 </v>
    <v>       0.74739438       0.48950440       0.83311921 </v>
    <v>       0.22650127       0.50700033       0.15533627 </v>
    <v>       0.01660221       0.68086024       0.33861210 </v>
    <v>       0.76339152       0.17879613       0.49175430 </v>
    <v>       0.46274133       0.33636530       0.33292624 </v>
    <v>       0.01589656       0.99646866       0.33076462 </v>
    <v>       0.74496402       0.17937924       0.17485397 </v>
    <v>       0.51604591       0.66660301       0.00495307 </v>
    <v>       0.51156963       0.01300508       0.68057393 </v>
    <v>       0.74263807       0.49632712       0.49573483 </v>
    <v>       0.98958016       0.00055673       0.00159417 </v>
    <v>       0.01724673       0.31733119       0.98805388 </v>
    <v>       0.00332189       0.66107749       0.66263525 </v>
    <v>       0.47754836       0.00218568       0.32266421 </v>
    <v>       0.99222841       0.00607591       0.67152571 </v>
    <v>       0.28693471       0.82500921       0.51066278 </v>
    <v>       0.23394238       0.17503615       0.50934216 </v>
    <v>       0.03578844       0.33231245       0.34090177 </v>
    <v>       0.01842553       0.33607153       0.66823004 </v>
    <v>       0.26018807       0.49596266       0.82820847 </v>
    <v>       0.25059240       0.82634832       0.14971091 </v>
    <v>       0.48594201       0.32797409       0.66730725 </v>
    <v>       0.48396897       0.32503559       0.99402666 </v>
    <v>       0.26251892       0.50053700       0.50902250 </v>
    <v>       0.48650039       0.66530656       0.31385498 </v>
    <v>       0.50504714      -0.00000994       0.99912618 </v>
    <v>       0.50171954       0.65528390       0.68177942 </v>
    <v>       0.74456692       0.82532777       0.83332172 </v>
   </varray>
  </structure>
  <varray name="forces" >
   <v>       0.00796276      -0.00210880       0.00703133 </v>
   <v>      -0.00907666       0.03085940      -0.00598086 </v>
   <v>       0.00242687       0.01093150       0.01712114 </v>
   <v>       0.01308715      -0.00273489      -0.03273016 </v>
   <v>       0.00746556       0.01318377      -0.00098021 </v>
   <v>       0.00725308      -0.00473629       0.00795868 </v>
   <v>       0.01553922      -0.01213833       0.02067687 </v>
   <v>      -0.01189305      -0.00199644       0.06530995 </v>
   <v>       0.01427141       0.02207912       0.01380101 </v>
   <v>       0.00408217      -0.02920566       0.01831268 </v>
   <v>      -0.02884689      -0.00001746      -0.00914064 </v>
   <v>       0.00650993       0.00875304       0.00170770 </v>
   <v>      -0.03317975      -0.00848040       0.00781961 </v>
   <v>      -0.01409032      -0.00321197       0.00586051 </v>
   <v>      -0.00101165      -0.00624918      -0.00775399 </v>
   <v>      -0.02224367       0.01012981       0.01829184 </v>
   <v>      -0.02794989       0.02303928      -0.00703397 </v>
   <v>       0.00307716      -0.00312114      -0.01049466 </v>
   <v>      -0.00114292      -0.01571724      -0.00847671 </v>
   <v>      -0.02728952       0.00894942      -0.01284103 </v>
   <v>       0.02089390      -0.00661399      -0.01890098 </v>
   <v>       0.03235803      -0.01519203       0.00593837 </v>
   <v>      -0.00972515       0.00737152       0.00488677 </v>
   <v>       0.01716099      -0.00418873      -0.01959374 </v>
   <v>      -0.00886465       0.02575039      -0.02050193 </v>
   <v>       0.02246697      -0.00714353       0.01261162 </v>
   <v>      -0.00365408       0.00565409       0.00364360 </v>
   <v>       0.00150153      -0.00033156       0.01241735 </v>
   <v>       0.00258480      -0.00074551      -0.01333661 </v>
   <v>       0.00635909      -0.00669181       0.01348350 </v>
   <v>       0.02389974      -0.01123513      -0.03623606 </v>
   <v>      -0.00081112       0.00549591       0.00262288 </v>
   <v>       0.02913933       0.02251932       0.01267914 </v>
   <v>       0.00606459      -0.00249267      -0.01789552 </v>
   <v>      -0.03957224      -0.01137036      -0.01730797 </v>
   <v>      -0.00475270      -0.03899346      -0.01296953 </v>
  </varray>
  <varray name="stress" >
   <v>      -1.66162343      -0.01570823      -0.19937571 </v>
   <v>      -0.01570823      -1.82074499       0.08950742 </v>
   <v>      -0.19937576       0.08950744      -1.70373329 </v>
  </varray>
  <energy>
   <i name="e_fr_energy">   -368.61930696 </i>
   <i name="e_wo_entrp">   -368.62527088 </i>
   <i name="e_0_energy">      0.01789177 </i>
  </energy>
  <time name="totalsc">    8.08    8.35</time>
 </calculation>
 <calculation>
  <scstep>
   <time name="dav">    0.85    0.85</time>
   <time name="total">    1.00    1.08</time>
   <energy>
    <i name="alphaZ">   1293.37856176 </i>
    <i name="ewald"> -15007.40789644 </i>
    <i name="hartreedc">  -5172.12883709 </i>
    <i name="XCdc">   -797.10481807 </i>
    <i name="pawpsdc">  29275.92106090 </i>
    <i name="pawaedc"> -27449.15028989 </i>
    <i name="eentropy">      0.01777981 </i>
    <i name="bandstr">  -1755.38206655 </i>
    <i name="atom">  19243.23461550 </i>
    <i name="e_fr_energy">   -368.62189007 </i>
    <i name="e_wo_entrp">   -368.63966988 </i>
    <i name="e_0_energy">   -368.62781668 </i>
   </energy>
  </scstep>
  <scstep>
   <time name="diag">    0.06    0.07</time>
   <time name="diis">    0.71    0.71</time>
   <time name="orth">    0.01    0.01</time>
   <time name="total">    0.85    0.86</time>
   <energy>
    <i name="e_fr_energy">   -368.62135060 </i>
    <i name="e_wo_entrp">   -368.63930793 </i>
    <i name="e_0_energy">   -368.62733638 </i>
   </energy>
  </scstep>
  <scstep>
   <time name="diag">    0.07    0.07</time>
   <time name="diis">    0.72    0.72</time>
   <time name="orth">    0.01    0.01</time>
   <time name="total">    0.86    0.88</time>
   <energy>
    <i name="e_fr_energy">   -368.62088413 </i>
    <i name="e_wo_entrp">   -368.63882127 </i>
    <i name="e_0_energy">   -368.62686317 </i>
   </energy>
  </scstep>
  <scstep>
   <time name="diag">    0.07    0.07</time>
   <time name="diis">    0.71    0.72</time>
   <time name="orth">    0.01    0.01</time>
   <time name="total">    0.85    0.87</time>
   <energy>
    <i name="e_fr_energy">   -368.62062416 </i>
    <i name="e_wo_entrp">   -368.63851101 </i>
    <i name="e_0_energy">   -368.62658645 </i>
   </energy>
  </scstep>
  <scstep>
   <time name="diag">    0.06    0.07</time>
   <time name="diis">    0.70    0.71</time>
   <time name="orth">    0.01    0.01</time>
   <time name="total">    0.84    0.86</time>
   <energy>
    <i name="e_fr_energy">   -368.62057692 </i>
    <i name="e_wo_entrp">   -368.63852446 </i>
    <i name="e_0_energy">   -368.62655944 </i>
   </energy>
  </scstep>
  <scstep>
   <time name="diag">    0.06    0.07</time>
   <time name="diis">    0.65    0.65</time>
   <time name="orth">    0.01    0.01</time>
   <time name="total">    0.79    0.82</time>
   <energy>
    <i name="e_fr_energy">   -368.62059198 </i>
    <i name="e_wo_entrp">   -368.63851439 </i>
    <i name="e_0_energy">   -368.62656612 </i>
   </energy>
  </scstep>
  <scstep>
   <time name="diag">    0.07    0.07</time>
   <time name="diis">    0.36    0.37</time>
   <time name="orth">    0.01    0.01</time>
   <time name="total">    0.48    0.50</time>
   <energy>
    <i name="alphaZ">   1293.37856176 </i>
    <i name="ewald"> -15007.40789644 </i>
    <i name="hartreedc">  -5168.89275433 </i>
    <i name="XCdc">   -797.23117443 </i>
    <i name="pawpsdc">  29319.92261087 </i>
    <i name="pawaedc"> -27493.29519135 </i>
    <i name="eentropy">      0.01793987 </i>
    <i name="bandstr">  -1758.34730944 </i>
    <i name="atom">  19243.23461550 </i>
    <i name="e_fr_energy">   -368.62059800 </i>
    <i name="e_wo_entrp">   -368.63853787 </i>
    <i name="e_0_energy">   -368.62657796 </i>
   </energy>
  </scstep>
  <structure>
   <crystal>
    <varray name="basis" >
     <v>       6.96123892      -0.01635958       0.00168446 </v>
     <v>      -0.02368237      10.26675452       0.02555528 </v>
     <v>       0.00300053       0.02511957      10.20293101 </v>
    </varray>
    <i name="volume">    729.18817899 </i>
    <varray name="rec_basis" >
     <v>       0.14365338       0.00033147      -0.00004306 </v>
     <v>       0.00022896       0.09740289      -0.00023987 </v>
     <v>      -0.00002429      -0.00024402       0.09801166 </v>
    </varray>
   </crystal>
   <varray name="positions" >
    <v>       0.25664394       0.16606802       0.15919636 </v>
    <v>       0.97638965       0.67829754       0.00273689 </v>
    <v>       0.74004999       0.18248335       0.83365113 </v>
    <v>       0.74364894       0.83427948       0.17096363 </v>
    <v>       0.26187094       0.16799787       0.83033591 </v>
    <v>       0.76195863       0.49223998       0.17193470 </v>
    <v>       0.25171029       0.82829983       0.84283560 </v>
    <v>       0.72412118       0.82851566       0.49809372 </v>
    <v>       0.74743393       0.48972438       0.83314023 </v>
    <v>       0.22649802       0.50695844       0.15536243 </v>
    <v>       0.01649174       0.68087952       0.33857201 </v>
    <v>       0.76341667       0.17882789       0.49174316 </v>
    <v>       0.46266757       0.33635072       0.33295034 </v>
    <v>       0.01585143       0.99642725       0.33078617 </v>
    <v>       0.74495175       0.17938086       0.17485646 </v>
    <v>       0.51596379       0.66657001       0.00506433 </v>
    <v>       0.51149263       0.01307787       0.68054461 </v>
    <v>       0.74264190       0.49629464       0.49568649 </v>
    <v>       0.98964637       0.00058804       0.00162192 </v>
    <v>       0.01717865       0.31735061       0.98801575 </v>
    <v>       0.00339884       0.66106759       0.66255613 </v>
    <v>       0.47762294       0.00213515       0.32267375 </v>
    <v>       0.99220283       0.00612494       0.67152305 </v>
    <v>       0.28697912       0.82499673       0.51057977 </v>
    <v>       0.23390559       0.17508367       0.50929668 </v>
    <v>       0.03583095       0.33231433       0.34090278 </v>
    <v>       0.01842284       0.33609407       0.66825669 </v>
    <v>       0.26019486       0.49591774       0.82822537 </v>
    <v>       0.25063104       0.82635814       0.14974781 </v>
    <v>       0.48594378       0.32798563       0.66736937 </v>
    <v>       0.48403964       0.32500576       0.99393784 </v>
    <v>       0.26255519       0.50054265       0.50901720 </v>
    <v>       0.48657038       0.66535325       0.31385011 </v>
    <v>       0.50510119      -0.00003943       0.99904026 </v>
    <v>       0.50162330       0.65527116       0.68175610 </v>
    <v>       0.74434050       0.82518367       0.83317220 </v>
   </varray>
  </structure>
  <varray name="forces" >
   <v>       0.00659215      -0.00496035       0.00713370 </v>
   <v>      -0.00832597       0.02883203      -0.01144515 </v>
   <v>       0.00499550       0.00993270       0.01661093 </v>
   <v>       0.01339497       0.00058717      -0.02812246 </v>
   <v>       0.00271937       0.00968658      -0.00077037 </v>
   <v>       0.00550865      -0.00368766       0.00505669 </v>
   <v>       0.01263717      -0.01108213       0.01872406 </v>
   <v>      -0.00967732      -0.00049072       0.05786658 </v>
   <v>       0.01614179       0.01617391       0.01454333 </v>
   <v>       0.00515351      -0.02979420       0.01756003 </v>
   <v>      -0.03114681      -0.00111425      -0.00754037 </v>
   <v>       0.00350419       0.00551941       0.00185467 </v>
   <v>      -0.02544099      -0.00816503       0.00572092 </v>
   <v>      -0.01583598      -0.00240626       0.00625234 </v>
   <v>       0.00003120      -0.00836861      -0.00879663 </v>
   <v>      -0.02228780       0.00854803       0.01629872 </v>
   <v>      -0.03036536       0.02078808      -0.00977341 </v>
   <v>       0.00390597      -0.00255461      -0.01003552 </v>
   <v>      -0.00452138      -0.01965791      -0.01176072 </v>
   <v>      -0.02947968       0.01155988      -0.00896835 </v>
   <v>       0.02281005      -0.00610527      -0.01512039 </v>
   <v>       0.03724698      -0.01479919       0.00839397 </v>
   <v>      -0.00755362       0.00394865       0.00544435 </v>
   <v>       0.01313612      -0.00002693      -0.01844994 </v>
   <v>      -0.00596130       0.01561828      -0.01886998 </v>
   <v>       0.01586418      -0.00436937       0.00991469 </v>
   <v>      -0.00925684       0.00729275       0.00396032 </v>
   <v>      -0.00217165       0.00516419       0.01566406 </v>
   <v>       0.00044410       0.00294571      -0.01336609 </v>
   <v>       0.01276940      -0.00554558       0.01051426 </v>
   <v>       0.02727752      -0.00652232      -0.03034920 </v>
   <v>      -0.00311044       0.00866870       0.00112776 </v>
   <v>       0.03317051       0.02044302       0.01590521 </v>
   <v>       0.00616753      -0.00018894      -0.01391821 </v>
   <v>      -0.04139559      -0.01375950      -0.02070560 </v>
   <v>       0.00305988      -0.03211026      -0.01055421 </v>
  </varray>
  <varray name="stress" >
   <v>      -0.40033840      -0.01720020      -0.18449903 </v>
   <v>      -0.01720024      -0.56273332       0.09613961 </v>
   <v>      -0.18449899       0.09613956      -0.39579951 </v>
  </varray>
  <energy>
   <i name="e_fr_energy">   -368.62059800 </i>
   <i name="e_wo_entrp">   -368.62657796 </i>
   <i name="e_0_energy">      0.01793987 </i>
  </energy>
  <time name="totalsc">    7.25    7.50</time>
 </calculation>
 <calculation>
  <scstep>
   <time name="dav">    0.95    0.95</time>
   <time name="total">    1.10    1.20</time>
   <energy>
    <i name="alphaZ">   1295.12810518 </i>
    <i name="ewald"> -15014.43472156 </i>
    <i name="hartreedc">  -5170.98171501 </i>
    <i name="XCdc">   -796.94006085 </i>
    <i name="pawpsdc">  29319.13571690 </i>
    <i name="pawaedc"> -27492.48542976 </i>
    <i name="eentropy">      0.01779912 </i>
    <i name="bandstr">  -1751.29751398 </i>
    <i name="atom">  19243.23461550 </i>
    <i name="e_fr_energy">   -368.62320446 </i>
    <i name="e_wo_entrp">   -368.64100358 </i>
    <i name="e_0_energy">   -368.62913750 </i>
   </energy>
  </scstep>
  <scstep>
   <time name="diag">    0.14    0.14</time>
   <time name="diis">    0.76    0.76</time>
   <time name="orth">    0.01    0.01</time>
   <time name="total">    0.98    1.02</time>
   <energy>
    <i name="e_fr_energy">   -368.62228328 </i>
    <i name="e_wo_entrp">   -368.64029847 </i>
    <i name="e_0_energy">   -368.62828835 </i>
   </energy>
  </scstep>
  <scstep>
   <time name="diag">    0.07    0.07</time>
   <time name="diis">    0.74    0.75</time>
   <time name="orth">    0.01    0.01</time>
   <time name="total">    0.89    0.92</time>
   <energy>
    <i name="e_fr_energy">   -368.62150338 </i>
    <i name="e_wo_entrp">   -368.63950470 </i>
    <i name="e_0_energy">   -368.62750382 </i>
   </energy>
  </scstep>
  <scstep>
   <time name="diag">    0.06    0.06</time>
   <time name="diis">    0.72    0.73</time>
   <time name="orth">    0.01    0.01</time>
   <time name="total">    0.86    0.88</time>
   <energy>
    <i name="e_fr_energy">   -368.62109032 </i>
    <i name="e_wo_entrp">   -368.63902287 </i>
    <i name="e_0_energy">   -368.62706784 </i>
   </energy>
  </scstep>
  <scstep>
   <time name="diag">    0.06    0.06</time>
   <time name="diis">    0.68    0.73</time>
   <time name="orth">    0.01    0.01</time>
   <time name="total">    0.82    0.89</time>
   <energy>
    <i name="e_fr_energy">   -368.62102471 </i>
    <i name="e_wo_entrp">   -368.63903201 </i>
    <i name="e_0_energy">   -368.62702715 </i>
   </energy>
  </scstep>
  <scstep>
   <time name="diag">    0.07    0.07</time>
   <time name="diis">    0.63    0.63</time>
   <time name="orth">    0.01    0.01</time>
   <time name="total">    0.77    0.79</time>
   <energy>
    <i name="e_fr_energy">   -368.62105397 </i>
    <i name="e_wo_entrp">   -368.63903133 </i>
    <i name="e_0_energy">   -368.62704642 </i>
   </energy>
  </scstep>
  <scstep>
   <time name="diag">    0.06    0.06</time>
   <time name="diis">    0.46    0.47</time>
   <time name="orth">    0.01    0.01</time>
   <time name="total">    0.60    0.62</time>
   <energy>
    <i name="e_fr_energy">   -368.62106768 </i>
    <i name="e_wo_entrp">   -368.63906618 </i>
    <i name="e_0_energy">   -368.62706718 </i>
   </energy>
  </scstep>
  <scstep>
   <time name="diag">    0.06    0.07</time>
   <time name="diis">    0.40    0.40</time>
   <time name="orth">    0.01    0.01</time>
   <time name="total">    0.54    0.55</time>
   <energy>
    <i name="e_fr_energy">   -368.62107922 </i>
    <i name="e_wo_entrp">   -368.63906120 </i>
    <i name="e_0_energy">   -368.62707321 </i>
   </energy>
  </scstep>
  <scstep>
   <time name="diag">    0.07    0.07</time>
   <time name="diis">    0.42    0.43</time>
   <time name="orth">    0.01    0.01</time>
   <time name="total">    0.54    0.56</time>
   <energy>
    <i name="alphaZ">   1295.12810518 </i>
    <i name="ewald"> -15014.43472156 </i>
    <i name="hartreedc">  -5167.03213609 </i>
    <i name="XCdc">   -797.09322218 </i>
    <i name="pawpsdc">  29377.83985794 </i>
    <i name="pawaedc"> -27551.13121216 </i>
    <i name="eentropy">      0.01798634 </i>
    <i name="bandstr">  -1755.15036033 </i>
    <i name="atom">  19243.23461550 </i>
    <i name="e_fr_energy">   -368.62108735 </i>
    <i name="e_wo_entrp">   -368.63907370 </i>
    <i name="e_0_energy">   -368.62708280 </i>
   </energy>
  </scstep>
  <structure>
   <crystal>
    <varray name="basis" >
     <v>       6.95772561      -0.01632310       0.00132363 </v>
     <v>      -0.02362745      10.26267637       0.02526839 </v>
     <v>       0.00247074       0.02483470      10.19834240 </v>
    </varray>
    <i name="volume">    728.20314409 </i>
    <varray name="rec_basis" >
     <v>       0.14372591       0.00033098      -0.00003563 </v>
     <v>       0.00022865       0.09744158      -0.00023734 </v>
     <v>      -0.00001922      -0.00024147       0.09805574 </v>
    </varray>
   </crystal>
   <varray name="positions" >
    <v>       0.25668777       0.16606022       0.15923668 </v>
    <v>       0.97645583       0.67827365       0.00288777 </v>
    <v>       0.74008134       0.18239972       0.83366084 </v>
    <v>       0.74372480       0.83427476       0.17069688 </v>
    <v>       0.26186557       0.16805344       0.83032722 </v>
    <v>       0.76198124       0.49219876       0.17201839 </v>
    <v>       0.25176908       0.82827691       0.84285112 </v>
    <v>       0.72410016       0.82852225       0.49852296 </v>
    <v>       0.74748559       0.49001165       0.83316770 </v>
    <v>       0.22649379       0.50690373       0.15539660 </v>
    <v>       0.01634747       0.68090469       0.33851964 </v>
    <v>       0.76344952       0.17886936       0.49172860 </v>
    <v>       0.46257125       0.33633168       0.33298182 </v>
    <v>       0.01579250       0.99637316       0.33081432 </v>
    <v>       0.74493572       0.17938298       0.17485972 </v>
    <v>       0.51585655       0.66652691       0.00520962 </v>
    <v>       0.51139207       0.01317292       0.68050633 </v>
    <v>       0.74264690       0.49625222       0.49562335 </v>
    <v>       0.98973283       0.00062894       0.00165816 </v>
    <v>       0.01708972       0.31737596       0.98796595 </v>
    <v>       0.00349934       0.66105465       0.66245281 </v>
    <v>       0.47772035       0.00206915       0.32268622 </v>
    <v>       0.99216941       0.00618896       0.67151959 </v>
    <v>       0.28703710       0.82498044       0.51047137 </v>
    <v>       0.23385753       0.17514572       0.50923728 </v>
    <v>       0.03588647       0.33231680       0.34090411 </v>
    <v>       0.01841934       0.33612351       0.66829151 </v>
    <v>       0.26020372       0.49585906       0.82824744 </v>
    <v>       0.25068151       0.82637096       0.14979601 </v>
    <v>       0.48594609       0.32800070       0.66745049 </v>
    <v>       0.48413192       0.32496679       0.99382185 </v>
    <v>       0.26260256       0.50055003       0.50901029 </v>
    <v>       0.48666179       0.66541423       0.31384376 </v>
    <v>       0.50517178      -0.00007794       0.99892806 </v>
    <v>       0.50149760       0.65525453       0.68172563 </v>
    <v>       0.74404478       0.82499550       0.83297693 </v>
   </varray>
  </structure>
  <varray name="forces" >
   <v>       0.00391793      -0.00974127       0.00421388 </v>
   <v>      -0.00899986       0.02762855      -0.02177341 </v>
   <v>       0.00827204       0.01077727       0.01685557 </v>
   <v>       0.01386277       0.00507264      -0.01893492 </v>
   <v>      -0.00365351       0.00367098       0.00120314 </v>
   <v>       0.00304225      -0.00200971       0.00172350 </v>
   <v>       0.00970800      -0.00887744       0.01691669 </v>
   <v>      -0.00571696       0.00172382       0.04775597 </v>
   <v>       0.01926049       0.00772553       0.01565913 </v>
   <v>       0.00677497      -0.03132486       0.01756112 </v>
   <v>      -0.03495537      -0.00239159      -0.00547671 </v>
   <v>      -0.00057043       0.00091747       0.00193008 </v>
   <v>      -0.01548799      -0.00803356       0.00301147 </v>
   <v>      -0.01907677      -0.00085935       0.00599665 </v>
   <v>       0.00146356      -0.01164755      -0.00981288 </v>
   <v>      -0.02229877       0.00673502       0.01397344 </v>
   <v>      -0.03358448       0.01812902      -0.01360528 </v>
   <v>       0.00490670      -0.00074744      -0.00896866 </v>
   <v>      -0.00817151      -0.02363567      -0.01590024 </v>
   <v>      -0.03138882       0.01314817      -0.00400845 </v>
   <v>       0.02498984      -0.00567615      -0.01168104 </v>
   <v>       0.04328036      -0.01422356       0.01080229 </v>
   <v>      -0.00508326      -0.00041116       0.00666562 </v>
   <v>       0.00853765       0.00464191      -0.01643162 </v>
   <v>      -0.00150014       0.00280465      -0.01701036 </v>
   <v>       0.00768837      -0.00110252       0.00643082 </v>
   <v>      -0.01688594       0.00959723       0.00417539 </v>
   <v>      -0.00720345       0.01239620       0.01971310 </v>
   <v>      -0.00246218       0.00814200      -0.01384513 </v>
   <v>       0.02148378      -0.00451335       0.00615676 </v>
   <v>       0.03179706      -0.00101751      -0.02188661 </v>
   <v>      -0.00626185       0.01287739      -0.00099291 </v>
   <v>       0.03901435       0.01707366       0.02003063 </v>
   <v>       0.00544074       0.00340945      -0.00853214 </v>
   <v>      -0.04379105      -0.01741114      -0.02507905 </v>
   <v>       0.01365149      -0.02284716      -0.00683589 </v>
  </varray>
  <varray name="stress" >
   <v>       1.55046569      -0.02150098      -0.17626618 </v>
   <v>      -0.02150102       1.36706277       0.10100232 </v>
   <v>      -0.17626619       0.10100236       1.57924373 </v>
  </varray>
  <energy>
   <i name="e_fr_energy">   -368.62108735 </i>
   <i name="e_wo_entrp">   -368.62708280 </i>
   <i name="e_0_energy">      0.01798634 </i>
  </energy>
  <time name="totalsc">    8.72    9.12</time>
 </calculation>
 <calculation>
  <scstep>
   <time name="dav">    0.79    0.80</time>
   <time name="total">    0.93    1.02</time>
   <energy>
    <i name="alphaZ">   1295.15908816 </i>
    <i name="ewald"> -15014.63723107 </i>
    <i name="hartreedc">  -5166.99604816 </i>
    <i name="XCdc">   -797.08700593 </i>
    <i name="pawpsdc">  29378.15371103 </i>
    <i name="pawaedc"> -27551.41563201 </i>
    <i name="eentropy">      0.01808078 </i>
    <i name="bandstr">  -1755.05127142 </i>
    <i name="atom">  19243.23461550 </i>
    <i name="e_fr_energy">   -368.62169311 </i>
    <i name="e_wo_entrp">   -368.63977389 </i>
    <i name="e_0_energy">   -368.62772004 </i>
[...]
       <r>    6.0604    1.0000 </r>
       <r>    6.1090    1.0000 </r>
       <r>    6.1422    1.0000 </r>
       <r>    6.1791    1.0000 </r>
       <r>    6.2407    1.0000 </r>
       <r>    6.2749    1.0000 </r>
       <r>    6.3422    1.0000 </r>
       <r>    6.3654    1.0000 </r>
       <r>    6.4032    1.0000 </r>
       <r>    6.4350    1.0001 </r>
       <r>    6.4892    1.0007 </r>
       <r>    6.5204    1.0018 </r>
       <r>    6.5508    1.0040 </r>
       <r>    6.5796    1.0078 </r>
       <r>    6.6131    1.0150 </r>
       <r>    6.6351    1.0213 </r>
       <r>    6.6823    1.0341 </r>
       <r>    6.7037    1.0352 </r>
       <r>    6.7452    1.0122 </r>
       <r>    6.7607    0.9903 </r>
       <r>    6.7828    0.9428 </r>
       <r>    6.8243    0.7956 </r>
       <r>    6.8546    0.6462 </r>
       <r>    6.8996    0.3952 </r>
       <r>    6.9317    0.2308 </r>
       <r>    6.9734    0.0728 </r>
       <r>    6.9941    0.0225 </r>
       <r>    7.0395   -0.0301 </r>
       <r>    7.0785   -0.0343 </r>
       <r>    7.1594   -0.0124 </r>
       <r>    7.1947   -0.0059 </r>
       <r>    7.2300   -0.0024 </r>
       <r>    7.2707   -0.0007 </r>
       <r>    7.2740   -0.0007 </r>
       <r>    7.3332   -0.0001 </r>
       <r>    7.3787   -0.0000 </r>
       <r>    7.4327   -0.0000 </r>
       <r>    7.4471   -0.0000 </r>
       <r>    7.4938   -0.0000 </r>
       <r>    7.5447   -0.0000 </r>
       <r>    7.5824   -0.0000 </r>
       <r>    7.6722   -0.0000 </r>
       <r>    7.6992   -0.0000 </r>
       <r>    7.7329   -0.0000 </r>
       <r>    7.8087   -0.0000 </r>
       <r>    8.0732   -0.0000 </r>
       <r>    8.1478   -0.0000 </r>
       <r>    8.2340   -0.0000 </r>
       <r>    8.8066   -0.0000 </r>
      </set>
     </set>
    </set>
   </array>
  </eigenvalues>
  <separator name="orbital magnetization" >
   <v name="MAGDIPOLOUT">      0.00000000      0.00000000      0.00000000</v>
  </separator>
  <dos>
   <i name="efermi">      6.88091230 </i>
   <total>
    <array>
     <dimension dim="1">gridpoints</dimension>
     <dimension dim="2">spin</dimension>
     <field>energy</field>
     <field>total</field>
     <field>integrated</field>
     <set>
      <set comment="spin 1">
       <r>   -50.0639     0.0000     0.0000 </r>
       <r>   -49.8583     0.0000     0.0000 </r>
       <r>   -49.6527     0.0000     0.0000 </r>
       <r>   -49.4471     0.0000     0.0000 </r>
       <r>   -49.2415     0.0000     0.0000 </r>
       <r>   -49.0360     0.0000     0.0000 </r>
       <r>   -48.8304     0.0000     0.0000 </r>
       <r>   -48.6248    -0.0000    -0.0000 </r>
       <r>   -48.4192    -0.0000    -0.0000 </r>
       <r>   -48.2136    -0.0000    -0.0000 </r>
       <r>   -48.0081    -0.0000    -0.0000 </r>
       <r>   -47.8025    -0.0000    -0.0000 </r>
       <r>   -47.5969    -0.0717    -0.0147 </r>
       <r>   -47.3913    -1.0906    -0.2389 </r>
       <r>   -47.1857    32.5815     6.4591 </r>
       <r>   -46.9802    18.3996    10.2417 </r>
       <r>   -46.7746    -1.1636    10.0025 </r>
       <r>   -46.5690    -0.0122    10.0000 </r>
       <r>   -46.3634    -0.0000    10.0000 </r>
       <r>   -46.1579    -0.0000    10.0000 </r>
       <r>   -45.9523     0.0000    10.0000 </r>
       <r>   -45.7467     0.0000    10.0000 </r>
       <r>   -45.5411     0.0000    10.0000 </r>
       <r>   -45.3355     0.0000    10.0000 </r>
       <r>   -45.1300     0.0000    10.0000 </r>
       <r>   -44.9244     0.0000    10.0000 </r>
       <r>   -44.7188     0.0000    10.0000 </r>
       <r>   -44.5132     0.0000    10.0000 </r>
       <r>   -44.3076     0.0000    10.0000 </r>
       <r>   -44.1021     0.0000    10.0000 </r>
       <r>   -43.8965     0.0000    10.0000 </r>
       <r>   -43.6909     0.0000    10.0000 </r>
       <r>   -43.4853     0.0000    10.0000 </r>
       <r>   -43.2797     0.0000    10.0000 </r>
       <r>   -43.0742     0.0000    10.0000 </r>
       <r>   -42.8686     0.0000    10.0000 </r>
       <r>   -42.6630    -0.0000    10.0000 </r>
       <r>   -42.4574    -0.0000    10.0000 </r>
       <r>   -42.2518    -0.0000    10.0000 </r>
       <r>   -42.0463    -0.0000    10.0000 </r>
       <r>   -41.8407    -0.0002    10.0000 </r>
       <r>   -41.6351    -0.1313     9.9730 </r>
       <r>   -41.4295    -0.0748     9.9576 </r>
       <r>   -41.2239    31.5560    16.4449 </r>
       <r>   -41.0184    36.1848    23.8837 </r>
       <r>   -40.8128     0.7632    24.0406 </r>
       <r>   -40.6072    -0.1971    24.0001 </r>
       <r>   -40.4016    -0.0003    24.0000 </r>
       <r>   -40.1960    -0.0000    24.0000 </r>
       <r>   -39.9905    -0.0000    24.0000 </r>
       <r>   -39.7849     0.0000    24.0000 </r>
       <r>   -39.5793     0.0000    24.0000 </r>
       <r>   -39.3737     0.0000    24.0000 </r>
       <r>   -39.1682     0.0000    24.0000 </r>
       <r>   -38.9626     0.0000    24.0000 </r>
       <r>   -38.7570     0.0000    24.0000 </r>
       <r>   -38.5514     0.0000    24.0000 </r>
       <r>   -38.3458     0.0000    24.0000 </r>
       <r>   -38.1403     0.0000    24.0000 </r>
       <r>   -37.9347     0.0000    24.0000 </r>
       <r>   -37.7291     0.0000    24.0000 </r>
       <r>   -37.5235     0.0000    24.0000 </r>
       <r>   -37.3179     0.0000    24.0000 </r>
       <r>   -37.1124     0.0000    24.0000 </r>
       <r>   -36.9068     0.0000    24.0000 </r>
       <r>   -36.7012     0.0000    24.0000 </r>
       <r>   -36.4956     0.0000    24.0000 </r>
       <r>   -36.2900     0.0000    24.0000 </r>
       <r>   -36.0845     0.0000    24.0000 </r>
       <r>   -35.8789     0.0000    24.0000 </r>
       <r>   -35.6733     0.0000    24.0000 </r>
       <r>   -35.4677     0.0000    24.0000 </r>
       <r>   -35.2621     0.0000    24.0000 </r>
       <r>   -35.0566     0.0000    24.0000 </r>
       <r>   -34.8510     0.0000    24.0000 </r>
       <r>   -34.6454     0.0000    24.0000 </r>
       <r>   -34.4398     0.0000    24.0000 </r>
       <r>   -34.2342     0.0000    24.0000 </r>
       <r>   -34.0287     0.0000    24.0000 </r>
       <r>   -33.8231     0.0000    24.0000 </r>
       <r>   -33.6175     0.0000    24.0000 </r>
       <r>   -33.4119     0.0000    24.0000 </r>
       <r>   -33.2063     0.0000    24.0000 </r>
       <r>   -33.0008     0.0000    24.0000 </r>
       <r>   -32.7952     0.0000    24.0000 </r>
       <r>   -32.5896     0.0000    24.0000 </r>
       <r>   -32.3840     0.0000    24.0000 </r>
       <r>   -32.1785     0.0000    24.0000 </r>
       <r>   -31.9729     0.0000    24.0000 </r>
       <r>   -31.7673     0.0000    24.0000 </r>
       <r>   -31.5617     0.0000    24.0000 </r>
       <r>   -31.3561     0.0000    24.0000 </r>
       <r>   -31.1506     0.0000    24.0000 </r>
       <r>   -30.9450     0.0000    24.0000 </r>
       <r>   -30.7394     0.0000    24.0000 </r>
       <r>   -30.5338     0.0000    24.0000 </r>
       <r>   -30.3282     0.0000    24.0000 </r>
       <r>   -30.1227     0.0000    24.0000 </r>
       <r>   -29.9171     0.0000    24.0000 </r>
       <r>   -29.7115     0.0000    24.0000 </r>
       <r>   -29.5059     0.0000    24.0000 </r>
       <r>   -29.3003     0.0000    24.0000 </r>
       <r>   -29.0948     0.0000    24.0000 </r>
       <r>   -28.8892     0.0000    24.0000 </r>
       <r>   -28.6836     0.0000    24.0000 </r>
       <r>   -28.4780     0.0000    24.0000 </r>
       <r>   -28.2724     0.0000    24.0000 </r>
       <r>   -28.0669     0.0000    24.0000 </r>
       <r>   -27.8613     0.0000    24.0000 </r>
       <r>   -27.6557     0.0000    24.0000 </r>
       <r>   -27.4501     0.0000    24.0000 </r>
       <r>   -27.2445     0.0000    24.0000 </r>
       <r>   -27.0390     0.0000    24.0000 </r>
       <r>   -26.8334     0.0000    24.0000 </r>
       <r>   -26.6278     0.0000    24.0000 </r>
       <r>   -26.4222     0.0000    24.0000 </r>
       <r>   -26.2166     0.0000    24.0000 </r>
       <r>   -26.0111     0.0000    24.0000 </r>
       <r>   -25.8055     0.0000    24.0000 </r>
       <r>   -25.5999     0.0000    24.0000 </r>
       <r>   -25.3943     0.0000    24.0000 </r>
       <r>   -25.1888     0.0000    24.0000 </r>
       <r>   -24.9832    -0.0000    24.0000 </r>
       <r>   -24.7776    -0.0000    24.0000 </r>
       <r>   -24.5720    -0.0000    24.0000 </r>
       <r>   -24.3664    -0.0000    24.0000 </r>
       <r>   -24.1609    -0.0000    24.0000 </r>
       <r>   -23.9553    -0.0132    23.9973 </r>
       <r>   -23.7497    -0.5115    23.8921 </r>
       <r>   -23.5441     5.5252    25.0280 </r>
       <r>   -23.3385    78.1401    41.0920 </r>
       <r>   -23.1330    58.6812    53.1556 </r>
       <r>   -22.9274     4.5161    54.0840 </r>
       <r>   -22.7218    -0.3969    54.0024 </r>
       <r>   -22.5162    -0.0118    54.0000 </r>
       <r>   -22.3106    -0.0000    54.0000 </r>
       <r>   -22.1051    -0.0000    54.0000 </r>
       <r>   -21.8995     0.0000    54.0000 </r>
       <r>   -21.6939     0.0000    54.0000 </r>
       <r>   -21.4883     0.0000    54.0000 </r>
       <r>   -21.2827     0.0000    54.0000 </r>
       <r>   -21.0772    -0.0000    54.0000 </r>
       <r>   -20.8716    -0.0000    54.0000 </r>
       <r>   -20.6660    -0.0000    54.0000 </r>
       <r>   -20.4604    -0.0000    54.0000 </r>
       <r>   -20.2548    -0.0000    54.0000 </r>
       <r>   -20.0493    -0.0226    53.9954 </r>
       <r>   -19.8437    -0.4454    53.9038 </r>
       <r>   -19.6381     9.2544    55.8063 </r>
       <r>   -19.4325    38.4779    63.7166 </r>
       <r>   -19.2269   104.7028    85.2413 </r>
       <r>   -19.0214    47.5019    95.0067 </r>
       <r>   -18.8158     5.2020    96.0762 </r>
       <r>   -18.6102    -0.3558    96.0030 </r>
       <r>   -18.4046    -0.0147    96.0000 </r>
       <r>   -18.1991    -0.0000    96.0000 </r>
       <r>   -17.9935    -0.0000    96.0000 </r>
       <r>   -17.7879     0.0000    96.0000 </r>
       <r>   -17.5823     0.0000    96.0000 </r>
       <r>   -17.3767     0.0000    96.0000 </r>
       <r>   -17.1712     0.0000    96.0000 </r>
       <r>   -16.9656     0.0000    96.0000 </r>
       <r>   -16.7600     0.0000    96.0000 </r>
       <r>   -16.5544     0.0000    96.0000 </r>
       <r>   -16.3488     0.0000    96.0000 </r>
       <r>   -16.1433     0.0000    96.0000 </r>
       <r>   -15.9377     0.0000    96.0000 </r>
       <r>   -15.7321     0.0000    96.0000 </r>
       <r>   -15.5265     0.0000    96.0000 </r>
       <r>   -15.3209     0.0000    96.0000 </r>
       <r>   -15.1154     0.0000    96.0000 </r>
       <r>   -14.9098     0.0000    96.0000 </r>
       <r>   -14.7042     0.0000    96.0000 </r>
       <r>   -14.4986     0.0000    96.0000 </r>
       <r>   -14.2930     0.0000    96.0000 </r>
       <r>   -14.0875     0.0000    96.0000 </r>
       <r>   -13.8819     0.0000    96.0000 </r>
       <r>   -13.6763     0.0000    96.0000 </r>
       <r>   -13.4707     0.0000    96.0000 </r>
       <r>   -13.2651     0.0000    96.0000 </r>
       <r>   -13.0596     0.0000    96.0000 </r>
       <r>   -12.8540     0.0000    96.0000 </r>
       <r>   -12.6484     0.0000    96.0000 </r>
       <r>   -12.4428     0.0000    96.0000 </r>
       <r>   -12.2372     0.0000    96.0000 </r>
       <r>   -12.0317     0.0000    96.0000 </r>
       <r>   -11.8261     0.0000    96.0000 </r>
       <r>   -11.6205     0.0000    96.0000 </r>
       <r>   -11.4149     0.0000    96.0000 </r>
       <r>   -11.2094     0.0000    96.0000 </r>
       <r>   -11.0038     0.0000    96.0000 </r>
       <r>   -10.7982     0.0000    96.0000 </r>
       <r>   -10.5926     0.0000    96.0000 </r>
       <r>   -10.3870     0.0000    96.0000 </r>
       <r>   -10.1815     0.0000    96.0000 </r>
       <r>    -9.9759     0.0000    96.0000 </r>
       <r>    -9.7703     0.0000    96.0000 </r>
       <r>    -9.5647     0.0000    96.0000 </r>
       <r>    -9.3591     0.0000    96.0000 </r>
       <r>    -9.1536     0.0000    96.0000 </r>
       <r>    -8.9480     0.0000    96.0000 </r>
       <r>    -8.7424     0.0000    96.0000 </r>
       <r>    -8.5368     0.0000    96.0000 </r>
       <r>    -8.3312     0.0000    96.0000 </r>
       <r>    -8.1257     0.0000    96.0000 </r>
       <r>    -7.9201     0.0000    96.0000 </r>
       <r>    -7.7145     0.0000    96.0000 </r>
       <r>    -7.5089     0.0000    96.0000 </r>
       <r>    -7.3033     0.0000    96.0000 </r>
       <r>    -7.0978     0.0000    96.0000 </r>
       <r>    -6.8922     0.0000    96.0000 </r>
       <r>    -6.6866     0.0000    96.0000 </r>
       <r>    -6.4810     0.0000    96.0000 </r>
       <r>    -6.2754     0.0000    96.0000 </r>
       <r>    -6.0699     0.0000    96.0000 </r>
       <r>    -5.8643     0.0000    96.0000 </r>
       <r>    -5.6587     0.0000    96.0000 </r>
       <r>    -5.4531     0.0000    96.0000 </r>
       <r>    -5.2476     0.0000    96.0000 </r>
       <r>    -5.0420     0.0000    96.0000 </r>
       <r>    -4.8364     0.0000    96.0000 </r>
       <r>    -4.6308     0.0000    96.0000 </r>
       <r>    -4.4252     0.0000    96.0000 </r>
       <r>    -4.2197     0.0000    96.0000 </r>
       <r>    -4.0141     0.0000    96.0000 </r>
       <r>    -3.8085     0.0000    96.0000 </r>
       <r>    -3.6029     0.0000    96.0000 </r>
       <r>    -3.3973     0.0000    96.0000 </r>
       <r>    -3.1918     0.0000    96.0000 </r>
       <r>    -2.9862     0.0000    96.0000 </r>
       <r>    -2.7806     0.0000    96.0000 </r>
       <r>    -2.5750     0.0000    96.0000 </r>
       <r>    -2.3694     0.0000    96.0000 </r>
       <r>    -2.1639     0.0000    96.0000 </r>
       <r>    -1.9583     0.0000    96.0000 </r>
       <r>    -1.7527     0.0000    96.0000 </r>
       <r>    -1.5471     0.0000    96.0000 </r>
       <r>    -1.3415    -0.0000    96.0000 </r>
       <r>    -1.1360    -0.0000    96.0000 </r>
       <r>    -0.9304    -0.0000    96.0000 </r>
       <r>    -0.7248    -0.0000    96.0000 </r>
       <r>    -0.5192    -0.0000    96.0000 </r>
       <r>    -0.3136    -0.0087    95.9982 </r>
       <r>    -0.1081     0.1029    96.0193 </r>
       <r>     0.0975     0.5650    96.1355 </r>
       <r>     0.3031     1.4094    96.4252 </r>
       <r>     0.5087     1.8798    96.8117 </r>
       <r>     0.7143     2.6468    97.3558 </r>
       <r>     0.9198     4.3817    98.2566 </r>
       <r>     1.1254     1.8781    98.6427 </r>
       <r>     1.3310     4.5012    99.5681 </r>
       <r>     1.5366     3.1911   100.2241 </r>
       <r>     1.7421     4.0428   101.0552 </r>
       <r>     1.9477     3.9845   101.8743 </r>
       <r>     2.1533     8.0474   103.5287 </r>
       <r>     2.3589     7.8285   105.1381 </r>
       <r>     2.5645     8.1984   106.8235 </r>
       <r>     2.7700     7.1919   108.3020 </r>
       <r>     2.9756     9.4132   110.2372 </r>
       <r>     3.1812    17.0711   113.7466 </r>
       <r>     3.3868    19.9971   117.8576 </r>
       <r>     3.5924    21.1668   122.2091 </r>
       <r>     3.7979    26.5493   127.6671 </r>
       <r>     4.0035    30.6083   133.9595 </r>
       <r>     4.2091    32.9054   140.7242 </r>
       <r>     4.4147    38.4389   148.6264 </r>
       <r>     4.6203    35.0843   155.8390 </r>
       <r>     4.8258    32.8069   162.5835 </r>
       <r>     5.0314    33.7046   169.5124 </r>
       <r>     5.2370    28.2156   175.3130 </r>
       <r>     5.4426    14.7014   178.3353 </r>
       <r>     5.6482    44.3329   187.4492 </r>
       <r>     5.8537    63.0116   200.4031 </r>
       <r>     6.0593    56.6321   212.0455 </r>
       <r>     6.2649    56.2672   223.6129 </r>
       <r>     6.4705    55.0484   234.9297 </r>
       <r>     6.6761    56.6902   246.5840 </r>
       <r>     6.8816    50.8284   257.0333 </r>
       <r>     7.0872    46.6433   266.6222 </r>
       <r>     7.2928    48.5293   276.5988 </r>
       <r>     7.4984    44.4053   285.7276 </r>
       <r>     7.7040    34.6624   292.8535 </r>
       <r>     7.9095    27.6010   298.5277 </r>
       <r>     8.1151    22.6090   303.1757 </r>
       <r>     8.3207    17.7531   306.8253 </r>
       <r>     8.5263     9.8179   308.8437 </r>
       <r>     8.7318    11.5561   311.2194 </r>
       <r>     8.9374     4.0185   312.0455 </r>
       <r>     9.1430    -0.2153   312.0013 </r>
       <r>     9.3486    -0.0062   312.0000 </r>
       <r>     9.5542    -0.0000   312.0000 </r>
       <r>     9.7597    -0.0000   312.0000 </r>
       <r>     9.9653     0.0000   312.0000 </r>
       <r>    10.1709     0.0000   312.0000 </r>
       <r>    10.3765     0.0000   312.0000 </r>
       <r>    10.5821     0.0000   312.0000 </r>
       <r>    10.7876     0.0000   312.0000 </r>
       <r>    10.9932     0.0000   312.0000 </r>
       <r>    11.1988     0.0000   312.0000 </r>
       <r>    11.4044     0.0000   312.0000 </r>
       <r>    11.6100     0.0000   312.0000 </r>
      </set>
     </set>
    </array>
   </total>
  </dos>
 </calculation>
 <structure name="finalpos" >
  <crystal>
   <varray name="basis" >
    <v>       6.95406197      -0.01713946      -0.01095829 </v>
    <v>      -0.02485686      10.26668646       0.02551596 </v>
    <v>      -0.01554312       0.02500989      10.21485095 </v>
   </varray>
   <i name="volume">    729.28053541 </i>
   <varray name="rec_basis" >
    <v>       0.14380205       0.00034762       0.00021796 </v>
    <v>       0.00023969       0.09740358      -0.00023812 </v>
    <v>       0.00015367      -0.00024293       0.09789751 </v>
   </varray>
  </crystal>
  <varray name="positions" >
   <v>       0.25787001       0.16420037       0.15914688 </v>
   <v>       0.97654936       0.67867868       0.00232211 </v>
   <v>       0.73929459       0.18362828       0.83356138 </v>
   <v>       0.74513695       0.83513006       0.16629370 </v>
   <v>       0.26079031       0.16930689       0.83100196 </v>
   <v>       0.76232576       0.49143726       0.17209040 </v>
   <v>       0.25169538       0.82836369       0.84460664 </v>
   <v>       0.72431061       0.82770505       0.50790411 </v>
   <v>       0.74726853       0.49163945       0.83326808 </v>
   <v>       0.22861366       0.50761655       0.15764991 </v>
   <v>       0.00924930       0.68280672       0.33696446 </v>
   <v>       0.76588551       0.17922731       0.49220323 </v>
   <v>       0.46263827       0.33420907       0.33368229 </v>
   <v>       0.01395463       0.99510999       0.33093443 </v>
   <v>       0.74603973       0.17926867       0.17458708 </v>
   <v>       0.51584747       0.66679132       0.00641875 </v>
   <v>       0.50585046       0.01579467       0.67935463 </v>
   <v>       0.74305379       0.49606702       0.49457842 </v>
   <v>       0.98897630       0.00036638       0.00076118 </v>
   <v>       0.01714035       0.31854332       0.98826227 </v>
   <v>       0.00945193       0.65947510       0.66307954 </v>
   <v>       0.48481200       0.00014588       0.32324938 </v>
   <v>       0.99244453       0.00698751       0.67306647 </v>
   <v>       0.28697062       0.82434219       0.50718944 </v>
   <v>       0.23154156       0.17483317       0.50890566 </v>
   <v>       0.03716701       0.33177163       0.34026922 </v>
   <v>       0.01697842       0.33747539       0.66885284 </v>
   <v>       0.25949022       0.49525913       0.82941983 </v>
   <v>       0.25208484       0.82652767       0.15075292 </v>
   <v>       0.48657588       0.32841274       0.66733387 </v>
   <v>       0.48517156       0.32508939       0.99349299 </v>
   <v>       0.26181778       0.50055991       0.50709613 </v>
   <v>       0.49391970       0.66700408       0.31396161 </v>
   <v>       0.50538372      -0.00014198       0.99874227 </v>
   <v>       0.49297676       0.65272884       0.68034934 </v>
   <v>       0.74071352       0.82364559       0.82864354 </v>
  </varray>
 </structure>
</modeling>
