       N       E                     dE             d eps       ncg     rms          rms(c)
DAV:   1     0.192720682745E+04    0.19272E+04   -0.11345E+05  5496   0.106E+03
DAV:   2    -0.925454915735E+02   -0.20198E+04   -0.19519E+04  5760   0.393E+02
DAV:   3    -0.348947781699E+03   -0.25640E+03   -0.24385E+03  8680   0.975E+01
DAV:   4    -0.379036747924E+03   -0.30089E+02   -0.28613E+02  8408   0.307E+01
DAV:   5    -0.382004526964E+03   -0.29678E+01   -0.29078E+01  8296   0.982E+00    0.656E+01
RMM:   6    -0.371408736281E+03    0.10596E+02   -0.23187E+01  6960   0.101E+01    0.312E+01
RMM:   7    -0.372679421096E+03   -0.12707E+01   -0.25347E+01  7495   0.844E+00    0.113E+01
RMM:   8    -0.367357812818E+03    0.53216E+01   -0.64106E+00  7634   0.387E+00    0.464E+00
RMM:   9    -0.367031035818E+03    0.32678E+00   -0.23352E+00  7706   0.208E+00    0.304E+00
RMM:  10    -0.367006386392E+03    0.24649E-01   -0.54379E-01  7647   0.116E+00    0.164E+00
RMM:  11    -0.366962217800E+03    0.44169E-01   -0.16182E-01  7631   0.657E-01    0.781E-01
RMM:  12    -0.366954866233E+03    0.73516E-02   -0.62612E-02  7716   0.368E-01    0.446E-01
RMM:  13    -0.366953464312E+03    0.14019E-02   -0.16879E-02  7728   0.178E-01    0.255E-01
RMM:  14    -0.366953515757E+03   -0.51445E-04   -0.67902E-03  7890   0.108E-01    0.144E-01
RMM:  15    -0.366953593824E+03   -0.78067E-04   -0.29992E-03  7737   0.638E-02    0.627E-02
RMM:  16    -0.366953617699E+03   -0.23874E-04   -0.13096E-03  6935   0.383E-02    0.373E-02
RMM:  17    -0.366953630719E+03   -0.13020E-04   -0.56096E-04  6436   0.266E-02    0.188E-02
RMM:  18    -0.366953640786E+03   -0.10067E-04   -0.23735E-04  5512   0.177E-02    0.960E-03
RMM:  19    -0.366953646156E+03   -0.53702E-05   -0.11383E-04  4655   0.134E-02    0.590E-03
RMM:  20    -0.366953647058E+03   -0.90218E-06   -0.45083E-05  3887   0.105E-02
   1 F= -.36695365E+03 E0= -.36695460E+03  d E =-.366954E+03
       N       E                     dE             d eps       ncg     rms          rms(c)
DAV:   1    -0.366954729294E+03   -0.10831E-02   -0.87973E-02  5548   0.830E-01    0.563E-02
RMM:   2    -0.366955059452E+03   -0.33016E-03   -0.38658E-03  6578   0.166E-01    0.294E-02
RMM:   3    -0.366955047576E+03    0.11876E-04   -0.32509E-04  6540   0.507E-02    0.234E-02
RMM:   4    -0.366955047520E+03    0.56392E-07   -0.10301E-04  5149   0.142E-02    0.154E-02
RMM:   5    -0.366955046741E+03    0.77905E-06   -0.26313E-05  3415   0.980E-03
   2 F= -.36695505E+03 E0= -.36695597E+03  d E =-.139968E-02
       N       E                     dE             d eps       ncg     rms          rms(c)
DAV:   1    -0.366955789055E+03   -0.74154E-03   -0.78968E-01  5376   0.249E+00    0.170E-01
RMM:   2    -0.366958571455E+03   -0.27824E-02   -0.32793E-02  6648   0.490E-01    0.881E-02
RMM:   3    -0.366958508751E+03    0.62704E-04   -0.31576E-03  7460   0.143E-01    0.710E-02
RMM:   4    -0.366958485582E+03    0.23169E-04   -0.69194E-04  8016   0.376E-02    0.477E-02
RMM:   5    -0.366958484369E+03    0.12126E-05   -0.23577E-04  7185   0.253E-02    0.241E-02
RMM:   6    -0.366958482400E+03    0.19692E-05   -0.92783E-05  5896   0.165E-02
   3 F= -.36695848E+03 E0= -.36695930E+03  d E =-.483534E-02
       N       E                     dE             d eps       ncg     rms          rms(c)
DAV:   1    -0.366951375317E+03    0.71091E-02   -0.31637E+00  5168   0.499E+00    0.341E-01
RMM:   2    -0.366962338900E+03   -0.10964E-01   -0.12963E-01  6581   0.983E-01    0.174E-01
RMM:   3    -0.366962089601E+03    0.24930E-03   -0.12519E-02  7502   0.284E-01    0.141E-01
RMM:   4    -0.366962009671E+03    0.79930E-04   -0.26742E-03  8633   0.748E-02    0.960E-02
RMM:   5    -0.366962003651E+03    0.60203E-05   -0.92521E-04  8058   0.510E-02    0.499E-02
RMM:   6    -0.366961995930E+03    0.77211E-05   -0.36824E-04  7512   0.323E-02    0.217E-02
RMM:   7    -0.366961996931E+03   -0.10014E-05   -0.11349E-04  5531   0.169E-02    0.135E-02
RMM:   8    -0.366962000062E+03   -0.31315E-05   -0.67028E-05  4384   0.137E-02
   4 F= -.36696200E+03 E0= -.36696264E+03  d E =-.835300E-02
       N       E                     dE             d eps       ncg     rms          rms(c)
DAV:   1    -0.366961509005E+03    0.48793E-03   -0.19717E-01  5376   0.124E+00    0.843E-02
RMM:   2    -0.366962209301E+03   -0.70030E-03   -0.82229E-03  6789   0.246E-01    0.443E-02
RMM:   3    -0.366962196900E+03    0.12401E-04   -0.80530E-04  7019   0.702E-02    0.352E-02
RMM:   4    -0.366962198058E+03   -0.11586E-05   -0.23032E-04  6853   0.211E-02    0.237E-02
RMM:   5    -0.366962197650E+03    0.40816E-06   -0.59616E-05  4537   0.138E-02
   5 F= -.36696220E+03 E0= -.36696280E+03  d E =-.855059E-02
       N       E                     dE             d eps       ncg     rms          rms(c)
DAV:   1    -0.366963731275E+03   -0.15332E-02   -0.30762E-01  5232   0.168E+00    0.335E-01
RMM:   2    -0.366963827942E+03   -0.96666E-04   -0.18057E-02  6988   0.367E-01    0.133E-01
RMM:   3    -0.366963553256E+03    0.27469E-03   -0.25060E-03  7544   0.116E-01    0.997E-02
RMM:   4    -0.366963349583E+03    0.20367E-03   -0.76228E-04  7570   0.488E-02    0.573E-02
RMM:   5    -0.366963314511E+03    0.35072E-04   -0.29239E-04  7488   0.300E-02    0.406E-02
RMM:   6    -0.366963322034E+03   -0.75229E-05   -0.10908E-04  6033   0.179E-02    0.231E-02
RMM:   7    -0.366963328135E+03   -0.61012E-05   -0.52613E-05  4291   0.136E-02
   6 F= -.36696333E+03 E0= -.36696387E+03  d E =-.113048E-02
       N       E                     dE             d eps       ncg     rms          rms(c)
DAV:   1    -0.366964042828E+03   -0.72079E-03   -0.32779E-01  5144   0.174E+00    0.344E-01
RMM:   2    -0.366964134629E+03   -0.91801E-04   -0.19080E-02  7015   0.377E-01    0.136E-01
RMM:   3    -0.366963848813E+03    0.28582E-03   -0.26107E-03  7552   0.117E-01    0.101E-01
RMM:   4    -0.366963643482E+03    0.20533E-03   -0.81939E-04  7597   0.500E-02    0.578E-02
RMM:   5    -0.366963612858E+03    0.30625E-04   -0.31937E-04  7634   0.310E-02    0.413E-02
RMM:   6    -0.366963625152E+03   -0.12294E-04   -0.11825E-04  5927   0.185E-02    0.240E-02
RMM:   7    -0.366963634006E+03   -0.88536E-05   -0.60429E-05  4436   0.144E-02
   7 F= -.36696363E+03 E0= -.36696412E+03  d E =-.143636E-02
       N       E                     dE             d eps       ncg     rms          rms(c)
DAV:   1    -0.366964285897E+03   -0.66075E-03   -0.84611E-02  5296   0.864E-01    0.159E-01
RMM:   2    -0.366964427178E+03   -0.14128E-03   -0.48408E-03  7448   0.185E-01    0.739E-02
RMM:   3    -0.366964312353E+03    0.11482E-03   -0.74935E-04  7594   0.560E-02    0.535E-02
RMM:   4    -0.366964259371E+03    0.52982E-04   -0.21137E-04  7071   0.251E-02    0.314E-02
RMM:   5    -0.366964245183E+03    0.14188E-04   -0.82049E-05  6134   0.160E-02    0.203E-02
RMM:   6    -0.366964241382E+03    0.38017E-05   -0.26033E-05  3290   0.103E-02
   8 F= -.36696424E+03 E0= -.36696473E+03  d E =-.607376E-03
       N       E                     dE             d eps       ncg     rms          rms(c)
DAV:   1    -0.366965499693E+03   -0.12545E-02   -0.76053E-01  5080   0.259E+00    0.461E-01
RMM:   2    -0.366966569912E+03   -0.10702E-02   -0.41712E-02  7344   0.547E-01    0.209E-01
RMM:   3    -0.366965484256E+03    0.10857E-02   -0.58290E-03  7599   0.163E-01    0.147E-01
RMM:   4    -0.366965050093E+03    0.43416E-03   -0.16362E-03  7569   0.707E-02    0.856E-02
RMM:   5    -0.366964945635E+03    0.10446E-03   -0.65061E-04  7811   0.462E-02    0.561E-02
RMM:   6    -0.366964939887E+03    0.57473E-05   -0.26876E-04  7106   0.270E-02    0.353E-02
RMM:   7    -0.366964930850E+03    0.90380E-05   -0.11859E-04  5887   0.184E-02    0.205E-02
RMM:   8    -0.366964928776E+03    0.20734E-05   -0.59460E-05  4578   0.145E-02
   9 F= -.36696493E+03 E0= -.36696544E+03  d E =-.129477E-02
       N       E                     dE             d eps       ncg     rms          rms(c)
DAV:   1    -0.366965146989E+03   -0.21614E-03   -0.12852E-02  5392   0.350E-01    0.669E-02
RMM:   2    -0.366965142064E+03    0.49242E-05   -0.78297E-04  7237   0.755E-02    0.280E-02
RMM:   3    -0.366965125450E+03    0.16614E-04   -0.10712E-04  6230   0.235E-02    0.208E-02
RMM:   4    -0.366965114242E+03    0.11208E-04   -0.32435E-05  4104   0.133E-02    0.112E-02
RMM:   5    -0.366965111245E+03    0.29969E-05   -0.12667E-05  2850   0.958E-03
  10 F= -.36696511E+03 E0= -.36696565E+03  d E =-.182469E-03
       N       E                     dE             d eps       ncg     rms          rms(c)
DAV:   1    -0.366965694572E+03   -0.58033E-03   -0.11516E-01  5144   0.105E+00    0.206E-01
RMM:   2    -0.366965644946E+03    0.49626E-04   -0.72690E-03  7415   0.227E-01    0.889E-02
RMM:   3    -0.366965520828E+03    0.12412E-03   -0.11472E-03  7658   0.690E-02    0.664E-02
RMM:   4    -0.366965419957E+03    0.10087E-03   -0.35969E-04  7481   0.342E-02    0.352E-02
RMM:   5    -0.366965400581E+03    0.19376E-04   -0.14639E-04  6664   0.207E-02    0.235E-02
RMM:   6    -0.366965396794E+03    0.37863E-05   -0.45519E-05  4209   0.126E-02
  11 F= -.36696540E+03 E0= -.36696602E+03  d E =-.468018E-03
       N       E                     dE             d eps       ncg     rms          rms(c)
DAV:   1    -0.366965662568E+03   -0.26199E-03   -0.14938E-02  5568   0.395E-01    0.114E-01
RMM:   2    -0.366965606397E+03    0.56171E-04   -0.13471E-03  7545   0.100E-01    0.437E-02
RMM:   3    -0.366965580503E+03    0.25893E-04   -0.27737E-04  7066   0.311E-02    0.354E-02
RMM:   4    -0.366965550507E+03    0.29996E-04   -0.82829E-05  6611   0.189E-02    0.186E-02
RMM:   5    -0.366965546465E+03    0.40416E-05   -0.28470E-05  3336   0.118E-02
  12 F= -.36696555E+03 E0= -.36696620E+03  d E =-.149671E-03
       N       E                     dE             d eps       ncg     rms          rms(c)
DAV:   1    -0.366966386230E+03   -0.83572E-03   -0.10010E-01  5136   0.103E+00    0.279E-01
RMM:   2    -0.366966073079E+03    0.31315E-03   -0.83605E-03  7499   0.249E-01    0.105E-01
RMM:   3    -0.366965857199E+03    0.21588E-03   -0.14431E-03  7629   0.731E-02    0.840E-02
RMM:   4    -0.366965681123E+03    0.17608E-03   -0.40974E-04  7543   0.398E-02    0.463E-02
RMM:   5    -0.366965657134E+03    0.23989E-04   -0.16101E-04  7150   0.240E-02    0.330E-02
RMM:   6    -0.366965665889E+03   -0.87544E-05   -0.63253E-05  4745   0.148E-02
  13 F= -.36696567E+03 E0= -.36696636E+03  d E =-.269094E-03
       N       E                     dE             d eps       ncg     rms          rms(c)
DAV:   1    -0.366965690236E+03   -0.33102E-04   -0.12018E-03  6104   0.109E-01    0.373E-02
RMM:   2    -0.366965696349E+03   -0.61133E-05   -0.13197E-04  6917   0.281E-02    0.175E-02
RMM:   3    -0.366965692542E+03    0.38078E-05   -0.25920E-05  3569   0.104E-02
  14 F= -.36696569E+03 E0= -.36696638E+03  d E =-.295747E-03
       N       E                     dE             d eps       ncg     rms          rms(c)
DAV:   1    -0.366965842879E+03   -0.14653E-03   -0.20086E-02  5168   0.458E-01    0.129E-01
RMM:   2    -0.366965778401E+03    0.64478E-04   -0.17554E-03  7500   0.113E-01    0.499E-02
RMM:   3    -0.366965723784E+03    0.54618E-04   -0.31031E-04  7247   0.335E-02    0.399E-02
RMM:   4    -0.366965681963E+03    0.41821E-04   -0.83482E-05  6499   0.189E-02    0.224E-02
RMM:   5    -0.366965671914E+03    0.10049E-04   -0.24278E-05  3051   0.121E-02    0.172E-02
RMM:   6    -0.366965669170E+03    0.27440E-05   -0.11272E-05  2755   0.960E-03
  15 F= -.36696567E+03 E0= -.36696634E+03  d E =-.272376E-03
       N       E                     dE             d eps       ncg     rms          rms(c)
DAV:   1    -0.366965749823E+03   -0.77909E-04   -0.71906E-03  5440   0.275E-01    0.787E-02
RMM:   2    -0.366965718143E+03    0.31680E-04   -0.62144E-04  7376   0.697E-02    0.299E-02
RMM:   3    -0.366965701856E+03    0.16287E-04   -0.10882E-04  6347   0.212E-02    0.235E-02
RMM:   4    -0.366965686854E+03    0.15002E-04   -0.23116E-05  2709   0.138E-02    0.136E-02
RMM:   5    -0.366965685232E+03    0.16221E-05   -0.84389E-06  2599   0.107E-02
  16 F= -.36696569E+03 E0= -.36696637E+03  d E =-.288438E-03
       N       E                     dE             d eps       ncg     rms          rms(c)
DAV:   1    -0.366965692245E+03   -0.53908E-05   -0.71741E-04  5308   0.862E-02    0.215E-02
RMM:   2    -0.366965690172E+03    0.20735E-05   -0.59909E-05  6119   0.202E-02
  17 F= -.36696569E+03 E0= -.36696638E+03  d E =-.293377E-03
       N       E                     dE             d eps       ncg     rms          rms(c)
DAV:   1    -0.366965730719E+03   -0.38474E-04   -0.49184E-03  5152   0.201E-01    0.173E-02
RMM:   2    -0.366965747688E+03   -0.16969E-04   -0.18950E-04  6244   0.396E-02    0.100E-02
RMM:   3    -0.366965745656E+03    0.20321E-05   -0.16254E-05  3006   0.127E-02
  18 F= -.36696575E+03 E0= -.36696644E+03  d E =-.554841E-04
       N       E                     dE             d eps       ncg     rms          rms(c)
DAV:   1    -0.366965772458E+03   -0.24770E-04   -0.43992E-02  5056   0.600E-01    0.503E-02
RMM:   2    -0.366965898852E+03   -0.12639E-03   -0.16180E-03  7160   0.117E-01    0.289E-02
RMM:   3    -0.366965891230E+03    0.76228E-05   -0.20349E-04  6652   0.314E-02    0.226E-02
RMM:   4    -0.366965888135E+03    0.30951E-05   -0.46759E-05  4297   0.119E-02
  19 F= -.36696589E+03 E0= -.36696663E+03  d E =-.197963E-03
       N       E                     dE             d eps       ncg     rms          rms(c)
DAV:   1    -0.366965580955E+03    0.31027E-03   -0.17501E-01  5040   0.120E+00    0.978E-02
RMM:   2    -0.366966084848E+03   -0.50389E-03   -0.63585E-03  7088   0.234E-01    0.551E-02
RMM:   3    -0.366966065414E+03    0.19434E-04   -0.80744E-04  7451   0.618E-02    0.445E-02
RMM:   4    -0.366966053807E+03    0.11608E-04   -0.19102E-04  6509   0.204E-02    0.296E-02
RMM:   5    -0.366966050278E+03    0.35287E-05   -0.72678E-05  5464   0.140E-02
  20 F= -.36696605E+03 E0= -.36696687E+03  d E =-.360106E-03
       N       E                     dE             d eps       ncg     rms          rms(c)
DAV:   1    -0.366966013641E+03    0.40165E-04   -0.15595E-02  5264   0.357E-01    0.296E-02
RMM:   2    -0.366966062439E+03   -0.48797E-04   -0.60302E-04  7017   0.711E-02    0.183E-02
RMM:   3    -0.366966057532E+03    0.49063E-05   -0.77804E-05  4845   0.203E-02
  21 F= -.36696606E+03 E0= -.36696691E+03  d E =-.367361E-03
       N       E                     dE             d eps       ncg     rms          rms(c)
DAV:   1    -0.366966141944E+03   -0.79505E-04   -0.28149E-02  5056   0.470E-01    0.553E-02
RMM:   2    -0.366966169937E+03   -0.27993E-04   -0.10309E-03  7389   0.940E-02    0.294E-02
RMM:   3    -0.366966162388E+03    0.75489E-05   -0.16230E-04  6267   0.258E-02    0.197E-02
RMM:   4    -0.366966158537E+03    0.38510E-05   -0.72135E-05  5092   0.147E-02
  22 F= -.36696616E+03 E0= -.36696700E+03  d E =-.101005E-03
