<?xml version="1.0" encoding="ISO-8859-1"?>
<modeling>
 <generator>
  <i name="program" type="string">vasp </i>
  <i name="version" type="string">5.4.1  </i>
  <i name="subversion" type="string">05Feb16 (build Jan 29 2020 16:04:39) complex                          parallel </i>
  <i name="platform" type="string">IFC91_ompi </i>
  <i name="date" type="string">2020 06 15 </i>
  <i name="time" type="string">10:54:27 </i>
 </generator>
 <incar>
  <i type="string" name="SYSTEM"> automatically generated by mexm</i>
  <i type="int" name="ISTART">     0</i>
  <i type="string" name="PREC">accurate               ! avoid wrap aro</i>
  <i type="string" name="ALGO"> Fast                   ! blocked Davids</i>
  <i type="int" name="ISPIN">     1</i>
  <i type="int" name="ICHARG">     2</i>
  <i type="int" name="NELM">    70</i>
  <i type="int" name="IBRION">     2</i>
  <i name="EDIFF">      0.00001000</i>
  <i name="EDIFFG">     -0.01000000</i>
  <i type="int" name="NSW">   300</i>
  <i type="int" name="ISIF">     3</i>
  <i type="int" name="ISYM">     1</i>
  <i name="ENCUT">    300.00000000</i>
  <i name="POTIM">      0.15000000</i>
  <i type="string" name="LREAL"> Auto                  ! unpublished met</i>
  <i type="int" name="ISMEAR">     1</i>
  <i name="SIGMA">      0.15000000</i>
  <i type="logical" name="LWAVE"> F  </i>
  <i type="logical" name="LCHARG"> F  </i>
  <i type="logical" name="LVTOT"> F  </i>
  <v type="int" name="KPOINT_BSE">    -1     0     0     0</v>
  <i type="int" name="NELM">    70</i>
 </incar>
 <kpoints>
  <generation param="Gamma">
   <v type="int" name="divisions">       3        3        3 </v>
   <v name="usershift">      0.00000000       0.00000000       0.00000000 </v>
   <v name="genvec1">      0.33333333      -0.00000000       0.00000000 </v>
   <v name="genvec2">      0.00000000       0.33333333      -0.00000000 </v>
   <v name="genvec3">      0.00000000      -0.00000000       0.33333333 </v>
   <v name="shift">      0.00000000       0.00000000       0.00000000 </v>
  </generation>
  <varray name="kpointlist" >
   <v>       0.00000000       0.00000000       0.00000000 </v>
   <v>       0.33333333      -0.00000000       0.00000000 </v>
   <v>       0.00000000       0.33333333       0.00000000 </v>
   <v>       0.33333333       0.33333333       0.00000000 </v>
   <v>      -0.33333333       0.33333333       0.00000000 </v>
   <v>      -0.00000000      -0.00000000       0.33333333 </v>
   <v>       0.33333333       0.00000000       0.33333333 </v>
   <v>      -0.33333333      -0.00000000       0.33333333 </v>
   <v>      -0.00000000       0.33333333       0.33333333 </v>
   <v>       0.33333333       0.33333333       0.33333333 </v>
   <v>      -0.33333333       0.33333333       0.33333333 </v>
   <v>      -0.00000000      -0.33333333       0.33333333 </v>
   <v>       0.33333333      -0.33333333       0.33333333 </v>
   <v>      -0.33333333      -0.33333333       0.33333333 </v>
  </varray>
  <varray name="weights" >
   <v>       0.03703704 </v>
   <v>       0.07407407 </v>
   <v>       0.07407407 </v>
   <v>       0.07407407 </v>
   <v>       0.07407407 </v>
   <v>       0.07407407 </v>
   <v>       0.07407407 </v>
   <v>       0.07407407 </v>
   <v>       0.07407407 </v>
   <v>       0.07407407 </v>
   <v>       0.07407407 </v>
   <v>       0.07407407 </v>
   <v>       0.07407407 </v>
   <v>       0.07407407 </v>
  </varray>
 </kpoints>
 <parameters>
  <separator name="general" >
   <i type="string" name="SYSTEM">automatically generated by mexm</i>
   <i type="logical" name="LCOMPAT"> F  </i>
  </separator>
  <separator name="electronic" >
   <i type="string" name="PREC">accura</i>
   <i name="ENMAX">    300.00000000</i>
   <i name="ENAUG">    461.25700000</i>
   <i name="EDIFF">      0.00001000</i>
   <i type="int" name="IALGO">    68</i>
   <i type="int" name="IWAVPR">    11</i>
   <i type="int" name="NBANDS">   160</i>
   <i name="NELECT">    263.00000000</i>
   <i type="int" name="TURBO">     0</i>
   <i type="int" name="IRESTART">     0</i>
   <i type="int" name="NREBOOT">     0</i>
   <i type="int" name="NMIN">     0</i>
   <i name="EREF">      0.00000000</i>
   <separator name="electronic smearing" >
    <i type="int" name="ISMEAR">     1</i>
    <i name="SIGMA">      0.15000000</i>
    <i name="KSPACING">      0.50000000</i>
    <i type="logical" name="KGAMMA"> T  </i>
   </separator>
   <separator name="electronic projectors" >
    <i type="logical" name="LREAL"> T  </i>
    <v name="ROPT">     -0.00025000     -0.00025000     -0.00025000     -0.00025000</v>
    <i type="int" name="LMAXPAW">  -100</i>
    <i type="int" name="LMAXMIX">     2</i>
    <i type="logical" name="NLSPLINE"> F  </i>
   </separator>
   <separator name="electronic startup" >
    <i type="int" name="ISTART">     0</i>
    <i type="int" name="ICHARG">     2</i>
    <i type="int" name="INIWAV">     1</i>
   </separator>
   <separator name="electronic spin" >
    <i type="int" name="ISPIN">     1</i>
    <i type="logical" name="LNONCOLLINEAR"> F  </i>
    <v name="MAGMOM">      1.00000000      1.00000000      1.00000000      1.00000000      1.00000000      1.00000000      1.00000000      1.00000000      1.00000000      1.00000000      1.00000000      1.00000000      1.00000000      1.00000000      1.00000000      1.00000000      1.00000000      1.00000000      1.00000000      1.00000000
      1.00000000      1.00000000      1.00000000      1.00000000      1.00000000      1.00000000      1.00000000      1.00000000      1.00000000      1.00000000      1.00000000      1.00000000      1.00000000      1.00000000      1.00000000      1.00000000</v>
    <i name="NUPDOWN">     -1.00000000</i>
    <i type="logical" name="LSORBIT"> F  </i>
    <v name="SAXIS">      0.00000000      0.00000000      1.00000000</v>
    <i type="logical" name="LSPIRAL"> F  </i>
    <v name="QSPIRAL">      0.00000000      0.00000000      0.00000000</v>
    <i type="logical" name="LZEROZ"> F  </i>
   </separator>
   <separator name="electronic exchange-correlation" >
    <i type="logical" name="LASPH"> F  </i>
    <i type="logical" name="LMETAGGA"> F  </i>
   </separator>
   <separator name="electronic convergence" >
    <i type="int" name="NELM">    70</i>
    <i type="int" name="NELMDL">    -5</i>
    <i type="int" name="NELMIN">     2</i>
    <i name="ENINI">    300.00000000</i>
    <separator name="electronic convergence detail" >
     <i type="logical" name="LDIAG"> T  </i>
     <i type="logical" name="LSUBROT"> F  </i>
     <i name="WEIMIN">      0.00100000</i>
     <i name="EBREAK">      0.00000002</i>
     <i name="DEPER">      0.30000000</i>
     <i type="int" name="NRMM">     4</i>
     <i name="TIME">      0.40000000</i>
    </separator>
   </separator>
   <separator name="electronic mixer" >
    <i name="AMIX">      0.40000000</i>
    <i name="BMIX">      1.00000000</i>
    <i name="AMIN">      0.10000000</i>
    <i name="AMIX_MAG">      1.60000000</i>
    <i name="BMIX_MAG">      1.00000000</i>
    <separator name="electronic mixer details" >
     <i type="int" name="IMIX">     4</i>
     <i type="logical" name="MIXFIRST"> F  </i>
     <i type="int" name="MAXMIX">   -45</i>
     <i name="WC">    100.00000000</i>
     <i type="int" name="INIMIX">     1</i>
     <i type="int" name="MIXPRE">     1</i>
     <i type="int" name="MREMOVE">     5</i>
    </separator>
   </separator>
   <separator name="electronic dipolcorrection" >
    <i type="logical" name="LDIPOL"> F  </i>
    <i type="logical" name="LMONO"> F  </i>
    <i type="int" name="IDIPOL">     0</i>
    <i name="EPSILON">      1.00000000</i>
    <v name="DIPOL">   -100.00000000   -100.00000000   -100.00000000</v>
    <i name="EFIELD">      0.00000000</i>
   </separator>
  </separator>
  <separator name="grids" >
   <i type="int" name="NGX">    40</i>
   <i type="int" name="NGY">    60</i>
   <i type="int" name="NGZ">    60</i>
   <i type="int" name="NGXF">    80</i>
   <i type="int" name="NGYF">   120</i>
   <i type="int" name="NGZF">   120</i>
   <i type="logical" name="ADDGRID"> F  </i>
  </separator>
  <separator name="ionic" >
   <i type="int" name="NSW">   300</i>
   <i type="int" name="IBRION">     2</i>
   <i type="int" name="ISIF">     3</i>
   <i name="PSTRESS">      0.00000000</i>
   <i name="EDIFFG">     -0.01000000</i>
   <i type="int" name="NFREE">     1</i>
   <i name="POTIM">      0.15000000</i>
   <i name="SMASS">     -3.00000000</i>
   <i name="SCALEE">      1.00000000</i>
  </separator>
  <separator name="ionic md" >
   <i name="TEBEG">      0.00010000</i>
   <i name="TEEND">      0.00010000</i>
   <i type="int" name="NBLOCK">     1</i>
   <i type="int" name="KBLOCK">   300</i>
   <i type="int" name="NPACO">   256</i>
   <i name="APACO">     16.00000000</i>
  </separator>
  <separator name="symmetry" >
   <i type="int" name="ISYM">     1</i>
   <i name="SYMPREC">      0.00001000</i>
  </separator>
  <separator name="dos" >
   <i type="logical" name="LORBIT"> F  </i>
   <v name="RWIGS">     -1.00000000     -1.00000000     -1.00000000     -1.00000000</v>
   <i type="int" name="NEDOS">   301</i>
   <i name="EMIN">     10.00000000</i>
   <i name="EMAX">    -10.00000000</i>
   <i name="EFERMI">      0.00000000</i>
  </separator>
  <separator name="writing" >
   <i type="int" name="NWRITE">     2</i>
   <i type="logical" name="LWAVE"> F  </i>
   <i type="logical" name="LCHARG"> F  </i>
   <i type="logical" name="LPARD"> F  </i>
   <i type="logical" name="LVTOT"> F  </i>
   <i type="logical" name="LVHAR"> F  </i>
   <i type="logical" name="LELF"> F  </i>
   <i type="logical" name="LOPTICS"> F  </i>
   <v name="STM">      0.00000000      0.00000000      0.00000000      0.00000000      0.00000000      0.00000000      0.00000000</v>
  </separator>
  <separator name="performance" >
   <i type="int" name="NPAR">     4</i>
   <i type="int" name="NSIM">     4</i>
   <i type="int" name="NBLK">    -1</i>
   <i type="logical" name="LPLANE"> T  </i>
   <i type="logical" name="LSCALAPACK"> T  </i>
   <i type="logical" name="LSCAAWARE"> F  </i>
   <i type="logical" name="LSCALU"> F  </i>
   <i type="logical" name="LASYNC"> F  </i>
   <i type="logical" name="LORBITALREAL"> F  </i>
  </separator>
  <separator name="miscellaneous" >
   <i type="int" name="IDIOT">     3</i>
   <i type="logical" name="LMUSIC"> F  </i>
   <v name="POMASS">    180.94800000    178.49000000     92.91000000     91.22400000</v>
   <v name="DARWINR">      0.00000000      0.00000000      0.00000000      0.00000000</v>
   <v name="DARWINV">      1.00000000      1.00000000      1.00000000      1.00000000</v>
   <i type="logical" name="LCORR"> T  </i>
  </separator>
  <i type="logical" name="GGA_COMPAT"> T  </i>
  <i type="logical" name="LBERRY"> F  </i>
  <i type="int" name="ICORELEVEL">     0</i>
  <i type="logical" name="LDAU"> F  </i>
  <i type="int" name="I_CONSTRAINED_M">     0</i>
  <separator name="electronic exchange-correlation" >
   <i type="string" name="GGA">--</i>
   <i type="int" name="VOSKOWN">     0</i>
   <i type="logical" name="LHFCALC"> F  </i>
   <i type="string" name="PRECFOCK"></i>
   <i type="logical" name="LSYMGRAD"> F  </i>
   <i type="logical" name="LHFONE"> F  </i>
   <i type="logical" name="LRHFCALC"> F  </i>
   <i type="logical" name="LTHOMAS"> F  </i>
   <i type="logical" name="LMODELHF"> F  </i>
   <i name="ENCUT4O">     -1.00000000</i>
   <i type="int" name="EXXOEP">     0</i>
   <i type="int" name="FOURORBIT">     0</i>
   <i name="AEXX">      0.00000000</i>
   <i name="HFALPHA">      0.00000000</i>
   <i name="MCALPHA">      0.00000000</i>
   <i name="ALDAX">      1.00000000</i>
   <i name="AGGAX">      1.00000000</i>
   <i name="ALDAC">      1.00000000</i>
   <i name="AGGAC">      1.00000000</i>
   <i type="int" name="NKREDX">     1</i>
   <i type="int" name="NKREDY">     1</i>
   <i type="int" name="NKREDZ">     1</i>
   <i type="logical" name="SHIFTRED"> F  </i>
   <i type="logical" name="ODDONLY"> F  </i>
   <i type="logical" name="EVENONLY"> F  </i>
   <i type="int" name="LMAXFOCK">     0</i>
   <i type="int" name="NMAXFOCKAE">     0</i>
   <i type="logical" name="LFOCKAEDFT"> F  </i>
   <i name="HFSCREEN">      0.00000000</i>
   <i name="HFSCREENC">      0.00000000</i>
   <i type="int" name="NBANDSGWLOW">     0</i>
  </separator>
  <separator name="vdW DFT" >
   <i type="logical" name="LUSE_VDW"> F  </i>
   <i name="Zab_VDW">     -0.84910000</i>
   <i name="PARAM1">      0.12340000</i>
   <i name="PARAM2">      1.00000000</i>
   <i name="PARAM3">      0.00000000</i>
  </separator>
  <separator name="model GW" >
   <i type="int" name="MODEL_GW">     0</i>
   <i name="MODEL_EPS0">     12.24809568</i>
   <i name="MODEL_ALPHA">      1.00000000</i>
  </separator>
  <separator name="linear response parameters" >
   <i type="logical" name="LEPSILON"> F  </i>
   <i type="logical" name="LRPA"> F  </i>
   <i type="logical" name="LNABLA"> F  </i>
   <i type="logical" name="LVEL"> F  </i>
   <i type="int" name="KINTER">     0</i>
   <i name="CSHIFT">      0.10000000</i>
   <i name="OMEGAMAX">     -1.00000000</i>
   <i name="DEG_THRESHOLD">      0.00200000</i>
  </separator>
  <separator name="orbital magnetization" >
   <i type="logical" name="NUCIND"> F  </i>
   <v name="MAGPOS">      0.00000000      0.00000000      0.00000000</v>
   <i type="logical" name="LNICSALL"> T  </i>
   <i type="logical" name="ORBITALMAG"> F  </i>
   <i type="logical" name="LMAGBLOCH"> F  </i>
   <i type="logical" name="LCHIMAG"> F  </i>
   <i type="logical" name="LGAUGE"> T  </i>
   <i type="int" name="MAGATOM">     0</i>
   <v name="MAGDIPOL">      0.00000000      0.00000000      0.00000000</v>
   <v name="AVECCONST">      0.00000000      0.00000000      0.00000000</v>
  </separator>
  <separator name="response functions" >
   <i type="logical" name="LADDER"> F  </i>
   <i type="logical" name="LFXC"> F  </i>
   <i type="logical" name="LHARTREE"> T  </i>
   <i type="int" name="IBSE">     0</i>
   <v type="int" name="KPOINT">    -1     0     0     0</v>
   <i type="logical" name="LTCTE"> F  </i>
   <i type="logical" name="LTETE"> F  </i>
   <i type="logical" name="LTRIPLET"> F  </i>
   <i type="logical" name="LFXCEPS"> F  </i>
   <i type="logical" name="LFXHEG"> F  </i>
   <i type="int" name="NATURALO">     0</i>
   <i type="logical" name="L2ORDER"> F  </i>
   <i type="logical" name="LUSEW"> F  </i>
   <i name="ENCUTGW">     -2.00000000</i>
   <i name="ENCUTGWSOFT">     -2.00000000</i>
   <i name="ENCUTLF">     -1.00000000</i>
   <i type="int" name="LMAXMP2">    -1</i>
   <i name="SCISSOR">      0.00000000</i>
   <i type="int" name="NOMEGA">     0</i>
   <i type="int" name="NOMEGAR">     0</i>
   <i type="int" name="NBANDSGW">    -1</i>
   <i type="int" name="NBANDSO">    -1</i>
   <i type="int" name="NBANDSV">    -1</i>
   <i type="int" name="NELM">    70</i>
   <i type="int" name="NELMHF">     1</i>
   <i type="int" name="DIM">     3</i>
   <i type="int" name="ANTIRES">     0</i>
   <i name="OMEGAMAX">    -30.00000000</i>
   <i name="OMEGAMIN">    -30.00000000</i>
   <i name="OMEGATL">   -200.00000000</i>
   <i type="int" name="OMEGAGRID">     0</i>
   <i name="CSHIFT">     -0.10000000</i>
   <i type="logical" name="SELFENERGY"> F  </i>
   <i type="logical" name="LSPECTRAL"> F  </i>
   <i type="logical" name="LSPECTRALGW"> F  </i>
   <i type="logical" name="LSINGLES"> F  </i>
   <i type="logical" name="LFERMIGW"> F  </i>
   <i type="logical" name="ODDONLYGW"> F  </i>
   <i type="logical" name="EVENONLYGW"> F  </i>
   <i type="int" name="NKREDLFX">     1</i>
   <i type="int" name="NKREDLFY">     1</i>
   <i type="int" name="NKREDLFZ">     1</i>
   <i type="int" name="MAXMEM">  1800</i>
   <i type="int" name="TELESCOPE">     0</i>
   <i type="int" name="TAUPAR">     1</i>
   <i type="int" name="OMEGAPAR">    -1</i>
   <i name="LAMBDA">      1.00000000</i>
  </separator>
  <separator name="External order field" >
   <i name="OFIELD_KAPPA">      0.00000000</i>
   <v name="OFIELD_K">      0.00000000      0.00000000      0.00000000</v>
   <i name="OFIELD_Q6_NEAR">      0.00000000</i>
   <i name="OFIELD_Q6_FAR">      0.00000000</i>
   <i name="OFIELD_A">      0.00000000</i>
  </separator>
 </parameters>
 <atominfo>
  <atoms>      36 </atoms>
  <types>       4 </types>
  <array name="atoms" >
   <dimension dim="1">ion</dimension>
   <field type="string">element</field>
   <field type="int">atomtype</field>
   <set>
    <rc><c>Ta</c><c>   1</c></rc>
    <rc><c>Ta</c><c>   1</c></rc>
    <rc><c>Ta</c><c>   1</c></rc>
    <rc><c>Ta</c><c>   1</c></rc>
    <rc><c>Ta</c><c>   1</c></rc>
    <rc><c>Ta</c><c>   1</c></rc>
    <rc><c>Ta</c><c>   1</c></rc>
    <rc><c>Ta</c><c>   1</c></rc>
    <rc><c>Ta</c><c>   1</c></rc>
    <rc><c>Ta</c><c>   1</c></rc>
    <rc><c>Hf</c><c>   2</c></rc>
    <rc><c>Hf</c><c>   2</c></rc>
    <rc><c>Hf</c><c>   2</c></rc>
    <rc><c>Hf</c><c>   2</c></rc>
    <rc><c>Hf</c><c>   2</c></rc>
    <rc><c>Hf</c><c>   2</c></rc>
    <rc><c>Hf</c><c>   2</c></rc>
    <rc><c>Hf</c><c>   2</c></rc>
    <rc><c>Hf</c><c>   2</c></rc>
    <rc><c>Hf</c><c>   2</c></rc>
    <rc><c>Hf</c><c>   2</c></rc>
    <rc><c>Hf</c><c>   2</c></rc>
    <rc><c>Hf</c><c>   2</c></rc>
    <rc><c>Nb</c><c>   3</c></rc>
    <rc><c>Nb</c><c>   3</c></rc>
    <rc><c>Nb</c><c>   3</c></rc>
    <rc><c>Nb</c><c>   3</c></rc>
    <rc><c>Nb</c><c>   3</c></rc>
    <rc><c>Zr</c><c>   4</c></rc>
    <rc><c>Zr</c><c>   4</c></rc>
    <rc><c>Zr</c><c>   4</c></rc>
    <rc><c>Zr</c><c>   4</c></rc>
    <rc><c>Zr</c><c>   4</c></rc>
    <rc><c>Zr</c><c>   4</c></rc>
    <rc><c>Zr</c><c>   4</c></rc>
    <rc><c>Zr</c><c>   4</c></rc>
   </set>
  </array>
  <array name="atomtypes" >
   <dimension dim="1">type</dimension>
   <field type="int">atomspertype</field>
   <field type="string">element</field>
   <field>mass</field>
   <field>valence</field>
   <field type="string">pseudopotential</field>
   <set>
    <rc><c>  10</c><c>Ta</c><c>    180.94800000</c><c>      5.00000000</c><c>  PAW_PBE Ta 17Jan2003                  </c></rc>
    <rc><c>  13</c><c>Hf</c><c>    178.49000000</c><c>      4.00000000</c><c>  PAW_PBE Hf 20Jan2003                  </c></rc>
    <rc><c>   5</c><c>Nb</c><c>     92.91000000</c><c>     13.00000000</c><c>  PAW_PBE Nb_sv 25May2007               </c></rc>
    <rc><c>   8</c><c>Zr</c><c>     91.22400000</c><c>     12.00000000</c><c>  PAW_PBE Zr_sv 04Jan2005               </c></rc>
   </set>
  </array>
 </atominfo>
 <structure name="initialpos" >
  <crystal>
   <varray name="basis" >
    <v>       6.95940578      -0.00192050       0.00329727 </v>
    <v>      -0.00198036      10.33939484       0.02321559 </v>
    <v>       0.00506313       0.02299112      10.21303596 </v>
   </varray>
   <i name="volume">    734.88574110 </i>
   <varray name="rec_basis" >
    <v>       0.14369047       0.00002768      -0.00007130 </v>
    <v>       0.00002679       0.09671795      -0.00021774 </v>
    <v>      -0.00004645      -0.00021986       0.09791460 </v>
   </varray>
  </crystal>
  <varray name="positions" >
   <v>       0.75016500       0.82314300       0.18214600 </v>
   <v>       0.23277100       0.17404600       0.51001300 </v>
   <v>       0.03684300       0.33800100       0.34022900 </v>
   <v>       0.26025700       0.49520800       0.83044800 </v>
   <v>       0.23927000       0.82235100       0.15186200 </v>
   <v>       0.48916000       0.32916300       0.66732700 </v>
   <v>       0.48552600       0.32547800       0.99186300 </v>
   <v>       0.27130500       0.49896300       0.51097700 </v>
   <v>       0.48627400       0.66531700       0.31524900 </v>
   <v>       0.50028500       0.65809300       0.68219300 </v>
   <v>       0.75564800       0.49690500       0.17224900 </v>
   <v>       0.23660700       0.82422900       0.84236200 </v>
   <v>       0.72736300       0.83118800       0.49580700 </v>
   <v>       0.75064400       0.49352900       0.83220800 </v>
   <v>       0.23805100       0.50492000       0.15082600 </v>
   <v>       0.01950100       0.67189100       0.34159000 </v>
   <v>       0.76490000       0.17704800       0.49554900 </v>
   <v>       0.46208000       0.33233300       0.33490800 </v>
   <v>       0.01571000       0.99383100       0.33104600 </v>
   <v>       0.51609300       0.67233600       0.00205500 </v>
   <v>       0.51037100       0.01147700       0.68045900 </v>
   <v>       0.99161400       0.00516800       0.67466600 </v>
   <v>       0.75957600       0.81659400       0.82453900 </v>
   <v>       0.01600100       0.33528000       0.66833300 </v>
   <v>       0.24047300       0.17020400       0.16274200 </v>
   <v>       0.97723600       0.67475700       0.00460600 </v>
   <v>       0.74116800       0.18992100       0.82639400 </v>
   <v>       0.25574400       0.17386100       0.82590700 </v>
   <v>       0.50177600       0.00341400       0.99870400 </v>
   <v>       0.74089500       0.49308200       0.49463300 </v>
   <v>       0.98502200       0.00075000       0.00004000 </v>
   <v>       0.01183900       0.31813600       0.99069800 </v>
   <v>       0.00924600       0.66173800       0.65500500 </v>
   <v>       0.47740900       0.00505900       0.32243500 </v>
   <v>       0.28957700       0.82870500       0.50758800 </v>
   <v>       0.75359900       0.18389000       0.18234500 </v>
  </varray>
 </structure>
 <calculation>
  <scstep>
   <time name="dav">    0.92    0.99</time>
   <time name="total">    0.98    1.42</time>
   <energy>
    <i name="alphaZ">   1303.08912679 </i>
    <i name="ewald"> -15339.74547640 </i>
    <i name="hartreedc">  -6005.89926599 </i>
    <i name="XCdc">   -673.50265093 </i>
    <i name="pawpsdc">  17700.46675624 </i>
    <i name="pawaedc"> -15951.04251783 </i>
    <i name="eentropy">      0.00223510 </i>
    <i name="bandstr">     57.19374117 </i>
    <i name="atom">  20342.02516460 </i>
    <i name="e_fr_energy">   1432.58711274 </i>
    <i name="e_wo_entrp">   1432.58487763 </i>
    <i name="e_0_energy">   1432.58636770 </i>
   </energy>
  </scstep>
  <scstep>
   <time name="dav">    0.89    1.00</time>
   <time name="total">    0.89    1.19</time>
   <energy>
    <i name="e_fr_energy">   -132.20038608 </i>
    <i name="e_wo_entrp">   -132.19925178 </i>
    <i name="e_0_energy">   -132.20000798 </i>
   </energy>
  </scstep>
  <scstep>
   <time name="dav">    1.21    1.30</time>
   <time name="total">    1.22    1.34</time>
   <energy>
    <i name="e_fr_energy">   -349.53566113 </i>
    <i name="e_wo_entrp">   -349.53623504 </i>
    <i name="e_0_energy">   -349.53585244 </i>
   </energy>
  </scstep>
  <scstep>
   <time name="dav">    1.22    1.22</time>
   <time name="total">    1.22    1.26</time>
   <energy>
    <i name="e_fr_energy">   -375.36408141 </i>
    <i name="e_wo_entrp">   -375.37148451 </i>
    <i name="e_0_energy">   -375.36654911 </i>
   </energy>
  </scstep>
  <scstep>
   <time name="dav">    1.15    1.16</time>
   <time name="total">    1.22    1.27</time>
   <energy>
    <i name="e_fr_energy">   -377.91999591 </i>
    <i name="e_wo_entrp">   -377.93093557 </i>
    <i name="e_0_energy">   -377.92364246 </i>
   </energy>
  </scstep>
  <scstep>
   <time name="diag">    0.07    0.07</time>
   <time name="diis">    0.66    0.66</time>
   <time name="orth">    0.01    0.01</time>
   <time name="total">    0.80    0.84</time>
   <energy>
    <i name="e_fr_energy">   -367.77231582 </i>
    <i name="e_wo_entrp">   -367.77832752 </i>
    <i name="e_0_energy">   -367.77431972 </i>
   </energy>
  </scstep>
  <scstep>
   <time name="diag">    0.07    0.07</time>
   <time name="diis">    0.69    0.69</time>
   <time name="orth">    0.01    0.01</time>
   <time name="total">    0.83    0.87</time>
   <energy>
    <i name="e_fr_energy">   -367.71123758 </i>
    <i name="e_wo_entrp">   -367.71873499 </i>
    <i name="e_0_energy">   -367.71373672 </i>
   </energy>
  </scstep>
  <scstep>
   <time name="diag">    0.07    0.07</time>
   <time name="diis">    0.72    0.73</time>
   <time name="orth">    0.01    0.01</time>
   <time name="total">    0.86    0.91</time>
   <energy>
    <i name="e_fr_energy">   -363.47871583 </i>
    <i name="e_wo_entrp">   -363.49897954 </i>
    <i name="e_0_energy">   -363.48547040 </i>
   </energy>
  </scstep>
  <scstep>
   <time name="diag">    0.07    0.07</time>
   <time name="diis">    0.81    0.81</time>
   <time name="orth">    0.01    0.01</time>
   <time name="total">    0.95    0.99</time>
   <energy>
    <i name="e_fr_energy">   -363.29522586 </i>
    <i name="e_wo_entrp">   -363.31055213 </i>
    <i name="e_0_energy">   -363.30033462 </i>
   </energy>
  </scstep>
  <scstep>
   <time name="diag">    0.07    0.07</time>
   <time name="diis">    0.67    0.80</time>
   <time name="orth">    0.02    0.02</time>
   <time name="total">    0.84    1.01</time>
   <energy>
    <i name="e_fr_energy">   -363.26362592 </i>
    <i name="e_wo_entrp">   -363.28054289 </i>
    <i name="e_0_energy">   -363.26926491 </i>
   </energy>
  </scstep>
  <scstep>
   <time name="diag">    0.07    0.07</time>
   <time name="diis">    0.84    0.84</time>
   <time name="orth">    0.01    0.01</time>
   <time name="total">    0.98    1.02</time>
   <energy>
    <i name="e_fr_energy">   -363.23399446 </i>
    <i name="e_wo_entrp">   -363.25232833 </i>
    <i name="e_0_energy">   -363.24010575 </i>
   </energy>
  </scstep>
  <scstep>
   <time name="diag">    0.07    0.19</time>
   <time name="diis">    0.67    0.78</time>
   <time name="orth">    0.01    0.01</time>
   <time name="total">    0.82    1.13</time>
   <energy>
    <i name="e_fr_energy">   -363.22978315 </i>
    <i name="e_wo_entrp">   -363.24746163 </i>
    <i name="e_0_energy">   -363.23567598 </i>
   </energy>
  </scstep>
  <scstep>
   <time name="diag">    0.07    0.07</time>
   <time name="diis">    0.77    0.77</time>
   <time name="orth">    0.01    0.01</time>
   <time name="total">    0.91    0.97</time>
   <energy>
    <i name="e_fr_energy">   -363.22913961 </i>
    <i name="e_wo_entrp">   -363.24732961 </i>
    <i name="e_0_energy">   -363.23520294 </i>
   </energy>
  </scstep>
  <scstep>
   <time name="diag">    0.07    0.07</time>
   <time name="diis">    0.73    0.73</time>
   <time name="orth">    0.01    0.01</time>
   <time name="total">    0.95    0.99</time>
   <energy>
    <i name="e_fr_energy">   -363.22954583 </i>
    <i name="e_wo_entrp">   -363.24746077 </i>
    <i name="e_0_energy">   -363.23551748 </i>
   </energy>
  </scstep>
  <scstep>
   <time name="diag">    0.07    0.07</time>
   <time name="diis">    0.66    0.76</time>
   <time name="orth">    0.01    0.01</time>
   <time name="total">    0.81    0.97</time>
   <energy>
    <i name="e_fr_energy">   -363.22971797 </i>
    <i name="e_wo_entrp">   -363.24773237 </i>
    <i name="e_0_energy">   -363.23572277 </i>
   </energy>
  </scstep>
  <scstep>
   <time name="diag">    0.07    0.07</time>
   <time name="diis">    0.65    0.66</time>
   <time name="orth">    0.01    0.01</time>
   <time name="total">    0.80    0.87</time>
   <energy>
    <i name="e_fr_energy">   -363.22980224 </i>
    <i name="e_wo_entrp">   -363.24781129 </i>
    <i name="e_0_energy">   -363.23580526 </i>
   </energy>
  </scstep>
  <scstep>
   <time name="diag">    0.10    0.10</time>
   <time name="diis">    0.62    0.63</time>
   <time name="orth">    0.01    0.01</time>
   <time name="total">    0.79    0.93</time>
   <energy>
    <i name="e_fr_energy">   -363.22983647 </i>
    <i name="e_wo_entrp">   -363.24789708 </i>
    <i name="e_0_energy">   -363.23585668 </i>
   </energy>
  </scstep>
  <scstep>
   <time name="diag">    0.07    0.07</time>
   <time name="diis">    0.55    0.56</time>
   <time name="orth">    0.01    0.01</time>
   <time name="total">    0.70    0.76</time>
   <energy>
    <i name="e_fr_energy">   -363.22985418 </i>
    <i name="e_wo_entrp">   -363.24790642 </i>
    <i name="e_0_energy">   -363.23587159 </i>
   </energy>
  </scstep>
  <scstep>
   <time name="diag">    0.07    0.07</time>
   <time name="diis">    0.41    0.42</time>
   <time name="orth">    0.01    0.01</time>
   <time name="total">    0.52    0.59</time>
   <energy>
    <i name="alphaZ">   1303.08912679 </i>
    <i name="ewald"> -15339.74547640 </i>
    <i name="hartreedc">  -5818.70537120 </i>
    <i name="XCdc">   -668.23536329 </i>
    <i name="pawpsdc">  30159.27526641 </i>
    <i name="pawaedc"> -28400.92643651 </i>
    <i name="eentropy">      0.01805268 </i>
    <i name="bandstr">  -1940.02482116 </i>
    <i name="atom">  20342.02516460 </i>
    <i name="e_fr_energy">   -363.22985809 </i>
    <i name="e_wo_entrp">   -363.24791076 </i>
    <i name="e_0_energy">   -363.23587564 </i>
   </energy>
  </scstep>
  <structure>
   <crystal>
    <varray name="basis" >
     <v>       6.95940578      -0.00192050       0.00329727 </v>
     <v>      -0.00198036      10.33939484       0.02321559 </v>
     <v>       0.00506313       0.02299112      10.21303596 </v>
    </varray>
    <i name="volume">    734.88574110 </i>
    <varray name="rec_basis" >
     <v>       0.14369047       0.00002768      -0.00007130 </v>
     <v>       0.00002679       0.09671795      -0.00021774 </v>
     <v>      -0.00004645      -0.00021986       0.09791460 </v>
    </varray>
   </crystal>
   <varray name="positions" >
    <v>       0.75016500       0.82314300       0.18214600 </v>
    <v>       0.23277100       0.17404600       0.51001300 </v>
    <v>       0.03684300       0.33800100       0.34022900 </v>
    <v>       0.26025700       0.49520800       0.83044800 </v>
    <v>       0.23927000       0.82235100       0.15186200 </v>
    <v>       0.48916000       0.32916300       0.66732700 </v>
    <v>       0.48552600       0.32547800       0.99186300 </v>
    <v>       0.27130500       0.49896300       0.51097700 </v>
    <v>       0.48627400       0.66531700       0.31524900 </v>
    <v>       0.50028500       0.65809300       0.68219300 </v>
    <v>       0.75564800       0.49690500       0.17224900 </v>
    <v>       0.23660700       0.82422900       0.84236200 </v>
    <v>       0.72736300       0.83118800       0.49580700 </v>
    <v>       0.75064400       0.49352900       0.83220800 </v>
    <v>       0.23805100       0.50492000       0.15082600 </v>
    <v>       0.01950100       0.67189100       0.34159000 </v>
    <v>       0.76490000       0.17704800       0.49554900 </v>
    <v>       0.46208000       0.33233300       0.33490800 </v>
    <v>       0.01571000       0.99383100       0.33104600 </v>
    <v>       0.51609300       0.67233600       0.00205500 </v>
    <v>       0.51037100       0.01147700       0.68045900 </v>
    <v>       0.99161400       0.00516800       0.67466600 </v>
    <v>       0.75957600       0.81659400       0.82453900 </v>
    <v>       0.01600100       0.33528000       0.66833300 </v>
    <v>       0.24047300       0.17020400       0.16274200 </v>
    <v>       0.97723600       0.67475700       0.00460600 </v>
    <v>       0.74116800       0.18992100       0.82639400 </v>
    <v>       0.25574400       0.17386100       0.82590700 </v>
    <v>       0.50177600       0.00341400       0.99870400 </v>
    <v>       0.74089500       0.49308200       0.49463300 </v>
    <v>       0.98502200       0.00075000       0.00004000 </v>
    <v>       0.01183900       0.31813600       0.99069800 </v>
    <v>       0.00924600       0.66173800       0.65500500 </v>
    <v>       0.47740900       0.00505900       0.32243500 </v>
    <v>       0.28957700       0.82870500       0.50758800 </v>
    <v>       0.75359900       0.18389000       0.18234500 </v>
   </varray>
  </structure>
  <varray name="forces" >
   <v>       0.02340226       0.00658039      -0.04548932 </v>
   <v>       0.00570960      -0.04628206       0.01689543 </v>
   <v>      -0.00832046       0.00649150      -0.01937464 </v>
   <v>       0.00304220       0.00673521      -0.03782131 </v>
   <v>      -0.03962580      -0.02500228      -0.01108929 </v>
   <v>      -0.01047626       0.01420856       0.01491615 </v>
   <v>       0.00125911       0.00556791      -0.00288190 </v>
   <v>      -0.02681388       0.04784878       0.00867411 </v>
   <v>      -0.00317919       0.00101867       0.00515270 </v>
   <v>      -0.48560290      -0.45671729      -0.19016485 </v>
   <v>       0.02462163       0.03545444      -0.03134265 </v>
   <v>       0.05825797       0.01797811      -0.05558381 </v>
   <v>       0.01521840      -0.00102006      -0.04143870 </v>
   <v>       0.00206756      -0.03342475      -0.02378390 </v>
   <v>      -0.00337686       0.03992872      -0.02431134 </v>
   <v>      -0.03213862       0.00812961       0.02140469 </v>
   <v>      -0.00830273      -0.01564950       0.03062714 </v>
   <v>       0.00076807       0.00587800       0.00822009 </v>
   <v>      -0.00318317      -0.00596788       0.01136373 </v>
   <v>      -0.21082765      -0.22769992       0.27088308 </v>
   <v>      -0.21737690       0.33033631      -0.13517617 </v>
   <v>       0.21394233       0.33290900      -0.19510893 </v>
   <v>       0.12260222       0.08729467      -0.20935772 </v>
   <v>       0.02707787      -0.00786377       0.01995147 </v>
   <v>      -0.00064574      -0.05125875      -0.02069500 </v>
   <v>       0.24286310      -0.30189711       0.57109933 </v>
   <v>      -0.01952967      -0.00857124       0.00229429 </v>
   <v>      -0.00654455       0.00129678      -0.02695474 </v>
   <v>      -0.17485836       0.21155694       0.16077971 </v>
   <v>       0.01839832       0.02889214       0.02906852 </v>
   <v>       0.15348388       0.22383423       0.21195723 </v>
   <v>      -0.00357425       0.00047119      -0.00444491 </v>
   <v>       0.30752308      -0.22217067      -0.36014588 </v>
   <v>       0.00109398       0.01014342       0.00452634 </v>
   <v>       0.02705984      -0.00921103       0.05942892 </v>
   <v>       0.00598558      -0.00981827      -0.01207788 </v>
  </varray>
  <varray name="stress" >
   <v>       6.21390201       0.54008542       0.08372486 </v>
   <v>       0.54008540       7.39512750      -0.46819855 </v>
   <v>       0.08372487      -0.46819856       6.11085109 </v>
  </varray>
  <energy>
   <i name="e_fr_energy">   -363.22985809 </i>
   <i name="e_wo_entrp">   -363.23587564 </i>
   <i name="e_0_energy">      0.01805268 </i>
  </energy>
  <time name="totalsc">   18.68   21.17</time>
 </calculation>
 <calculation>
  <scstep>
   <time name="dav">    0.89    0.90</time>
   <time name="total">    0.97    1.30</time>
   <energy>
    <i name="alphaZ">   1298.36217192 </i>
    <i name="ewald"> -15318.10782839 </i>
    <i name="hartreedc">  -5814.60183905 </i>
    <i name="XCdc">   -669.05658214 </i>
    <i name="pawpsdc">  30159.48690961 </i>
    <i name="pawaedc"> -28401.13185315 </i>
    <i name="eentropy">      0.01769121 </i>
    <i name="bandstr">  -1960.27762399 </i>
    <i name="atom">  20342.02516460 </i>
    <i name="e_fr_energy">   -363.28378938 </i>
    <i name="e_wo_entrp">   -363.30148059 </i>
    <i name="e_0_energy">   -363.28968645 </i>
   </energy>
  </scstep>
  <scstep>
   <time name="diag">    0.07    0.07</time>
   <time name="diis">    0.69    0.70</time>
   <time name="orth">    0.01    0.01</time>
   <time name="total">    0.93    1.00</time>
   <energy>
    <i name="e_fr_energy">   -363.27866444 </i>
    <i name="e_wo_entrp">   -363.29777793 </i>
    <i name="e_0_energy">   -363.28503560 </i>
   </energy>
  </scstep>
  <scstep>
   <time name="diag">    0.07    0.07</time>
   <time name="diis">    0.80    0.81</time>
   <time name="orth">    0.01    0.01</time>
   <time name="total">    0.94    1.00</time>
   <energy>
    <i name="e_fr_energy">   -363.26993577 </i>
    <i name="e_wo_entrp">   -363.28793043 </i>
    <i name="e_0_energy">   -363.27593399 </i>
   </energy>
  </scstep>
  <scstep>
   <time name="diag">    0.07    0.07</time>
   <time name="diis">    0.74    0.74</time>
   <time name="orth">    0.01    0.01</time>
   <time name="total">    0.88    0.96</time>
   <energy>
    <i name="e_fr_energy">   -363.26620412 </i>
    <i name="e_wo_entrp">   -363.28482602 </i>
    <i name="e_0_energy">   -363.27241142 </i>
   </energy>
  </scstep>
  <scstep>
   <time name="diag">    0.07    0.07</time>
   <time name="diis">    0.72    0.72</time>
   <time name="orth">    0.01    0.01</time>
   <time name="total">    0.86    0.92</time>
   <energy>
    <i name="e_fr_energy">   -363.26548123 </i>
    <i name="e_wo_entrp">   -363.28399467 </i>
    <i name="e_0_energy">   -363.27165237 </i>
   </energy>
  </scstep>
  <scstep>
   <time name="diag">    0.07    0.07</time>
   <time name="diis">    0.83    0.84</time>
   <time name="orth">    0.01    0.01</time>
   <time name="total">    1.00    1.05</time>
   <energy>
    <i name="e_fr_energy">   -363.26554191 </i>
    <i name="e_wo_entrp">   -363.28398731 </i>
    <i name="e_0_energy">   -363.27169038 </i>
   </energy>
  </scstep>
  <scstep>
   <time name="diag">    0.11    0.11</time>
   <time name="diis">    0.60    0.76</time>
   <time name="orth">    0.01    0.01</time>
   <time name="total">    0.82    1.02</time>
   <energy>
    <i name="e_fr_energy">   -363.26548562 </i>
    <i name="e_wo_entrp">   -363.28396771 </i>
    <i name="e_0_energy">   -363.27164632 </i>
   </energy>
  </scstep>
  <scstep>
   <time name="diag">    0.09    0.09</time>
   <time name="diis">    0.58    0.78</time>
   <time name="orth">    0.01    0.01</time>
   <time name="total">    0.74    1.01</time>
   <energy>
    <i name="e_fr_energy">   -363.26549945 </i>
    <i name="e_wo_entrp">   -363.28398819 </i>
    <i name="e_0_energy">   -363.27166236 </i>
   </energy>
  </scstep>
  <scstep>
   <time name="diag">    0.08    0.10</time>
   <time name="diis">    0.53    0.55</time>
   <time name="orth">    0.01    0.01</time>
   <time name="total">    0.70    0.79</time>
   <energy>
    <i name="e_fr_energy">   -363.26550545 </i>
    <i name="e_wo_entrp">   -363.28398583 </i>
    <i name="e_0_energy">   -363.27166557 </i>
   </energy>
  </scstep>
  <scstep>
   <time name="diag">    0.12    0.13</time>
   <time name="diis">    0.40    0.53</time>
   <time name="orth">    0.01    0.01</time>
   <time name="total">    0.58    0.80</time>
   <energy>
    <i name="alphaZ">   1298.36217192 </i>
    <i name="ewald"> -15318.10782839 </i>
    <i name="hartreedc">  -5826.50313020 </i>
    <i name="XCdc">   -668.57559830 </i>
    <i name="pawpsdc">  30005.40575706 </i>
    <i name="pawaedc"> -28247.05875921 </i>
    <i name="eentropy">      0.01847504 </i>
    <i name="bandstr">  -1948.83176075 </i>
    <i name="atom">  20342.02516460 </i>
    <i name="e_fr_energy">   -363.26550822 </i>
    <i name="e_wo_entrp">   -363.28398326 </i>
    <i name="e_0_energy">   -363.27166656 </i>
   </energy>
  </scstep>
  <structure>
   <crystal>
    <varray name="basis" >
     <v>       6.96738000      -0.00123031       0.00340860 </v>
     <v>      -0.00095256      10.35349202       0.02234907 </v>
     <v>       0.00522890       0.02214123      10.22454248 </v>
    </varray>
    <i name="volume">    737.56124398 </i>
    <varray name="rec_basis" >
     <v>       0.14352601       0.00001336      -0.00007343 </v>
     <v>       0.00001716       0.09658622      -0.00020917 </v>
     <v>      -0.00004789      -0.00021113       0.09780437 </v>
    </varray>
   </crystal>
   <varray name="positions" >
    <v>       0.75021372       0.82315236       0.18208150 </v>
    <v>       0.23278284       0.17398116       0.51003709 </v>
    <v>       0.03682572       0.33801014       0.34020153 </v>
    <v>       0.26026337       0.49521755       0.83039438 </v>
    <v>       0.23918760       0.82231602       0.15184639 </v>
    <v>       0.48913820       0.32918284       0.66734810 </v>
    <v>       0.48552862       0.32548580       0.99185890 </v>
    <v>       0.27124925       0.49902994       0.51098916 </v>
    <v>       0.48626738       0.66531841       0.31525630 </v>
    <v>       0.49927515       0.65745411       0.68192530 </v>
    <v>       0.75569925       0.49695474       0.17220446 </v>
    <v>       0.23672822       0.82425436       0.84228314 </v>
    <v>       0.72739469       0.83118671       0.49574827 </v>
    <v>       0.75064831       0.49348229       0.83217440 </v>
    <v>       0.23804402       0.50497597       0.15079142 </v>
    <v>       0.01943415       0.67190230       0.34162033 </v>
    <v>       0.76488270       0.17702599       0.49559246 </v>
    <v>       0.46208159       0.33234120       0.33491963 </v>
    <v>       0.01570337       0.99382261       0.33106212 </v>
    <v>       0.51565419       0.67201633       0.00243973 </v>
    <v>       0.50991921       0.01193974       0.68026654 </v>
    <v>       0.99205925       0.00563470       0.67438831 </v>
    <v>       0.75983121       0.81671690       0.82424196 </v>
    <v>       0.01605729       0.33526894       0.66836128 </v>
    <v>       0.24047166       0.17013231       0.16271284 </v>
    <v>       0.97774035       0.67433271       0.00541610 </v>
    <v>       0.74112738       0.18990899       0.82639729 </v>
    <v>       0.25573042       0.17386290       0.82586880 </v>
    <v>       0.50141228       0.00370956       0.99893128 </v>
    <v>       0.74093324       0.49312236       0.49467409 </v>
    <v>       0.98534106       0.00106271       0.00033955 </v>
    <v>       0.01183157       0.31813667       0.99069170 </v>
    <v>       0.00988581       0.66142826       0.65449514 </v>
    <v>       0.47741127       0.00507318       0.32244138 </v>
    <v>       0.28963321       0.82869193       0.50767223 </v>
    <v>       0.75361146       0.18387630       0.18232791 </v>
   </varray>
  </structure>
  <varray name="forces" >
   <v>       0.02273953      -0.01100085      -0.03430311 </v>
   <v>      -0.00542972      -0.01101807       0.00188898 </v>
   <v>       0.00856224      -0.00858432      -0.01202545 </v>
   <v>       0.00118396      -0.01200007      -0.02958851 </v>
   <v>      -0.03864679      -0.02822719      -0.00724986 </v>
   <v>      -0.01527631       0.01479658       0.01988199 </v>
   <v>      -0.00300558      -0.00596557      -0.01725485 </v>
   <v>      -0.02045217       0.02300724      -0.00658631 </v>
   <v>       0.00187372       0.01386207      -0.00589282 </v>
   <v>      -0.44099850      -0.41853798      -0.15094169 </v>
   <v>       0.02269284       0.02401609      -0.01150851 </v>
   <v>       0.03696515       0.00035020      -0.04477063 </v>
   <v>       0.01080764      -0.01134581      -0.02794421 </v>
   <v>      -0.00508753      -0.02587978      -0.02751955 </v>
   <v>      -0.00312806       0.01765626      -0.00189986 </v>
   <v>      -0.03109627       0.01271271       0.00006139 </v>
   <v>      -0.00070174       0.00885081       0.01800718 </v>
   <v>      -0.01654378       0.00442414       0.01371422 </v>
   <v>      -0.00175969      -0.00724388       0.01041909 </v>
   <v>      -0.17085867      -0.18367165       0.23205897 </v>
   <v>      -0.19779537       0.31073992      -0.11849033 </v>
   <v>       0.19415988       0.29734540      -0.16452208 </v>
   <v>       0.10565142       0.05268921      -0.18939463 </v>
   <v>       0.02992923      -0.02013107       0.02216738 </v>
   <v>      -0.00126352      -0.02968474      -0.00830174 </v>
   <v>       0.20212425      -0.23268912       0.49782163 </v>
   <v>      -0.02496660       0.00987180       0.00233401 </v>
   <v>       0.00216854       0.02431564      -0.01941303 </v>
   <v>      -0.16126399       0.18532481       0.13731929 </v>
   <v>       0.01280099       0.01761387       0.02385600 </v>
   <v>       0.14408884       0.19339448       0.18550892 </v>
   <v>       0.00328837       0.00117592      -0.01357636 </v>
   <v>       0.29127811      -0.19841065      -0.32664080 </v>
   <v>       0.00153246      -0.00023768       0.00116124 </v>
   <v>       0.04083604      -0.01213446       0.05177473 </v>
   <v>       0.00559109       0.00461574      -0.00015071 </v>
  </varray>
  <varray name="stress" >
   <v>       1.51083150       0.44984076      -0.02470622 </v>
   <v>       0.44984078       2.61480175      -0.45102614 </v>
   <v>      -0.02470617      -0.45102615       1.44120783 </v>
  </varray>
  <energy>
   <i name="e_fr_energy">   -363.26550822 </i>
   <i name="e_wo_entrp">   -363.27166656 </i>
   <i name="e_0_energy">      0.01847504 </i>
  </energy>
  <time name="totalsc">    9.87   11.64</time>
 </calculation>
 <calculation>
  <scstep>
   <time name="dav">    0.94    0.99</time>
   <time name="total">    1.01    1.25</time>
   <energy>
    <i name="alphaZ">   1284.31830022 </i>
    <i name="ewald"> -15252.74130195 </i>
    <i name="hartreedc">  -5814.82628149 </i>
    <i name="XCdc">   -671.02794460 </i>
    <i name="pawpsdc">  30004.83362295 </i>
    <i name="pawaedc"> -28246.57210416 </i>
    <i name="eentropy">      0.01667447 </i>
    <i name="bandstr">  -2009.49270124 </i>
    <i name="atom">  20342.02516460 </i>
    <i name="e_fr_energy">   -363.46657120 </i>
    <i name="e_wo_entrp">   -363.48324567 </i>
    <i name="e_0_energy">   -363.47212936 </i>
   </energy>
  </scstep>
  <scstep>
   <time name="diag">    0.08    0.09</time>
   <time name="diis">    0.72    0.76</time>
   <time name="orth">    0.01    0.01</time>
   <time name="total">    0.88    0.96</time>
   <energy>
    <i name="e_fr_energy">   -363.42351147 </i>
    <i name="e_wo_entrp">   -363.44444810 </i>
    <i name="e_0_energy">   -363.43049035 </i>
   </energy>
  </scstep>
  <scstep>
   <time name="diag">    0.07    0.07</time>
   <time name="diis">    0.72    0.76</time>
   <time name="orth">    0.01    0.01</time>
   <time name="total">    0.86    0.95</time>
   <energy>
    <i name="e_fr_energy">   -363.34080629 </i>
    <i name="e_wo_entrp">   -363.35865045 </i>
    <i name="e_0_energy">   -363.34675434 </i>
   </energy>
  </scstep>
  <scstep>
   <time name="diag">    0.07    0.07</time>
   <time name="diis">    0.79    0.79</time>
   <time name="orth">    0.01    0.01</time>
   <time name="total">    0.94    0.99</time>
   <energy>
    <i name="e_fr_energy">   -363.30911484 </i>
    <i name="e_wo_entrp">   -363.32919501 </i>
    <i name="e_0_energy">   -363.31580823 </i>
   </energy>
  </scstep>
  <scstep>
   <time name="diag">    0.07    0.07</time>
   <time name="diis">    0.70    0.76</time>
   <time name="orth">    0.01    0.01</time>
   <time name="total">    0.84    0.95</time>
   <energy>
    <i name="e_fr_energy">   -363.30230373 </i>
    <i name="e_wo_entrp">   -363.32193462 </i>
    <i name="e_0_energy">   -363.30884736 </i>
   </energy>
  </scstep>
  <scstep>
   <time name="diag">    0.07    0.07</time>
   <time name="diis">    0.75    0.75</time>
   <time name="orth">    0.01    0.01</time>
   <time name="total">    0.90    0.95</time>
   <energy>
    <i name="e_fr_energy">   -363.30297092 </i>
    <i name="e_wo_entrp">   -363.32246846 </i>
    <i name="e_0_energy">   -363.30947010 </i>
   </energy>
  </scstep>
  <scstep>
   <time name="diag">    0.07    0.07</time>
   <time name="diis">    0.81    0.82</time>
   <time name="orth">    0.01    0.01</time>
   <time name="total">    0.98    1.02</time>
   <energy>
    <i name="e_fr_energy">   -363.30261173 </i>
    <i name="e_wo_entrp">   -363.32217634 </i>
    <i name="e_0_energy">   -363.30913326 </i>
   </energy>
  </scstep>
  <scstep>
   <time name="diag">    0.07    0.07</time>
   <time name="diis">    0.74    0.78</time>
   <time name="orth">    0.01    0.02</time>
   <time name="total">    0.89    0.99</time>
   <energy>
    <i name="e_fr_energy">   -363.30281838 </i>
    <i name="e_wo_entrp">   -363.32239818 </i>
    <i name="e_0_energy">   -363.30934498 </i>
   </energy>
  </scstep>
  <scstep>
   <time name="diag">    0.07    0.11</time>
   <time name="diis">    0.72    0.72</time>
   <time name="orth">    0.01    0.01</time>
   <time name="total">    0.89    0.99</time>
   <energy>
    <i name="e_fr_energy">   -363.30292844 </i>
    <i name="e_wo_entrp">   -363.32248840 </i>
    <i name="e_0_energy">   -363.30944843 </i>
   </energy>
  </scstep>
  <scstep>
   <time name="diag">    0.07    0.07</time>
   <time name="diis">    0.68    0.68</time>
   <time name="orth">    0.01    0.01</time>
   <time name="total">    0.82    0.87</time>
   <energy>
    <i name="e_fr_energy">   -363.30303121 </i>
    <i name="e_wo_entrp">   -363.32256572 </i>
    <i name="e_0_energy">   -363.30954272 </i>
   </energy>
  </scstep>
  <scstep>
   <time name="diag">    0.09    0.09</time>
   <time name="diis">    0.58    0.58</time>
   <time name="orth">    0.01    0.01</time>
   <time name="total">    0.76    0.82</time>
   <energy>
    <i name="e_fr_energy">   -363.30305106 </i>
    <i name="e_wo_entrp">   -363.32259196 </i>
    <i name="e_0_energy">   -363.30956469 </i>
   </energy>
  </scstep>
  <scstep>
   <time name="diag">    0.17    0.17</time>
   <time name="diis">    0.59    0.60</time>
   <time name="orth">    0.01    0.01</time>
   <time name="total">    0.84    0.89</time>
   <energy>
    <i name="e_fr_energy">   -363.30305131 </i>
    <i name="e_wo_entrp">   -363.32259505 </i>
    <i name="e_0_energy">   -363.30956589 </i>
   </energy>
  </scstep>
  <scstep>
   <time name="diag">    0.07    0.07</time>
   <time name="diis">    0.46    0.46</time>
   <time name="orth">    0.01    0.01</time>
   <time name="total">    0.57    0.61</time>
   <energy>
    <i name="alphaZ">   1284.31830022 </i>
    <i name="ewald"> -15252.74130195 </i>
    <i name="hartreedc">  -5849.90384158 </i>
    <i name="XCdc">   -669.61335241 </i>
    <i name="pawpsdc">  29553.30821899 </i>
    <i name="pawaedc"> -27795.65911834 </i>
    <i name="eentropy">      0.01954494 </i>
    <i name="bandstr">  -1975.05666419 </i>
    <i name="atom">  20342.02516460 </i>
    <i name="e_fr_energy">   -363.30304971 </i>
    <i name="e_wo_entrp">   -363.32259465 </i>
    <i name="e_0_energy">   -363.30956469 </i>
   </energy>
  </scstep>
  <structure>
   <crystal>
    <varray name="basis" >
     <v>       6.99130265       0.00084027       0.00374258 </v>
     <v>       0.00213086      10.39578355       0.01974949 </v>
     <v>       0.00572621       0.01959156      10.25906202 </v>
    </varray>
    <i name="volume">    745.62639067 </i>
    <varray name="rec_basis" >
     <v>       0.14303491      -0.00002917      -0.00007978 </v>
     <v>      -0.00001146       0.09619320      -0.00018369 </v>
     <v>      -0.00005216      -0.00018517       0.09747518 </v>
    </varray>
   </crystal>
   <varray name="positions" >
    <v>       0.75035970       0.82318039       0.18188822 </v>
    <v>       0.23281834       0.17378693       0.51010924 </v>
    <v>       0.03677393       0.33803754       0.34011921 </v>
    <v>       0.26028245       0.49524614       0.83023370 </v>
    <v>       0.23894068       0.82221124       0.15179961 </v>
    <v>       0.48907288       0.32924228       0.66741133 </v>
    <v>       0.48553648       0.32550918       0.99184661 </v>
    <v>       0.27108215       0.49923050       0.51102561 </v>
    <v>       0.48624756       0.66532263       0.31527818 </v>
    <v>       0.49624938       0.65554017       0.68112296 </v>
    <v>       0.75585280       0.49710372       0.17207098 </v>
    <v>       0.23709145       0.82433030       0.84204681 </v>
    <v>       0.72748966       0.83118282       0.49557228 </v>
    <v>       0.75066125       0.49334234       0.83207370 </v>
    <v>       0.23802308       0.50514363       0.15068783 </v>
    <v>       0.01923380       0.67193617       0.34171122 </v>
    <v>       0.76483085       0.17696008       0.49572268 </v>
    <v>       0.46208635       0.33236578       0.33495448 </v>
    <v>       0.01568349       0.99379748       0.33111044 </v>
    <v>       0.51433939       0.67105883       0.00359257 </v>
    <v>       0.50856522       0.01332611       0.67968993 </v>
    <v>       0.99339328       0.00703272       0.67355628 </v>
    <v>       0.76059595       0.81708497       0.82335187 </v>
    <v>       0.01622596       0.33523580       0.66844602 </v>
    <v>       0.24046767       0.16991754       0.16262543 </v>
    <v>       0.97925179       0.67306166       0.00784354 </v>
    <v>       0.74100567       0.18987301       0.82640715 </v>
    <v>       0.25568972       0.17386858       0.82575434 </v>
    <v>       0.50032223       0.00459516       0.99961246 </v>
    <v>       0.74104782       0.49324327       0.49479723 </v>
    <v>       0.98629697       0.00199957       0.00123726 </v>
    <v>       0.01180931       0.31813869       0.99067283 </v>
    <v>       0.01180321       0.66050007       0.65296717 </v>
    <v>       0.47741808       0.00511568       0.32246051 </v>
    <v>       0.28980164       0.82865278       0.50792462 </v>
    <v>       0.75364879       0.18383524       0.18227670 </v>
   </varray>
  </structure>
  <varray name="forces" >
   <v>       0.01993199      -0.06320088      -0.00292420 </v>
   <v>      -0.03727059       0.09152865      -0.04494645 </v>
   <v>       0.05650565      -0.05561696       0.01110524 </v>
   <v>      -0.00116917      -0.06515555      -0.00477800 </v>
   <v>      -0.03451544      -0.03810647       0.00241112 </v>
   <v>      -0.03076048       0.01469208       0.03709568 </v>
   <v>      -0.01502477      -0.04113072      -0.06128195 </v>
   <v>      -0.00028117      -0.05340219      -0.05506804 </v>
   <v>       0.01881775       0.05280343      -0.03883850 </v>
   <v>      -0.31213264      -0.30905422      -0.04268136 </v>
   <v>       0.01697091      -0.00655505       0.04516061 </v>
   <v>      -0.01964405      -0.04794009      -0.01467160 </v>
   <v>      -0.00107577      -0.04080808       0.00701142 </v>
   <v>      -0.02959915      -0.00520339      -0.03859411 </v>
   <v>      -0.00056840      -0.04939492       0.06566221 </v>
   <v>      -0.02954841       0.02750566      -0.06874538 </v>
   <v>       0.02160948       0.07829189      -0.01819578 </v>
   <v>      -0.06747168      -0.00114903       0.03075791 </v>
   <v>       0.00161111      -0.01077175       0.00649218 </v>
   <v>      -0.05979389      -0.05459214       0.12349553 </v>
   <v>      -0.14478584       0.25512388      -0.06901063 </v>
   <v>       0.14049515       0.19653978      -0.07541028 </v>
   <v>       0.05260292      -0.04163040      -0.12913005 </v>
   <v>       0.03985378      -0.05905803       0.03185031 </v>
   <v>      -0.00177539       0.03360739       0.02652036 </v>
   <v>       0.09027068      -0.03536839       0.29333952 </v>
   <v>      -0.04144806       0.06184532       0.00202710 </v>
   <v>       0.02640269       0.09281099       0.00473080 </v>
   <v>      -0.12322328       0.11269495       0.07050225 </v>
   <v>      -0.00487144      -0.01156949       0.01080840 </v>
   <v>       0.11703082       0.10649644       0.10743167 </v>
   <v>       0.02455910       0.00101988      -0.04274870 </v>
   <v>       0.24136083      -0.12777907      -0.22291600 </v>
   <v>       0.00301995      -0.03063777      -0.00966457 </v>
   <v>       0.08132682      -0.02249830       0.03079709 </v>
   <v>       0.00258996       0.04566255       0.03240618 </v>
  </varray>
  <varray name="stress" >
   <v>     -12.58376085       0.18157826      -0.31559951 </v>
   <v>       0.18157828     -11.70762429      -0.40511194 </v>
   <v>      -0.31559949      -0.40511197     -12.53822358 </v>
  </varray>
  <energy>
   <i name="e_fr_energy">   -363.30304971 </i>
   <i name="e_wo_entrp">   -363.30956469 </i>
   <i name="e_0_energy">      0.01954494 </i>
  </energy>
  <time name="totalsc">   12.68   13.92</time>
 </calculation>
 <calculation>
  <scstep>
   <time name="dav">    1.00    1.03</time>
   <time name="total">    1.10    1.30</time>
   <energy>
    <i name="alphaZ">   1285.84273419 </i>
    <i name="ewald"> -15254.64160000 </i>
    <i name="hartreedc">  -5856.08194429 </i>
    <i name="XCdc">   -669.32557157 </i>
    <i name="pawpsdc">  29552.90343045 </i>
    <i name="pawaedc"> -27795.27937512 </i>
    <i name="eentropy">      0.01959567 </i>
    <i name="bandstr">  -1968.78786761 </i>
    <i name="atom">  20342.02516460 </i>
    <i name="e_fr_energy">   -363.32543367 </i>
    <i name="e_wo_entrp">   -363.34502934 </i>
    <i name="e_0_energy">   -363.33196556 </i>
   </energy>
  </scstep>
  <scstep>
   <time name="diag">    0.07    0.07</time>
   <time name="diis">    0.68    0.68</time>
   <time name="orth">    0.01    0.01</time>
   <time name="total">    0.82    0.86</time>
   <energy>
    <i name="e_fr_energy">   -363.32971787 </i>
    <i name="e_wo_entrp">   -363.34935036 </i>
    <i name="e_0_energy">   -363.33626203 </i>
   </energy>
  </scstep>
  <scstep>
   <time name="diag">    0.07    0.07</time>
   <time name="diis">    0.80    0.80</time>
   <time name="orth">    0.01    0.01</time>
   <time name="total">    0.96    1.00</time>
   <energy>
    <i name="e_fr_energy">   -363.32756353 </i>
    <i name="e_wo_entrp">   -363.34726719 </i>
    <i name="e_0_energy">   -363.33413141 </i>
   </energy>
  </scstep>
  <scstep>
   <time name="diag">    0.07    0.07</time>
   <time name="diis">    0.71    0.73</time>
   <time name="orth">    0.01    0.04</time>
   <time name="total">    0.86    0.96</time>
   <energy>
    <i name="e_fr_energy">   -363.32710526 </i>
    <i name="e_wo_entrp">   -363.34674616 </i>
    <i name="e_0_energy">   -363.33365222 </i>
   </energy>
  </scstep>
  <scstep>
   <time name="diag">    0.11    0.11</time>
   <time name="diis">    0.72    0.73</time>
   <time name="orth">    0.01    0.01</time>
   <time name="total">    0.93    0.97</time>
   <energy>
    <i name="e_fr_energy">   -363.32702779 </i>
    <i name="e_wo_entrp">   -363.34669387 </i>
    <i name="e_0_energy">   -363.33358315 </i>
   </energy>
  </scstep>
  <scstep>
   <time name="diag">    0.07    0.07</time>
   <time name="diis">    0.70    0.70</time>
   <time name="orth">    0.01    0.01</time>
   <time name="total">    0.84    0.89</time>
   <energy>
    <i name="e_fr_energy">   -363.32703642 </i>
    <i name="e_wo_entrp">   -363.34671575 </i>
    <i name="e_0_energy">   -363.33359619 </i>
   </energy>
  </scstep>
  <scstep>
   <time name="diag">    0.07    0.07</time>
   <time name="diis">    0.59    0.60</time>
   <time name="orth">    0.01    0.01</time>
   <time name="total">    0.73    0.78</time>
   <energy>
    <i name="e_fr_energy">   -363.32703930 </i>
    <i name="e_wo_entrp">   -363.34670000 </i>
    <i name="e_0_energy">   -363.33359287 </i>
   </energy>
  </scstep>
  <scstep>
   <time name="diag">    0.09    0.09</time>
   <time name="diis">    0.51    0.51</time>
   <time name="orth">    0.01    0.01</time>
   <time name="total">    0.67    0.72</time>
   <energy>
    <i name="e_fr_energy">   -363.32704936 </i>
    <i name="e_wo_entrp">   -363.34671609 </i>
    <i name="e_0_energy">   -363.33360494 </i>
   </energy>
  </scstep>
  <scstep>
   <time name="diag">    0.07    0.07</time>
   <time name="diis">    0.36    0.36</time>
   <time name="orth">    0.01    0.01</time>
   <time name="total">    0.47    0.52</time>
   <energy>
    <i name="alphaZ">   1285.84273419 </i>
    <i name="ewald"> -15254.64160000 </i>
    <i name="hartreedc">  -5852.55949472 </i>
    <i name="XCdc">   -669.47142262 </i>
    <i name="pawpsdc">  29609.10205773 </i>
    <i name="pawaedc"> -27851.53091563 </i>
    <i name="eentropy">      0.01966881 </i>
    <i name="bandstr">  -1972.11324626 </i>
    <i name="atom">  20342.02516460 </i>
    <i name="e_fr_energy">   -363.32705390 </i>
    <i name="e_wo_entrp">   -363.34672272 </i>
    <i name="e_0_energy">   -363.33361017 </i>
   </energy>
  </scstep>
  <structure>
   <crystal>
    <varray name="basis" >
     <v>       6.98794031       0.00152449       0.00358345 </v>
     <v>       0.00314769      10.39355471       0.01857480 </v>
     <v>       0.00549470       0.01843829      10.25402419 </v>
    </varray>
    <i name="volume">    744.74241149 </i>
    <varray name="rec_basis" >
     <v>       0.14310373      -0.00004320      -0.00007661 </v>
     <v>      -0.00002090       0.09621379      -0.00017300 </v>
     <v>      -0.00004997      -0.00017427       0.09752303 </v>
    </varray>
   </crystal>
   <varray name="positions" >
    <v>       0.75042189       0.82313613       0.18183557 </v>
    <v>       0.23278242       0.17381110       0.51009075 </v>
    <v>       0.03682897       0.33799929       0.34010702 </v>
    <v>       0.26028602       0.49520044       0.83018802 </v>
    <v>       0.23883457       0.82215292       0.15178949 </v>
    <v>       0.48901854       0.32926968       0.66745844 </v>
    <v>       0.48552036       0.32548182       0.99179284 </v>
    <v>       0.27103833       0.49923924       0.51098970 </v>
    <v>       0.48626522       0.66536685       0.31525169 </v>
    <v>       0.49508347       0.65479038       0.68087930 </v>
    <v>       0.75591332       0.49713705       0.17207356 </v>
    <v>       0.23716222       0.82431096       0.84197324 </v>
    <v>       0.72751309       0.83114850       0.49553231 </v>
    <v>       0.75062878       0.49330173       0.83201561 </v>
    <v>       0.23801688       0.50514687       0.15071520 </v>
    <v>       0.01914585       0.67196754       0.34167805 </v>
    <v>       0.76484355       0.17700681       0.49574141 </v>
    <v>       0.46200576       0.33237120       0.33498900 </v>
    <v>       0.01568027       0.99378215       0.33112840 </v>
    <v>       0.51392459       0.67076514       0.00399483 </v>
    <v>       0.50803697       0.01389502       0.67948255 </v>
    <v>       0.99391082       0.00755671       0.67327705 </v>
    <v>       0.76085891       0.81714689       0.82301347 </v>
    <v>       0.01631819       0.33517896       0.66849447 </v>
    <v>       0.24046448       0.16988902       0.16262451 </v>
    <v>       0.97975468       0.67270172       0.00871788 </v>
    <v>       0.74092371       0.18991408       0.82641132 </v>
    <v>       0.25571111       0.17394572       0.82572829 </v>
    <v>       0.49988883       0.00491748       0.99984802 </v>
    <v>       0.74107172       0.49326528       0.49483825 </v>
    <v>       0.98668753       0.00233001       0.00155960 </v>
    <v>       0.01183332       0.31814011       0.99063258 </v>
    <v>       0.01259539       0.66015449       0.65238515 </v>
    <v>       0.47742353       0.00510177       0.32245755 </v>
    <v>       0.28994409       0.82862420       0.50801578 </v>
    <v>       0.75366162       0.18386173       0.18229007 </v>
   </varray>
  </structure>
  <varray name="forces" >
   <v>       0.01832442      -0.05676585       0.00008476 </v>
   <v>      -0.03218881       0.09493266      -0.06306552 </v>
   <v>       0.04759871      -0.05567801       0.01258656 </v>
   <v>      -0.01612545      -0.06908215       0.01696939 </v>
   <v>      -0.02674485      -0.02307171       0.01010282 </v>
   <v>      -0.01668557       0.02070733       0.03080765 </v>
   <v>      -0.00419758      -0.03784999      -0.05524192 </v>
   <v>      -0.00235853      -0.07049758      -0.07966689 </v>
   <v>       0.02698931       0.05245267      -0.03498043 </v>
   <v>      -0.25365142      -0.26189140      -0.01773161 </v>
   <v>       0.01351793      -0.02048483       0.05777859 </v>
   <v>      -0.03045646      -0.05290365      -0.01310063 </v>
   <v>       0.00659913      -0.04075586       0.02256470 </v>
   <v>      -0.02645065       0.00368315      -0.03589233 </v>
   <v>       0.00186669      -0.07225225       0.08472394 </v>
   <v>      -0.03402658       0.02340671      -0.08412122 </v>
   <v>       0.01695112       0.08538908      -0.03050166 </v>
   <v>      -0.05654787       0.00064488       0.02735214 </v>
   <v>      -0.00636354      -0.01192810       0.01256673 </v>
   <v>      -0.03131741      -0.02146253       0.08594211 </v>
   <v>      -0.12756665       0.22008588      -0.06144277 </v>
   <v>       0.12272199       0.15200858      -0.04992097 </v>
   <v>       0.02979710      -0.05354878      -0.11116531 </v>
   <v>       0.02270594      -0.05847673       0.03184493 </v>
   <v>      -0.00107287       0.03817344       0.03434612 </v>
   <v>       0.05666649       0.00780358       0.21558464 </v>
   <v>      -0.03213806       0.05570279       0.00913912 </v>
   <v>       0.02015392       0.09274972       0.02303983 </v>
   <v>      -0.10454472       0.08567708       0.04765769 </v>
   <v>      -0.00356133      -0.01583071       0.00407663 </v>
   <v>       0.10062509       0.07917707       0.07821515 </v>
   <v>       0.01723502       0.01115241      -0.04265441 </v>
   <v>       0.21356767      -0.09878240      -0.18498383 </v>
   <v>       0.01211525      -0.03955719      -0.00537880 </v>
   <v>       0.08052272      -0.01193204       0.02672913 </v>
   <v>      -0.00196016       0.04900471       0.03773569 </v>
  </varray>
  <varray name="stress" >
   <v>     -10.95971391       0.07779646      -0.38160179 </v>
   <v>       0.07779642     -10.13501237      -0.35502117 </v>
   <v>      -0.38160173      -0.35502117     -10.80475185 </v>
  </varray>
  <energy>
   <i name="e_fr_energy">   -363.32705390 </i>
   <i name="e_wo_entrp">   -363.33361017 </i>
   <i name="e_0_energy">      0.01966881 </i>
  </energy>
  <time name="totalsc">    8.81    9.57</time>
 </calculation>
 <calculation>
  <scstep>
   <time name="dav">    0.84    0.85</time>
   <time name="total">    0.92    1.11</time>
   <energy>
    <i name="alphaZ">   1290.43127101 </i>
    <i name="ewald"> -15259.43139204 </i>
    <i name="hartreedc">  -5872.00570146 </i>
    <i name="XCdc">   -668.59977316 </i>
    <i name="pawpsdc">  29609.31696476 </i>
    <i name="pawaedc"> -27851.72437058 </i>
    <i name="eentropy">      0.02006522 </i>
    <i name="bandstr">  -1953.38717068 </i>
    <i name="atom">  20342.02516460 </i>
    <i name="e_fr_energy">   -363.35494233 </i>
    <i name="e_wo_entrp">   -363.37500755 </i>
    <i name="e_0_energy">   -363.36163074 </i>
   </energy>
  </scstep>
  <scstep>
   <time name="diag">    0.07    0.07</time>
   <time name="diis">    0.70    0.71</time>
   <time name="orth">    0.01    0.01</time>
   <time name="total">    0.86    0.90</time>
   <energy>
    <i name="e_fr_energy">   -363.39355269 </i>
    <i name="e_wo_entrp">   -363.41324364 </i>
    <i name="e_0_energy">   -363.40011634 </i>
   </energy>
  </scstep>
  <scstep>
   <time name="diag">    0.07    0.07</time>
   <time name="diis">    0.70    0.70</time>
   <time name="orth">    0.01    0.01</time>
   <time name="total">    0.84    0.88</time>
   <energy>
    <i name="e_fr_energy">   -363.37290423 </i>
    <i name="e_wo_entrp">   -363.39317662 </i>
    <i name="e_0_energy">   -363.37966169 </i>
   </energy>
  </scstep>
  <scstep>
   <time name="diag">    0.07    0.07</time>
   <time name="diis">    0.76    0.77</time>
   <time name="orth">    0.01    0.01</time>
   <time name="total">    0.90    0.95</time>
   <energy>
    <i name="e_fr_energy">   -363.36908957 </i>
    <i name="e_wo_entrp">   -363.38903203 </i>
    <i name="e_0_energy">   -363.37573706 </i>
   </energy>
  </scstep>
  <scstep>
   <time name="diag">    0.07    0.07</time>
   <time name="diis">    0.82    0.83</time>
   <time name="orth">    0.01    0.01</time>
   <time name="total">    0.96    1.01</time>
   <energy>
    <i name="e_fr_energy">   -363.36841362 </i>
    <i name="e_wo_entrp">   -363.38845985 </i>
    <i name="e_0_energy">   -363.37509569 </i>
   </energy>
  </scstep>
  <scstep>
   <time name="diag">    0.07    0.07</time>
   <time name="diis">    0.76    0.76</time>
   <time name="orth">    0.01    0.01</time>
   <time name="total">    0.90    0.95</time>
   <energy>
    <i name="e_fr_energy">   -363.36848832 </i>
    <i name="e_wo_entrp">   -363.38856343 </i>
    <i name="e_0_energy">   -363.37518003 </i>
   </energy>
  </scstep>
  <scstep>
   <time name="diag">    0.07    0.07</time>
   <time name="diis">    0.74    0.75</time>
   <time name="orth">    0.01    0.01</time>
   <time name="total">    0.88    0.93</time>
   <energy>
    <i name="e_fr_energy">   -363.36849179 </i>
    <i name="e_wo_entrp">   -363.38852966 </i>
    <i name="e_0_energy">   -363.37517108 </i>
   </energy>
  </scstep>
  <scstep>
   <time name="diag">    0.07    0.07</time>
   <time name="diis">    0.69    0.69</time>
   <time name="orth">    0.01    0.01</time>
   <time name="total">    0.85    0.91</time>
   <energy>
    <i name="e_fr_energy">   -363.36855959 </i>
    <i name="e_wo_entrp">   -363.38860068 </i>
    <i name="e_0_energy">   -363.37523996 </i>
   </energy>
  </scstep>
  <scstep>
   <time name="diag">    0.08    0.08</time>
   <time name="diis">    0.65    0.66</time>
   <time name="orth">    0.01    0.01</time>
   <time name="total">    0.81    0.86</time>
   <energy>
    <i name="e_fr_energy">   -363.36858302 </i>
    <i name="e_wo_entrp">   -363.38863928 </i>
    <i name="e_0_energy">   -363.37526844 </i>
   </energy>
  </scstep>
  <scstep>
   <time name="diag">    0.07    0.07</time>
   <time name="diis">    0.52    0.52</time>
   <time name="orth">    0.01    0.01</time>
   <time name="total">    0.66    0.70</time>
   <energy>
    <i name="e_fr_energy">   -363.36859743 </i>
    <i name="e_wo_entrp">   -363.38863296 </i>
    <i name="e_0_energy">   -363.37527594 </i>
   </energy>
  </scstep>
  <scstep>
   <time name="diag">    0.07    0.07</time>
   <time name="diis">    0.41    0.42</time>
   <time name="orth">    0.01    0.01</time>
   <time name="total">    0.53    0.58</time>
   <energy>
    <i name="alphaZ">   1290.43127101 </i>
    <i name="ewald"> -15259.43139204 </i>
    <i name="hartreedc">  -5861.87740788 </i>
    <i name="XCdc">   -669.02313066 </i>
    <i name="pawpsdc">  29792.03398329 </i>
    <i name="pawaedc"> -28034.17159482 </i>
    <i name="eentropy">      0.02005279 </i>
    <i name="bandstr">  -1963.37554866 </i>
    <i name="atom">  20342.02516460 </i>
    <i name="e_fr_energy">   -363.36860237 </i>
    <i name="e_wo_entrp">   -363.38865516 </i>
    <i name="e_0_energy">   -363.37528664 </i>
   </energy>
  </scstep>
  <structure>
   <crystal>
    <varray name="basis" >
     <v>       6.97785327       0.00357716       0.00310606 </v>
     <v>       0.00619818      10.38686817       0.01505072 </v>
     <v>       0.00480018       0.01497850      10.23891068 </v>
    </varray>
    <i name="volume">    742.09424412 </i>
    <varray name="rec_basis" >
     <v>       0.14331063      -0.00008542      -0.00006706 </v>
     <v>      -0.00004929       0.09627564      -0.00014082 </v>
     <v>      -0.00004340      -0.00014149       0.09766687 </v>
    </varray>
   </crystal>
   <varray name="positions" >
    <v>       0.75060858       0.82300329       0.18167753 </v>
    <v>       0.23267460       0.17388363       0.51003526 </v>
    <v>       0.03699417       0.33788450       0.34007042 </v>
    <v>       0.26029675       0.49506331       0.83005090 </v>
    <v>       0.23851609       0.82197792       0.15175910 </v>
    <v>       0.48885543       0.32935192       0.66759985 </v>
    <v>       0.48547198       0.32539970       0.99163146 </v>
    <v>       0.27090681       0.49926544       0.51088191 </v>
    <v>       0.48631823       0.66549952       0.31517221 </v>
    <v>       0.49158438       0.65254067       0.68014766 </v>
    <v>       0.75609493       0.49723705       0.17208130 </v>
    <v>       0.23737463       0.82425288       0.84175243 </v>
    <v>       0.72758342       0.83104552       0.49541234 </v>
    <v>       0.75053132       0.49317989       0.83184122 </v>
    <v>       0.23799830       0.50515660       0.15079736 </v>
    <v>       0.01888185       0.67206168       0.34157851 </v>
    <v>       0.76488165       0.17714703       0.49579766 </v>
    <v>       0.46176387       0.33238748       0.33509262 </v>
    <v>       0.01567061       0.99373616       0.33118230 </v>
    <v>       0.51267976       0.66988410       0.00520211 </v>
    <v>       0.50645122       0.01560214       0.67886026 </v>
    <v>       0.99546390       0.00912884       0.67243914 </v>
    <v>       0.76164810       0.81733253       0.82199782 </v>
    <v>       0.01659506       0.33500842       0.66863989 </v>
    <v>       0.24045491       0.16980343       0.16262177 </v>
    <v>       0.98126429       0.67162187       0.01134209 </v>
    <v>       0.74067770       0.19003736       0.82642382 </v>
    <v>       0.25577529       0.17417718       0.82565013 </v>
    <v>       0.49858789       0.00588481       0.00055515 </v>
    <v>       0.74114346       0.49333134       0.49496137 </v>
    <v>       0.98785965       0.00332154       0.00252724 </v>
    <v>       0.01190539       0.31814435       0.99051178 </v>
    <v>       0.01497315       0.65911718       0.65063816 </v>
    <v>       0.47743987       0.00506003       0.32244867 </v>
    <v>       0.29037166       0.82853845       0.50828939 </v>
    <v>       0.75370013       0.18394124       0.18233020 </v>
   </varray>
  </structure>
  <varray name="forces" >
   <v>       0.01018806      -0.03499351       0.00799201 </v>
   <v>      -0.01633905       0.10814373      -0.12123175 </v>
   <v>       0.01824158      -0.05778235       0.01652196 </v>
   <v>      -0.06327544      -0.08364174       0.08757834 </v>
   <v>       0.00050818       0.02428112       0.03432926 </v>
   <v>       0.02466308       0.03845587       0.01353607 </v>
   <v>       0.02794383      -0.02819504      -0.03655148 </v>
   <v>      -0.00983931      -0.13195858      -0.16215511 </v>
   <v>       0.05199893       0.05372850      -0.02162783 </v>
   <v>      -0.06431432      -0.11119674       0.05489485 </v>
   <v>       0.00173080      -0.06415181       0.09540871 </v>
   <v>      -0.06074564      -0.06560222      -0.00682262 </v>
   <v>       0.02910414      -0.03980600       0.06667998 </v>
   <v>      -0.01775756       0.03162700      -0.02679017 </v>
   <v>       0.01166072      -0.14497450       0.14306983 </v>
   <v>      -0.04622960       0.01183865      -0.13172872 </v>
   <v>       0.00302521       0.10720857      -0.06834367 </v>
   <v>      -0.02291082       0.00485215       0.01627814 </v>
   <v>      -0.02867603      -0.01365341       0.02941839 </v>
   <v>       0.05085113       0.07745764      -0.02601165 </v>
   <v>      -0.07554578       0.10888887      -0.03923695 </v>
   <v>       0.07064802       0.01524942       0.02729407 </v>
   <v>      -0.03826939      -0.08566114      -0.05551961 </v>
   <v>      -0.03051616      -0.05676464       0.03476493 </v>
   <v>       0.00361322       0.05249095       0.05706925 </v>
   <v>      -0.04028816       0.12932406      -0.01670043 </v>
   <v>      -0.00425329       0.03754402       0.03054667 </v>
   <v>       0.00067643       0.09375029       0.07949062 </v>
   <v>      -0.04872411       0.00643141      -0.02093042 </v>
   <v>       0.00135863      -0.02671314      -0.01507053 </v>
   <v>       0.04975839      -0.00287667      -0.01198439 </v>
   <v>      -0.00493823       0.04319933      -0.04446533 </v>
   <v>       0.11559663      -0.00937541      -0.06119662 </v>
   <v>       0.04104562      -0.06736641       0.00731572 </v>
   <v>       0.07790036       0.02207615       0.01380725 </v>
   <v>      -0.01789005       0.05816558       0.05037122 </v>
  </varray>
  <varray name="stress" >
   <v>      -5.46972323      -0.21098789      -0.58045170 </v>
   <v>      -0.21098788      -4.83985386      -0.21237595 </v>
   <v>      -0.58045166      -0.21237602      -5.01176271 </v>
  </varray>
  <energy>
   <i name="e_fr_energy">   -363.36860237 </i>
   <i name="e_wo_entrp">   -363.37528664 </i>
   <i name="e_0_energy">      0.02005279 </i>
  </energy>
  <time name="totalsc">   10.56   11.36</time>
 </calculation>
 <calculation>
  <scstep>
   <time name="dav">    0.82    0.83</time>
   <time name="total">    0.89    1.07</time>
   <energy>
    <i name="alphaZ">   1292.20840905 </i>
    <i name="ewald"> -15260.91159340 </i>
    <i name="hartreedc">  -5869.74556892 </i>
    <i name="XCdc">   -668.68388399 </i>
    <i name="pawpsdc">  29792.68906282 </i>
    <i name="pawaedc"> -28034.79418870 </i>
    <i name="eentropy">      0.02024389 </i>
    <i name="bandstr">  -1956.17734760 </i>
    <i name="atom">  20342.02516460 </i>
    <i name="e_fr_energy">   -363.36970225 </i>
    <i name="e_wo_entrp">   -363.38994614 </i>
    <i name="e_0_energy">   -363.37645022 </i>
   </energy>
  </scstep>
  <scstep>
   <time name="diag">    0.07    0.07</time>
   <time name="diis">    0.67    0.68</time>
   <time name="orth">    0.01    0.01</time>
   <time name="total">    0.83    0.87</time>
   <energy>
    <i name="e_fr_energy">   -363.37544228 </i>
    <i name="e_wo_entrp">   -363.39547795 </i>
    <i name="e_0_energy">   -363.38212084 </i>
   </energy>
  </scstep>
  <scstep>
   <time name="diag">    0.11    0.11</time>
   <time name="diis">    0.69    0.70</time>
   <time name="orth">    0.01    0.01</time>
   <time name="total">    0.87    0.92</time>
   <energy>
    <i name="e_fr_energy">   -363.37270820 </i>
    <i name="e_wo_entrp">   -363.39303195 </i>
    <i name="e_0_energy">   -363.37948278 </i>
   </energy>
  </scstep>
  <scstep>
   <time name="diag">    0.09    0.09</time>
   <time name="diis">    0.78    0.79</time>
   <time name="orth">    0.01    0.01</time>
   <time name="total">    0.94    0.99</time>
   <energy>
    <i name="e_fr_energy">   -363.37212629 </i>
    <i name="e_wo_entrp">   -363.39229098 </i>
    <i name="e_0_energy">   -363.37884785 </i>
   </energy>
  </scstep>
  <scstep>
   <time name="diag">    0.07    0.07</time>
   <time name="diis">    0.72    0.73</time>
   <time name="orth">    0.01    0.01</time>
   <time name="total">    0.87    0.91</time>
   <energy>
    <i name="e_fr_energy">   -363.37203725 </i>
    <i name="e_wo_entrp">   -363.39224949 </i>
    <i name="e_0_energy">   -363.37877466 </i>
   </energy>
  </scstep>
  <scstep>
   <time name="diag">    0.07    0.07</time>
   <time name="diis">    0.72    0.72</time>
   <time name="orth">    0.01    0.01</time>
   <time name="total">    0.86    0.91</time>
   <energy>
    <i name="e_fr_energy">   -363.37205288 </i>
    <i name="e_wo_entrp">   -363.39227129 </i>
    <i name="e_0_energy">   -363.37879235 </i>
   </energy>
  </scstep>
  <scstep>
   <time name="diag">    0.07    0.07</time>
   <time name="diis">    0.65    0.65</time>
   <time name="orth">    0.01    0.01</time>
   <time name="total">    0.80    0.87</time>
   <energy>
    <i name="e_fr_energy">   -363.37205716 </i>
    <i name="e_wo_entrp">   -363.39226519 </i>
    <i name="e_0_energy">   -363.37879317 </i>
   </energy>
  </scstep>
  <scstep>
   <time name="diag">    0.07    0.07</time>
   <time name="diis">    0.49    0.49</time>
   <time name="orth">    0.01    0.01</time>
   <time name="total">    0.63    0.67</time>
   <energy>
    <i name="e_fr_energy">   -363.37207141 </i>
    <i name="e_wo_entrp">   -363.39227758 </i>
    <i name="e_0_energy">   -363.37880680 </i>
   </energy>
  </scstep>
  <scstep>
   <time name="diag">    0.07    0.07</time>
   <time name="diis">    0.43    0.43</time>
   <time name="orth">    0.01    0.01</time>
   <time name="total">    0.58    0.62</time>
   <energy>
    <i name="alphaZ">   1292.20840905 </i>
    <i name="ewald"> -15260.91159340 </i>
    <i name="hartreedc">  -5865.85546804 </i>
    <i name="XCdc">   -668.84723856 </i>
    <i name="pawpsdc">  29865.85630346 </i>
    <i name="pawaedc"> -28107.87965637 </i>
    <i name="eentropy">      0.02021301 </i>
    <i name="bandstr">  -1959.98821160 </i>
    <i name="atom">  20342.02516460 </i>
    <i name="e_fr_energy">   -363.37207784 </i>
    <i name="e_wo_entrp">   -363.39229085 </i>
    <i name="e_0_energy">   -363.37881551 </i>
   </energy>
  </scstep>
  <structure>
   <crystal>
[...]
       <r>    6.1488    1.0000 </r>
       <r>    6.1962    1.0000 </r>
       <r>    6.2368    1.0000 </r>
       <r>    6.2615    1.0000 </r>
       <r>    6.3289    1.0000 </r>
       <r>    6.3558    1.0000 </r>
       <r>    6.3783    1.0000 </r>
       <r>    6.4379    1.0000 </r>
       <r>    6.4634    1.0000 </r>
       <r>    6.5143    1.0003 </r>
       <r>    6.5480    1.0008 </r>
       <r>    6.5782    1.0019 </r>
       <r>    6.6411    1.0088 </r>
       <r>    6.6551    1.0117 </r>
       <r>    6.6786    1.0177 </r>
       <r>    6.7130    1.0281 </r>
       <r>    6.7421    1.0347 </r>
       <r>    6.7901    1.0225 </r>
       <r>    6.8147    0.9931 </r>
       <r>    6.8570    0.8865 </r>
       <r>    6.8838    0.7782 </r>
       <r>    6.9379    0.4926 </r>
       <r>    6.9724    0.3043 </r>
       <r>    6.9982    0.1826 </r>
       <r>    7.0209    0.0978 </r>
       <r>    7.0847   -0.0238 </r>
       <r>    7.1156   -0.0353 </r>
       <r>    7.1560   -0.0293 </r>
       <r>    7.2151   -0.0123 </r>
       <r>    7.2562   -0.0051 </r>
       <r>    7.2937   -0.0019 </r>
       <r>    7.3133   -0.0011 </r>
       <r>    7.3677   -0.0002 </r>
       <r>    7.4207   -0.0000 </r>
       <r>    7.4417   -0.0000 </r>
       <r>    7.4773   -0.0000 </r>
       <r>    7.5199   -0.0000 </r>
       <r>    7.5481   -0.0000 </r>
       <r>    7.5924   -0.0000 </r>
       <r>    7.6160   -0.0000 </r>
       <r>    7.7119   -0.0000 </r>
       <r>    7.7316   -0.0000 </r>
       <r>    7.7908   -0.0000 </r>
       <r>    7.8277   -0.0000 </r>
       <r>    7.8709   -0.0000 </r>
       <r>    8.1314   -0.0000 </r>
       <r>    8.2341   -0.0000 </r>
       <r>    8.3236   -0.0000 </r>
       <r>    8.8699   -0.0000 </r>
      </set>
     </set>
    </set>
   </array>
  </eigenvalues>
  <separator name="orbital magnetization" >
   <v name="MAGDIPOLOUT">      0.00000000      0.00000000      0.00000000</v>
  </separator>
  <dos>
   <i name="efermi">      6.93655760 </i>
   <total>
    <array>
     <dimension dim="1">gridpoints</dimension>
     <dimension dim="2">spin</dimension>
     <field>energy</field>
     <field>total</field>
     <field>integrated</field>
     <set>
      <set comment="spin 1">
       <r>   -50.0610     0.0000     0.0000 </r>
       <r>   -49.8552     0.0000     0.0000 </r>
       <r>   -49.6494     0.0000     0.0000 </r>
       <r>   -49.4436     0.0000     0.0000 </r>
       <r>   -49.2378     0.0000     0.0000 </r>
       <r>   -49.0320     0.0000     0.0000 </r>
       <r>   -48.8263     0.0000     0.0000 </r>
       <r>   -48.6205    -0.0000    -0.0000 </r>
       <r>   -48.4147    -0.0000    -0.0000 </r>
       <r>   -48.2089    -0.0000    -0.0000 </r>
       <r>   -48.0031    -0.0000    -0.0000 </r>
       <r>   -47.7973    -0.0000    -0.0000 </r>
       <r>   -47.5915    -0.0432    -0.0089 </r>
       <r>   -47.3857    -1.0303    -0.2209 </r>
       <r>   -47.1799    24.5248     4.8260 </r>
       <r>   -46.9741    26.2154    10.2209 </r>
       <r>   -46.7684    -1.0232    10.0103 </r>
       <r>   -46.5626    -0.0502    10.0000 </r>
       <r>   -46.3568    -0.0000    10.0000 </r>
       <r>   -46.1510    -0.0000    10.0000 </r>
       <r>   -45.9452     0.0000    10.0000 </r>
       <r>   -45.7394     0.0000    10.0000 </r>
       <r>   -45.5336     0.0000    10.0000 </r>
       <r>   -45.3278     0.0000    10.0000 </r>
       <r>   -45.1220     0.0000    10.0000 </r>
       <r>   -44.9162     0.0000    10.0000 </r>
       <r>   -44.7104     0.0000    10.0000 </r>
       <r>   -44.5047     0.0000    10.0000 </r>
       <r>   -44.2989     0.0000    10.0000 </r>
       <r>   -44.0931     0.0000    10.0000 </r>
       <r>   -43.8873     0.0000    10.0000 </r>
       <r>   -43.6815     0.0000    10.0000 </r>
       <r>   -43.4757     0.0000    10.0000 </r>
       <r>   -43.2699     0.0000    10.0000 </r>
       <r>   -43.0641     0.0000    10.0000 </r>
       <r>   -42.8583     0.0000    10.0000 </r>
       <r>   -42.6525    -0.0000    10.0000 </r>
       <r>   -42.4468    -0.0000    10.0000 </r>
       <r>   -42.2410    -0.0000    10.0000 </r>
       <r>   -42.0352    -0.0000    10.0000 </r>
       <r>   -41.8294    -0.0021     9.9996 </r>
       <r>   -41.6236    -0.6152     9.8730 </r>
       <r>   -41.4178     7.3845    11.3926 </r>
       <r>   -41.2120    42.4739    20.1333 </r>
       <r>   -41.0062    25.3186    25.3437 </r>
       <r>   -40.8004     3.5108    26.0662 </r>
       <r>   -40.5946    -0.3204    26.0002 </r>
       <r>   -40.3888    -0.0011    26.0000 </r>
       <r>   -40.1831    -0.0000    26.0000 </r>
       <r>   -39.9773    -0.0000    26.0000 </r>
       <r>   -39.7715     0.0000    26.0000 </r>
       <r>   -39.5657     0.0000    26.0000 </r>
       <r>   -39.3599     0.0000    26.0000 </r>
       <r>   -39.1541     0.0000    26.0000 </r>
       <r>   -38.9483     0.0000    26.0000 </r>
       <r>   -38.7425     0.0000    26.0000 </r>
       <r>   -38.5367     0.0000    26.0000 </r>
       <r>   -38.3309     0.0000    26.0000 </r>
       <r>   -38.1252     0.0000    26.0000 </r>
       <r>   -37.9194     0.0000    26.0000 </r>
       <r>   -37.7136     0.0000    26.0000 </r>
       <r>   -37.5078     0.0000    26.0000 </r>
       <r>   -37.3020     0.0000    26.0000 </r>
       <r>   -37.0962     0.0000    26.0000 </r>
       <r>   -36.8904     0.0000    26.0000 </r>
       <r>   -36.6846     0.0000    26.0000 </r>
       <r>   -36.4788     0.0000    26.0000 </r>
       <r>   -36.2730     0.0000    26.0000 </r>
       <r>   -36.0672     0.0000    26.0000 </r>
       <r>   -35.8615     0.0000    26.0000 </r>
       <r>   -35.6557     0.0000    26.0000 </r>
       <r>   -35.4499     0.0000    26.0000 </r>
       <r>   -35.2441     0.0000    26.0000 </r>
       <r>   -35.0383     0.0000    26.0000 </r>
       <r>   -34.8325     0.0000    26.0000 </r>
       <r>   -34.6267     0.0000    26.0000 </r>
       <r>   -34.4209     0.0000    26.0000 </r>
       <r>   -34.2151     0.0000    26.0000 </r>
       <r>   -34.0093     0.0000    26.0000 </r>
       <r>   -33.8035     0.0000    26.0000 </r>
       <r>   -33.5978     0.0000    26.0000 </r>
       <r>   -33.3920     0.0000    26.0000 </r>
       <r>   -33.1862     0.0000    26.0000 </r>
       <r>   -32.9804     0.0000    26.0000 </r>
       <r>   -32.7746     0.0000    26.0000 </r>
       <r>   -32.5688     0.0000    26.0000 </r>
       <r>   -32.3630     0.0000    26.0000 </r>
       <r>   -32.1572     0.0000    26.0000 </r>
       <r>   -31.9514     0.0000    26.0000 </r>
       <r>   -31.7456     0.0000    26.0000 </r>
       <r>   -31.5399     0.0000    26.0000 </r>
       <r>   -31.3341     0.0000    26.0000 </r>
       <r>   -31.1283     0.0000    26.0000 </r>
       <r>   -30.9225     0.0000    26.0000 </r>
       <r>   -30.7167     0.0000    26.0000 </r>
       <r>   -30.5109     0.0000    26.0000 </r>
       <r>   -30.3051     0.0000    26.0000 </r>
       <r>   -30.0993     0.0000    26.0000 </r>
       <r>   -29.8935     0.0000    26.0000 </r>
       <r>   -29.6877     0.0000    26.0000 </r>
       <r>   -29.4819     0.0000    26.0000 </r>
       <r>   -29.2762     0.0000    26.0000 </r>
       <r>   -29.0704     0.0000    26.0000 </r>
       <r>   -28.8646     0.0000    26.0000 </r>
       <r>   -28.6588     0.0000    26.0000 </r>
       <r>   -28.4530     0.0000    26.0000 </r>
       <r>   -28.2472     0.0000    26.0000 </r>
       <r>   -28.0414     0.0000    26.0000 </r>
       <r>   -27.8356     0.0000    26.0000 </r>
       <r>   -27.6298     0.0000    26.0000 </r>
       <r>   -27.4240     0.0000    26.0000 </r>
       <r>   -27.2183     0.0000    26.0000 </r>
       <r>   -27.0125     0.0000    26.0000 </r>
       <r>   -26.8067     0.0000    26.0000 </r>
       <r>   -26.6009     0.0000    26.0000 </r>
       <r>   -26.3951     0.0000    26.0000 </r>
       <r>   -26.1893     0.0000    26.0000 </r>
       <r>   -25.9835     0.0000    26.0000 </r>
       <r>   -25.7777     0.0000    26.0000 </r>
       <r>   -25.5719     0.0000    26.0000 </r>
       <r>   -25.3661     0.0000    26.0000 </r>
       <r>   -25.1603     0.0000    26.0000 </r>
       <r>   -24.9546    -0.0000    26.0000 </r>
       <r>   -24.7488    -0.0000    26.0000 </r>
       <r>   -24.5430    -0.0000    26.0000 </r>
       <r>   -24.3372    -0.0000    26.0000 </r>
       <r>   -24.1314    -0.0000    26.0000 </r>
       <r>   -23.9256    -0.0351    25.9928 </r>
       <r>   -23.7198    -0.4866    25.8926 </r>
       <r>   -23.5140    11.6447    28.2890 </r>
       <r>   -23.3082    60.9930    40.8408 </r>
       <r>   -23.1024    66.6119    54.5489 </r>
       <r>   -22.8967     7.6727    56.1278 </r>
       <r>   -22.6909    -0.6083    56.0027 </r>
       <r>   -22.4851    -0.0129    56.0000 </r>
       <r>   -22.2793    -0.0000    56.0000 </r>
       <r>   -22.0735    -0.0000    56.0000 </r>
       <r>   -21.8677     0.0000    56.0000 </r>
       <r>   -21.6619     0.0000    56.0000 </r>
       <r>   -21.4561     0.0000    56.0000 </r>
       <r>   -21.2503     0.0000    56.0000 </r>
       <r>   -21.0445    -0.0000    56.0000 </r>
       <r>   -20.8387    -0.0000    56.0000 </r>
       <r>   -20.6330    -0.0000    56.0000 </r>
       <r>   -20.4272    -0.0000    56.0000 </r>
       <r>   -20.2214    -0.0025    55.9995 </r>
       <r>   -20.0156    -0.3288    55.9318 </r>
       <r>   -19.8098     3.7514    56.7038 </r>
       <r>   -19.6040    23.0227    61.4417 </r>
       <r>   -19.3982    69.2399    75.6906 </r>
       <r>   -19.1924    90.3114    94.2758 </r>
       <r>   -18.9866    38.4261   102.1835 </r>
       <r>   -18.7808     9.0541   104.0468 </r>
       <r>   -18.5750    -0.1919   104.0073 </r>
       <r>   -18.3693    -0.0355   104.0000 </r>
       <r>   -18.1635    -0.0000   104.0000 </r>
       <r>   -17.9577    -0.0000   104.0000 </r>
       <r>   -17.7519     0.0000   104.0000 </r>
       <r>   -17.5461     0.0000   104.0000 </r>
       <r>   -17.3403     0.0000   104.0000 </r>
       <r>   -17.1345     0.0000   104.0000 </r>
       <r>   -16.9287     0.0000   104.0000 </r>
       <r>   -16.7229     0.0000   104.0000 </r>
       <r>   -16.5171     0.0000   104.0000 </r>
       <r>   -16.3114     0.0000   104.0000 </r>
       <r>   -16.1056     0.0000   104.0000 </r>
       <r>   -15.8998     0.0000   104.0000 </r>
       <r>   -15.6940     0.0000   104.0000 </r>
       <r>   -15.4882     0.0000   104.0000 </r>
       <r>   -15.2824     0.0000   104.0000 </r>
       <r>   -15.0766     0.0000   104.0000 </r>
       <r>   -14.8708     0.0000   104.0000 </r>
       <r>   -14.6650     0.0000   104.0000 </r>
       <r>   -14.4592     0.0000   104.0000 </r>
       <r>   -14.2534     0.0000   104.0000 </r>
       <r>   -14.0477     0.0000   104.0000 </r>
       <r>   -13.8419     0.0000   104.0000 </r>
       <r>   -13.6361     0.0000   104.0000 </r>
       <r>   -13.4303     0.0000   104.0000 </r>
       <r>   -13.2245     0.0000   104.0000 </r>
       <r>   -13.0187     0.0000   104.0000 </r>
       <r>   -12.8129     0.0000   104.0000 </r>
       <r>   -12.6071     0.0000   104.0000 </r>
       <r>   -12.4013     0.0000   104.0000 </r>
       <r>   -12.1955     0.0000   104.0000 </r>
       <r>   -11.9898     0.0000   104.0000 </r>
       <r>   -11.7840     0.0000   104.0000 </r>
       <r>   -11.5782     0.0000   104.0000 </r>
       <r>   -11.3724     0.0000   104.0000 </r>
       <r>   -11.1666     0.0000   104.0000 </r>
       <r>   -10.9608     0.0000   104.0000 </r>
       <r>   -10.7550     0.0000   104.0000 </r>
       <r>   -10.5492     0.0000   104.0000 </r>
       <r>   -10.3434     0.0000   104.0000 </r>
       <r>   -10.1376     0.0000   104.0000 </r>
       <r>    -9.9318     0.0000   104.0000 </r>
       <r>    -9.7261     0.0000   104.0000 </r>
       <r>    -9.5203     0.0000   104.0000 </r>
       <r>    -9.3145     0.0000   104.0000 </r>
       <r>    -9.1087     0.0000   104.0000 </r>
       <r>    -8.9029     0.0000   104.0000 </r>
       <r>    -8.6971     0.0000   104.0000 </r>
       <r>    -8.4913     0.0000   104.0000 </r>
       <r>    -8.2855     0.0000   104.0000 </r>
       <r>    -8.0797     0.0000   104.0000 </r>
       <r>    -7.8739     0.0000   104.0000 </r>
       <r>    -7.6682     0.0000   104.0000 </r>
       <r>    -7.4624     0.0000   104.0000 </r>
       <r>    -7.2566     0.0000   104.0000 </r>
       <r>    -7.0508     0.0000   104.0000 </r>
       <r>    -6.8450     0.0000   104.0000 </r>
       <r>    -6.6392     0.0000   104.0000 </r>
       <r>    -6.4334     0.0000   104.0000 </r>
       <r>    -6.2276     0.0000   104.0000 </r>
       <r>    -6.0218     0.0000   104.0000 </r>
       <r>    -5.8160     0.0000   104.0000 </r>
       <r>    -5.6102     0.0000   104.0000 </r>
       <r>    -5.4045     0.0000   104.0000 </r>
       <r>    -5.1987     0.0000   104.0000 </r>
       <r>    -4.9929     0.0000   104.0000 </r>
       <r>    -4.7871     0.0000   104.0000 </r>
       <r>    -4.5813     0.0000   104.0000 </r>
       <r>    -4.3755     0.0000   104.0000 </r>
       <r>    -4.1697     0.0000   104.0000 </r>
       <r>    -3.9639     0.0000   104.0000 </r>
       <r>    -3.7581     0.0000   104.0000 </r>
       <r>    -3.5523     0.0000   104.0000 </r>
       <r>    -3.3465     0.0000   104.0000 </r>
       <r>    -3.1408     0.0000   104.0000 </r>
       <r>    -2.9350     0.0000   104.0000 </r>
       <r>    -2.7292     0.0000   104.0000 </r>
       <r>    -2.5234     0.0000   104.0000 </r>
       <r>    -2.3176     0.0000   104.0000 </r>
       <r>    -2.1118     0.0000   104.0000 </r>
       <r>    -1.9060     0.0000   104.0000 </r>
       <r>    -1.7002     0.0000   104.0000 </r>
       <r>    -1.4944     0.0000   104.0000 </r>
       <r>    -1.2886    -0.0000   104.0000 </r>
       <r>    -1.0829    -0.0000   104.0000 </r>
       <r>    -0.8771    -0.0000   104.0000 </r>
       <r>    -0.6713    -0.0000   104.0000 </r>
       <r>    -0.4655    -0.0000   104.0000 </r>
       <r>    -0.2597    -0.0023   103.9995 </r>
       <r>    -0.0539     0.0111   104.0018 </r>
       <r>     0.1519     0.3413   104.0720 </r>
       <r>     0.3577     1.2767   104.3348 </r>
       <r>     0.5635     1.7724   104.6995 </r>
       <r>     0.7693     2.2348   105.1594 </r>
       <r>     0.9751     4.0801   105.9990 </r>
       <r>     1.1808     2.8804   106.5918 </r>
       <r>     1.3866     3.2295   107.2564 </r>
       <r>     1.5924     4.2407   108.1291 </r>
       <r>     1.7982     3.2541   108.7988 </r>
       <r>     2.0040     4.0801   109.6384 </r>
       <r>     2.2098     6.2926   110.9334 </r>
       <r>     2.4156     8.7363   112.7312 </r>
       <r>     2.6214     8.0927   114.3966 </r>
       <r>     2.8272     7.4613   115.9321 </r>
       <r>     3.0330     7.8720   117.5520 </r>
       <r>     3.2387    14.5136   120.5388 </r>
       <r>     3.4445    19.5006   124.5518 </r>
       <r>     3.6503    21.5357   128.9837 </r>
       <r>     3.8561    26.9987   134.5398 </r>
       <r>     4.0619    30.8690   140.8923 </r>
       <r>     4.2677    30.6603   147.2019 </r>
       <r>     4.4735    37.8188   154.9846 </r>
       <r>     4.6793    37.8482   162.7735 </r>
       <r>     4.8851    32.8166   169.5268 </r>
       <r>     5.0909    34.2607   176.5773 </r>
       <r>     5.2967    30.4427   182.8422 </r>
       <r>     5.5024    14.7951   185.8869 </r>
       <r>     5.7082    43.3772   194.8135 </r>
       <r>     5.9140    62.2406   207.6220 </r>
       <r>     6.1198    57.2296   219.3993 </r>
       <r>     6.3256    55.1749   230.7538 </r>
       <r>     6.5314    55.0124   242.0748 </r>
       <r>     6.7372    54.2624   253.2415 </r>
       <r>     6.9430    48.8953   263.3037 </r>
       <r>     7.1488    47.0857   272.9935 </r>
       <r>     7.3546    48.4240   282.9587 </r>
       <r>     7.5603    44.9115   292.2011 </r>
       <r>     7.7661    37.9180   300.0043 </r>
       <r>     7.9719    29.6741   306.1109 </r>
       <r>     8.1777    22.5921   310.7602 </r>
       <r>     8.3835    19.5401   314.7813 </r>
       <r>     8.5893    11.0760   317.0607 </r>
       <r>     8.7951    11.2821   319.3824 </r>
       <r>     9.0009     3.1700   320.0348 </r>
       <r>     9.2067    -0.1631   320.0012 </r>
       <r>     9.4125    -0.0059   320.0000 </r>
       <r>     9.6183    -0.0000   320.0000 </r>
       <r>     9.8240    -0.0000   320.0000 </r>
       <r>    10.0298     0.0000   320.0000 </r>
       <r>    10.2356     0.0000   320.0000 </r>
       <r>    10.4414     0.0000   320.0000 </r>
       <r>    10.6472     0.0000   320.0000 </r>
       <r>    10.8530     0.0000   320.0000 </r>
       <r>    11.0588     0.0000   320.0000 </r>
       <r>    11.2646     0.0000   320.0000 </r>
       <r>    11.4704     0.0000   320.0000 </r>
       <r>    11.6762     0.0000   320.0000 </r>
      </set>
     </set>
    </array>
   </total>
  </dos>
 </calculation>
 <structure name="finalpos" >
  <crystal>
   <varray name="basis" >
    <v>       6.96308997      -0.00160604       0.01122487 </v>
    <v>      -0.00152625      10.38405476       0.01400177 </v>
    <v>       0.01676654       0.01397326      10.23237753 </v>
   </varray>
   <i name="volume">    739.84981619 </i>
   <varray name="rec_basis" >
    <v>       0.14361479       0.00002143      -0.00023535 </v>
    <v>       0.00002242       0.09630168      -0.00013155 </v>
    <v>      -0.00015758      -0.00013180       0.09772944 </v>
   </varray>
  </crystal>
  <varray name="positions" >
   <v>       0.75850076       0.82507480       0.18194539 </v>
   <v>       0.22753690       0.17696782       0.50849905 </v>
   <v>       0.03603854       0.33399387       0.33931752 </v>
   <v>       0.25260225       0.49423451       0.83446928 </v>
   <v>       0.23808684       0.82360418       0.15028501 </v>
   <v>       0.48678198       0.33245399       0.66661975 </v>
   <v>       0.48746118       0.32427227       0.99291623 </v>
   <v>       0.25804878       0.49473133       0.50218135 </v>
   <v>       0.49123486       0.66665986       0.31542429 </v>
   <v>       0.47730574       0.64030970       0.67369897 </v>
   <v>       0.75847287       0.49584582       0.17427206 </v>
   <v>       0.24948969       0.82145000       0.84461927 </v>
   <v>       0.73084860       0.83057419       0.49910187 </v>
   <v>       0.74735538       0.49535060       0.83003615 </v>
   <v>       0.24143965       0.50244137       0.15612034 </v>
   <v>       0.01985980       0.67582216       0.33933988 </v>
   <v>       0.76929069       0.17623619       0.49786666 </v>
   <v>       0.46705922       0.32826268       0.33666855 </v>
   <v>       0.01854151       0.99303785       0.33197802 </v>
   <v>       0.51972000       0.67172488       0.01222832 </v>
   <v>       0.49341986       0.02397193       0.67586332 </v>
   <v>       0.00285311       0.00554267       0.67545817 </v>
   <v>       0.73540718       0.81702209       0.81132582 </v>
   <v>       0.00976502       0.33594718       0.67070274 </v>
   <v>       0.24468590       0.16955047       0.16174937 </v>
   <v>       0.97899163       0.67198624       0.00779610 </v>
   <v>       0.73988091       0.18932867       0.82580512 </v>
   <v>       0.25251553       0.17770597       0.82931562 </v>
   <v>       0.50072702       0.00649813       0.00005678 </v>
   <v>       0.74667719       0.49599592       0.49610125 </v>
   <v>       0.98939490       0.00303727      -0.00003068 </v>
   <v>       0.00942922       0.32272317       0.99043479 </v>
   <v>       0.02050399       0.66486484       0.65455047 </v>
   <v>       0.48522545       0.00236274       0.32206189 </v>
   <v>       0.29770722       0.82756380       0.50874150 </v>
   <v>       0.75713961       0.18285985       0.18248077 </v>
  </varray>
 </structure>
</modeling>
