       N       E                     dE             d eps       ncg     rms          rms(c)
DAV:   1     0.131872159156E+04    0.13187E+04   -0.90112E+04  4600   0.101E+03
DAV:   2    -0.144791725071E+03   -0.14635E+04   -0.14118E+04  4760   0.337E+02
DAV:   3    -0.350327749007E+03   -0.20554E+03   -0.19471E+03  7336   0.978E+01
DAV:   4    -0.375598451629E+03   -0.25271E+02   -0.23975E+02  7200   0.285E+01
DAV:   5    -0.378364862496E+03   -0.27664E+01   -0.26759E+01  7208   0.986E+00    0.645E+01
RMM:   6    -0.367968582622E+03    0.10396E+02   -0.27771E+01  6341   0.980E+00    0.313E+01
RMM:   7    -0.367296006717E+03    0.67258E+00   -0.25320E+01  6429   0.838E+00    0.960E+00
RMM:   8    -0.363227795953E+03    0.40682E+01   -0.61458E+00  6719   0.403E+00    0.338E+00
RMM:   9    -0.363104615394E+03    0.12318E+00   -0.22537E+00  6750   0.183E+00    0.243E+00
RMM:  10    -0.363060644268E+03    0.43971E-01   -0.43758E-01  6762   0.124E+00    0.121E+00
RMM:  11    -0.363046959739E+03    0.13685E-01   -0.15009E-01  6708   0.563E-01    0.561E-01
RMM:  12    -0.363051831731E+03   -0.48720E-02   -0.77177E-02  6855   0.327E-01    0.344E-01
RMM:  13    -0.363053717132E+03   -0.18854E-02   -0.38773E-02  6861   0.170E-01    0.214E-01
RMM:  14    -0.363055624258E+03   -0.19071E-02   -0.23045E-02  6881   0.118E-01    0.111E-01
RMM:  15    -0.363056706174E+03   -0.10819E-02   -0.12366E-02  6765   0.815E-02    0.472E-02
RMM:  16    -0.363057381356E+03   -0.67518E-03   -0.74520E-03  6046   0.507E-02    0.241E-02
RMM:  17    -0.363057793401E+03   -0.41205E-03   -0.43455E-03  5545   0.361E-02    0.147E-02
RMM:  18    -0.363058057753E+03   -0.26435E-03   -0.27303E-03  5245   0.271E-02    0.103E-02
RMM:  19    -0.363058216790E+03   -0.15904E-03   -0.16607E-03  4223   0.199E-02    0.656E-03
RMM:  20    -0.363058320182E+03   -0.10339E-03   -0.10782E-03  4137   0.171E-02    0.388E-03
RMM:  21    -0.363058389925E+03   -0.69743E-04   -0.72129E-04  3670   0.145E-02    0.300E-03
RMM:  22    -0.363058436011E+03   -0.46086E-04   -0.47536E-04  3492   0.130E-02    0.220E-03
RMM:  23    -0.363058468141E+03   -0.32130E-04   -0.33255E-04  3338   0.117E-02    0.155E-03
RMM:  24    -0.363058488613E+03   -0.20471E-04   -0.21389E-04  3036   0.102E-02    0.134E-03
RMM:  25    -0.363058501133E+03   -0.12520E-04   -0.13365E-04  2904   0.993E-03    0.955E-04
RMM:  26    -0.363058509749E+03   -0.86159E-05   -0.90547E-05  2715   0.869E-03
   1 F= -.36305851E+03 E0= -.36306156E+03  d E =-.363059E+03
       N       E                     dE             d eps       ncg     rms          rms(c)
DAV:   1    -0.363139786011E+03   -0.81285E-01   -0.22945E+00  4992   0.504E+00    0.187E+00
RMM:   2    -0.363125513681E+03    0.14272E-01   -0.22106E-01  6727   0.122E+00    0.704E-01
RMM:   3    -0.363109471461E+03    0.16042E-01   -0.60307E-02  6816   0.415E-01    0.503E-01
RMM:   4    -0.363103009572E+03    0.64619E-02   -0.15600E-02  6775   0.296E-01    0.246E-01
RMM:   5    -0.363102583684E+03    0.42589E-03   -0.41740E-03  6776   0.138E-01    0.188E-01
RMM:   6    -0.363102797740E+03   -0.21406E-03   -0.18349E-03  7076   0.666E-02    0.108E-01
RMM:   7    -0.363102892736E+03   -0.94996E-04   -0.74854E-04  6338   0.506E-02    0.568E-02
RMM:   8    -0.363102965913E+03   -0.73177E-04   -0.42948E-04  6037   0.304E-02    0.411E-02
RMM:   9    -0.363103016479E+03   -0.50565E-04   -0.13924E-04  5046   0.226E-02    0.262E-02
RMM:  10    -0.363103053368E+03   -0.36889E-04   -0.90465E-05  4569   0.177E-02    0.110E-02
RMM:  11    -0.363103061861E+03   -0.84934E-05   -0.29134E-05  3540   0.142E-02
   2 F= -.36310306E+03 E0= -.36310646E+03  d E =-.445521E-01
       N       E                     dE             d eps       ncg     rms          rms(c)
DAV:   1    -0.363257533476E+03   -0.15448E+00   -0.76514E+00  4624   0.922E+00    0.345E+00
RMM:   2    -0.363208085659E+03    0.49448E-01   -0.72982E-01  6715   0.223E+00    0.128E+00
RMM:   3    -0.363155535227E+03    0.52550E-01   -0.20096E-01  6849   0.758E-01    0.917E-01
RMM:   4    -0.363133954659E+03    0.21581E-01   -0.50726E-02  6770   0.537E-01    0.450E-01
RMM:   5    -0.363132605682E+03    0.13490E-02   -0.13595E-02  6803   0.245E-01    0.345E-01
RMM:   6    -0.363133256268E+03   -0.65059E-03   -0.58980E-03  7270   0.121E-01    0.196E-01
RMM:   7    -0.363133544628E+03   -0.28836E-03   -0.25658E-03  7189   0.897E-02    0.104E-01
RMM:   8    -0.363133766520E+03   -0.22189E-03   -0.13902E-03  6828   0.526E-02    0.748E-02
RMM:   9    -0.363133907287E+03   -0.14077E-03   -0.47436E-04  6182   0.373E-02    0.493E-02
RMM:  10    -0.363134007629E+03   -0.10034E-03   -0.28714E-04  5509   0.270E-02    0.222E-02
RMM:  11    -0.363134030733E+03   -0.23104E-04   -0.12275E-04  5260   0.205E-02    0.929E-03
RMM:  12    -0.363134034007E+03   -0.32748E-05   -0.29244E-05  3623   0.142E-02
   3 F= -.36313403E+03 E0= -.36313798E+03  d E =-.755243E-01
       N       E                     dE             d eps       ncg     rms          rms(c)
DAV:   1    -0.363172224959E+03   -0.38194E-01   -0.23969E+00  4472   0.398E+00    0.699E-01
RMM:   2    -0.363173561221E+03   -0.13363E-02   -0.80827E-02  6605   0.730E-01    0.327E-01
RMM:   3    -0.363170794295E+03    0.27669E-02   -0.13673E-02  6707   0.195E-01    0.213E-01
RMM:   4    -0.363170351631E+03    0.44266E-03   -0.36659E-03  6881   0.996E-02    0.141E-01
RMM:   5    -0.363170169245E+03    0.18239E-03   -0.15152E-03  6830   0.689E-02    0.785E-02
RMM:   6    -0.363170167084E+03    0.21608E-05   -0.62119E-04  6738   0.385E-02    0.500E-02
RMM:   7    -0.363170163962E+03    0.31218E-05   -0.25701E-04  5926   0.251E-02    0.295E-02
RMM:   8    -0.363170163039E+03    0.92364E-06   -0.96865E-05  4587   0.154E-02
   4 F= -.36317016E+03 E0= -.36317435E+03  d E =-.361290E-01
       N       E                     dE             d eps       ncg     rms          rms(c)
DAV:   1    -0.363236506967E+03   -0.66343E-01   -0.21525E+01  4256   0.119E+01    0.205E+00
RMM:   2    -0.363249763615E+03   -0.13257E-01   -0.72992E-01  6600   0.220E+00    0.963E-01
RMM:   3    -0.363227602976E+03    0.22161E-01   -0.12115E-01  6717   0.579E-01    0.644E-01
RMM:   4    -0.363223573251E+03    0.40297E-02   -0.30095E-02  6779   0.292E-01    0.429E-01
RMM:   5    -0.363221995970E+03    0.15773E-02   -0.13188E-02  6809   0.197E-01    0.242E-01
RMM:   6    -0.363221950750E+03    0.45220E-04   -0.52687E-03  6880   0.114E-01    0.155E-01
RMM:   7    -0.363221970426E+03   -0.19675E-04   -0.23265E-03  7051   0.671E-02    0.932E-02
RMM:   8    -0.363222022405E+03   -0.51979E-04   -0.10296E-03  6120   0.395E-02    0.461E-02
RMM:   9    -0.363222038545E+03   -0.16140E-04   -0.46071E-04  5732   0.302E-02    0.267E-02
RMM:  10    -0.363222050959E+03   -0.12414E-04   -0.22472E-04  5183   0.210E-02    0.174E-02
RMM:  11    -0.363222053564E+03   -0.26050E-05   -0.10033E-04  4267   0.156E-02    0.726E-03
RMM:  12    -0.363222055222E+03   -0.16586E-05   -0.46554E-05  3581   0.130E-02
   5 F= -.36322206E+03 E0= -.36322697E+03  d E =-.880212E-01
       N       E                     dE             d eps       ncg     rms          rms(c)
DAV:   1    -0.363222865500E+03   -0.81194E-03   -0.27175E-01  4704   0.134E+00    0.236E-01
RMM:   2    -0.363223001618E+03   -0.13612E-03   -0.92574E-03  6596   0.244E-01    0.107E-01
RMM:   3    -0.363222688384E+03    0.31323E-03   -0.15784E-03  6691   0.646E-02    0.694E-02
RMM:   4    -0.363222647129E+03    0.41255E-04   -0.45126E-04  6731   0.338E-02    0.457E-02
RMM:   5    -0.363222628870E+03    0.18259E-04   -0.19076E-04  6252   0.234E-02    0.261E-02
RMM:   6    -0.363222626337E+03    0.25336E-05   -0.61993E-05  3965   0.137E-02
   6 F= -.36322263E+03 E0= -.36322762E+03  d E =-.885923E-01
       N       E                     dE             d eps       ncg     rms          rms(c)
DAV:   1    -0.363233599610E+03   -0.10971E-01   -0.66677E-01  4328   0.239E+00    0.493E-01
RMM:   2    -0.363233366330E+03    0.23328E-03   -0.30646E-02  6644   0.475E-01    0.199E-01
RMM:   3    -0.363232691306E+03    0.67502E-03   -0.52296E-03  6721   0.133E-01    0.139E-01
RMM:   4    -0.363232311961E+03    0.37934E-03   -0.16544E-03  6757   0.783E-02    0.785E-02
RMM:   5    -0.363232240639E+03    0.71322E-04   -0.60372E-04  6834   0.422E-02    0.544E-02
RMM:   6    -0.363232236156E+03    0.44831E-05   -0.22370E-04  5783   0.244E-02    0.329E-02
RMM:   7    -0.363232231879E+03    0.42771E-05   -0.10021E-04  4598   0.181E-02    0.150E-02
RMM:   8    -0.363232232672E+03   -0.79298E-06   -0.62844E-05  4261   0.160E-02
   7 F= -.36323223E+03 E0= -.36323724E+03  d E =-.960634E-02
       N       E                     dE             d eps       ncg     rms          rms(c)
DAV:   1    -0.363255628491E+03   -0.23397E-01   -0.58082E+00  4256   0.704E+00    0.144E+00
RMM:   2    -0.363254068726E+03    0.15598E-02   -0.26796E-01  6654   0.140E+00    0.590E-01
RMM:   3    -0.363248337136E+03    0.57316E-02   -0.45836E-02  6764   0.389E-01    0.416E-01
RMM:   4    -0.363244953483E+03    0.33837E-02   -0.14160E-02  6732   0.229E-01    0.236E-01
RMM:   5    -0.363244306129E+03    0.64735E-03   -0.52567E-03  6843   0.123E-01    0.162E-01
RMM:   6    -0.363244304377E+03    0.17524E-05   -0.19698E-03  7218   0.716E-02    0.969E-02
RMM:   7    -0.363244327646E+03   -0.23269E-04   -0.10221E-03  6817   0.466E-02    0.430E-02
RMM:   8    -0.363244355661E+03   -0.28016E-04   -0.45200E-04  5845   0.342E-02    0.303E-02
RMM:   9    -0.363244371158E+03   -0.15497E-04   -0.21837E-04  5497   0.224E-02    0.254E-02
RMM:  10    -0.363244375541E+03   -0.43820E-05   -0.86096E-05  4741   0.168E-02
   8 F= -.36324438E+03 E0= -.36324946E+03  d E =-.217492E-01
       N       E                     dE             d eps       ncg     rms          rms(c)
DAV:   1    -0.363251498089E+03   -0.71269E-02   -0.37132E-01  4384   0.182E+00    0.413E-01
RMM:   2    -0.363251638272E+03   -0.14018E-03   -0.20284E-02  6680   0.380E-01    0.186E-01
RMM:   3    -0.363250660261E+03    0.97801E-03   -0.42049E-03  6783   0.111E-01    0.127E-01
RMM:   4    -0.363250343404E+03    0.31686E-03   -0.10940E-03  6808   0.695E-02    0.636E-02
RMM:   5    -0.363250329120E+03    0.14283E-04   -0.39644E-04  6795   0.372E-02    0.446E-02
RMM:   6    -0.363250343695E+03   -0.14574E-04   -0.16505E-04  5486   0.195E-02    0.276E-02
RMM:   7    -0.363250351496E+03   -0.78017E-05   -0.65076E-05  4043   0.148E-02
   9 F= -.36325035E+03 E0= -.36325550E+03  d E =-.597596E-02
       N       E                     dE             d eps       ncg     rms          rms(c)
DAV:   1    -0.363270510806E+03   -0.20167E-01   -0.33381E+00  4368   0.545E+00    0.125E+00
RMM:   2    -0.363271321057E+03   -0.81025E-03   -0.17722E-01  6665   0.113E+00    0.551E-01
RMM:   3    -0.363262600092E+03    0.87210E-02   -0.35936E-02  6778   0.330E-01    0.374E-01
RMM:   4    -0.363259727116E+03    0.28730E-02   -0.92355E-03  6817   0.206E-01    0.185E-01
RMM:   5    -0.363259587941E+03    0.13917E-03   -0.32059E-03  6813   0.109E-01    0.133E-01
RMM:   6    -0.363259687529E+03   -0.99588E-04   -0.13800E-03  6951   0.561E-02    0.823E-02
RMM:   7    -0.363259735298E+03   -0.47769E-04   -0.58583E-04  6042   0.388E-02    0.444E-02
RMM:   8    -0.363259783139E+03   -0.47842E-04   -0.31063E-04  5511   0.279E-02    0.268E-02
RMM:   9    -0.363259808554E+03   -0.25415E-04   -0.14835E-04  5218   0.208E-02    0.194E-02
RMM:  10    -0.363259822962E+03   -0.14408E-04   -0.51648E-05  4200   0.144E-02    0.105E-02
RMM:  11    -0.363259831241E+03   -0.82791E-05   -0.27612E-05  3548   0.131E-02
  10 F= -.36325983E+03 E0= -.36326519E+03  d E =-.154557E-01
       N       E                     dE             d eps       ncg     rms          rms(c)
DAV:   1    -0.363260643597E+03   -0.82063E-03   -0.15899E-01  4496   0.119E+00    0.271E-01
RMM:   2    -0.363260687726E+03   -0.44129E-04   -0.83485E-03  6654   0.246E-01    0.120E-01
RMM:   3    -0.363260286284E+03    0.40144E-03   -0.17305E-03  6762   0.720E-02    0.809E-02
RMM:   4    -0.363260158520E+03    0.12776E-03   -0.46127E-04  6739   0.451E-02    0.394E-02
RMM:   5    -0.363260158217E+03    0.30249E-06   -0.16696E-04  6319   0.241E-02    0.284E-02
RMM:   6    -0.363260166561E+03   -0.83434E-05   -0.52125E-05  3844   0.131E-02
  11 F= -.36326017E+03 E0= -.36326557E+03  d E =-.157910E-01
       N       E                     dE             d eps       ncg     rms          rms(c)
DAV:   1    -0.363263246872E+03   -0.30887E-02   -0.21225E-01  4272   0.128E+00    0.988E-02
RMM:   2    -0.363263644121E+03   -0.39725E-03   -0.57134E-03  6449   0.207E-01    0.519E-02
RMM:   3    -0.363263607977E+03    0.36144E-04   -0.89744E-04  6405   0.615E-02    0.403E-02
RMM:   4    -0.363263611045E+03   -0.30683E-05   -0.25478E-04  5969   0.219E-02    0.277E-02
RMM:   5    -0.363263608387E+03    0.26582E-05   -0.78762E-05  4283   0.130E-02
  12 F= -.36326361E+03 E0= -.36326903E+03  d E =-.344183E-02
       N       E                     dE             d eps       ncg     rms          rms(c)
DAV:   1    -0.363268910343E+03   -0.52993E-02   -0.19096E+00  4256   0.382E+00    0.291E-01
RMM:   2    -0.363272439727E+03   -0.35294E-02   -0.51048E-02  6392   0.618E-01    0.150E-01
RMM:   3    -0.363272065077E+03    0.37465E-03   -0.76293E-03  6491   0.181E-01    0.114E-01
RMM:   4    -0.363272090595E+03   -0.25519E-04   -0.20899E-03  7256   0.614E-02    0.782E-02
RMM:   5    -0.363272067185E+03    0.23410E-04   -0.74766E-04  6733   0.389E-02    0.388E-02
RMM:   6    -0.363272075777E+03   -0.85920E-05   -0.30049E-04  6127   0.266E-02    0.152E-02
RMM:   7    -0.363272078976E+03   -0.31987E-05   -0.87210E-05  3882   0.146E-02
  13 F= -.36327208E+03 E0= -.36327755E+03  d E =-.119124E-01
       N       E                     dE             d eps       ncg     rms          rms(c)
DAV:   1    -0.363268210503E+03    0.38653E-02   -0.76402E+00  4256   0.765E+00    0.587E-01
RMM:   2    -0.363282229274E+03   -0.14019E-01   -0.20347E-01  6366   0.124E+00    0.298E-01
RMM:   3    -0.363280804699E+03    0.14246E-02   -0.30332E-02  6533   0.361E-01    0.230E-01
RMM:   4    -0.363280874078E+03   -0.69379E-04   -0.81350E-03  7401   0.122E-01    0.158E-01
RMM:   5    -0.363280784860E+03    0.89218E-04   -0.28972E-03  7072   0.771E-02    0.795E-02
RMM:   6    -0.363280813747E+03   -0.28887E-04   -0.11706E-03  7004   0.530E-02    0.308E-02
RMM:   7    -0.363280840587E+03   -0.26840E-04   -0.49339E-04  5694   0.256E-02    0.185E-02
RMM:   8    -0.363280857547E+03   -0.16960E-04   -0.23483E-04  4690   0.192E-02    0.116E-02
RMM:   9    -0.363280862683E+03   -0.51360E-05   -0.85732E-05  4067   0.142E-02
  14 F= -.36328086E+03 E0= -.36328639E+03  d E =-.206961E-01
       N       E                     dE             d eps       ncg     rms          rms(c)
DAV:   1    -0.363280426271E+03    0.43128E-03   -0.53050E-01  4288   0.201E+00    0.153E-01
RMM:   2    -0.363281413895E+03   -0.98762E-03   -0.14300E-02  6396   0.326E-01    0.783E-02
RMM:   3    -0.363281329475E+03    0.84420E-04   -0.22593E-03  6455   0.958E-02    0.604E-02
RMM:   4    -0.363281341530E+03   -0.12056E-04   -0.64173E-04  6886   0.333E-02    0.409E-02
RMM:   5    -0.363281336800E+03    0.47305E-05   -0.22350E-04  5740   0.209E-02    0.202E-02
RMM:   6    -0.363281340895E+03   -0.40951E-05   -0.10217E-04  4505   0.158E-02    0.783E-03
RMM:   7    -0.363281342326E+03   -0.14309E-05   -0.31932E-05  3129   0.108E-02
  15 F= -.36328134E+03 E0= -.36328688E+03  d E =-.211758E-01
       N       E                     dE             d eps       ncg     rms          rms(c)
DAV:   1    -0.363288835670E+03   -0.74948E-02   -0.19708E+00  4368   0.410E+00    0.702E-01
RMM:   2    -0.363291358415E+03   -0.25227E-02   -0.85561E-02  6653   0.794E-01    0.330E-01
RMM:   3    -0.363288464140E+03    0.28943E-02   -0.13817E-02  6763   0.215E-01    0.224E-01
RMM:   4    -0.363287664461E+03    0.79968E-03   -0.39796E-03  6773   0.120E-01    0.122E-01
RMM:   5    -0.363287515198E+03    0.14926E-03   -0.15050E-03  6780   0.703E-02    0.794E-02
RMM:   6    -0.363287515428E+03   -0.23070E-06   -0.59725E-04  6591   0.383E-02    0.505E-02
RMM:   7    -0.363287516952E+03   -0.15237E-05   -0.25233E-04  5534   0.246E-02    0.290E-02
RMM:   8    -0.363287517143E+03   -0.19088E-06   -0.12549E-04  4806   0.190E-02    0.152E-02
RMM:   9    -0.363287518037E+03   -0.89401E-06   -0.64491E-05  4362   0.151E-02
  16 F= -.36328752E+03 E0= -.36329303E+03  d E =-.617571E-02
       N       E                     dE             d eps       ncg     rms          rms(c)
DAV:   1    -0.363291099493E+03   -0.35824E-02   -0.19220E+00  4368   0.405E+00    0.689E-01
RMM:   2    -0.363293613845E+03   -0.25144E-02   -0.83041E-02  6655   0.782E-01    0.326E-01
RMM:   3    -0.363290762090E+03    0.28518E-02   -0.13337E-02  6752   0.211E-01    0.219E-01
RMM:   4    -0.363290006928E+03    0.75516E-03   -0.38866E-03  6774   0.118E-01    0.119E-01
RMM:   5    -0.363289870565E+03    0.13636E-03   -0.14758E-03  6786   0.692E-02    0.778E-02
RMM:   6    -0.363289875006E+03   -0.44412E-05   -0.59103E-04  6554   0.377E-02    0.500E-02
RMM:   7    -0.363289877701E+03   -0.26951E-05   -0.24636E-04  5511   0.244E-02    0.292E-02
RMM:   8    -0.363289879010E+03   -0.13081E-05   -0.13114E-04  4786   0.193E-02    0.154E-02
RMM:   9    -0.363289879913E+03   -0.90298E-06   -0.66803E-05  4404   0.155E-02
  17 F= -.36328988E+03 E0= -.36329536E+03  d E =-.853759E-02
       N       E                     dE             d eps       ncg     rms          rms(c)
DAV:   1    -0.363294714697E+03   -0.48357E-02   -0.11130E+00  4368   0.306E+00    0.498E-01
RMM:   2    -0.363295532553E+03   -0.81786E-03   -0.42729E-02  6656   0.589E-01    0.216E-01
RMM:   3    -0.363294989204E+03    0.54335E-03   -0.65071E-03  6733   0.151E-01    0.150E-01
RMM:   4    -0.363294621044E+03    0.36816E-03   -0.21432E-03  6873   0.816E-02    0.829E-02
RMM:   5    -0.363294592084E+03    0.28960E-04   -0.79362E-04  6812   0.484E-02    0.532E-02
RMM:   6    -0.363294607520E+03   -0.15436E-04   -0.32819E-04  6245   0.268E-02    0.333E-02
RMM:   7    -0.363294619342E+03   -0.11822E-04   -0.11422E-04  4774   0.188E-02    0.177E-02
RMM:   8    -0.363294630092E+03   -0.10750E-04   -0.75001E-05  4112   0.149E-02    0.959E-03
RMM:   9    -0.363294635011E+03   -0.49183E-05   -0.29348E-05  3296   0.125E-02
  18 F= -.36329464E+03 E0= -.36330010E+03  d E =-.475510E-02
       N       E                     dE             d eps       ncg     rms          rms(c)
DAV:   1    -0.363297439848E+03   -0.28098E-02   -0.13961E+00  4368   0.342E+00    0.554E-01
RMM:   2    -0.363298484675E+03   -0.10448E-02   -0.52787E-02  6650   0.657E-01    0.238E-01
RMM:   3    -0.363297828718E+03    0.65596E-03   -0.78963E-03  6718   0.168E-01    0.163E-01
RMM:   4    -0.363297398410E+03    0.43031E-03   -0.26093E-03  6868   0.902E-02    0.898E-02
RMM:   5    -0.363297374262E+03    0.24148E-04   -0.96946E-04  6851   0.528E-02    0.585E-02
RMM:   6    -0.363297396658E+03   -0.22396E-04   -0.39519E-04  6286   0.294E-02    0.375E-02
RMM:   7    -0.363297413714E+03   -0.17055E-04   -0.14194E-04  4979   0.206E-02    0.202E-02
RMM:   8    -0.363297427950E+03   -0.14236E-04   -0.93967E-05  4404   0.166E-02    0.113E-02
RMM:   9    -0.363297434589E+03   -0.66394E-05   -0.39295E-05  3704   0.134E-02
  19 F= -.36329743E+03 E0= -.36330287E+03  d E =-.755468E-02
       N       E                     dE             d eps       ncg     rms          rms(c)
DAV:   1    -0.363295163651E+03    0.22643E-02   -0.55864E+00  4368   0.686E+00    0.112E+00
RMM:   2    -0.363299107745E+03   -0.39441E-02   -0.21138E-01  6656   0.131E+00    0.476E-01
RMM:   3    -0.363296482573E+03    0.26252E-02   -0.31431E-02  6736   0.337E-01    0.324E-01
RMM:   4    -0.363294736382E+03    0.17462E-02   -0.10333E-02  6887   0.180E-01    0.179E-01
RMM:   5    -0.363294611003E+03    0.12538E-03   -0.37601E-03  6848   0.105E-01    0.117E-01
RMM:   6    -0.363294676451E+03   -0.65449E-04   -0.15524E-03  7182   0.582E-02    0.745E-02
RMM:   7    -0.363294733194E+03   -0.56743E-04   -0.65196E-04  6273   0.388E-02    0.404E-02
RMM:   8    -0.363294769633E+03   -0.36438E-04   -0.29809E-04  5558   0.263E-02    0.258E-02
RMM:   9    -0.363294792160E+03   -0.22528E-04   -0.14834E-04  4898   0.199E-02    0.176E-02
RMM:  10    -0.363294805838E+03   -0.13678E-04   -0.65114E-05  4387   0.151E-02    0.826E-03
RMM:  11    -0.363294810102E+03   -0.42636E-05   -0.24305E-05  3311   0.125E-02
  20 F= -.36329481E+03 E0= -.36330015E+03  d E =-.493019E-02
       N       E                     dE             d eps       ncg     rms          rms(c)
DAV:   1    -0.363298122676E+03   -0.33168E-02   -0.31676E+00  4368   0.516E+00    0.828E-01
RMM:   2    -0.363300688412E+03   -0.25657E-02   -0.11954E-01  6648   0.992E-01    0.364E-01
RMM:   3    -0.363299083571E+03    0.16048E-02   -0.17511E-02  6733   0.254E-01    0.252E-01
RMM:   4    -0.363297978083E+03    0.11055E-02   -0.55324E-03  6831   0.135E-01    0.140E-01
RMM:   5    -0.363297833149E+03    0.14493E-03   -0.20088E-03  6805   0.790E-02    0.899E-02
RMM:   6    -0.363297819196E+03    0.13953E-04   -0.80383E-04  6992   0.437E-02    0.564E-02
RMM:   7    -0.363297816802E+03    0.23939E-05   -0.33301E-04  5824   0.283E-02    0.300E-02
RMM:   8    -0.363297819069E+03   -0.22666E-05   -0.14181E-04  4973   0.205E-02    0.180E-02
RMM:   9    -0.363297821018E+03   -0.19495E-05   -0.76481E-05  4363   0.157E-02
  21 F= -.36329782E+03 E0= -.36330324E+03  d E =-.794111E-02
       N       E                     dE             d eps       ncg     rms          rms(c)
DAV:   1    -0.363299050914E+03   -0.12318E-02   -0.64046E-01  4288   0.225E+00    0.187E-01
RMM:   2    -0.363300425038E+03   -0.13741E-02   -0.17475E-02  6521   0.381E-01    0.110E-01
RMM:   3    -0.363300056304E+03    0.36873E-03   -0.21712E-03  6591   0.100E-01    0.756E-02
RMM:   4    -0.363300015617E+03    0.40687E-04   -0.54568E-04  6987   0.377E-02    0.464E-02
RMM:   5    -0.363300005135E+03    0.10483E-04   -0.21368E-04  6080   0.233E-02    0.258E-02
RMM:   6    -0.363299999850E+03    0.52847E-05   -0.93016E-05  4955   0.164E-02
  22 F= -.36330000E+03 E0= -.36330539E+03  d E =-.217883E-02
       N       E                     dE             d eps       ncg     rms          rms(c)
DAV:   1    -0.363294831793E+03    0.51733E-02   -0.57658E+00  4256   0.675E+00    0.569E-01
RMM:   2    -0.363307657069E+03   -0.12825E-01   -0.16101E-01  6593   0.115E+00    0.342E-01
RMM:   3    -0.363304446367E+03    0.32107E-02   -0.21731E-02  6671   0.301E-01    0.238E-01
RMM:   4    -0.363304126522E+03    0.31984E-03   -0.56061E-03  7287   0.119E-01    0.148E-01
RMM:   5    -0.363304062477E+03    0.64045E-04   -0.22792E-03  6990   0.746E-02    0.816E-02
RMM:   6    -0.363304025239E+03    0.37237E-04   -0.96564E-04  7006   0.505E-02    0.406E-02
RMM:   7    -0.363304031352E+03   -0.61125E-05   -0.39337E-04  5558   0.248E-02    0.268E-02
RMM:   8    -0.363304040542E+03   -0.91895E-05   -0.18827E-04  4928   0.210E-02    0.136E-02
RMM:   9    -0.363304043002E+03   -0.24603E-05   -0.72406E-05  3960   0.145E-02
  23 F= -.36330404E+03 E0= -.36330935E+03  d E =-.622198E-02
       N       E                     dE             d eps       ncg     rms          rms(c)
DAV:   1    -0.363262786572E+03    0.41254E-01   -0.23042E+01  4256   0.134E+01    0.114E+00
RMM:   2    -0.363315729642E+03   -0.52943E-01   -0.65469E-01  6591   0.232E+00    0.697E-01
RMM:   3    -0.363302529209E+03    0.13200E-01   -0.88220E-02  6733   0.602E-01    0.488E-01
RMM:   4    -0.363301216953E+03    0.13123E-02   -0.22176E-02  7273   0.243E-01    0.305E-01
RMM:   5    -0.363300938777E+03    0.27818E-03   -0.89235E-03  6924   0.150E-01    0.170E-01
RMM:   6    -0.363300737855E+03    0.20092E-03   -0.38692E-03  7005   0.103E-01    0.839E-02
RMM:   7    -0.363300782032E+03   -0.44176E-04   -0.17551E-03  7032   0.494E-02    0.552E-02
RMM:   8    -0.363300815605E+03   -0.33573E-04   -0.70495E-04  6103   0.332E-02    0.295E-02
RMM:   9    -0.363300833135E+03   -0.17530E-04   -0.29831E-04  5436   0.235E-02    0.148E-02
RMM:  10    -0.363300842926E+03   -0.97904E-05   -0.16294E-04  4611   0.179E-02    0.801E-03
RMM:  11    -0.363300846050E+03   -0.31246E-05   -0.62302E-05  4019   0.144E-02
  24 F= -.36330085E+03 E0= -.36330601E+03  d E =-.302503E-02
       N       E                     dE             d eps       ncg     rms          rms(c)
DAV:   1    -0.363285042029E+03    0.15801E-01   -0.12919E+01  4256   0.100E+01    0.839E-01
RMM:   2    -0.363313021059E+03   -0.27979E-01   -0.35861E-01  6582   0.171E+00    0.497E-01
RMM:   3    -0.363305507746E+03    0.75133E-02   -0.46532E-02  6618   0.449E-01    0.334E-01
RMM:   4    -0.363304758680E+03    0.74907E-03   -0.12060E-02  7262   0.174E-01    0.207E-01
RMM:   5    -0.363304621863E+03    0.13682E-03   -0.48636E-03  7002   0.108E-01    0.116E-01
RMM:   6    -0.363304601753E+03    0.20110E-04   -0.19822E-03  7246   0.728E-02    0.589E-02
RMM:   7    -0.363304621887E+03   -0.20134E-04   -0.80624E-04  6534   0.363E-02    0.374E-02
RMM:   8    -0.363304649472E+03   -0.27586E-04   -0.36105E-04  5615   0.259E-02    0.200E-02
RMM:   9    -0.363304660206E+03   -0.10734E-04   -0.13196E-04  4642   0.187E-02    0.984E-03
RMM:  10    -0.363304667489E+03   -0.72822E-05   -0.79941E-05  3912   0.149E-02
  25 F= -.36330467E+03 E0= -.36330994E+03  d E =-.684647E-02
       N       E                     dE             d eps       ncg     rms          rms(c)
DAV:   1    -0.363306230255E+03   -0.15700E-02   -0.79952E-01  4384   0.255E+00    0.388E-01
RMM:   2    -0.363307204050E+03   -0.97379E-03   -0.28386E-02  6585   0.478E-01    0.166E-01
RMM:   3    -0.363306883188E+03    0.32086E-03   -0.39155E-03  6714   0.122E-01    0.115E-01
RMM:   4    -0.363306666552E+03    0.21664E-03   -0.12120E-03  6861   0.619E-02    0.634E-02
RMM:   5    -0.363306656358E+03    0.10194E-04   -0.43716E-04  6847   0.382E-02    0.409E-02
RMM:   6    -0.363306663858E+03   -0.75000E-05   -0.16617E-04  5922   0.203E-02    0.253E-02
RMM:   7    -0.363306673060E+03   -0.92019E-05   -0.55532E-05  3866   0.146E-02
  26 F= -.36330667E+03 E0= -.36331187E+03  d E =-.200557E-02
       N       E                     dE             d eps       ncg     rms          rms(c)
DAV:   1    -0.363306797787E+03   -0.13393E-03   -0.25235E-01  4416   0.143E+00    0.217E-01
RMM:   2    -0.363307116587E+03   -0.31880E-03   -0.90907E-03  6616   0.269E-01    0.941E-02
RMM:   3    -0.363307035172E+03    0.81415E-04   -0.13749E-03  6707   0.695E-02    0.642E-02
RMM:   4    -0.363306979653E+03    0.55519E-04   -0.44623E-04  6756   0.359E-02    0.364E-02
RMM:   5    -0.363306983259E+03   -0.36064E-05   -0.16724E-04  6046   0.224E-02    0.236E-02
RMM:   6    -0.363306988947E+03   -0.56878E-05   -0.52897E-05  3659   0.127E-02
  27 F= -.36330699E+03 E0= -.36331212E+03  d E =-.232146E-02
       N       E                     dE             d eps       ncg     rms          rms(c)
DAV:   1    -0.363310035086E+03   -0.30518E-02   -0.82498E-01  4496   0.270E+00    0.553E-01
RMM:   2    -0.363310386993E+03   -0.35191E-03   -0.41292E-02  6619   0.538E-01    0.238E-01
RMM:   3    -0.363308897211E+03    0.14898E-02   -0.73468E-03  6790   0.157E-01    0.164E-01
RMM:   4    -0.363308354468E+03    0.54274E-03   -0.20168E-03  6791   0.897E-02    0.856E-02
RMM:   5    -0.363308292004E+03    0.62463E-04   -0.69818E-04  6807   0.508E-02    0.608E-02
RMM:   6    -0.363308289942E+03    0.20627E-05   -0.28816E-04  6181   0.261E-02    0.383E-02
RMM:   7    -0.363308284503E+03    0.54387E-05   -0.10533E-04  4851   0.186E-02    0.210E-02
RMM:   8    -0.363308283129E+03    0.13738E-05   -0.68511E-05  4332   0.157E-02
  28 F= -.36330828E+03 E0= -.36331337E+03  d E =-.129418E-02
       N       E                     dE             d eps       ncg     rms          rms(c)
DAV:   1    -0.363308299731E+03   -0.15228E-04   -0.81957E-03  4816   0.270E-01    0.531E-02
RMM:   2    -0.363308307989E+03   -0.82581E-05   -0.42794E-04  6337   0.542E-02    0.219E-02
RMM:   3    -0.363308292016E+03    0.15973E-04   -0.72976E-05  4619   0.172E-02    0.149E-02
RMM:   4    -0.363308287307E+03    0.47087E-05   -0.20827E-05  2729   0.119E-02
  29 F= -.36330829E+03 E0= -.36331338E+03  d E =-.129836E-02
       N       E                     dE             d eps       ncg     rms          rms(c)
DAV:   1    -0.363308721873E+03   -0.42986E-03   -0.27883E-01  4288   0.148E+00    0.110E-01
RMM:   2    -0.363309303667E+03   -0.58179E-03   -0.75451E-03  6564   0.251E-01    0.663E-02
RMM:   3    -0.363309231831E+03    0.71836E-04   -0.10664E-03  6583   0.674E-02    0.462E-02
RMM:   4    -0.363309224558E+03    0.72727E-05   -0.28008E-04  6537   0.239E-02    0.325E-02
RMM:   5    -0.363309220992E+03    0.35670E-05   -0.10497E-04  5217   0.160E-02    0.162E-02
RMM:   6    -0.363309219834E+03    0.11577E-05   -0.36498E-05  3285   0.124E-02
  30 F= -.36330922E+03 E0= -.36331431E+03  d E =-.932527E-03
       N       E                     dE             d eps       ncg     rms          rms(c)
DAV:   1    -0.363307612420E+03    0.16086E-02   -0.14031E+00  4256   0.332E+00    0.244E-01
RMM:   2    -0.363310557795E+03   -0.29454E-02   -0.37916E-02  6575   0.561E-01    0.147E-01
RMM:   3    -0.363310166652E+03    0.39114E-03   -0.52045E-03  6603   0.148E-01    0.100E-01
RMM:   4    -0.363310137643E+03    0.29009E-04   -0.13746E-03  7334   0.524E-02    0.716E-02
RMM:   5    -0.363310126222E+03    0.11421E-04   -0.52840E-04  6939   0.365E-02    0.369E-02
RMM:   6    -0.363310127299E+03   -0.10764E-05   -0.22791E-04  6169   0.246E-02    0.160E-02
RMM:   7    -0.363310129397E+03   -0.20984E-05   -0.64788E-05  3650   0.144E-02
  31 F= -.36331013E+03 E0= -.36331523E+03  d E =-.184209E-02
       N       E                     dE             d eps       ncg     rms          rms(c)
DAV:   1    -0.363310481232E+03   -0.35393E-03   -0.29251E-01  4256   0.155E+00    0.136E-01
RMM:   2    -0.363310976897E+03   -0.49566E-03   -0.91193E-03  6607   0.281E-01    0.743E-02
RMM:   3    -0.363310905952E+03    0.70945E-04   -0.13742E-03  6509   0.736E-02    0.527E-02
RMM:   4    -0.363310883172E+03    0.22779E-04   -0.47187E-04  6865   0.338E-02    0.302E-02
RMM:   5    -0.363310877088E+03    0.60845E-05   -0.15972E-04  5197   0.202E-02    0.149E-02
RMM:   6    -0.363310881418E+03   -0.43305E-05   -0.81801E-05  3840   0.141E-02
  32 F= -.36331088E+03 E0= -.36331608E+03  d E =-.752021E-03
       N       E                     dE             d eps       ncg     rms          rms(c)
DAV:   1    -0.363311008511E+03   -0.13142E-03   -0.12243E-01  4272   0.100E+00    0.877E-02
RMM:   2    -0.363311231271E+03   -0.22276E-03   -0.39176E-03  6625   0.182E-01    0.485E-02
RMM:   3    -0.363311204127E+03    0.27144E-04   -0.61068E-04  6211   0.487E-02    0.345E-02
RMM:   4    -0.363311198986E+03    0.51406E-05   -0.23347E-04  5763   0.237E-02    0.198E-02
RMM:   5    -0.363311197956E+03    0.10305E-05   -0.86382E-05  3944   0.144E-02
  33 F= -.36331120E+03 E0= -.36331646E+03  d E =-.106856E-02
       N       E                     dE             d eps       ncg     rms          rms(c)
DAV:   1    -0.363310731868E+03    0.46712E-03   -0.48927E-01  4256   0.200E+00    0.175E-01
RMM:   2    -0.363311585151E+03   -0.85328E-03   -0.15343E-02  6628   0.363E-01    0.962E-02
RMM:   3    -0.363311471141E+03    0.11401E-03   -0.23654E-03  6520   0.957E-02    0.681E-02
RMM:   4    -0.363311434060E+03    0.37082E-04   -0.79001E-04  6976   0.439E-02    0.394E-02
RMM:   5    -0.363311424230E+03    0.98302E-05   -0.27759E-04  5713   0.262E-02    0.196E-02
RMM:   6    -0.363311430966E+03   -0.67360E-05   -0.13456E-04  4400   0.176E-02    0.982E-03
RMM:   7    -0.363311434669E+03   -0.37033E-05   -0.56840E-05  3845   0.130E-02
  34 F= -.36331143E+03 E0= -.36331681E+03  d E =-.130527E-02
       N       E                     dE             d eps       ncg     rms          rms(c)
DAV:   1    -0.363311406331E+03    0.24635E-04   -0.35411E-01  4256   0.167E+00    0.176E-01
RMM:   2    -0.363312067277E+03   -0.66095E-03   -0.11120E-02  6636   0.304E-01    0.926E-02
RMM:   3    -0.363311966374E+03    0.10090E-03   -0.16094E-03  6628   0.731E-02    0.641E-02
RMM:   4    -0.363311938603E+03    0.27771E-04   -0.44774E-04  6539   0.342E-02    0.415E-02
RMM:   5    -0.363311928501E+03    0.10102E-04   -0.17194E-04  5944   0.208E-02    0.221E-02
RMM:   6    -0.363311923353E+03    0.51485E-05   -0.76373E-05  4298   0.144E-02
  35 F= -.36331192E+03 E0= -.36331737E+03  d E =-.488684E-03
       N       E                     dE             d eps       ncg     rms          rms(c)
DAV:   1    -0.363311851681E+03    0.76820E-04   -0.94964E-02  4272   0.865E-01    0.896E-02
RMM:   2    -0.363312034272E+03   -0.18259E-03   -0.30619E-03  6589   0.158E-01    0.485E-02
RMM:   3    -0.363312007732E+03    0.26540E-04   -0.47407E-04  6277   0.388E-02    0.337E-02
RMM:   4    -0.363312004310E+03    0.34225E-05   -0.15595E-04  5302   0.191E-02    0.222E-02
RMM:   5    -0.363312000437E+03    0.38728E-05   -0.45293E-05  3357   0.118E-02
  36 F= -.36331200E+03 E0= -.36331748E+03  d E =-.565768E-03
       N       E                     dE             d eps       ncg     rms          rms(c)
DAV:   1    -0.363313954029E+03   -0.19497E-02   -0.46908E-01  4368   0.213E+00    0.543E-01
RMM:   2    -0.363313563896E+03    0.39013E-03   -0.31103E-02  6640   0.475E-01    0.212E-01
RMM:   3    -0.363312469125E+03    0.10948E-02   -0.59058E-03  6752   0.138E-01    0.155E-01
RMM:   4    -0.363311928302E+03    0.54082E-03   -0.16637E-03  6814   0.838E-02    0.778E-02
RMM:   5    -0.363311883111E+03    0.45192E-04   -0.53099E-04  6800   0.469E-02    0.566E-02
RMM:   6    -0.363311905304E+03   -0.22194E-04   -0.22717E-04  6043   0.242E-02    0.329E-02
RMM:   7    -0.363311919063E+03   -0.13758E-04   -0.83082E-05  4554   0.182E-02    0.185E-02
RMM:   8    -0.363311928508E+03   -0.94454E-05   -0.52264E-05  4002   0.142E-02
  37 F= -.36331193E+03 E0= -.36331743E+03  d E =0.719285E-04
       N       E                     dE             d eps       ncg     rms          rms(c)
DAV:   1    -0.363312892072E+03   -0.97301E-03   -0.14437E-01  4480   0.118E+00    0.302E-01
RMM:   2    -0.363312766251E+03    0.12582E-03   -0.94790E-03  6612   0.259E-01    0.120E-01
RMM:   3    -0.363312417823E+03    0.34843E-03   -0.18500E-03  6764   0.779E-02    0.874E-02
RMM:   4    -0.363312233350E+03    0.18447E-03   -0.49660E-04  6708   0.473E-02    0.438E-02
RMM:   5    -0.363312207511E+03    0.25839E-04   -0.15072E-04  6221   0.269E-02    0.311E-02
RMM:   6    -0.363312200824E+03    0.66867E-05   -0.51024E-05  3460   0.140E-02
  38 F= -.36331220E+03 E0= -.36331770E+03  d E =-.200387E-03
       N       E                     dE             d eps       ncg     rms          rms(c)
DAV:   1    -0.363311842361E+03    0.36515E-03   -0.27037E-01  4256   0.149E+00    0.965E-02
RMM:   2    -0.363312494419E+03   -0.65206E-03   -0.79512E-03  5933   0.257E-01    0.490E-02
RMM:   3    -0.363312450561E+03    0.43858E-04   -0.96286E-04  6402   0.711E-02    0.394E-02
RMM:   4    -0.363312447097E+03    0.34640E-05   -0.22940E-04  5890   0.214E-02    0.267E-02
RMM:   5    -0.363312442068E+03    0.50297E-05   -0.62787E-05  4026   0.129E-02
  39 F= -.36331244E+03 E0= -.36331798E+03  d E =-.241243E-03
       N       E                     dE             d eps       ncg     rms          rms(c)
DAV:   1    -0.363312412861E+03    0.34236E-04   -0.18340E-02  4464   0.385E-01    0.273E-02
RMM:   2    -0.363312463086E+03   -0.50225E-04   -0.60413E-04  6241   0.690E-02    0.157E-02
RMM:   3    -0.363312460797E+03    0.22890E-05   -0.89729E-05  4099   0.202E-02
  40 F= -.36331246E+03 E0= -.36331801E+03  d E =-.259973E-03
       N       E                     dE             d eps       ncg     rms          rms(c)
DAV:   1    -0.363313353631E+03   -0.89055E-03   -0.53766E-02  4552   0.792E-01    0.281E-01
RMM:   2    -0.363312959189E+03    0.39444E-03   -0.54605E-03  6698   0.196E-01    0.105E-01
RMM:   3    -0.363312643377E+03    0.31581E-03   -0.14296E-03  6792   0.662E-02    0.782E-02
RMM:   4    -0.363312487489E+03    0.15589E-03   -0.39656E-04  6788   0.453E-02    0.389E-02
RMM:   5    -0.363312467008E+03    0.20481E-04   -0.12333E-04  6231   0.222E-02    0.287E-02
RMM:   6    -0.363312463378E+03    0.36298E-05   -0.36726E-05  3111   0.123E-02
  41 F= -.36331246E+03 E0= -.36331808E+03  d E =-.258120E-05
