<?xml version="1.0" encoding="ISO-8859-1"?>
<modeling>
 <generator>
  <i name="program" type="string">vasp </i>
  <i name="version" type="string">5.4.1  </i>
  <i name="subversion" type="string">05Feb16 (build Jan 29 2020 16:04:39) complex                          parallel </i>
  <i name="platform" type="string">IFC91_ompi </i>
  <i name="date" type="string">2020 06 15 </i>
  <i name="time" type="string">11:29:13 </i>
 </generator>
 <incar>
  <i type="string" name="SYSTEM"> automatically generated by mexm</i>
  <i type="int" name="ISTART">     0</i>
  <i type="string" name="PREC">accurate               ! avoid wrap aro</i>
  <i type="string" name="ALGO"> Fast                   ! blocked Davids</i>
  <i type="int" name="ISPIN">     1</i>
  <i type="int" name="ICHARG">     2</i>
  <i type="int" name="NELM">    70</i>
  <i type="int" name="IBRION">     2</i>
  <i name="EDIFF">      0.00001000</i>
  <i name="EDIFFG">     -0.01000000</i>
  <i type="int" name="NSW">   300</i>
  <i type="int" name="ISIF">     3</i>
  <i type="int" name="ISYM">     1</i>
  <i name="ENCUT">    300.00000000</i>
  <i name="POTIM">      0.15000000</i>
  <i type="string" name="LREAL"> Auto                  ! unpublished met</i>
  <i type="int" name="ISMEAR">     1</i>
  <i name="SIGMA">      0.15000000</i>
  <i type="logical" name="LWAVE"> F  </i>
  <i type="logical" name="LCHARG"> F  </i>
  <i type="logical" name="LVTOT"> F  </i>
  <v type="int" name="KPOINT_BSE">    -1     0     0     0</v>
  <i type="int" name="NELM">    70</i>
 </incar>
 <kpoints>
  <generation param="Gamma">
   <v type="int" name="divisions">       3        3        3 </v>
   <v name="usershift">      0.00000000       0.00000000       0.00000000 </v>
   <v name="genvec1">      0.33333333      -0.00000000       0.00000000 </v>
   <v name="genvec2">      0.00000000       0.33333333       0.00000000 </v>
   <v name="genvec3">      0.00000000       0.00000000       0.33333333 </v>
   <v name="shift">      0.00000000       0.00000000       0.00000000 </v>
  </generation>
  <varray name="kpointlist" >
   <v>       0.00000000       0.00000000       0.00000000 </v>
   <v>       0.33333333       0.00000000       0.00000000 </v>
   <v>      -0.00000000       0.33333333      -0.00000000 </v>
   <v>       0.33333333       0.33333333       0.00000000 </v>
   <v>      -0.33333333       0.33333333      -0.00000000 </v>
   <v>      -0.00000000       0.00000000       0.33333333 </v>
   <v>       0.33333333      -0.00000000       0.33333333 </v>
   <v>      -0.33333333       0.00000000       0.33333333 </v>
   <v>      -0.00000000       0.33333333       0.33333333 </v>
   <v>       0.33333333       0.33333333       0.33333333 </v>
   <v>      -0.33333333       0.33333333       0.33333333 </v>
   <v>      -0.00000000      -0.33333333       0.33333333 </v>
   <v>       0.33333333      -0.33333333       0.33333333 </v>
   <v>      -0.33333333      -0.33333333       0.33333333 </v>
  </varray>
  <varray name="weights" >
   <v>       0.03703704 </v>
   <v>       0.07407407 </v>
   <v>       0.07407407 </v>
   <v>       0.07407407 </v>
   <v>       0.07407407 </v>
   <v>       0.07407407 </v>
   <v>       0.07407407 </v>
   <v>       0.07407407 </v>
   <v>       0.07407407 </v>
   <v>       0.07407407 </v>
   <v>       0.07407407 </v>
   <v>       0.07407407 </v>
   <v>       0.07407407 </v>
   <v>       0.07407407 </v>
  </varray>
 </kpoints>
 <parameters>
  <separator name="general" >
   <i type="string" name="SYSTEM">automatically generated by mexm</i>
   <i type="logical" name="LCOMPAT"> F  </i>
  </separator>
  <separator name="electronic" >
   <i type="string" name="PREC">accura</i>
   <i name="ENMAX">    300.00000000</i>
   <i name="ENAUG">    461.25700000</i>
   <i name="EDIFF">      0.00001000</i>
   <i type="int" name="IALGO">    68</i>
   <i type="int" name="IWAVPR">    11</i>
   <i type="int" name="NBANDS">   152</i>
   <i name="NELECT">    254.00000000</i>
   <i type="int" name="TURBO">     0</i>
   <i type="int" name="IRESTART">     0</i>
   <i type="int" name="NREBOOT">     0</i>
   <i type="int" name="NMIN">     0</i>
   <i name="EREF">      0.00000000</i>
   <separator name="electronic smearing" >
    <i type="int" name="ISMEAR">     1</i>
    <i name="SIGMA">      0.15000000</i>
    <i name="KSPACING">      0.50000000</i>
    <i type="logical" name="KGAMMA"> T  </i>
   </separator>
   <separator name="electronic projectors" >
    <i type="logical" name="LREAL"> T  </i>
    <v name="ROPT">     -0.00025000     -0.00025000     -0.00025000     -0.00025000</v>
    <i type="int" name="LMAXPAW">  -100</i>
    <i type="int" name="LMAXMIX">     2</i>
    <i type="logical" name="NLSPLINE"> F  </i>
   </separator>
   <separator name="electronic startup" >
    <i type="int" name="ISTART">     0</i>
    <i type="int" name="ICHARG">     2</i>
    <i type="int" name="INIWAV">     1</i>
   </separator>
   <separator name="electronic spin" >
    <i type="int" name="ISPIN">     1</i>
    <i type="logical" name="LNONCOLLINEAR"> F  </i>
    <v name="MAGMOM">      1.00000000      1.00000000      1.00000000      1.00000000      1.00000000      1.00000000      1.00000000      1.00000000      1.00000000      1.00000000      1.00000000      1.00000000      1.00000000      1.00000000      1.00000000      1.00000000      1.00000000      1.00000000      1.00000000      1.00000000
      1.00000000      1.00000000      1.00000000      1.00000000      1.00000000      1.00000000      1.00000000      1.00000000      1.00000000      1.00000000      1.00000000      1.00000000      1.00000000      1.00000000      1.00000000      1.00000000</v>
    <i name="NUPDOWN">     -1.00000000</i>
    <i type="logical" name="LSORBIT"> F  </i>
    <v name="SAXIS">      0.00000000      0.00000000      1.00000000</v>
    <i type="logical" name="LSPIRAL"> F  </i>
    <v name="QSPIRAL">      0.00000000      0.00000000      0.00000000</v>
    <i type="logical" name="LZEROZ"> F  </i>
   </separator>
   <separator name="electronic exchange-correlation" >
    <i type="logical" name="LASPH"> F  </i>
    <i type="logical" name="LMETAGGA"> F  </i>
   </separator>
   <separator name="electronic convergence" >
    <i type="int" name="NELM">    70</i>
    <i type="int" name="NELMDL">    -5</i>
    <i type="int" name="NELMIN">     2</i>
    <i name="ENINI">    300.00000000</i>
    <separator name="electronic convergence detail" >
     <i type="logical" name="LDIAG"> T  </i>
     <i type="logical" name="LSUBROT"> F  </i>
     <i name="WEIMIN">      0.00100000</i>
     <i name="EBREAK">      0.00000002</i>
     <i name="DEPER">      0.30000000</i>
     <i type="int" name="NRMM">     4</i>
     <i name="TIME">      0.40000000</i>
    </separator>
   </separator>
   <separator name="electronic mixer" >
    <i name="AMIX">      0.40000000</i>
    <i name="BMIX">      1.00000000</i>
    <i name="AMIN">      0.10000000</i>
    <i name="AMIX_MAG">      1.60000000</i>
    <i name="BMIX_MAG">      1.00000000</i>
    <separator name="electronic mixer details" >
     <i type="int" name="IMIX">     4</i>
     <i type="logical" name="MIXFIRST"> F  </i>
     <i type="int" name="MAXMIX">   -45</i>
     <i name="WC">    100.00000000</i>
     <i type="int" name="INIMIX">     1</i>
     <i type="int" name="MIXPRE">     1</i>
     <i type="int" name="MREMOVE">     5</i>
    </separator>
   </separator>
   <separator name="electronic dipolcorrection" >
    <i type="logical" name="LDIPOL"> F  </i>
    <i type="logical" name="LMONO"> F  </i>
    <i type="int" name="IDIPOL">     0</i>
    <i name="EPSILON">      1.00000000</i>
    <v name="DIPOL">   -100.00000000   -100.00000000   -100.00000000</v>
    <i name="EFIELD">      0.00000000</i>
   </separator>
  </separator>
  <separator name="grids" >
   <i type="int" name="NGX">    40</i>
   <i type="int" name="NGY">    60</i>
   <i type="int" name="NGZ">    60</i>
   <i type="int" name="NGXF">    80</i>
   <i type="int" name="NGYF">   120</i>
   <i type="int" name="NGZF">   120</i>
   <i type="logical" name="ADDGRID"> F  </i>
  </separator>
  <separator name="ionic" >
   <i type="int" name="NSW">   300</i>
   <i type="int" name="IBRION">     2</i>
   <i type="int" name="ISIF">     3</i>
   <i name="PSTRESS">      0.00000000</i>
   <i name="EDIFFG">     -0.01000000</i>
   <i type="int" name="NFREE">     1</i>
   <i name="POTIM">      0.15000000</i>
   <i name="SMASS">     -3.00000000</i>
   <i name="SCALEE">      1.00000000</i>
  </separator>
  <separator name="ionic md" >
   <i name="TEBEG">      0.00010000</i>
   <i name="TEEND">      0.00010000</i>
   <i type="int" name="NBLOCK">     1</i>
   <i type="int" name="KBLOCK">   300</i>
   <i type="int" name="NPACO">   256</i>
   <i name="APACO">     16.00000000</i>
  </separator>
  <separator name="symmetry" >
   <i type="int" name="ISYM">     1</i>
   <i name="SYMPREC">      0.00001000</i>
  </separator>
  <separator name="dos" >
   <i type="logical" name="LORBIT"> F  </i>
   <v name="RWIGS">     -1.00000000     -1.00000000     -1.00000000     -1.00000000</v>
   <i type="int" name="NEDOS">   301</i>
   <i name="EMIN">     10.00000000</i>
   <i name="EMAX">    -10.00000000</i>
   <i name="EFERMI">      0.00000000</i>
  </separator>
  <separator name="writing" >
   <i type="int" name="NWRITE">     2</i>
   <i type="logical" name="LWAVE"> F  </i>
   <i type="logical" name="LCHARG"> F  </i>
   <i type="logical" name="LPARD"> F  </i>
   <i type="logical" name="LVTOT"> F  </i>
   <i type="logical" name="LVHAR"> F  </i>
   <i type="logical" name="LELF"> F  </i>
   <i type="logical" name="LOPTICS"> F  </i>
   <v name="STM">      0.00000000      0.00000000      0.00000000      0.00000000      0.00000000      0.00000000      0.00000000</v>
  </separator>
  <separator name="performance" >
   <i type="int" name="NPAR">     4</i>
   <i type="int" name="NSIM">     4</i>
   <i type="int" name="NBLK">    -1</i>
   <i type="logical" name="LPLANE"> T  </i>
   <i type="logical" name="LSCALAPACK"> T  </i>
   <i type="logical" name="LSCAAWARE"> F  </i>
   <i type="logical" name="LSCALU"> F  </i>
   <i type="logical" name="LASYNC"> F  </i>
   <i type="logical" name="LORBITALREAL"> F  </i>
  </separator>
  <separator name="miscellaneous" >
   <i type="int" name="IDIOT">     3</i>
   <i type="logical" name="LMUSIC"> F  </i>
   <v name="POMASS">     91.22400000    180.94800000     92.91000000    178.49000000</v>
   <v name="DARWINR">      0.00000000      0.00000000      0.00000000      0.00000000</v>
   <v name="DARWINV">      1.00000000      1.00000000      1.00000000      1.00000000</v>
   <i type="logical" name="LCORR"> T  </i>
  </separator>
  <i type="logical" name="GGA_COMPAT"> T  </i>
  <i type="logical" name="LBERRY"> F  </i>
  <i type="int" name="ICORELEVEL">     0</i>
  <i type="logical" name="LDAU"> F  </i>
  <i type="int" name="I_CONSTRAINED_M">     0</i>
  <separator name="electronic exchange-correlation" >
   <i type="string" name="GGA">--</i>
   <i type="int" name="VOSKOWN">     0</i>
   <i type="logical" name="LHFCALC"> F  </i>
   <i type="string" name="PRECFOCK"></i>
   <i type="logical" name="LSYMGRAD"> F  </i>
   <i type="logical" name="LHFONE"> F  </i>
   <i type="logical" name="LRHFCALC"> F  </i>
   <i type="logical" name="LTHOMAS"> F  </i>
   <i type="logical" name="LMODELHF"> F  </i>
   <i name="ENCUT4O">     -1.00000000</i>
   <i type="int" name="EXXOEP">     0</i>
   <i type="int" name="FOURORBIT">     0</i>
   <i name="AEXX">      0.00000000</i>
   <i name="HFALPHA">      0.00000000</i>
   <i name="MCALPHA">      0.00000000</i>
   <i name="ALDAX">      1.00000000</i>
   <i name="AGGAX">      1.00000000</i>
   <i name="ALDAC">      1.00000000</i>
   <i name="AGGAC">      1.00000000</i>
   <i type="int" name="NKREDX">     1</i>
   <i type="int" name="NKREDY">     1</i>
   <i type="int" name="NKREDZ">     1</i>
   <i type="logical" name="SHIFTRED"> F  </i>
   <i type="logical" name="ODDONLY"> F  </i>
   <i type="logical" name="EVENONLY"> F  </i>
   <i type="int" name="LMAXFOCK">     0</i>
   <i type="int" name="NMAXFOCKAE">     0</i>
   <i type="logical" name="LFOCKAEDFT"> F  </i>
   <i name="HFSCREEN">      0.00000000</i>
   <i name="HFSCREENC">      0.00000000</i>
   <i type="int" name="NBANDSGWLOW">     0</i>
  </separator>
  <separator name="vdW DFT" >
   <i type="logical" name="LUSE_VDW"> F  </i>
   <i name="Zab_VDW">     -0.84910000</i>
   <i name="PARAM1">      0.12340000</i>
   <i name="PARAM2">      1.00000000</i>
   <i name="PARAM3">      0.00000000</i>
  </separator>
  <separator name="model GW" >
   <i type="int" name="MODEL_GW">     0</i>
   <i name="MODEL_EPS0">     12.50544208</i>
   <i name="MODEL_ALPHA">      1.00000000</i>
  </separator>
  <separator name="linear response parameters" >
   <i type="logical" name="LEPSILON"> F  </i>
   <i type="logical" name="LRPA"> F  </i>
   <i type="logical" name="LNABLA"> F  </i>
   <i type="logical" name="LVEL"> F  </i>
   <i type="int" name="KINTER">     0</i>
   <i name="CSHIFT">      0.10000000</i>
   <i name="OMEGAMAX">     -1.00000000</i>
   <i name="DEG_THRESHOLD">      0.00200000</i>
  </separator>
  <separator name="orbital magnetization" >
   <i type="logical" name="NUCIND"> F  </i>
   <v name="MAGPOS">      0.00000000      0.00000000      0.00000000</v>
   <i type="logical" name="LNICSALL"> T  </i>
   <i type="logical" name="ORBITALMAG"> F  </i>
   <i type="logical" name="LMAGBLOCH"> F  </i>
   <i type="logical" name="LCHIMAG"> F  </i>
   <i type="logical" name="LGAUGE"> T  </i>
   <i type="int" name="MAGATOM">     0</i>
   <v name="MAGDIPOL">      0.00000000      0.00000000      0.00000000</v>
   <v name="AVECCONST">      0.00000000      0.00000000      0.00000000</v>
  </separator>
  <separator name="response functions" >
   <i type="logical" name="LADDER"> F  </i>
   <i type="logical" name="LFXC"> F  </i>
   <i type="logical" name="LHARTREE"> T  </i>
   <i type="int" name="IBSE">     0</i>
   <v type="int" name="KPOINT">    -1     0     0     0</v>
   <i type="logical" name="LTCTE"> F  </i>
   <i type="logical" name="LTETE"> F  </i>
   <i type="logical" name="LTRIPLET"> F  </i>
   <i type="logical" name="LFXCEPS"> F  </i>
   <i type="logical" name="LFXHEG"> F  </i>
   <i type="int" name="NATURALO">     0</i>
   <i type="logical" name="L2ORDER"> F  </i>
   <i type="logical" name="LUSEW"> F  </i>
   <i name="ENCUTGW">     -2.00000000</i>
   <i name="ENCUTGWSOFT">     -2.00000000</i>
   <i name="ENCUTLF">     -1.00000000</i>
   <i type="int" name="LMAXMP2">    -1</i>
   <i name="SCISSOR">      0.00000000</i>
   <i type="int" name="NOMEGA">     0</i>
   <i type="int" name="NOMEGAR">     0</i>
   <i type="int" name="NBANDSGW">    -1</i>
   <i type="int" name="NBANDSO">    -1</i>
   <i type="int" name="NBANDSV">    -1</i>
   <i type="int" name="NELM">    70</i>
   <i type="int" name="NELMHF">     1</i>
   <i type="int" name="DIM">     3</i>
   <i type="int" name="ANTIRES">     0</i>
   <i name="OMEGAMAX">    -30.00000000</i>
   <i name="OMEGAMIN">    -30.00000000</i>
   <i name="OMEGATL">   -200.00000000</i>
   <i type="int" name="OMEGAGRID">     0</i>
   <i name="CSHIFT">     -0.10000000</i>
   <i type="logical" name="SELFENERGY"> F  </i>
   <i type="logical" name="LSPECTRAL"> F  </i>
   <i type="logical" name="LSPECTRALGW"> F  </i>
   <i type="logical" name="LSINGLES"> F  </i>
   <i type="logical" name="LFERMIGW"> F  </i>
   <i type="logical" name="ODDONLYGW"> F  </i>
   <i type="logical" name="EVENONLYGW"> F  </i>
   <i type="int" name="NKREDLFX">     1</i>
   <i type="int" name="NKREDLFY">     1</i>
   <i type="int" name="NKREDLFZ">     1</i>
   <i type="int" name="MAXMEM">  1800</i>
   <i type="int" name="TELESCOPE">     0</i>
   <i type="int" name="TAUPAR">     1</i>
   <i type="int" name="OMEGAPAR">    -1</i>
   <i name="LAMBDA">      1.00000000</i>
  </separator>
  <separator name="External order field" >
   <i name="OFIELD_KAPPA">      0.00000000</i>
   <v name="OFIELD_K">      0.00000000      0.00000000      0.00000000</v>
   <i name="OFIELD_Q6_NEAR">      0.00000000</i>
   <i name="OFIELD_Q6_FAR">      0.00000000</i>
   <i name="OFIELD_A">      0.00000000</i>
  </separator>
 </parameters>
 <atominfo>
  <atoms>      36 </atoms>
  <types>       4 </types>
  <array name="atoms" >
   <dimension dim="1">ion</dimension>
   <field type="string">element</field>
   <field type="int">atomtype</field>
   <set>
    <rc><c>Zr</c><c>   1</c></rc>
    <rc><c>Zr</c><c>   1</c></rc>
    <rc><c>Zr</c><c>   1</c></rc>
    <rc><c>Zr</c><c>   1</c></rc>
    <rc><c>Zr</c><c>   1</c></rc>
    <rc><c>Zr</c><c>   1</c></rc>
    <rc><c>Zr</c><c>   1</c></rc>
    <rc><c>Zr</c><c>   1</c></rc>
    <rc><c>Ta</c><c>   2</c></rc>
    <rc><c>Ta</c><c>   2</c></rc>
    <rc><c>Ta</c><c>   2</c></rc>
    <rc><c>Ta</c><c>   2</c></rc>
    <rc><c>Ta</c><c>   2</c></rc>
    <rc><c>Ta</c><c>   2</c></rc>
    <rc><c>Ta</c><c>   2</c></rc>
    <rc><c>Ta</c><c>   2</c></rc>
    <rc><c>Ta</c><c>   2</c></rc>
    <rc><c>Ta</c><c>   2</c></rc>
    <rc><c>Nb</c><c>   3</c></rc>
    <rc><c>Nb</c><c>   3</c></rc>
    <rc><c>Nb</c><c>   3</c></rc>
    <rc><c>Nb</c><c>   3</c></rc>
    <rc><c>Hf</c><c>   4</c></rc>
    <rc><c>Hf</c><c>   4</c></rc>
    <rc><c>Hf</c><c>   4</c></rc>
    <rc><c>Hf</c><c>   4</c></rc>
    <rc><c>Hf</c><c>   4</c></rc>
    <rc><c>Hf</c><c>   4</c></rc>
    <rc><c>Hf</c><c>   4</c></rc>
    <rc><c>Hf</c><c>   4</c></rc>
    <rc><c>Hf</c><c>   4</c></rc>
    <rc><c>Hf</c><c>   4</c></rc>
    <rc><c>Hf</c><c>   4</c></rc>
    <rc><c>Hf</c><c>   4</c></rc>
    <rc><c>Hf</c><c>   4</c></rc>
    <rc><c>Hf</c><c>   4</c></rc>
   </set>
  </array>
  <array name="atomtypes" >
   <dimension dim="1">type</dimension>
   <field type="int">atomspertype</field>
   <field type="string">element</field>
   <field>mass</field>
   <field>valence</field>
   <field type="string">pseudopotential</field>
   <set>
    <rc><c>   8</c><c>Zr</c><c>     91.22400000</c><c>     12.00000000</c><c>  PAW_PBE Zr_sv 04Jan2005               </c></rc>
    <rc><c>  10</c><c>Ta</c><c>    180.94800000</c><c>      5.00000000</c><c>  PAW_PBE Ta 17Jan2003                  </c></rc>
    <rc><c>   4</c><c>Nb</c><c>     92.91000000</c><c>     13.00000000</c><c>  PAW_PBE Nb_sv 25May2007               </c></rc>
    <rc><c>  14</c><c>Hf</c><c>    178.49000000</c><c>      4.00000000</c><c>  PAW_PBE Hf 20Jan2003                  </c></rc>
   </set>
  </array>
 </atominfo>
 <structure name="initialpos" >
  <crystal>
   <varray name="basis" >
    <v>       7.05175935       0.00290320       0.03070305 </v>
    <v>       0.00531754      10.33644177       0.01136836 </v>
    <v>       0.04557819       0.01126859      10.29415586 </v>
   </varray>
   <i name="volume">    750.32652506 </i>
   <varray name="rec_basis" >
    <v>       0.14181135      -0.00007226      -0.00062780 </v>
    <v>      -0.00003937       0.09674523      -0.00010573 </v>
    <v>      -0.00042292      -0.00010663       0.09714449 </v>
   </varray>
  </crystal>
  <varray name="positions" >
   <v>       0.50781300       0.00726800       0.00246500 </v>
   <v>       0.74867000       0.49567600       0.49635900 </v>
   <v>       0.99187500       0.99628500       0.99942400 </v>
   <v>       0.01594400       0.33050400       0.98860700 </v>
   <v>       0.48152300       0.00784000       0.32750200 </v>
   <v>       0.29343100       0.82546000       0.51201700 </v>
   <v>       0.77764800       0.17825200       0.18454800 </v>
   <v>       0.97970200       0.68005800       0.99915600 </v>
   <v>       0.73133600       0.82934200       0.18840600 </v>
   <v>       0.22449500       0.17843900       0.50716800 </v>
   <v>       0.03634900       0.33532900       0.34217200 </v>
   <v>       0.25491500       0.49404400       0.82518600 </v>
   <v>       0.26826600       0.82362500       0.15714900 </v>
   <v>       0.48400800       0.32957800       0.66485000 </v>
   <v>       0.25478400       0.49520900       0.50062800 </v>
   <v>       0.49147100       0.66310500       0.31995400 </v>
   <v>       0.47554800       0.63599800       0.66831000 </v>
   <v>       0.01482500       0.66994000       0.66343100 </v>
   <v>       0.01250300       0.33526600       0.66893400 </v>
   <v>       0.22359200       0.16385700       0.16471600 </v>
   <v>       0.75264600       0.18844600       0.81953900 </v>
   <v>       0.24424200       0.17160000       0.82814100 </v>
   <v>       0.49068400       0.32329800       0.99852400 </v>
   <v>       0.76787400       0.49478100       0.18148200 </v>
   <v>       0.27331900       0.82886700       0.83918800 </v>
   <v>       0.72523400       0.83001400       0.49885000 </v>
   <v>       0.74523300       0.49024900       0.82092400 </v>
   <v>       0.23508100       0.50881000       0.16731400 </v>
   <v>       0.01612200       0.68418300       0.33960100 </v>
   <v>       0.77024100       0.17902900       0.49988600 </v>
   <v>       0.47006200       0.32411900       0.32895300 </v>
   <v>       0.01640100       0.98813800       0.33636000 </v>
   <v>       0.52049800       0.66123700       0.01067000 </v>
   <v>       0.49243500       0.03066300       0.67019200 </v>
   <v>       0.99926000       0.00023200       0.67272000 </v>
   <v>       0.71197000       0.82127200       0.80667400 </v>
  </varray>
 </structure>
 <calculation>
  <scstep>
   <time name="dav">    0.99    1.00</time>
   <time name="total">    1.22    1.46</time>
   <energy>
    <i name="alphaZ">   1221.72439983 </i>
    <i name="ewald"> -14070.52109461 </i>
    <i name="hartreedc">  -5783.74371531 </i>
    <i name="XCdc">   -784.92745267 </i>
    <i name="pawpsdc">  16590.23265195 </i>
    <i name="pawaedc"> -14801.45743290 </i>
    <i name="eentropy">     -0.00776565 </i>
    <i name="bandstr">     84.62857789 </i>
    <i name="atom">  18862.79342304 </i>
    <i name="e_fr_energy">   1318.72159156 </i>
    <i name="e_wo_entrp">   1318.72935721 </i>
    <i name="e_0_energy">   1318.72418011 </i>
   </energy>
  </scstep>
  <scstep>
   <time name="dav">    1.03    1.04</time>
   <time name="total">    1.03    1.18</time>
   <energy>
    <i name="e_fr_energy">   -144.79172507 </i>
    <i name="e_wo_entrp">   -144.79005173 </i>
    <i name="e_0_energy">   -144.79116729 </i>
   </energy>
  </scstep>
  <scstep>
   <time name="dav">    1.25    1.27</time>
   <time name="total">    1.26    1.30</time>
   <energy>
    <i name="e_fr_energy">   -350.32774901 </i>
    <i name="e_wo_entrp">   -350.32753729 </i>
    <i name="e_0_energy">   -350.32767843 </i>
   </energy>
  </scstep>
  <scstep>
   <time name="dav">    1.25    1.26</time>
   <time name="total">    1.25    1.28</time>
   <energy>
    <i name="e_fr_energy">   -375.59845163 </i>
    <i name="e_wo_entrp">   -375.59134247 </i>
    <i name="e_0_energy">   -375.59608191 </i>
   </energy>
  </scstep>
  <scstep>
   <time name="dav">    1.20    1.22</time>
   <time name="total">    1.23    1.27</time>
   <energy>
    <i name="e_fr_energy">   -378.36486250 </i>
    <i name="e_wo_entrp">   -378.35831982 </i>
    <i name="e_0_energy">   -378.36268161 </i>
   </energy>
  </scstep>
  <scstep>
   <time name="diag">    0.10    0.10</time>
   <time name="diis">    0.69    0.69</time>
   <time name="orth">    0.01    0.01</time>
   <time name="total">    0.87    0.91</time>
   <energy>
    <i name="e_fr_energy">   -367.96858262 </i>
    <i name="e_wo_entrp">   -367.96005839 </i>
    <i name="e_0_energy">   -367.96574121 </i>
   </energy>
  </scstep>
  <scstep>
   <time name="diag">    0.07    0.07</time>
   <time name="diis">    0.66    0.66</time>
   <time name="orth">    0.01    0.01</time>
   <time name="total">    0.82    0.85</time>
   <energy>
    <i name="e_fr_energy">   -367.29600672 </i>
    <i name="e_wo_entrp">   -367.30658907 </i>
    <i name="e_0_energy">   -367.29953417 </i>
   </energy>
  </scstep>
  <scstep>
   <time name="diag">    0.06    0.06</time>
   <time name="diis">    0.69    0.69</time>
   <time name="orth">    0.01    0.01</time>
   <time name="total">    0.82    0.85</time>
   <energy>
    <i name="e_fr_energy">   -363.22779595 </i>
    <i name="e_wo_entrp">   -363.23696432 </i>
    <i name="e_0_energy">   -363.23085208 </i>
   </energy>
  </scstep>
  <scstep>
   <time name="diag">    0.06    0.06</time>
   <time name="diis">    0.69    0.70</time>
   <time name="orth">    0.01    0.01</time>
   <time name="total">    0.83    0.85</time>
   <energy>
    <i name="e_fr_energy">   -363.10461539 </i>
    <i name="e_wo_entrp">   -363.10967215 </i>
    <i name="e_0_energy">   -363.10630098 </i>
   </energy>
  </scstep>
  <scstep>
   <time name="diag">    0.06    0.06</time>
   <time name="diis">    0.69    0.69</time>
   <time name="orth">    0.01    0.01</time>
   <time name="total">    0.83    0.85</time>
   <energy>
    <i name="e_fr_energy">   -363.06064427 </i>
    <i name="e_wo_entrp">   -363.06831713 </i>
    <i name="e_0_energy">   -363.06320189 </i>
   </energy>
  </scstep>
  <scstep>
   <time name="diag">    0.07    0.07</time>
   <time name="diis">    0.72    0.73</time>
   <time name="orth">    0.01    0.01</time>
   <time name="total">    0.89    0.92</time>
   <energy>
    <i name="e_fr_energy">   -363.04695974 </i>
    <i name="e_wo_entrp">   -363.05556999 </i>
    <i name="e_0_energy">   -363.04982982 </i>
   </energy>
  </scstep>
  <scstep>
   <time name="diag">    0.11    0.11</time>
   <time name="diis">    0.82    0.84</time>
   <time name="orth">    0.01    0.01</time>
   <time name="total">    1.02    1.08</time>
   <energy>
    <i name="e_fr_energy">   -363.05183173 </i>
    <i name="e_wo_entrp">   -363.06030032 </i>
    <i name="e_0_energy">   -363.05465459 </i>
   </energy>
  </scstep>
  <scstep>
   <time name="diag">    0.06    0.06</time>
   <time name="diis">    0.80    0.81</time>
   <time name="orth">    0.01    0.01</time>
   <time name="total">    0.94    0.97</time>
   <energy>
    <i name="e_fr_energy">   -363.05371713 </i>
    <i name="e_wo_entrp">   -363.06248889 </i>
    <i name="e_0_energy">   -363.05664105 </i>
   </energy>
  </scstep>
  <scstep>
   <time name="diag">    0.06    0.06</time>
   <time name="diis">    0.70    0.71</time>
   <time name="orth">    0.01    0.01</time>
   <time name="total">    0.84    0.86</time>
   <energy>
    <i name="e_fr_energy">   -363.05562426 </i>
    <i name="e_wo_entrp">   -363.06442633 </i>
    <i name="e_0_energy">   -363.05855828 </i>
   </energy>
  </scstep>
  <scstep>
   <time name="diag">    0.07    0.07</time>
   <time name="diis">    0.70    0.70</time>
   <time name="orth">    0.01    0.01</time>
   <time name="total">    0.86    0.88</time>
   <energy>
    <i name="e_fr_energy">   -363.05670617 </i>
    <i name="e_wo_entrp">   -363.06551276 </i>
    <i name="e_0_energy">   -363.05964170 </i>
   </energy>
  </scstep>
  <scstep>
   <time name="diag">    0.07    0.07</time>
   <time name="diis">    0.63    0.63</time>
   <time name="orth">    0.01    0.01</time>
   <time name="total">    0.80    0.84</time>
   <energy>
    <i name="e_fr_energy">   -363.05738136 </i>
    <i name="e_wo_entrp">   -363.06629584 </i>
    <i name="e_0_energy">   -363.06035285 </i>
   </energy>
  </scstep>
  <scstep>
   <time name="diag">    0.06    0.06</time>
   <time name="diis">    0.64    0.64</time>
   <time name="orth">    0.01    0.01</time>
   <time name="total">    0.77    0.80</time>
   <energy>
    <i name="e_fr_energy">   -363.05779340 </i>
    <i name="e_wo_entrp">   -363.06674384 </i>
    <i name="e_0_energy">   -363.06077688 </i>
   </energy>
  </scstep>
  <scstep>
   <time name="diag">    0.07    0.07</time>
   <time name="diis">    0.58    0.58</time>
   <time name="orth">    0.01    0.01</time>
   <time name="total">    0.73    0.76</time>
   <energy>
    <i name="e_fr_energy">   -363.05805775 </i>
    <i name="e_wo_entrp">   -363.06705793 </i>
    <i name="e_0_energy">   -363.06105781 </i>
   </energy>
  </scstep>
  <scstep>
   <time name="diag">    0.06    0.06</time>
   <time name="diis">    0.45    0.46</time>
   <time name="orth">    0.01    0.01</time>
   <time name="total">    0.59    0.61</time>
   <energy>
    <i name="e_fr_energy">   -363.05821679 </i>
    <i name="e_wo_entrp">   -363.06724735 </i>
    <i name="e_0_energy">   -363.06122698 </i>
   </energy>
  </scstep>
  <scstep>
   <time name="diag">    0.06    0.06</time>
   <time name="diis">    0.47    0.47</time>
   <time name="orth">    0.02    0.03</time>
   <time name="total">    0.62    0.67</time>
   <energy>
    <i name="e_fr_energy">   -363.05832018 </i>
    <i name="e_wo_entrp">   -363.06737168 </i>
    <i name="e_0_energy">   -363.06133735 </i>
   </energy>
  </scstep>
  <scstep>
   <time name="diag">    0.16    0.16</time>
   <time name="diis">    0.42    0.43</time>
   <time name="orth">    0.01    0.01</time>
   <time name="total">    0.65    0.68</time>
   <energy>
    <i name="e_fr_energy">   -363.05838993 </i>
    <i name="e_wo_entrp">   -363.06746195 </i>
    <i name="e_0_energy">   -363.06141393 </i>
   </energy>
  </scstep>
  <scstep>
   <time name="diag">    0.06    0.08</time>
   <time name="diis">    0.39    0.40</time>
   <time name="orth">    0.01    0.01</time>
   <time name="total">    0.53    0.59</time>
   <energy>
    <i name="e_fr_energy">   -363.05843601 </i>
    <i name="e_wo_entrp">   -363.06752813 </i>
    <i name="e_0_energy">   -363.06146672 </i>
   </energy>
  </scstep>
  <scstep>
   <time name="diag">    0.09    0.11</time>
   <time name="diis">    0.38    0.38</time>
   <time name="orth">    0.01    0.01</time>
   <time name="total">    0.54    0.59</time>
   <energy>
    <i name="e_fr_energy">   -363.05846814 </i>
    <i name="e_wo_entrp">   -363.06758029 </i>
    <i name="e_0_energy">   -363.06150553 </i>
   </energy>
  </scstep>
  <scstep>
   <time name="diag">    0.09    0.09</time>
   <time name="diis">    0.36    0.36</time>
   <time name="orth">    0.01    0.01</time>
   <time name="total">    0.52    0.55</time>
   <energy>
    <i name="e_fr_energy">   -363.05848861 </i>
    <i name="e_wo_entrp">   -363.06761570 </i>
    <i name="e_0_energy">   -363.06153098 </i>
   </energy>
  </scstep>
  <scstep>
   <time name="diag">    0.09    0.09</time>
   <time name="diis">    0.34    0.34</time>
   <time name="orth">    0.01    0.01</time>
   <time name="total">    0.67    0.70</time>
   <energy>
    <i name="e_fr_energy">   -363.05850113 </i>
    <i name="e_wo_entrp">   -363.06764462 </i>
    <i name="e_0_energy">   -363.06154896 </i>
   </energy>
  </scstep>
  <scstep>
   <time name="diag">    0.06    0.06</time>
   <time name="diis">    0.34    0.35</time>
   <time name="orth">    0.01    0.01</time>
   <time name="total">    0.45    0.47</time>
   <energy>
    <i name="alphaZ">   1221.72439983 </i>
    <i name="ewald"> -14070.52109461 </i>
    <i name="hartreedc">  -5602.76124975 </i>
    <i name="XCdc">   -778.44981110 </i>
    <i name="pawpsdc">  28333.30572441 </i>
    <i name="pawaedc"> -26539.42036049 </i>
    <i name="eentropy">      0.00915614 </i>
    <i name="bandstr">  -1789.73869722 </i>
    <i name="atom">  18862.79342304 </i>
    <i name="e_fr_energy">   -363.05850975 </i>
    <i name="e_wo_entrp">   -363.06766589 </i>
    <i name="e_0_energy">   -363.06156179 </i>
   </energy>
  </scstep>
  <structure>
   <crystal>
    <varray name="basis" >
     <v>       7.05175935       0.00290320       0.03070305 </v>
     <v>       0.00531754      10.33644177       0.01136836 </v>
     <v>       0.04557819       0.01126859      10.29415586 </v>
    </varray>
    <i name="volume">    750.32652506 </i>
    <varray name="rec_basis" >
     <v>       0.14181135      -0.00007226      -0.00062780 </v>
     <v>      -0.00003937       0.09674523      -0.00010573 </v>
     <v>      -0.00042292      -0.00010663       0.09714449 </v>
    </varray>
   </crystal>
   <varray name="positions" >
    <v>       0.50781300       0.00726800       0.00246500 </v>
    <v>       0.74867000       0.49567600       0.49635900 </v>
    <v>       0.99187500       0.99628500       0.99942400 </v>
    <v>       0.01594400       0.33050400       0.98860700 </v>
    <v>       0.48152300       0.00784000       0.32750200 </v>
    <v>       0.29343100       0.82546000       0.51201700 </v>
    <v>       0.77764800       0.17825200       0.18454800 </v>
    <v>       0.97970200       0.68005800       0.99915600 </v>
    <v>       0.73133600       0.82934200       0.18840600 </v>
    <v>       0.22449500       0.17843900       0.50716800 </v>
    <v>       0.03634900       0.33532900       0.34217200 </v>
    <v>       0.25491500       0.49404400       0.82518600 </v>
    <v>       0.26826600       0.82362500       0.15714900 </v>
    <v>       0.48400800       0.32957800       0.66485000 </v>
    <v>       0.25478400       0.49520900       0.50062800 </v>
    <v>       0.49147100       0.66310500       0.31995400 </v>
    <v>       0.47554800       0.63599800       0.66831000 </v>
    <v>       0.01482500       0.66994000       0.66343100 </v>
    <v>       0.01250300       0.33526600       0.66893400 </v>
    <v>       0.22359200       0.16385700       0.16471600 </v>
    <v>       0.75264600       0.18844600       0.81953900 </v>
    <v>       0.24424200       0.17160000       0.82814100 </v>
    <v>       0.49068400       0.32329800       0.99852400 </v>
    <v>       0.76787400       0.49478100       0.18148200 </v>
    <v>       0.27331900       0.82886700       0.83918800 </v>
    <v>       0.72523400       0.83001400       0.49885000 </v>
    <v>       0.74523300       0.49024900       0.82092400 </v>
    <v>       0.23508100       0.50881000       0.16731400 </v>
    <v>       0.01612200       0.68418300       0.33960100 </v>
    <v>       0.77024100       0.17902900       0.49988600 </v>
    <v>       0.47006200       0.32411900       0.32895300 </v>
    <v>       0.01640100       0.98813800       0.33636000 </v>
    <v>       0.52049800       0.66123700       0.01067000 </v>
    <v>       0.49243500       0.03066300       0.67019200 </v>
    <v>       0.99926000       0.00023200       0.67272000 </v>
    <v>       0.71197000       0.82127200       0.80667400 </v>
   </varray>
  </structure>
  <varray name="forces" >
   <v>      -0.02029213       0.03195637       0.00611112 </v>
   <v>       0.22605694       0.22706929       0.18221789 </v>
   <v>      -0.00054057       0.04073680       0.05533061 </v>
   <v>       0.02196126      -0.02145821       0.03790919 </v>
   <v>       0.00852075       0.02316995      -0.02215334 </v>
   <v>      -0.39946659      -0.24304431       0.21467872 </v>
   <v>       0.00530657      -0.02116069      -0.00673615 </v>
   <v>      -0.02461604       0.01168334      -0.14455795 </v>
   <v>       0.02148575       0.02354358       0.03029049 </v>
   <v>      -0.00993392       0.00229920       0.03096074 </v>
   <v>       0.04279519      -0.01629785      -0.02649961 </v>
   <v>      -0.33871257       0.37359031      -0.27368776 </v>
   <v>      -0.01146255      -0.00147173      -0.02067564 </v>
   <v>       0.02210785       0.00547035       0.00166400 </v>
   <v>      -0.34962815       0.35992639       0.26443830 </v>
   <v>      -0.00702248      -0.01807516       0.03753251 </v>
   <v>      -0.11998174      -0.07796626      -0.01322135 </v>
   <v>       0.23570918      -0.23331903      -0.06482123 </v>
   <v>      -0.00850456       0.02607364       0.01204295 </v>
   <v>      -0.02152761      -0.01605138       0.02869909 </v>
   <v>       0.03887170       0.01225845      -0.01184939 </v>
   <v>      -0.03172085       0.00484831      -0.02633648 </v>
   <v>      -0.00016406      -0.03204481      -0.01762289 </v>
   <v>       0.01781659       0.00493674      -0.00470242 </v>
   <v>      -0.35700164      -0.20582870      -0.26414956 </v>
   <v>       0.32788574      -0.19221269       0.21071266 </v>
   <v>       0.28826409       0.31909727      -0.17597624 </v>
   <v>      -0.00921750       0.01169717      -0.01558584 </v>
   <v>       0.02039087      -0.01027949       0.20852378 </v>
   <v>       0.00856518      -0.02076480       0.01875691 </v>
   <v>      -0.00499702      -0.01919517      -0.00988723 </v>
   <v>       0.00719386       0.05082804      -0.06881804 </v>
   <v>      -0.02346045      -0.02568756       0.01435308 </v>
   <v>       0.01665978       0.04857716      -0.00146232 </v>
   <v>       0.00487889      -0.17051764       0.01795454 </v>
   <v>       0.42378022      -0.25238690      -0.20343313 </v>
  </varray>
  <varray name="stress" >
   <v>      -9.93635055       0.14261586      -0.55866731 </v>
   <v>       0.14261588      -8.74401701       0.33170535 </v>
   <v>      -0.55866732       0.33170535      -8.22093886 </v>
  </varray>
  <energy>
   <i name="e_fr_energy">   -363.05850975 </i>
   <i name="e_wo_entrp">   -363.06156179 </i>
   <i name="e_0_energy">      0.00915614 </i>
  </energy>
  <time name="totalsc">   23.06   24.35</time>
 </calculation>
 <calculation>
  <scstep>
   <time name="dav">    0.86    0.86</time>
   <time name="total">    1.03    1.16</time>
   <energy>
    <i name="alphaZ">   1227.93320541 </i>
    <i name="ewald"> -14095.54920442 </i>
    <i name="hartreedc">  -5611.03108561 </i>
    <i name="XCdc">   -777.37664610 </i>
    <i name="pawpsdc">  28333.30343902 </i>
    <i name="pawaedc"> -26539.41819659 </i>
    <i name="eentropy">      0.01019462 </i>
    <i name="bandstr">  -1763.80491538 </i>
    <i name="atom">  18862.79342304 </i>
    <i name="e_fr_energy">   -363.13978601 </i>
    <i name="e_wo_entrp">   -363.14998063 </i>
    <i name="e_0_energy">   -363.14318422 </i>
   </energy>
  </scstep>
  <scstep>
   <time name="diag">    0.07    0.07</time>
   <time name="diis">    0.69    0.70</time>
   <time name="orth">    0.01    0.01</time>
   <time name="total">    0.83    0.88</time>
   <energy>
    <i name="e_fr_energy">   -363.12551368 </i>
    <i name="e_wo_entrp">   -363.13534610 </i>
    <i name="e_0_energy">   -363.12879115 </i>
   </energy>
  </scstep>
  <scstep>
   <time name="diag">    0.06    0.06</time>
   <time name="diis">    0.76    0.76</time>
   <time name="orth">    0.01    0.01</time>
   <time name="total">    0.90    0.92</time>
   <energy>
    <i name="e_fr_energy">   -363.10947146 </i>
    <i name="e_wo_entrp">   -363.11933861 </i>
    <i name="e_0_energy">   -363.11276051 </i>
   </energy>
  </scstep>
  <scstep>
   <time name="diag">    0.06    0.06</time>
   <time name="diis">    0.70    0.70</time>
   <time name="orth">    0.01    0.01</time>
   <time name="total">    0.84    0.86</time>
   <energy>
    <i name="e_fr_energy">   -363.10300957 </i>
    <i name="e_wo_entrp">   -363.11327528 </i>
    <i name="e_0_energy">   -363.10643148 </i>
   </energy>
  </scstep>
  <scstep>
   <time name="diag">    0.06    0.06</time>
   <time name="diis">    0.70    0.71</time>
   <time name="orth">    0.01    0.01</time>
   <time name="total">    0.87    0.90</time>
   <energy>
    <i name="e_fr_energy">   -363.10258368 </i>
    <i name="e_wo_entrp">   -363.11272658 </i>
    <i name="e_0_energy">   -363.10596465 </i>
   </energy>
  </scstep>
  <scstep>
   <time name="diag">    0.10    0.10</time>
   <time name="diis">    0.76    0.76</time>
   <time name="orth">    0.01    0.01</time>
   <time name="total">    0.93    0.96</time>
   <energy>
    <i name="e_fr_energy">   -363.10279774 </i>
    <i name="e_wo_entrp">   -363.11298128 </i>
    <i name="e_0_energy">   -363.10619225 </i>
   </energy>
  </scstep>
  <scstep>
   <time name="diag">    0.09    0.09</time>
   <time name="diis">    0.71    0.72</time>
   <time name="orth">    0.01    0.01</time>
   <time name="total">    0.87    0.90</time>
   <energy>
    <i name="e_fr_energy">   -363.10289274 </i>
    <i name="e_wo_entrp">   -363.11310322 </i>
    <i name="e_0_energy">   -363.10629623 </i>
   </energy>
  </scstep>
  <scstep>
   <time name="diag">    0.06    0.06</time>
   <time name="diis">    0.64    0.65</time>
   <time name="orth">    0.01    0.01</time>
   <time name="total">    0.80    0.83</time>
   <energy>
    <i name="e_fr_energy">   -363.10296591 </i>
    <i name="e_wo_entrp">   -363.11316577 </i>
    <i name="e_0_energy">   -363.10636586 </i>
   </energy>
  </scstep>
  <scstep>
   <time name="diag">    0.11    0.11</time>
   <time name="diis">    0.53    0.53</time>
   <time name="orth">    0.01    0.01</time>
   <time name="total">    0.71    0.73</time>
   <energy>
    <i name="e_fr_energy">   -363.10301648 </i>
    <i name="e_wo_entrp">   -363.11322872 </i>
    <i name="e_0_energy">   -363.10642056 </i>
   </energy>
  </scstep>
  <scstep>
   <time name="diag">    0.06    0.06</time>
   <time name="diis">    0.48    0.48</time>
   <time name="orth">    0.01    0.01</time>
   <time name="total">    0.61    0.65</time>
   <energy>
    <i name="e_fr_energy">   -363.10305337 </i>
    <i name="e_wo_entrp">   -363.11326311 </i>
    <i name="e_0_energy">   -363.10645662 </i>
   </energy>
  </scstep>
  <scstep>
   <time name="diag">    0.07    0.07</time>
   <time name="diis">    0.48    0.48</time>
   <time name="orth">    0.01    0.01</time>
   <time name="total">    0.59    0.62</time>
   <energy>
    <i name="alphaZ">   1227.93320541 </i>
    <i name="ewald"> -14095.54920442 </i>
    <i name="hartreedc">  -5596.31854768 </i>
    <i name="XCdc">   -777.96113835 </i>
    <i name="pawpsdc">  28541.52995559 </i>
    <i name="pawaedc"> -26747.45173672 </i>
    <i name="eentropy">      0.01020870 </i>
    <i name="bandstr">  -1778.08922744 </i>
    <i name="atom">  18862.79342304 </i>
    <i name="e_fr_energy">   -363.10306186 </i>
    <i name="e_wo_entrp">   -363.11327056 </i>
    <i name="e_0_energy">   -363.10646476 </i>
   </energy>
  </scstep>
  <structure>
   <crystal>
    <varray name="basis" >
     <v>       7.03856409       0.00308968       0.02991399 </v>
     <v>       0.00558394      10.31942606       0.01199573 </v>
     <v>       0.04441046       0.01189415      10.27821861 </v>
    </varray>
    <i name="volume">    746.53264483 </i>
    <varray name="rec_basis" >
     <v>       0.14207707      -0.00007617      -0.00061380 </v>
     <v>      -0.00004206       0.09690477      -0.00011196 </v>
     <v>      -0.00041346      -0.00011288       0.09729504 </v>
    </varray>
   </crystal>
   <varray name="positions" >
    <v>       0.50777126       0.00731275       0.00247367 </v>
    <v>       0.74913207       0.49599353       0.49661346 </v>
    <v>       0.99187335       0.99634195       0.99950173 </v>
    <v>       0.01598875       0.33047388       0.98866020 </v>
    <v>       0.48154067       0.00787247       0.32747077 </v>
    <v>       0.29260944       0.82511959       0.51232165 </v>
    <v>       0.77765897       0.17822238       0.18453853 </v>
    <v>       0.97965278       0.68007459       0.99895289 </v>
    <v>       0.73137980       0.82937491       0.18844842 </v>
    <v>       0.22447433       0.17844218       0.50721159 </v>
    <v>       0.03643709       0.33530620       0.34213451 </v>
    <v>       0.25422192       0.49456770       0.82480270 </v>
    <v>       0.26824266       0.82362298       0.15712000 </v>
    <v>       0.48405335       0.32958564       0.66485220 </v>
    <v>       0.25406364       0.49571275       0.50100137 </v>
    <v>       0.49145626       0.66307964       0.32000684 </v>
    <v>       0.47530195       0.63588892       0.66829227 </v>
    <v>       0.01530960       0.66961328       0.66333878 </v>
    <v>       0.01248541       0.33530249       0.66895094 </v>
    <v>       0.22354757       0.16383449       0.16475651 </v>
    <v>       0.75272588       0.18846316       0.81952208 </v>
    <v>       0.24417713       0.17160685       0.82810416 </v>
    <v>       0.49068386       0.32325316       0.99849927 </v>
    <v>       0.76791060       0.49478791       0.18147527 </v>
    <v>       0.27258890       0.82857941       0.83881912 </v>
    <v>       0.72590524       0.82974436       0.49914454 </v>
    <v>       0.74582590       0.49069590       0.82067433 </v>
    <v>       0.23506221       0.50882641       0.16729213 </v>
    <v>       0.01616197       0.68416828       0.33989407 </v>
    <v>       0.77025843       0.17899989       0.49991235 </v>
    <v>       0.47005185       0.32409214       0.32893916 </v>
    <v>       0.01641634       0.98820927       0.33626312 </v>
    <v>       0.52044975       0.66120102       0.01069036 </v>
    <v>       0.49246916       0.03073101       0.67018977 </v>
    <v>       0.99927003      -0.00000678       0.67274548 </v>
    <v>       0.71284188       0.82091868       0.80638578 </v>
   </varray>
  </structure>
  <varray name="forces" >
   <v>      -0.01845794       0.01488235      -0.01010060 </v>
   <v>       0.20623914       0.20379378       0.15991215 </v>
   <v>      -0.00983235       0.02763122       0.04179608 </v>
   <v>       0.00919064      -0.00451073       0.04133741 </v>
   <v>       0.01456368       0.00467124       0.00459403 </v>
   <v>      -0.35356441      -0.19165014       0.19035076 </v>
   <v>      -0.01354223      -0.02211105      -0.01551476 </v>
   <v>      -0.02155351       0.00808999      -0.13357960 </v>
   <v>       0.02654131       0.03470068       0.01444537 </v>
   <v>       0.00754268      -0.02187435       0.02263273 </v>
   <v>       0.01817441      -0.00149990      -0.03026306 </v>
   <v>      -0.33695568       0.33222112      -0.21075548 </v>
   <v>      -0.01936303       0.01091319      -0.01865376 </v>
   <v>       0.03531771       0.01933098       0.00116704 </v>
   <v>      -0.31609795       0.30958986       0.21910521 </v>
   <v>      -0.00367687      -0.01932078       0.05488539 </v>
   <v>      -0.06933147      -0.05237421      -0.01877359 </v>
   <v>       0.19535403      -0.22366923      -0.06366327 </v>
   <v>      -0.02496611       0.03663366       0.00929046 </v>
   <v>       0.00183647      -0.01914645       0.01546402 </v>
   <v>       0.03217518      -0.00460441       0.00528765 </v>
   <v>      -0.02837822      -0.00698006      -0.01421317 </v>
   <v>       0.01032474      -0.01276557      -0.02033130 </v>
   <v>       0.01085251      -0.00292782      -0.01162646 </v>
   <v>      -0.32056308      -0.18186682      -0.23975636 </v>
   <v>       0.28629861      -0.16446188       0.19161085 </v>
   <v>       0.27921070       0.29965661      -0.14220301 </v>
   <v>      -0.00939619       0.00870382      -0.02124834 </v>
   <v>       0.01960764      -0.01469084       0.18385251 </v>
   <v>      -0.00818978      -0.02994553       0.00988843 </v>
   <v>       0.01136032       0.00366058       0.00390314 </v>
   <v>       0.00216732       0.04327704      -0.05433999 </v>
   <v>      -0.02593903      -0.01609942      -0.00339484 </v>
   <v>       0.02478474       0.01247487      -0.00627577 </v>
   <v>       0.00258207      -0.15004006       0.01663393 </v>
   <v>       0.38568397      -0.22969176      -0.17146382 </v>
  </varray>
  <varray name="stress" >
   <v>      -3.45392951       0.13226375      -0.57081416 </v>
   <v>       0.13226384      -2.36737892       0.31376125 </v>
   <v>      -0.57081415       0.31376125      -1.59036906 </v>
  </varray>
  <energy>
   <i name="e_fr_energy">   -363.10306186 </i>
   <i name="e_wo_entrp">   -363.10646476 </i>
   <i name="e_0_energy">      0.01020870 </i>
  </energy>
  <time name="totalsc">   10.42   11.08</time>
 </calculation>
 <calculation>
  <scstep>
   <time name="dav">    0.80    0.81</time>
   <time name="total">    0.96    1.12</time>
   <energy>
    <i name="alphaZ">   1239.36386735 </i>
    <i name="ewald"> -14141.14387158 </i>
    <i name="hartreedc">  -5611.66090704 </i>
    <i name="XCdc">   -775.99749066 </i>
    <i name="pawpsdc">  28541.47219890 </i>
    <i name="pawaedc"> -26747.38399046 </i>
    <i name="eentropy">      0.01202439 </i>
    <i name="bandstr">  -1730.71278741 </i>
    <i name="atom">  18862.79342304 </i>
    <i name="e_fr_energy">   -363.25753348 </i>
    <i name="e_wo_entrp">   -363.26955787 </i>
    <i name="e_0_energy">   -363.26154161 </i>
   </energy>
  </scstep>
  <scstep>
   <time name="diag">    0.11    0.11</time>
   <time name="diis">    0.70    0.71</time>
   <time name="orth">    0.01    0.01</time>
   <time name="total">    0.89    0.92</time>
   <energy>
    <i name="e_fr_energy">   -363.20808566 </i>
    <i name="e_wo_entrp">   -363.21903751 </i>
    <i name="e_0_energy">   -363.21173627 </i>
   </energy>
  </scstep>
  <scstep>
   <time name="diag">    0.06    0.06</time>
   <time name="diis">    0.70    0.71</time>
   <time name="orth">    0.01    0.01</time>
   <time name="total">    0.84    0.88</time>
   <energy>
    <i name="e_fr_energy">   -363.15553523 </i>
    <i name="e_wo_entrp">   -363.16698116 </i>
    <i name="e_0_energy">   -363.15935054 </i>
   </energy>
  </scstep>
  <scstep>
   <time name="diag">    0.06    0.06</time>
   <time name="diis">    0.70    0.71</time>
   <time name="orth">    0.01    0.01</time>
   <time name="total">    0.84    0.86</time>
   <energy>
    <i name="e_fr_energy">   -363.13395466 </i>
    <i name="e_wo_entrp">   -363.14586588 </i>
    <i name="e_0_energy">   -363.13792507 </i>
   </energy>
  </scstep>
  <scstep>
   <time name="diag">    0.09    0.10</time>
   <time name="diis">    0.72    0.76</time>
   <time name="orth">    0.01    0.01</time>
   <time name="total">    0.89    0.97</time>
   <energy>
    <i name="e_fr_energy">   -363.13260568 </i>
    <i name="e_wo_entrp">   -363.14433636 </i>
    <i name="e_0_energy">   -363.13651591 </i>
   </energy>
  </scstep>
  <scstep>
   <time name="diag">    0.08    0.09</time>
   <time name="diis">    0.74    0.81</time>
   <time name="orth">    0.01    0.01</time>
   <time name="total">    0.91    1.02</time>
   <energy>
    <i name="e_fr_energy">   -363.13325627 </i>
    <i name="e_wo_entrp">   -363.14505894 </i>
    <i name="e_0_energy">   -363.13719049 </i>
   </energy>
  </scstep>
  <scstep>
   <time name="diag">    0.11    0.11</time>
   <time name="diis">    0.72    0.88</time>
   <time name="orth">    0.01    0.01</time>
   <time name="total">    0.92    1.11</time>
   <energy>
    <i name="e_fr_energy">   -363.13354463 </i>
    <i name="e_wo_entrp">   -363.14537504 </i>
    <i name="e_0_energy">   -363.13748810 </i>
   </energy>
  </scstep>
  <scstep>
   <time name="diag">    0.10    0.10</time>
   <time name="diis">    0.71    0.71</time>
   <time name="orth">    0.01    0.01</time>
   <time name="total">    0.90    0.96</time>
   <energy>
    <i name="e_fr_energy">   -363.13376652 </i>
    <i name="e_wo_entrp">   -363.14559364 </i>
    <i name="e_0_energy">   -363.13770889 </i>
   </energy>
  </scstep>
  <scstep>
   <time name="diag">    0.10    0.10</time>
   <time name="diis">    0.66    0.67</time>
   <time name="orth">    0.01    0.01</time>
   <time name="total">    0.84    0.87</time>
   <energy>
    <i name="e_fr_energy">   -363.13390729 </i>
    <i name="e_wo_entrp">   -363.14575143 </i>
    <i name="e_0_energy">   -363.13785533 </i>
   </energy>
  </scstep>
  <scstep>
   <time name="diag">    0.06    0.06</time>
   <time name="diis">    0.58    0.58</time>
   <time name="orth">    0.01    0.01</time>
   <time name="total">    0.72    0.76</time>
   <energy>
    <i name="e_fr_energy">   -363.13400763 </i>
    <i name="e_wo_entrp">   -363.14584273 </i>
    <i name="e_0_energy">   -363.13795266 </i>
   </energy>
  </scstep>
  <scstep>
   <time name="diag">    0.07    0.07</time>
   <time name="diis">    0.56    0.56</time>
   <time name="orth">    0.01    0.01</time>
   <time name="total">    0.71    0.74</time>
   <energy>
    <i name="e_fr_energy">   -363.13403073 </i>
    <i name="e_wo_entrp">   -363.14586569 </i>
    <i name="e_0_energy">   -363.13797572 </i>
   </energy>
  </scstep>
  <scstep>
   <time name="diag">    0.07    0.07</time>
   <time name="diis">    0.41    0.41</time>
   <time name="orth">    0.01    0.01</time>
   <time name="total">    0.56    0.59</time>
   <energy>
    <i name="alphaZ">   1239.36386735 </i>
    <i name="ewald"> -14141.14387158 </i>
    <i name="hartreedc">  -5584.97630344 </i>
    <i name="XCdc">   -777.05834692 </i>
    <i name="pawpsdc">  28933.91329559 </i>
    <i name="pawaedc"> -27139.33968725 </i>
    <i name="eentropy">      0.01184393 </i>
    <i name="bandstr">  -1756.69825472 </i>
    <i name="atom">  18862.79342304 </i>
    <i name="e_fr_energy">   -363.13403401 </i>
    <i name="e_wo_entrp">   -363.14587793 </i>
    <i name="e_0_energy">   -363.13798198 </i>
   </energy>
  </scstep>
  <structure>
   <crystal>
    <varray name="basis" >
     <v>       7.01450279       0.00342973       0.02847515 </v>
     <v>       0.00606971      10.28839823       0.01313973 </v>
     <v>       0.04228113       0.01303484      10.24915733 </v>
    </varray>
    <i name="volume">    739.64736883 </i>
    <varray name="rec_basis" >
     <v>       0.14256421      -0.00008336      -0.00058802 </v>
     <v>      -0.00004702       0.09719705      -0.00012342 </v>
     <v>      -0.00039602      -0.00012438       0.09757079 </v>
    </varray>
   </crystal>
   <varray name="positions" >
    <v>       0.50769501       0.00739448       0.00248948 </v>
    <v>       0.74997627       0.49657345       0.49707819 </v>
    <v>       0.99187034       0.99644597       0.99964369 </v>
    <v>       0.01607053       0.33041887       0.98875736 </v>
    <v>       0.48157293       0.00793178       0.32741372 </v>
    <v>       0.29110863       0.82449784       0.51287796 </v>
    <v>       0.77767902       0.17816828       0.18452124 </v>
    <v>       0.97956280       0.68010493       0.99858194 </v>
    <v>       0.73145982       0.82943500       0.18852589 </v>
    <v>       0.22443657       0.17844798       0.50729119 </v>
    <v>       0.03659802       0.33526455       0.34206604 </v>
    <v>       0.25295559       0.49552431       0.82410254 </v>
    <v>       0.26820002       0.82361929       0.15706704 </v>
    <v>       0.48413621       0.32959960       0.66485621 </v>
    <v>       0.25274769       0.49663284       0.50168311 </v>
    <v>       0.49142936       0.66303331       0.32010334 </v>
    <v>       0.47485244       0.63568970       0.66825986 </v>
    <v>       0.01619492       0.66901652       0.66317046 </v>
    <v>       0.01245327       0.33536915       0.66898188 </v>
    <v>       0.22346642       0.16379338       0.16483048 </v>
    <v>       0.75287179       0.18849450       0.81949120 </v>
    <v>       0.24405861       0.17161936       0.82803687 </v>
    <v>       0.49068359       0.32317126       0.99845412 </v>
    <v>       0.76797747       0.49480053       0.18146299 </v>
    <v>       0.27125500       0.82805420       0.83814537 </v>
    <v>       0.72713163       0.82925181       0.49968258 </v>
    <v>       0.74690897       0.49151216       0.82021838 </v>
    <v>       0.23502788       0.50885638       0.16725217 </v>
    <v>       0.01623507       0.68414135       0.34042930 </v>
    <v>       0.77029028       0.17894672       0.49996048 </v>
    <v>       0.47003332       0.32404309       0.32891388 </v>
    <v>       0.01644432       0.98833945       0.33608619 </v>
    <v>       0.52036160       0.66113531       0.01072755 </v>
    <v>       0.49253155       0.03085523       0.67018569 </v>
    <v>       0.99928837      -0.00044293       0.67279203 </v>
    <v>       0.71443467       0.82027336       0.80585955 </v>
   </varray>
  </structure>
  <varray name="forces" >
   <v>      -0.01525950      -0.01816513      -0.04139571 </v>
   <v>       0.16578341       0.16057473       0.11807652 </v>
   <v>      -0.02691332       0.00329768       0.01569765 </v>
   <v>      -0.01362993       0.02634073       0.04659753 </v>
   <v>       0.02536594      -0.02972552       0.05379070 </v>
   <v>      -0.27029796      -0.09197656       0.14426242 </v>
   <v>      -0.04978581      -0.02312344      -0.03120247 </v>
   <v>      -0.01555730       0.00273260      -0.11100078 </v>
   <v>       0.03643872       0.05445779      -0.01464667 </v>
   <v>       0.04028313      -0.06664047       0.00725666 </v>
   <v>      -0.02831363       0.02582244      -0.03645700 </v>
   <v>      -0.32949792       0.25135825      -0.08779408 </v>
   <v>      -0.03449668       0.03391267      -0.01374009 </v>
   <v>       0.06012313       0.04566168      -0.00000513 </v>
   <v>      -0.25169748       0.21044816       0.13067786 </v>
   <v>       0.00253582      -0.02083816       0.08709522 </v>
   <v>       0.03085047      -0.00325230      -0.02884244 </v>
   <v>       0.11354331      -0.20317953      -0.06001411 </v>
   <v>      -0.05507512       0.05347080       0.00317704 </v>
   <v>       0.04726035      -0.02432075      -0.00765317 </v>
   <v>       0.01801175      -0.03566991       0.03528099 </v>
   <v>      -0.02119201      -0.02886318       0.00521118 </v>
   <v>       0.02928104       0.02234931      -0.02491326 </v>
   <v>      -0.00239363      -0.01828380      -0.02388893 </v>
   <v>      -0.25251728      -0.13746093      -0.19306728 </v>
   <v>       0.21007768      -0.11360565       0.15473449 </v>
   <v>       0.26070391       0.26038986      -0.07926562 </v>
   <v>      -0.00968098       0.00505041      -0.03198722 </v>
   <v>       0.01856870      -0.02117179       0.13385908 </v>
   <v>      -0.03852615      -0.04631568      -0.00527120 </v>
   <v>       0.04161226       0.04599915       0.02910507 </v>
   <v>      -0.00600693       0.02847204      -0.02688900 </v>
   <v>      -0.03055168       0.00165016      -0.03492168 </v>
   <v>       0.03957505      -0.05299594      -0.01364239 </v>
   <v>      -0.00307530      -0.10960473       0.01474023 </v>
   <v>       0.31445394      -0.18679499      -0.11296444 </v>
  </varray>
  <varray name="stress" >
   <v>       8.85274134       0.12189136      -0.59465607 </v>
   <v>       0.12189133       9.72810185       0.27605400 </v>
   <v>      -0.59465609       0.27605400      10.97768566 </v>
  </varray>
  <energy>
   <i name="e_fr_energy">   -363.13403401 </i>
   <i name="e_wo_entrp">   -363.13798198 </i>
   <i name="e_0_energy">      0.01184393 </i>
  </energy>
  <time name="totalsc">   11.44   12.40</time>
 </calculation>
 <calculation>
  <scstep>
   <time name="dav">    0.79    0.80</time>
   <time name="total">    0.93    1.07</time>
   <energy>
    <i name="alphaZ">   1237.55324677 </i>
    <i name="ewald"> -14136.84453405 </i>
    <i name="hartreedc">  -5579.77180836 </i>
    <i name="XCdc">   -777.36573801 </i>
    <i name="pawpsdc">  28934.09615816 </i>
    <i name="pawaedc"> -27139.50458819 </i>
    <i name="eentropy">      0.01219922 </i>
    <i name="bandstr">  -1764.14058353 </i>
    <i name="atom">  18862.79342304 </i>
    <i name="e_fr_energy">   -363.17222496 </i>
    <i name="e_wo_entrp">   -363.18442418 </i>
    <i name="e_0_energy">   -363.17629137 </i>
   </energy>
  </scstep>
  <scstep>
   <time name="diag">    0.07    0.07</time>
   <time name="diis">    0.71    0.72</time>
   <time name="orth">    0.01    0.01</time>
   <time name="total">    0.85    0.89</time>
   <energy>
    <i name="e_fr_energy">   -363.17356122 </i>
    <i name="e_wo_entrp">   -363.18645194 </i>
    <i name="e_0_energy">   -363.17785813 </i>
   </energy>
  </scstep>
  <scstep>
   <time name="diag">    0.07    0.07</time>
   <time name="diis">    0.76    0.79</time>
   <time name="orth">    0.01    0.01</time>
   <time name="total">    0.91    1.01</time>
   <energy>
    <i name="e_fr_energy">   -363.17079429 </i>
    <i name="e_wo_entrp">   -363.18337081 </i>
    <i name="e_0_energy">   -363.17498647 </i>
   </energy>
  </scstep>
  <scstep>
   <time name="diag">    0.11    0.11</time>
   <time name="diis">    0.75    0.75</time>
   <time name="orth">    0.01    0.01</time>
   <time name="total">    0.97    1.02</time>
   <energy>
    <i name="e_fr_energy">   -363.17035163 </i>
    <i name="e_wo_entrp">   -363.18286498 </i>
    <i name="e_0_energy">   -363.17452275 </i>
   </energy>
  </scstep>
  <scstep>
   <time name="diag">    0.09    0.09</time>
   <time name="diis">    0.73    0.74</time>
   <time name="orth">    0.01    0.01</time>
   <time name="total">    0.89    0.94</time>
   <energy>
    <i name="e_fr_energy">   -363.17016925 </i>
    <i name="e_wo_entrp">   -363.18273333 </i>
    <i name="e_0_energy">   -363.17435727 </i>
   </energy>
  </scstep>
  <scstep>
   <time name="diag">    0.08    0.09</time>
   <time name="diis">    0.73    0.79</time>
   <time name="orth">    0.01    0.01</time>
   <time name="total">    0.91    1.04</time>
   <energy>
    <i name="e_fr_energy">   -363.17016708 </i>
    <i name="e_wo_entrp">   -363.18274062 </i>
    <i name="e_0_energy">   -363.17435826 </i>
   </energy>
  </scstep>
  <scstep>
   <time name="diag">    0.09    0.11</time>
   <time name="diis">    0.57    0.63</time>
   <time name="orth">    0.01    0.01</time>
   <time name="total">    0.74    0.85</time>
   <energy>
    <i name="e_fr_energy">   -363.17016396 </i>
    <i name="e_wo_entrp">   -363.18271186 </i>
    <i name="e_0_energy">   -363.17434660 </i>
   </energy>
  </scstep>
  <scstep>
   <time name="diag">    0.06    0.06</time>
   <time name="diis">    0.48    0.49</time>
   <time name="orth">    0.01    0.01</time>
   <time name="total">    0.59    0.62</time>
   <energy>
    <i name="alphaZ">   1237.55324677 </i>
    <i name="ewald"> -14136.84453405 </i>
    <i name="hartreedc">  -5584.21376452 </i>
    <i name="XCdc">   -777.18926212 </i>
    <i name="pawpsdc">  28870.92654775 </i>
    <i name="pawaedc"> -27076.24824286 </i>
    <i name="eentropy">      0.01255152 </i>
    <i name="bandstr">  -1759.96012857 </i>
    <i name="atom">  18862.79342304 </i>
    <i name="e_fr_energy">   -363.17016304 </i>
    <i name="e_wo_entrp">   -363.18271456 </i>
    <i name="e_0_energy">   -363.17434688 </i>
   </energy>
  </scstep>
  <structure>
   <crystal>
    <varray name="basis" >
     <v>       7.01560933       0.00374109       0.02714472 </v>
     <v>       0.00651813      10.29351956       0.01418161 </v>
     <v>       0.04031041       0.01407170      10.25741509 </v>
    </varray>
    <i name="volume">    740.72952085 </i>
    <varray name="rec_basis" >
     <v>       0.14254151      -0.00008949      -0.00056005 </v>
     <v>      -0.00005129       0.09714872      -0.00013307 </v>
     <v>      -0.00037714      -0.00013408       0.09749211 </v>
    </varray>
   </crystal>
   <varray name="positions" >
    <v>       0.50763089       0.00740462       0.00243825 </v>
    <v>       0.75068271       0.49705000       0.49744491 </v>
    <v>       0.99181361       0.99649577       0.99972757 </v>
    <v>       0.01607765       0.33043179       0.98886514 </v>
    <v>       0.48163864       0.00791580       0.32746449 </v>
    <v>       0.28989986       0.82409877       0.51332416 </v>
    <v>       0.77758573       0.17811247       0.18447018 </v>
    <v>       0.97949261       0.68012216       0.99826478 </v>
    <v>       0.73156954       0.82953740       0.18853864 </v>
    <v>       0.22450296       0.17835710       0.50733586 </v>
    <v>       0.03661006       0.33528271       0.34198516 </v>
    <v>       0.25172844       0.49629250       0.82367623 </v>
    <v>       0.26811067       0.82366524       0.15702485 </v>
    <v>       0.48429571       0.32966960       0.66485753 </v>
    <v>       0.25165721       0.49732734       0.50216398 </v>
    <v>       0.49142218       0.66298383       0.32026777 </v>
    <v>       0.47472070       0.63559863       0.66820503 </v>
    <v>       0.01681380       0.66847262       0.66301274 </v>
    <v>       0.01232605       0.33547305       0.66900000 </v>
    <v>       0.22352836       0.16374143       0.16485162 </v>
    <v>       0.75297197       0.18845807       0.81952736 </v>
    <v>       0.24396353       0.17158437       0.82801513 </v>
    <v>       0.49074382       0.32316701       0.99839927 </v>
    <v>       0.76800185       0.49478044       0.18142411 </v>
    <v>       0.27015807       0.82763400       0.83758282 </v>
    <v>       0.72809527       0.82887819       0.50013301 </v>
    <v>       0.74791570       0.49223156       0.81990691 </v>
    <v>       0.23499332       0.50887654       0.16718987 </v>
    <v>       0.01630395       0.68409971       0.34084999 </v>
    <v>       0.77022508       0.17885877       0.49997428 </v>
    <v>       0.47011046       0.32408613       0.32894351 </v>
    <v>       0.01644431       0.98843596       0.33597149 </v>
    <v>       0.52026081       0.66110916       0.01069476 </v>
    <v>       0.49264016       0.03083495       0.67016459 </v>
    <v>       0.99929006      -0.00078599       0.67283322 </v>
    <v>       0.71577426       0.81973129       0.80547076 </v>
   </varray>
  </structure>
  <varray name="forces" >
   <v>      -0.02365625      -0.04248096      -0.05715080 </v>
   <v>       0.12748600       0.11942135       0.09497295 </v>
   <v>      -0.02503232      -0.00581838       0.00588877 </v>
   <v>      -0.01191751       0.02821607       0.03022133 </v>
   <v>       0.02486564      -0.05283296       0.06557233 </v>
   <v>      -0.19316945      -0.04849498       0.11175910 </v>
   <v>      -0.05038071      -0.01413210      -0.02996505 </v>
   <v>      -0.01588735       0.00891724      -0.07430440 </v>
   <v>       0.01237088       0.03802674      -0.00599606 </v>
   <v>       0.03412433      -0.04622583       0.00293941 </v>
   <v>      -0.01483621       0.01627082      -0.02288745 </v>
   <v>      -0.29456761       0.17874313      -0.05214535 </v>
   <v>      -0.02397093       0.02504604      -0.00279500 </v>
   <v>       0.05038420       0.05914905       0.01537076 </v>
   <v>      -0.18641295       0.12290241       0.08181452 </v>
   <v>       0.00503993       0.00471413       0.07141236 </v>
   <v>       0.05708649      -0.00334177      -0.02188825 </v>
   <v>       0.07260945      -0.18300555      -0.05809002 </v>
   <v>      -0.04724258       0.03875327       0.00464762 </v>
   <v>       0.05639567      -0.01064853      -0.00755556 </v>
   <v>       0.00580792      -0.02241982       0.02573321 </v>
   <v>      -0.01362365      -0.01976875      -0.00277740 </v>
   <v>       0.02540574       0.03298576      -0.04173550 </v>
   <v>      -0.00900741      -0.02161026      -0.01604504 </v>
   <v>      -0.18341550      -0.11183388      -0.16006628 </v>
   <v>       0.14207935      -0.09106118       0.11456670 </v>
   <v>       0.23346159       0.20945616      -0.05905804 </v>
   <v>      -0.01006922       0.01267796      -0.01832625 </v>
   <v>       0.02310077      -0.00892741       0.08066376 </v>
   <v>      -0.03507355      -0.03565318      -0.00512883 </v>
   <v>       0.01950929       0.06401885       0.05361378 </v>
   <v>      -0.00155768       0.01722250      -0.02134935 </v>
   <v>      -0.03153120       0.03281117      -0.03391259 </v>
   <v>       0.04059123      -0.06860357      -0.00168867 </v>
   <v>      -0.00243825      -0.05468949       0.01800359 </v>
   <v>       0.24347185      -0.16778405      -0.08431431 </v>
  </varray>
  <varray name="stress" >
   <v>       7.11125810       0.08124010      -0.53639012 </v>
   <v>       0.08124008       7.54856018       0.24375103 </v>
   <v>      -0.53639014       0.24375101       9.04769747 </v>
  </varray>
  <energy>
   <i name="e_fr_energy">   -363.17016304 </i>
   <i name="e_wo_entrp">   -363.17434688 </i>
   <i name="e_0_energy">      0.01255152 </i>
  </energy>
  <time name="totalsc">    8.25    9.00</time>
 </calculation>
 <calculation>
  <scstep>
   <time name="dav">    0.74    0.75</time>
   <time name="total">    0.87    1.00</time>
   <energy>
    <i name="alphaZ">   1232.14477249 </i>
    <i name="ewald"> -14122.68448764 </i>
    <i name="hartreedc">  -5569.58903559 </i>
    <i name="XCdc">   -778.11329910 </i>
    <i name="pawpsdc">  28870.94695830 </i>
    <i name="pawaedc"> -27076.29770592 </i>
    <i name="eentropy">      0.01425124 </i>
    <i name="bandstr">  -1782.45138379 </i>
    <i name="atom">  18862.79342304 </i>
    <i name="e_fr_energy">   -363.23650697 </i>
    <i name="e_wo_entrp">   -363.25075821 </i>
    <i name="e_0_energy">   -363.24125738 </i>
   </energy>
  </scstep>
  <scstep>
   <time name="diag">    0.06    0.06</time>
   <time name="diis">    0.69    0.69</time>
   <time name="orth">    0.01    0.01</time>
   <time name="total">    0.82    0.85</time>
   <energy>
    <i name="e_fr_energy">   -363.24976361 </i>
    <i name="e_wo_entrp">   -363.26503411 </i>
    <i name="e_0_energy">   -363.25485378 </i>
   </energy>
  </scstep>
  <scstep>
   <time name="diag">    0.06    0.06</time>
   <time name="diis">    0.69    0.69</time>
   <time name="orth">    0.01    0.01</time>
   <time name="total">    0.82    0.87</time>
   <energy>
    <i name="e_fr_energy">   -363.22760298 </i>
    <i name="e_wo_entrp">   -363.24257184 </i>
    <i name="e_0_energy">   -363.23259260 </i>
   </energy>
  </scstep>
  <scstep>
   <time name="diag">    0.13    0.14</time>
   <time name="diis">    0.76    0.77</time>
   <time name="orth">    0.01    0.01</time>
   <time name="total">    0.97    1.01</time>
   <energy>
    <i name="e_fr_energy">   -363.22357325 </i>
    <i name="e_wo_entrp">   -363.23823164 </i>
    <i name="e_0_energy">   -363.22845938 </i>
   </energy>
  </scstep>
  <scstep>
   <time name="diag">    0.08    0.08</time>
   <time name="diis">    0.69    0.69</time>
   <time name="orth">    0.01    0.01</time>
   <time name="total">    0.84    0.88</time>
   <energy>
    <i name="e_fr_energy">   -363.22199597 </i>
    <i name="e_wo_entrp">   -363.23674813 </i>
    <i name="e_0_energy">   -363.22691336 </i>
   </energy>
  </scstep>
  <scstep>
   <time name="diag">    0.06    0.06</time>
   <time name="diis">    0.78    0.80</time>
   <time name="orth">    0.01    0.01</time>
   <time name="total">    0.92    0.97</time>
   <energy>
    <i name="e_fr_energy">   -363.22195075 </i>
    <i name="e_wo_entrp">   -363.23676158 </i>
    <i name="e_0_energy">   -363.22688769 </i>
   </energy>
  </scstep>
  <scstep>
   <time name="diag">    0.06    0.06</time>
   <time name="diis">    0.72    0.73</time>
   <time name="orth">    0.01    0.01</time>
   <time name="total">    0.85    0.89</time>
   <energy>
    <i name="e_fr_energy">   -363.22197043 </i>
    <i name="e_wo_entrp">   -363.23669852 </i>
    <i name="e_0_energy">   -363.22687979 </i>
   </energy>
  </scstep>
  <scstep>
   <time name="diag">    0.11    0.11</time>
   <time name="diis">    0.65    0.66</time>
   <time name="orth">    0.01    0.01</time>
   <time name="total">    0.85    0.88</time>
   <energy>
    <i name="e_fr_energy">   -363.22202240 </i>
    <i name="e_wo_entrp">   -363.23676523 </i>
    <i name="e_0_energy">   -363.22693668 </i>
   </energy>
  </scstep>
  <scstep>
   <time name="diag">    0.08    0.09</time>
   <time name="diis">    0.60    0.63</time>
   <time name="orth">    0.01    0.01</time>
   <time name="total">    0.75    0.82</time>
   <energy>
    <i name="e_fr_energy">   -363.22203855 </i>
    <i name="e_wo_entrp">   -363.23677460 </i>
    <i name="e_0_energy">   -363.22695056 </i>
   </energy>
  </scstep>
  <scstep>
   <time name="diag">    0.06    0.07</time>
   <time name="diis">    0.55    0.56</time>
   <time name="orth">    0.01    0.01</time>
   <time name="total">    0.69    0.74</time>
   <energy>
    <i name="e_fr_energy">   -363.22205096 </i>
    <i name="e_wo_entrp">   -363.23679871 </i>
    <i name="e_0_energy">   -363.22696688 </i>
   </energy>
  </scstep>
  <scstep>
   <time name="diag">    0.07    0.07</time>
   <time name="diis">    0.49    0.49</time>
   <time name="orth">    0.01    0.01</time>
   <time name="total">    0.63    0.66</time>
   <energy>
    <i name="e_fr_energy">   -363.22205356 </i>
    <i name="e_wo_entrp">   -363.23680453 </i>
    <i name="e_0_energy">   -363.22697055 </i>
   </energy>
  </scstep>
  <scstep>
   <time name="diag">    0.06    0.06</time>
   <time name="diis">    0.47    0.47</time>
   <time name="orth">    0.01    0.01</time>
   <time name="total">    0.57    0.62</time>
   <energy>
    <i name="alphaZ">   1232.14477249 </i>
    <i name="ewald"> -14122.68448764 </i>
    <i name="hartreedc">  -5582.55421180 </i>
    <i name="XCdc">   -777.60032601 </i>
    <i name="pawpsdc">  28685.21231508 </i>
    <i name="pawaedc"> -26890.87522124 </i>
    <i name="eentropy">      0.01474171 </i>
    <i name="bandstr">  -1769.67306084 </i>
    <i name="atom">  18862.79342304 </i>
    <i name="e_fr_energy">   -363.22205522 </i>
    <i name="e_wo_entrp">   -363.23679693 </i>
    <i name="e_0_energy">   -363.22696912 </i>
   </energy>
  </scstep>
  <structure>
   <crystal>
    <varray name="basis" >
     <v>       7.01892898       0.00467519       0.02315342 </v>
     <v>       0.00786339      10.30888355       0.01730728 </v>
     <v>       0.03439823       0.01718229      10.28218835 </v>
    </varray>
    <i name="volume">    743.98093794 </i>
    <varray name="rec_basis" >
     <v>       0.14247352      -0.00010788      -0.00047645 </v>
     <v>      -0.00006408       0.09700404      -0.00016189 </v>
     <v>      -0.00032071      -0.00016304       0.09725691 </v>
    </varray>
   </crystal>
   <varray name="positions" >
    <v>       0.50743850       0.00743507       0.00228466 </v>
    <v>       0.75280191       0.49847879       0.49854432 </v>
    <v>       0.99164351       0.99664507       0.99997899 </v>
    <v>       0.01609911       0.33047049       0.98918820 </v>
    <v>       0.48183580       0.00786785       0.32761671 </v>
    <v>       0.28627457       0.82290213       0.51466131 </v>
    <v>       0.77730587       0.17794514       0.18431710 </v>
    <v>       0.97928181       0.68017394       0.99731402 </v>
    <v>       0.73189865       0.82984443       0.18857689 </v>
    <v>       0.22470216       0.17808457       0.50746981 </v>
    <v>       0.03664610       0.33533720       0.34174271 </v>
    <v>       0.24804707       0.49859617       0.82239762 </v>
    <v>       0.26784263       0.82380306       0.15689832 </v>
    <v>       0.48477412       0.32987945       0.66486151 </v>
    <v>       0.24838656       0.49940977       0.50360477 </v>
    <v>       0.49140078       0.66283541       0.32076066 </v>
    <v>       0.47432550       0.63532557       0.66804067 </v>
    <v>       0.01867009       0.66684175       0.66254037 </v>
    <v>       0.01194443       0.33578459       0.66905424 </v>
    <v>       0.22371418       0.16358563       0.16491504 </v>
    <v>       0.75327248       0.18834883       0.81963582 </v>
    <v>       0.24367832       0.17147948       0.82794994 </v>
    <v>       0.49092444       0.32315428       0.99823487 </v>
    <v>       0.76807492       0.49472022       0.18130757 </v>
    <v>       0.26686740       0.82637431       0.83589623 </v>
    <v>       0.73098619       0.82775767       0.50148370 </v>
    <v>       0.75093503       0.49438870       0.81897342 </v>
    <v>       0.23488961       0.50893702       0.16700312 </v>
    <v>       0.01651095       0.68397473       0.34211109 </v>
    <v>       0.77002951       0.17859505       0.50001566 </v>
    <v>       0.47034187       0.32421520       0.32903235 </v>
    <v>       0.01644416       0.98872538       0.33562765 </v>
    <v>       0.51995846       0.66103075       0.01059646 </v>
    <v>       0.49296593       0.03077416       0.67010142 </v>
    <v>       0.99929520      -0.00181470       0.67295680 </v>
    <v>       0.71979218       0.81810586       0.80430600 </v>
   </varray>
  </structure>
  <varray name="forces" >
   <v>      -0.04787969      -0.11306665      -0.10048691 </v>
   <v>       0.00913698      -0.00507274       0.02152086 </v>
   <v>      -0.01970068      -0.03595567      -0.02465321 </v>
   <v>      -0.00751147       0.03401420      -0.01321283 </v>
   <v>       0.02260666      -0.11383117       0.09820124 </v>
   <v>       0.02578950       0.09445413       0.01408425 </v>
   <v>      -0.05693230       0.01487421      -0.02376148 </v>
   <v>      -0.01542662       0.02762532       0.04198379 </v>
   <v>      -0.06226056      -0.00974348       0.01886297 </v>
   <v>       0.01977239       0.01251094      -0.01083016 </v>
   <v>       0.02294732      -0.01166552       0.01412084 </v>
   <v>      -0.18562068      -0.03901600       0.06721341 </v>
   <v>       0.00999779      -0.00219703       0.03193266 </v>
   <v>       0.02637316       0.09668647       0.05696974 </v>
   <v>       0.00931088      -0.14386488      -0.07110864 </v>
   <v>       0.01404972       0.07713332       0.02486172 </v>
   <v>       0.14260484       0.00042786      -0.00032328 </v>
   <v>      -0.06636451      -0.11621331      -0.05053336 </v>
   <v>      -0.02248293      -0.01063217       0.00668778 </v>
   <v>       0.09128888       0.03274389      -0.00593246 </v>
   <v>      -0.03573312       0.01422151      -0.00507519 </v>
   <v>       0.01128880       0.00521865      -0.02848031 </v>
   <v>       0.01523236       0.06361278      -0.08260849 </v>
   <v>      -0.03151815      -0.03241412       0.00754081 </v>
   <v>       0.01146461      -0.03954251      -0.06252173 </v>
   <v>      -0.04551480      -0.02380631      -0.00628577 </v>
   <v>       0.14959180       0.05672182       0.00539580 </v>
   <v>      -0.00816101       0.03510137       0.02146533 </v>
   <v>       0.03259029       0.02463544      -0.08460684 </v>
   <v>      -0.02750663      -0.00246000      -0.00572584 </v>
   <v>      -0.04328004       0.11505168       0.12068765 </v>
   <v>       0.01152060      -0.01501585      -0.00305956 </v>
   <v>      -0.03555555       0.12103587      -0.03056709 </v>
   <v>       0.04395717      -0.11372962       0.03266447 </v>
   <v>      -0.00337281       0.11207676       0.02558459 </v>
   <v>       0.04529776      -0.10991919      -0.00000479 </v>
  </varray>
  <varray name="stress" >
   <v>       1.64853783      -0.05334726      -0.41755094 </v>
   <v>      -0.05334727       1.01861106       0.13662016 </v>
   <v>      -0.41755091       0.13662019       3.11168205 </v>
  </varray>
  <energy>
   <i name="e_fr_energy">   -363.22205522 </i>
   <i name="e_wo_entrp">   -363.22696912 </i>
   <i name="e_0_energy">      0.01474171 </i>
  </energy>
  <time name="totalsc">   10.99   11.71</time>
 </calculation>
 <calculation>
  <scstep>
   <time name="dav">    0.81    0.81</time>
   <time name="total">    0.93    1.09</time>
   <energy>
    <i name="alphaZ">   1231.54051766 </i>
    <i name="ewald"> -14120.97732678 </i>
    <i name="hartreedc">  -5581.00431497 </i>
    <i name="XCdc">   -777.70391752 </i>
    <i name="pawpsdc">  28684.88294292 </i>
    <i name="pawaedc"> -26890.56007573 </i>
    <i name="eentropy">      0.01494678 </i>
    <i name="bandstr">  -1772.20906089 </i>
    <i name="atom">  18862.79342304 </i>
    <i name="e_fr_energy">   -363.22286550 </i>
    <i name="e_wo_entrp">   -363.23781228 </i>
    <i name="e_0_energy">   -363.22784776 </i>
   </energy>
  </scstep>
  <scstep>
   <time name="diag">    0.06    0.06</time>
   <time name="diis">    0.68    0.68</time>
   <time name="orth">    0.01    0.01</time>
   <time name="total">    0.82    0.85</time>
   <energy>
    <i name="e_fr_energy">   -363.22300162 </i>
    <i name="e_wo_entrp">   -363.23802652 </i>
    <i name="e_0_energy">   -363.22800992 </i>
   </energy>
  </scstep>
  <scstep>
   <time name="diag">    0.08    0.08</time>
   <time name="diis">    0.68    0.69</time>
   <time name="orth">    0.02    0.02</time>
   <time name="total">    0.84    0.89</time>
   <energy>
    <i name="e_fr_energy">   -363.22268838 </i>
    <i name="e_wo_entrp">   -363.23770502 </i>
    <i name="e_0_energy">   -363.22769393 </i>
   </energy>
  </scstep>
  <scstep>
[...]
       <r>    5.8271    1.0000 </r>
       <r>    5.8462    1.0000 </r>
       <r>    5.8942    1.0000 </r>
       <r>    5.9465    1.0000 </r>
       <r>    6.0104    1.0000 </r>
       <r>    6.0390    1.0000 </r>
       <r>    6.0760    1.0000 </r>
       <r>    6.0978    1.0000 </r>
       <r>    6.1425    1.0000 </r>
       <r>    6.1841    1.0000 </r>
       <r>    6.2009    1.0000 </r>
       <r>    6.2683    1.0000 </r>
       <r>    6.3327    1.0002 </r>
       <r>    6.3536    1.0003 </r>
       <r>    6.4045    1.0016 </r>
       <r>    6.4209    1.0026 </r>
       <r>    6.4547    1.0060 </r>
       <r>    6.4943    1.0136 </r>
       <r>    6.5341    1.0250 </r>
       <r>    6.5547    1.0310 </r>
       <r>    6.6016    1.0330 </r>
       <r>    6.6427    0.9980 </r>
       <r>    6.6752    0.9272 </r>
       <r>    6.7157    0.7744 </r>
       <r>    6.7535    0.5793 </r>
       <r>    6.7866    0.3942 </r>
       <r>    6.8242    0.2049 </r>
       <r>    6.8745    0.0360 </r>
       <r>    6.9066   -0.0157 </r>
       <r>    6.9582   -0.0352 </r>
       <r>    6.9994   -0.0256 </r>
       <r>    7.0103   -0.0223 </r>
       <r>    7.0722   -0.0072 </r>
       <r>    7.1086   -0.0030 </r>
       <r>    7.1489   -0.0010 </r>
       <r>    7.1781   -0.0004 </r>
       <r>    7.1949   -0.0002 </r>
       <r>    7.2381   -0.0000 </r>
       <r>    7.2820   -0.0000 </r>
       <r>    7.3160   -0.0000 </r>
       <r>    7.3625   -0.0000 </r>
       <r>    7.4161   -0.0000 </r>
       <r>    7.4791   -0.0000 </r>
       <r>    7.4963   -0.0000 </r>
       <r>    7.5275   -0.0000 </r>
       <r>    7.5834   -0.0000 </r>
       <r>    7.6352   -0.0000 </r>
       <r>    7.6761   -0.0000 </r>
       <r>    7.7548   -0.0000 </r>
      </set>
     </set>
    </set>
   </array>
  </eigenvalues>
  <separator name="orbital magnetization" >
   <v name="MAGDIPOLOUT">      0.00000000      0.00000000      0.00000000</v>
  </separator>
  <dos>
   <i name="efermi">      6.76766493 </i>
   <total>
    <array>
     <dimension dim="1">gridpoints</dimension>
     <dimension dim="2">spin</dimension>
     <field>energy</field>
     <field>total</field>
     <field>integrated</field>
     <set>
      <set comment="spin 1">
       <r>   -50.1863     0.0000     0.0000 </r>
       <r>   -49.9826     0.0000     0.0000 </r>
       <r>   -49.7789     0.0000     0.0000 </r>
       <r>   -49.5752     0.0000     0.0000 </r>
       <r>   -49.3715     0.0000     0.0000 </r>
       <r>   -49.1677     0.0000     0.0000 </r>
       <r>   -48.9640     0.0000     0.0000 </r>
       <r>   -48.7603    -0.0000    -0.0000 </r>
       <r>   -48.5566    -0.0000    -0.0000 </r>
       <r>   -48.3529    -0.0000    -0.0000 </r>
       <r>   -48.1491    -0.0000    -0.0000 </r>
       <r>   -47.9454    -0.0000    -0.0000 </r>
       <r>   -47.7417    -0.0429    -0.0087 </r>
       <r>   -47.5380    -0.7471    -0.1609 </r>
       <r>   -47.3343    19.7035     3.8531 </r>
       <r>   -47.1305    21.1432     8.1604 </r>
       <r>   -46.9268    -0.7376     8.0101 </r>
       <r>   -46.7231    -0.0495     8.0000 </r>
       <r>   -46.5194    -0.0000     8.0000 </r>
       <r>   -46.3157    -0.0000     8.0000 </r>
       <r>   -46.1119     0.0000     8.0000 </r>
       <r>   -45.9082     0.0000     8.0000 </r>
       <r>   -45.7045     0.0000     8.0000 </r>
       <r>   -45.5008     0.0000     8.0000 </r>
       <r>   -45.2971     0.0000     8.0000 </r>
       <r>   -45.0934     0.0000     8.0000 </r>
       <r>   -44.8896     0.0000     8.0000 </r>
       <r>   -44.6859     0.0000     8.0000 </r>
       <r>   -44.4822     0.0000     8.0000 </r>
       <r>   -44.2785     0.0000     8.0000 </r>
       <r>   -44.0748     0.0000     8.0000 </r>
       <r>   -43.8710     0.0000     8.0000 </r>
       <r>   -43.6673     0.0000     8.0000 </r>
       <r>   -43.4636     0.0000     8.0000 </r>
       <r>   -43.2599     0.0000     8.0000 </r>
       <r>   -43.0562     0.0000     8.0000 </r>
       <r>   -42.8524    -0.0000     8.0000 </r>
       <r>   -42.6487    -0.0000     8.0000 </r>
       <r>   -42.4450    -0.0000     8.0000 </r>
       <r>   -42.2413    -0.0000     8.0000 </r>
       <r>   -42.0376    -0.0080     7.9984 </r>
       <r>   -41.8338    -0.6366     7.8687 </r>
       <r>   -41.6301     8.6680     9.6345 </r>
       <r>   -41.4264    37.3656    17.2466 </r>
       <r>   -41.2227    25.8484    22.5125 </r>
       <r>   -41.0190     7.8053    24.1026 </r>
       <r>   -40.8152    -0.4929    24.0022 </r>
       <r>   -40.6115    -0.0106    24.0000 </r>
       <r>   -40.4078    -0.0000    24.0000 </r>
       <r>   -40.2041    -0.0000    24.0000 </r>
       <r>   -40.0004     0.0000    24.0000 </r>
       <r>   -39.7966     0.0000    24.0000 </r>
       <r>   -39.5929     0.0000    24.0000 </r>
       <r>   -39.3892     0.0000    24.0000 </r>
       <r>   -39.1855     0.0000    24.0000 </r>
       <r>   -38.9818     0.0000    24.0000 </r>
       <r>   -38.7780     0.0000    24.0000 </r>
       <r>   -38.5743     0.0000    24.0000 </r>
       <r>   -38.3706     0.0000    24.0000 </r>
       <r>   -38.1669     0.0000    24.0000 </r>
       <r>   -37.9632     0.0000    24.0000 </r>
       <r>   -37.7594     0.0000    24.0000 </r>
       <r>   -37.5557     0.0000    24.0000 </r>
       <r>   -37.3520     0.0000    24.0000 </r>
       <r>   -37.1483     0.0000    24.0000 </r>
       <r>   -36.9446     0.0000    24.0000 </r>
       <r>   -36.7408     0.0000    24.0000 </r>
       <r>   -36.5371     0.0000    24.0000 </r>
       <r>   -36.3334     0.0000    24.0000 </r>
       <r>   -36.1297     0.0000    24.0000 </r>
       <r>   -35.9260     0.0000    24.0000 </r>
       <r>   -35.7222     0.0000    24.0000 </r>
       <r>   -35.5185     0.0000    24.0000 </r>
       <r>   -35.3148     0.0000    24.0000 </r>
       <r>   -35.1111     0.0000    24.0000 </r>
       <r>   -34.9074     0.0000    24.0000 </r>
       <r>   -34.7036     0.0000    24.0000 </r>
       <r>   -34.4999     0.0000    24.0000 </r>
       <r>   -34.2962     0.0000    24.0000 </r>
       <r>   -34.0925     0.0000    24.0000 </r>
       <r>   -33.8888     0.0000    24.0000 </r>
       <r>   -33.6850     0.0000    24.0000 </r>
       <r>   -33.4813     0.0000    24.0000 </r>
       <r>   -33.2776     0.0000    24.0000 </r>
       <r>   -33.0739     0.0000    24.0000 </r>
       <r>   -32.8702     0.0000    24.0000 </r>
       <r>   -32.6664     0.0000    24.0000 </r>
       <r>   -32.4627     0.0000    24.0000 </r>
       <r>   -32.2590     0.0000    24.0000 </r>
       <r>   -32.0553     0.0000    24.0000 </r>
       <r>   -31.8516     0.0000    24.0000 </r>
       <r>   -31.6478     0.0000    24.0000 </r>
       <r>   -31.4441     0.0000    24.0000 </r>
       <r>   -31.2404     0.0000    24.0000 </r>
       <r>   -31.0367     0.0000    24.0000 </r>
       <r>   -30.8330     0.0000    24.0000 </r>
       <r>   -30.6292     0.0000    24.0000 </r>
       <r>   -30.4255     0.0000    24.0000 </r>
       <r>   -30.2218     0.0000    24.0000 </r>
       <r>   -30.0181     0.0000    24.0000 </r>
       <r>   -29.8144     0.0000    24.0000 </r>
       <r>   -29.6106     0.0000    24.0000 </r>
       <r>   -29.4069     0.0000    24.0000 </r>
       <r>   -29.2032     0.0000    24.0000 </r>
       <r>   -28.9995     0.0000    24.0000 </r>
       <r>   -28.7958     0.0000    24.0000 </r>
       <r>   -28.5920     0.0000    24.0000 </r>
       <r>   -28.3883     0.0000    24.0000 </r>
       <r>   -28.1846     0.0000    24.0000 </r>
       <r>   -27.9809     0.0000    24.0000 </r>
       <r>   -27.7772     0.0000    24.0000 </r>
       <r>   -27.5735     0.0000    24.0000 </r>
       <r>   -27.3697     0.0000    24.0000 </r>
       <r>   -27.1660     0.0000    24.0000 </r>
       <r>   -26.9623     0.0000    24.0000 </r>
       <r>   -26.7586     0.0000    24.0000 </r>
       <r>   -26.5549     0.0000    24.0000 </r>
       <r>   -26.3511     0.0000    24.0000 </r>
       <r>   -26.1474     0.0000    24.0000 </r>
       <r>   -25.9437     0.0000    24.0000 </r>
       <r>   -25.7400     0.0000    24.0000 </r>
       <r>   -25.5363     0.0000    24.0000 </r>
       <r>   -25.3325     0.0000    24.0000 </r>
       <r>   -25.1288    -0.0000    24.0000 </r>
       <r>   -24.9251    -0.0000    24.0000 </r>
       <r>   -24.7214    -0.0000    24.0000 </r>
       <r>   -24.5177    -0.0000    24.0000 </r>
       <r>   -24.3139    -0.0000    24.0000 </r>
       <r>   -24.1102    -0.0348    23.9929 </r>
       <r>   -23.9065    -0.3693    23.9177 </r>
       <r>   -23.7028    10.7180    26.1011 </r>
       <r>   -23.4991    40.3478    34.3208 </r>
       <r>   -23.2953    50.4100    44.5903 </r>
       <r>   -23.0916    15.6546    47.7794 </r>
       <r>   -22.8879     1.2389    48.0318 </r>
       <r>   -22.6842    -0.1558    48.0001 </r>
       <r>   -22.4805    -0.0003    48.0000 </r>
       <r>   -22.2767    -0.0000    48.0000 </r>
       <r>   -22.0730    -0.0000    48.0000 </r>
       <r>   -21.8693     0.0000    48.0000 </r>
       <r>   -21.6656     0.0000    48.0000 </r>
       <r>   -21.4619     0.0000    48.0000 </r>
       <r>   -21.2581    -0.0000    48.0000 </r>
       <r>   -21.0544    -0.0000    48.0000 </r>
       <r>   -20.8507    -0.0000    48.0000 </r>
       <r>   -20.6470    -0.0000    48.0000 </r>
       <r>   -20.4433    -0.0000    48.0000 </r>
       <r>   -20.2395    -0.0403    47.9918 </r>
       <r>   -20.0358    -0.7494    47.8391 </r>
       <r>   -19.8321    16.0690    51.1127 </r>
       <r>   -19.6284    59.3871    63.2110 </r>
       <r>   -19.4247   104.1453    84.4275 </r>
       <r>   -19.2209    45.5868    93.7144 </r>
       <r>   -19.0172    11.8323    96.1249 </r>
       <r>   -18.8135    -0.5854    96.0056 </r>
       <r>   -18.6098    -0.0277    96.0000 </r>
       <r>   -18.4061    -0.0000    96.0000 </r>
       <r>   -18.2023    -0.0000    96.0000 </r>
       <r>   -17.9986     0.0000    96.0000 </r>
       <r>   -17.7949     0.0000    96.0000 </r>
       <r>   -17.5912     0.0000    96.0000 </r>
       <r>   -17.3875     0.0000    96.0000 </r>
       <r>   -17.1837     0.0000    96.0000 </r>
       <r>   -16.9800     0.0000    96.0000 </r>
       <r>   -16.7763     0.0000    96.0000 </r>
       <r>   -16.5726     0.0000    96.0000 </r>
       <r>   -16.3689     0.0000    96.0000 </r>
       <r>   -16.1651     0.0000    96.0000 </r>
       <r>   -15.9614     0.0000    96.0000 </r>
       <r>   -15.7577     0.0000    96.0000 </r>
       <r>   -15.5540     0.0000    96.0000 </r>
       <r>   -15.3503     0.0000    96.0000 </r>
       <r>   -15.1465     0.0000    96.0000 </r>
       <r>   -14.9428     0.0000    96.0000 </r>
       <r>   -14.7391     0.0000    96.0000 </r>
       <r>   -14.5354     0.0000    96.0000 </r>
       <r>   -14.3317     0.0000    96.0000 </r>
       <r>   -14.1279     0.0000    96.0000 </r>
       <r>   -13.9242     0.0000    96.0000 </r>
       <r>   -13.7205     0.0000    96.0000 </r>
       <r>   -13.5168     0.0000    96.0000 </r>
       <r>   -13.3131     0.0000    96.0000 </r>
       <r>   -13.1093     0.0000    96.0000 </r>
       <r>   -12.9056     0.0000    96.0000 </r>
       <r>   -12.7019     0.0000    96.0000 </r>
       <r>   -12.4982     0.0000    96.0000 </r>
       <r>   -12.2945     0.0000    96.0000 </r>
       <r>   -12.0907     0.0000    96.0000 </r>
       <r>   -11.8870     0.0000    96.0000 </r>
       <r>   -11.6833     0.0000    96.0000 </r>
       <r>   -11.4796     0.0000    96.0000 </r>
       <r>   -11.2759     0.0000    96.0000 </r>
       <r>   -11.0721     0.0000    96.0000 </r>
       <r>   -10.8684     0.0000    96.0000 </r>
       <r>   -10.6647     0.0000    96.0000 </r>
       <r>   -10.4610     0.0000    96.0000 </r>
       <r>   -10.2573     0.0000    96.0000 </r>
       <r>   -10.0535     0.0000    96.0000 </r>
       <r>    -9.8498     0.0000    96.0000 </r>
       <r>    -9.6461     0.0000    96.0000 </r>
       <r>    -9.4424     0.0000    96.0000 </r>
       <r>    -9.2387     0.0000    96.0000 </r>
       <r>    -9.0350     0.0000    96.0000 </r>
       <r>    -8.8312     0.0000    96.0000 </r>
       <r>    -8.6275     0.0000    96.0000 </r>
       <r>    -8.4238     0.0000    96.0000 </r>
       <r>    -8.2201     0.0000    96.0000 </r>
       <r>    -8.0164     0.0000    96.0000 </r>
       <r>    -7.8126     0.0000    96.0000 </r>
       <r>    -7.6089     0.0000    96.0000 </r>
       <r>    -7.4052     0.0000    96.0000 </r>
       <r>    -7.2015     0.0000    96.0000 </r>
       <r>    -6.9978     0.0000    96.0000 </r>
       <r>    -6.7940     0.0000    96.0000 </r>
       <r>    -6.5903     0.0000    96.0000 </r>
       <r>    -6.3866     0.0000    96.0000 </r>
       <r>    -6.1829     0.0000    96.0000 </r>
       <r>    -5.9792     0.0000    96.0000 </r>
       <r>    -5.7754     0.0000    96.0000 </r>
       <r>    -5.5717     0.0000    96.0000 </r>
       <r>    -5.3680     0.0000    96.0000 </r>
       <r>    -5.1643     0.0000    96.0000 </r>
       <r>    -4.9606     0.0000    96.0000 </r>
       <r>    -4.7568     0.0000    96.0000 </r>
       <r>    -4.5531     0.0000    96.0000 </r>
       <r>    -4.3494     0.0000    96.0000 </r>
       <r>    -4.1457     0.0000    96.0000 </r>
       <r>    -3.9420     0.0000    96.0000 </r>
       <r>    -3.7382     0.0000    96.0000 </r>
       <r>    -3.5345     0.0000    96.0000 </r>
       <r>    -3.3308     0.0000    96.0000 </r>
       <r>    -3.1271     0.0000    96.0000 </r>
       <r>    -2.9234     0.0000    96.0000 </r>
       <r>    -2.7196     0.0000    96.0000 </r>
       <r>    -2.5159     0.0000    96.0000 </r>
       <r>    -2.3122     0.0000    96.0000 </r>
       <r>    -2.1085     0.0000    96.0000 </r>
       <r>    -1.9048     0.0000    96.0000 </r>
       <r>    -1.7010     0.0000    96.0000 </r>
       <r>    -1.4973    -0.0000    96.0000 </r>
       <r>    -1.2936    -0.0000    96.0000 </r>
       <r>    -1.0899    -0.0000    96.0000 </r>
       <r>    -0.8862    -0.0000    96.0000 </r>
       <r>    -0.6824    -0.0000    96.0000 </r>
       <r>    -0.4787    -0.0023    95.9995 </r>
       <r>    -0.2750     0.0080    96.0012 </r>
       <r>    -0.0713     0.3520    96.0729 </r>
       <r>     0.1324     1.3214    96.3421 </r>
       <r>     0.3362     1.7472    96.6980 </r>
       <r>     0.5399     2.2483    97.1560 </r>
       <r>     0.7436     3.6018    97.8898 </r>
       <r>     0.9473     3.3482    98.5719 </r>
       <r>     1.1510     2.2094    99.0220 </r>
       <r>     1.3548     4.9759   100.0357 </r>
       <r>     1.5585     3.3090   100.7098 </r>
       <r>     1.7622     4.0107   101.5268 </r>
       <r>     1.9659     6.2167   102.7933 </r>
       <r>     2.1696     8.3667   104.4978 </r>
       <r>     2.3734     7.2470   105.9741 </r>
       <r>     2.5771     8.4014   107.6857 </r>
       <r>     2.7808     6.9621   109.1040 </r>
       <r>     2.9845    11.6941   111.4863 </r>
       <r>     3.1882    18.8148   115.3193 </r>
       <r>     3.3920    20.9780   119.5929 </r>
       <r>     3.5957    25.9011   124.8694 </r>
       <r>     3.7994    26.1183   130.1903 </r>
       <r>     4.0031    31.0578   136.5173 </r>
       <r>     4.2068    35.0145   143.6505 </r>
       <r>     4.4106    36.5578   151.0980 </r>
       <r>     4.6143    36.0204   158.4361 </r>
       <r>     4.8180    32.5624   165.0697 </r>
       <r>     5.0217    32.3987   171.6700 </r>
       <r>     5.2254    22.1450   176.1813 </r>
       <r>     5.4292    25.9881   181.4756 </r>
       <r>     5.6329    51.8073   192.0298 </r>
       <r>     5.8366    59.6953   204.1909 </r>
       <r>     6.0403    57.2257   215.8489 </r>
       <r>     6.2440    55.4972   227.1548 </r>
       <r>     6.4478    54.5156   238.2607 </r>
       <r>     6.6515    50.9283   248.6358 </r>
       <r>     6.8552    45.4239   257.8895 </r>
       <r>     7.0589    48.3215   267.7336 </r>
       <r>     7.2626    49.7945   277.8777 </r>
       <r>     7.4664    42.1304   286.4605 </r>
       <r>     7.6701    36.9863   293.9953 </r>
       <r>     7.8738    26.9213   299.4797 </r>
       <r>     8.0775    17.3979   303.0240 </r>
       <r>     8.2812     5.0851   304.0600 </r>
       <r>     8.4849    -0.2852   304.0019 </r>
       <r>     8.6887    -0.0093   304.0000 </r>
       <r>     8.8924    -0.0000   304.0000 </r>
       <r>     9.0961    -0.0000   304.0000 </r>
       <r>     9.2998     0.0000   304.0000 </r>
       <r>     9.5035     0.0000   304.0000 </r>
       <r>     9.7073     0.0000   304.0000 </r>
       <r>     9.9110     0.0000   304.0000 </r>
       <r>    10.1147     0.0000   304.0000 </r>
       <r>    10.3184     0.0000   304.0000 </r>
       <r>    10.5221     0.0000   304.0000 </r>
       <r>    10.7259     0.0000   304.0000 </r>
       <r>    10.9296     0.0000   304.0000 </r>
      </set>
     </set>
    </array>
   </total>
  </dos>
 </calculation>
 <structure name="finalpos" >
  <crystal>
   <varray name="basis" >
    <v>       7.00397277      -0.00893494      -0.00537442 </v>
    <v>      -0.01232647      10.31337027       0.04072411 </v>
    <v>      -0.00782634       0.04059062      10.32603801 </v>
   </varray>
   <i name="volume">    745.88371656 </i>
   <varray name="rec_basis" >
    <v>       0.14277641       0.00017022       0.00010754 </v>
    <v>       0.00012340       0.09696317      -0.00038106 </v>
    <v>       0.00007382      -0.00038232       0.09684412 </v>
   </varray>
  </crystal>
  <varray name="positions" >
   <v>       0.50383001       0.00400563      -0.00289844 </v>
   <v>       0.75448861       0.49611568       0.49678825 </v>
   <v>       0.99441362       0.99816926      -0.00038992 </v>
   <v>       0.01755200       0.32615534       0.99215041 </v>
   <v>       0.47921371       0.00810719       0.33392262 </v>
   <v>       0.28021596       0.82384838       0.51624435 </v>
   <v>       0.76551647       0.17931827       0.18296797 </v>
   <v>       0.97712120       0.68858099       0.00772138 </v>
   <v>       0.71879258       0.83454941       0.19058747 </v>
   <v>       0.22533131       0.17613271       0.50874339 </v>
   <v>       0.03719894       0.33170017       0.33847915 </v>
   <v>       0.23642774       0.50051685       0.82250950 </v>
   <v>       0.27471408       0.82376610       0.16140511 </v>
   <v>       0.48855896       0.33342099       0.66660278 </v>
   <v>       0.24830662       0.49861563       0.50200898 </v>
   <v>       0.49138199       0.66276434       0.32582926 </v>
   <v>       0.48232507       0.63101108       0.66903977 </v>
   <v>       0.01789000       0.66003634       0.65156231 </v>
   <v>       0.01223598       0.33308483       0.66912657 </v>
   <v>       0.23374655       0.16428530       0.16534881 </v>
   <v>       0.75347577       0.18899902       0.82085483 </v>
   <v>       0.24534472       0.17467919       0.82694975 </v>
   <v>       0.49042828       0.32781698       0.99427726 </v>
   <v>       0.76378635       0.49192397       0.17869406 </v>
   <v>       0.26171425       0.81872514       0.82725415 </v>
   <v>       0.73369952       0.82628453       0.50127531 </v>
   <v>       0.76741079       0.49691782       0.82250640 </v>
   <v>       0.23712859       0.51124006       0.16553767 </v>
   <v>       0.01333793       0.68306401       0.33760591 </v>
   <v>       0.76837451       0.17749071       0.50069377 </v>
   <v>       0.46731730       0.32801756       0.33571623 </v>
   <v>       0.01449957       0.99056570       0.33121869 </v>
   <v>       0.51771369       0.66555993       0.00539387 </v>
   <v>       0.49563293       0.02721005       0.67442147 </v>
   <v>       0.00055897       0.00343953       0.67768006 </v>
   <v>       0.73031545       0.81389432       0.80217085 </v>
  </varray>
 </structure>
</modeling>
