  32  32   0   0
  0.1692633E+02  0.8068682E-09  0.8213258E-09  0.8173396E-09  0.1500000E-15
  1.000000000000000E-004
  CAR 
 automatically generated by mexm         
     18.74779713     -1.42630750  301      9.47527098      1.00000000
     -1.426  0.0000E+00  0.0000E+00
     -1.359  0.0000E+00  0.0000E+00
     -1.292  0.0000E+00  0.0000E+00
     -1.225  0.0000E+00  0.0000E+00
     -1.157 -0.4780E-31 -0.3214E-32
     -1.090 -0.5795E-28 -0.3900E-29
     -1.023 -0.4687E-25 -0.3156E-26
     -0.956 -0.2526E-22 -0.1702E-23
     -0.888 -0.9065E-20 -0.6113E-21
     -0.821 -0.2165E-17 -0.1462E-18
     -0.754 -0.3324E-15 -0.2250E-16
     -0.687 -0.3483E-13 -0.2365E-14
     -0.619 -0.2413E-11 -0.1646E-12
     -0.552 -0.1102E-09 -0.7575E-11
     -0.485 -0.3301E-08 -0.2296E-09
     -0.418 -0.6434E-07 -0.4556E-08
     -0.350 -0.8053E-06 -0.5871E-07
     -0.283 -0.6313E-05 -0.4832E-06
     -0.216 -0.2934E-04 -0.2456E-05
     -0.149 -0.6794E-04 -0.7025E-05
     -0.081  0.1653E-06 -0.7014E-05
     -0.014  0.4167E-03  0.2101E-04
      0.053  0.1056E-02  0.9202E-04
      0.120  0.1156E-02  0.1698E-03
      0.188  0.4334E-03  0.1989E-03
      0.255  0.2529E-03  0.2159E-03
      0.322  0.2563E-02  0.3883E-03
      0.389  0.6473E-02  0.8236E-03
      0.457  0.7481E-02  0.1327E-02
      0.524  0.4110E-02  0.1603E-02
      0.591  0.2088E-02  0.1743E-02
      0.658  0.6879E-02  0.2206E-02
      0.726  0.1427E-01  0.3165E-02
      0.793  0.1448E-01  0.4139E-02
      0.860  0.7625E-02  0.4652E-02
      0.927  0.4023E-02  0.4923E-02
      0.995  0.7355E-02  0.5417E-02
      1.062  0.1006E-01  0.6094E-02
      1.129  0.6814E-02  0.6552E-02
      1.196  0.2249E-02  0.6703E-02
      1.264  0.2222E-02  0.6853E-02
      1.331  0.5301E-02  0.7209E-02
      1.398  0.6065E-02  0.7617E-02
      1.465  0.4992E-02  0.7953E-02
      1.533  0.1017E-01  0.8636E-02
      1.600  0.2263E-01  0.1016E-01
      1.667  0.3006E-01  0.1218E-01
      1.734  0.2812E-01  0.1407E-01
      1.802  0.2790E-01  0.1595E-01
      1.869  0.2995E-01  0.1796E-01
      1.936  0.2298E-01  0.1951E-01
      2.003  0.9214E-02  0.2013E-01
      2.071 -0.8395E-05  0.2012E-01
      2.138 -0.2788E-02  0.1994E-01
      2.205 -0.2869E-02  0.1974E-01
      2.272  0.2409E-02  0.1991E-01
      2.340  0.1948E-01  0.2122E-01
      2.407  0.4164E-01  0.2402E-01
      2.474  0.4901E-01  0.2731E-01
      2.541  0.3652E-01  0.2977E-01
      2.609  0.2043E-01  0.3114E-01
      2.676  0.1550E-01  0.3218E-01
      2.743  0.2676E-01  0.3398E-01
      2.810  0.5290E-01  0.3754E-01
      2.878  0.8356E-01  0.4316E-01
      2.945  0.9863E-01  0.4979E-01
      3.012  0.8818E-01  0.5572E-01
      3.079  0.7165E-01  0.6054E-01
      3.146  0.7372E-01  0.6550E-01
      3.214  0.9666E-01  0.7200E-01
      3.281  0.1290E+00  0.8067E-01
      3.348  0.1579E+00  0.9129E-01
      3.415  0.1727E+00  0.1029E+00
      3.483  0.1699E+00  0.1143E+00
      3.550  0.1558E+00  0.1248E+00
      3.617  0.1445E+00  0.1345E+00
      3.684  0.1476E+00  0.1444E+00
      3.752  0.1643E+00  0.1555E+00
      3.819  0.1854E+00  0.1680E+00
      3.886  0.2005E+00  0.1814E+00
      3.953  0.2007E+00  0.1949E+00
      4.021  0.1802E+00  0.2071E+00
      4.088  0.1446E+00  0.2168E+00
      4.155  0.1182E+00  0.2247E+00
      4.222  0.1234E+00  0.2330E+00
      4.290  0.1542E+00  0.2434E+00
      4.357  0.1829E+00  0.2557E+00
      4.424  0.1870E+00  0.2683E+00
      4.491  0.1622E+00  0.2792E+00
      4.559  0.1256E+00  0.2876E+00
      4.626  0.1076E+00  0.2949E+00
      4.693  0.1216E+00  0.3030E+00
      4.760  0.1525E+00  0.3133E+00
      4.828  0.1784E+00  0.3253E+00
      4.895  0.1879E+00  0.3379E+00
      4.962  0.1851E+00  0.3504E+00
      5.029  0.1801E+00  0.3625E+00
      5.097  0.1772E+00  0.3744E+00
      5.164  0.1787E+00  0.3864E+00
      5.231  0.1881E+00  0.3991E+00
      5.298  0.2009E+00  0.4126E+00
      5.366  0.2055E+00  0.4264E+00
      5.433  0.1990E+00  0.4398E+00
      5.500  0.1894E+00  0.4525E+00
      5.567  0.1840E+00  0.4649E+00
      5.635  0.1856E+00  0.4774E+00
      5.702  0.1943E+00  0.4904E+00
      5.769  0.2068E+00  0.5043E+00
      5.836  0.2182E+00  0.5190E+00
      5.904  0.2245E+00  0.5341E+00
      5.971  0.2231E+00  0.5491E+00
      6.038  0.2152E+00  0.5636E+00
      6.105  0.2078E+00  0.5776E+00
      6.173  0.2070E+00  0.5915E+00
      6.240  0.2110E+00  0.6057E+00
      6.307  0.2159E+00  0.6202E+00
      6.374  0.2167E+00  0.6348E+00
      6.442  0.2093E+00  0.6488E+00
      6.509  0.1974E+00  0.6621E+00
      6.576  0.1867E+00  0.6747E+00
      6.643  0.1774E+00  0.6866E+00
      6.711  0.1694E+00  0.6980E+00
      6.778  0.1659E+00  0.7091E+00
      6.845  0.1677E+00  0.7204E+00
      6.912  0.1683E+00  0.7317E+00
      6.980  0.1616E+00  0.7426E+00
      7.047  0.1507E+00  0.7527E+00
      7.114  0.1439E+00  0.7624E+00
      7.181  0.1448E+00  0.7722E+00
      7.249  0.1500E+00  0.7822E+00
      7.316  0.1542E+00  0.7926E+00
      7.383  0.1553E+00  0.8031E+00
      7.450  0.1550E+00  0.8135E+00
      7.518  0.1564E+00  0.8240E+00
      7.585  0.1609E+00  0.8348E+00
      7.652  0.1648E+00  0.8459E+00
      7.719  0.1613E+00  0.8568E+00
      7.787  0.1509E+00  0.8669E+00
      7.854  0.1431E+00  0.8765E+00
      7.921  0.1437E+00  0.8862E+00
      7.988  0.1482E+00  0.8962E+00
      8.056  0.1490E+00  0.9062E+00
      8.123  0.1458E+00  0.9160E+00
      8.190  0.1443E+00  0.9257E+00
      8.257  0.1471E+00  0.9356E+00
      8.325  0.1482E+00  0.9455E+00
      8.392  0.1415E+00  0.9551E+00
      8.459  0.1317E+00  0.9639E+00
      8.526  0.1301E+00  0.9727E+00
      8.593  0.1395E+00  0.9820E+00
      8.661  0.1516E+00  0.9922E+00
      8.728  0.1595E+00  0.1003E+01
      8.795  0.1644E+00  0.1014E+01
      8.862  0.1693E+00  0.1025E+01
      8.930  0.1719E+00  0.1037E+01
      8.997  0.1679E+00  0.1048E+01
      9.064  0.1597E+00  0.1059E+01
      9.131  0.1565E+00  0.1070E+01
      9.199  0.1597E+00  0.1080E+01
      9.266  0.1567E+00  0.1091E+01
      9.333  0.1407E+00  0.1100E+01
      9.400  0.1218E+00  0.1108E+01
      9.468  0.1100E+00  0.1116E+01
      9.535  0.1054E+00  0.1123E+01
      9.602  0.1029E+00  0.1130E+01
      9.669  0.9692E-01  0.1136E+01
      9.737  0.8491E-01  0.1142E+01
      9.804  0.6721E-01  0.1147E+01
      9.871  0.4475E-01  0.1150E+01
      9.938  0.2269E-01  0.1151E+01
     10.006  0.9502E-02  0.1152E+01
     10.073  0.8028E-02  0.1152E+01
     10.140  0.1243E-01  0.1153E+01
     10.207  0.1496E-01  0.1154E+01
     10.275  0.1451E-01  0.1155E+01
     10.342  0.1490E-01  0.1156E+01
     10.409  0.1738E-01  0.1157E+01
     10.476  0.2090E-01  0.1159E+01
     10.544  0.2505E-01  0.1160E+01
     10.611  0.3051E-01  0.1162E+01
     10.678  0.3852E-01  0.1165E+01
     10.745  0.4799E-01  0.1168E+01
     10.813  0.5435E-01  0.1172E+01
     10.880  0.5460E-01  0.1176E+01
     10.947  0.5055E-01  0.1179E+01
     11.014  0.4445E-01  0.1182E+01
     11.082  0.3590E-01  0.1184E+01
     11.149  0.2702E-01  0.1186E+01
     11.216  0.2375E-01  0.1188E+01
     11.283  0.2702E-01  0.1190E+01
     11.351  0.3046E-01  0.1192E+01
     11.418  0.2814E-01  0.1194E+01
     11.485  0.1864E-01  0.1195E+01
     11.552  0.7120E-02  0.1195E+01
     11.620  0.5773E-02  0.1196E+01
     11.687  0.2231E-01  0.1197E+01
     11.754  0.4610E-01  0.1200E+01
     11.821  0.5748E-01  0.1204E+01
     11.889  0.5419E-01  0.1208E+01
     11.956  0.5068E-01  0.1211E+01
     12.023  0.5233E-01  0.1215E+01
     12.090  0.5207E-01  0.1218E+01
     12.158  0.4603E-01  0.1221E+01
     12.225  0.3465E-01  0.1224E+01
     12.292  0.1913E-01  0.1225E+01
     12.359  0.6627E-02  0.1225E+01
     12.427  0.4480E-02  0.1226E+01
     12.494  0.1024E-01  0.1226E+01
     12.561  0.1679E-01  0.1228E+01
     12.628  0.2102E-01  0.1229E+01
     12.696  0.2329E-01  0.1230E+01
     12.763  0.2273E-01  0.1232E+01
     12.830  0.1837E-01  0.1233E+01
     12.897  0.1403E-01  0.1234E+01
     12.965  0.1645E-01  0.1235E+01
     13.032  0.2651E-01  0.1237E+01
     13.099  0.3646E-01  0.1240E+01
     13.166  0.3987E-01  0.1242E+01
     13.234  0.3858E-01  0.1245E+01
     13.301  0.3493E-01  0.1247E+01
     13.368  0.2839E-01  0.1249E+01
     13.435  0.2261E-01  0.1251E+01
     13.503  0.2191E-01  0.1252E+01
     13.570  0.2495E-01  0.1254E+01
     13.637  0.3085E-01  0.1256E+01
     13.704  0.4070E-01  0.1259E+01
     13.772  0.4942E-01  0.1262E+01
     13.839  0.4936E-01  0.1265E+01
     13.906  0.4088E-01  0.1268E+01
     13.973  0.3139E-01  0.1270E+01
     14.041  0.2830E-01  0.1272E+01
     14.108  0.3148E-01  0.1274E+01
     14.175  0.3294E-01  0.1276E+01
     14.242  0.2813E-01  0.1278E+01
     14.309  0.2077E-01  0.1280E+01
     14.377  0.1526E-01  0.1281E+01
     14.444  0.1226E-01  0.1281E+01
     14.511  0.1236E-01  0.1282E+01
     14.578  0.1935E-01  0.1284E+01
     14.646  0.3587E-01  0.1286E+01
     14.713  0.5754E-01  0.1290E+01
     14.780  0.7459E-01  0.1295E+01
     14.847  0.7826E-01  0.1300E+01
     14.915  0.6643E-01  0.1305E+01
     14.982  0.4403E-01  0.1308E+01
     15.049  0.2041E-01  0.1309E+01
     15.116  0.5420E-02  0.1309E+01
     15.184  0.3552E-02  0.1310E+01
     15.251  0.1218E-01  0.1310E+01
     15.318  0.2580E-01  0.1312E+01
     15.385  0.4064E-01  0.1315E+01
     15.453  0.5555E-01  0.1319E+01
     15.520  0.6898E-01  0.1323E+01
     15.587  0.7719E-01  0.1328E+01
     15.654  0.7614E-01  0.1334E+01
     15.722  0.6557E-01  0.1338E+01
     15.789  0.5114E-01  0.1341E+01
     15.856  0.3781E-01  0.1344E+01
     15.923  0.2424E-01  0.1346E+01
     15.991  0.1092E-01  0.1346E+01
     16.058  0.3775E-02  0.1347E+01
     16.125  0.3532E-02  0.1347E+01
     16.192  0.4341E-02  0.1347E+01
     16.260  0.3684E-02  0.1347E+01
     16.327  0.3289E-02  0.1348E+01
     16.394  0.4647E-02  0.1348E+01
     16.461  0.8994E-02  0.1348E+01
     16.529  0.1570E-01  0.1349E+01
     16.596  0.1994E-01  0.1351E+01
     16.663  0.1813E-01  0.1352E+01
     16.730  0.1360E-01  0.1353E+01
     16.798  0.1115E-01  0.1354E+01
     16.865  0.1107E-01  0.1354E+01
     16.932  0.1237E-01  0.1355E+01
     16.999  0.1515E-01  0.1356E+01
     17.067  0.1730E-01  0.1357E+01
     17.134  0.1579E-01  0.1359E+01
     17.201  0.1148E-01  0.1359E+01
     17.268  0.7045E-02  0.1360E+01
     17.336  0.3302E-02  0.1360E+01
     17.403  0.6910E-03  0.1360E+01
     17.470 -0.3018E-03  0.1360E+01
     17.537 -0.2789E-03  0.1360E+01
     17.605 -0.9579E-04  0.1360E+01
     17.672 -0.1851E-04  0.1360E+01
     17.739 -0.2202E-05  0.1360E+01
     17.806 -0.1670E-06  0.1360E+01
     17.874 -0.8219E-08  0.1360E+01
     17.941 -0.2651E-09  0.1360E+01
     18.008 -0.5642E-11  0.1360E+01
     18.075 -0.7950E-13  0.1360E+01
     18.143 -0.7419E-15  0.1360E+01
     18.210 -0.4892E-17  0.1360E+01
     18.277  0.0000E+00  0.1360E+01
     18.344  0.0000E+00  0.1360E+01
     18.412  0.0000E+00  0.1360E+01
     18.479  0.0000E+00  0.1360E+01
     18.546  0.0000E+00  0.1360E+01
     18.613  0.0000E+00  0.1360E+01
     18.681  0.0000E+00  0.1360E+01
     18.748  0.0000E+00  0.1360E+01
