   32   32  300    1
  0.1692633E+02  0.8068682E-09  0.8213257E-09  0.8173396E-09  0.1500000E-15
  1.000000000000000E-004
  CAR 
 automatically generated by mexm         
    335     14    204
 
  0.0000000E+00  0.0000000E+00  0.0000000E+00  0.3703704E-01
    1        0.073693   1.000000
    2        2.501916   1.000000
    3        2.509151   1.000000
    4        2.530727   1.000000
    5        2.606872   1.000000
    6        2.645088   1.000000
    7        2.685546   1.000000
    8        2.741434   1.000000
    9        2.751447   1.000000
   10        2.761428   1.000000
   11        2.764655   1.000000
   12        2.944821   1.000000
   13        3.009168   1.000000
   14        3.073808   1.000000
   15        3.342517   1.000000
   16        3.359176   1.000000
   17        3.360707   1.000000
   18        3.861590   1.000000
   19        3.902946   1.000000
   20        3.913764   1.000000
   21        3.938787   1.000000
   22        3.948506   1.000000
   23        3.965264   1.000000
   24        3.999857   1.000000
   25        4.008606   1.000000
   26        4.051343   1.000000
   27        4.064665   1.000000
   28        4.068023   1.000000
   29        4.073724   1.000000
   30        4.083266   1.000000
   31        4.134472   1.000000
   32        4.139243   1.000000
   33        4.170194   1.000000
   34        4.184361   1.000000
   35        4.206690   1.000000
   36        4.253526   1.000000
   37        4.358325   1.000000
   38        4.367452   1.000000
   39        4.378863   1.000000
   40        4.457268   1.000000
   41        4.569932   1.000000
   42        4.668935   1.000000
   43        4.706499   1.000000
   44        4.717074   1.000000
   45        4.756156   1.000000
   46        4.772065   1.000000
   47        4.805397   1.000000
   48        4.822495   1.000000
   49        4.900423   1.000000
   50        4.922066   1.000000
   51        4.974040   1.000000
   52        4.983171   1.000000
   53        4.993728   1.000000
   54        5.033095   1.000000
   55        5.044438   1.000000
   56        5.052346   1.000000
   57        5.077045   1.000000
   58        5.102869   1.000000
   59        5.123256   1.000000
   60        5.136815   1.000000
   61        5.166915   1.000000
   62        5.194529   1.000000
   63        5.211207   1.000000
   64        5.230591   1.000000
   65        5.249923   1.000000
   66        5.265610   1.000000
   67        5.291533   1.000000
   68        5.328478   1.000000
   69        5.351113   1.000000
   70        5.383943   1.000000
   71        5.399039   1.000000
   72        5.407974   1.000000
   73        5.438814   1.000000
   74        5.453682   1.000000
   75        5.464636   1.000000
   76        5.515662   1.000000
   77        5.554042   1.000000
   78        5.577238   1.000000
   79        5.648811   1.000000
   80        5.676127   1.000000
   81        5.751631   1.000000
   82        5.755734   1.000000
   83        5.816934   1.000000
   84        5.862128   1.000000
   85        5.909083   1.000000
   86        5.919220   1.000000
   87        5.961010   1.000000
   88        5.991406   1.000000
   89        6.014343   1.000000
   90        6.038147   1.000000
   91        6.096111   1.000000
   92        6.117802   1.000000
   93        6.334557   1.000000
   94        6.397722   1.000000
   95        6.428472   1.000000
   96        6.462521   1.000000
   97        6.489108   1.000000
   98        6.606050   1.000000
   99        6.639798   1.000000
  100        6.693398   1.000000
  101        6.739631   1.000000
  102        6.760324   1.000000
  103        6.793390   1.000000
  104        6.810928   1.000000
  105        6.852808   1.000000
  106        6.860000   1.000000
  107        6.905717   1.000000
  108        6.909458   1.000000
  109        6.937227   1.000000
  110        6.958901   1.000000
  111        6.973207   1.000000
  112        7.033334   1.000000
  113        7.052323   1.000000
  114        7.087264   1.000000
  115        7.114808   1.000000
  116        7.129831   1.000000
  117        7.177731   1.000000
  118        7.194619   1.000000
  119        7.255876   1.000000
  120        7.283908   1.000000
  121        7.304634   1.000000
  122        7.347181   1.000000
  123        7.370007   1.000000
  124        7.401941   1.000000
  125        7.417064   1.000000
  126        7.447167   1.000000
  127        7.521503   1.000000
  128        7.566423   1.000000
  129        7.592927   1.000000
  130        7.600472   1.000000
  131        7.616685   1.000000
  132        7.641810   1.000000
  133        7.659572   1.000000
  134        7.869473   1.000000
  135        7.892429   1.000000
  136        7.906890   1.000000
  137        7.951803   1.000000
  138        8.002904   1.000000
  139        8.067511   1.000000
  140        8.077536   1.000000
  141        8.261654   1.000000
  142        8.363636   1.000000
  143        8.392993   1.000000
  144        8.629606   1.000000
  145        8.660284   1.000000
  146        8.733404   1.000000
  147        8.798112   1.000000
  148        8.844666   1.000000
  149        8.870122   1.000000
  150        8.906615   1.000001
  151        8.961450   1.000007
  152        9.035403   1.000136
  153        9.055947   1.000280
  154        9.091388   1.000885
  155        9.106056   1.001373
  156        9.138855   1.003379
  157        9.153605   1.004877
  158        9.167953   1.006807
  159        9.197931   1.012623
  160        9.225101   1.019971
  161        9.257451   1.029723
  162        9.280267   1.034671
  163        9.337815   1.014132
  164        9.390613   0.903393
  165        9.415070   0.811213
  166        9.488371   0.426401
  167        9.539482   0.171922
  168        9.576867   0.048300
  169        9.642314  -0.033255
  170        9.769169  -0.009097
  171        9.786076  -0.006291
  172       10.356021  -0.000000
  173       10.422206  -0.000000
  174       10.446583  -0.000000
  175       10.494959  -0.000000
  176       10.613596  -0.000000
  177       10.623485  -0.000000
  178       10.656857  -0.000000
  179       10.711558  -0.000000
  180       10.726227  -0.000000
  181       10.832066  -0.000000
  182       10.866754  -0.000000
  183       10.905873  -0.000000
  184       11.048880  -0.000000
  185       11.221585  -0.000000
  186       11.441698  -0.000000
  187       13.904109   0.000000
  188       13.945187   0.000000
  189       14.001449   0.000000
  190       14.073020   0.000000
  191       15.152037   0.000000
  192       15.275928   0.000000
  193       15.325054   0.000000
  194       15.522491   0.000000
  195       15.655241   0.000000
  196       15.778982   0.000000
  197       16.473692   0.000000
  198       16.678424   0.000000
  199       16.710913   0.000000
  200       16.742635   0.000000
  201       16.771567   0.000000
  202       16.805040   0.000000
  203       16.861302   0.000000
  204       16.912778   0.000000
 
  0.3333333E+00 -0.3981055E-19  0.6776264E-20  0.7407407E-01
    1        0.416519   1.000000
    2        1.381951   1.000000
    3        2.746614   1.000000
    4        2.755133   1.000000
    5        2.773876   1.000000
    6        2.883531   1.000000
    7        2.927991   1.000000
    8        2.931016   1.000000
    9        2.945476   1.000000
   10        2.955249   1.000000
   11        3.090255   1.000000
   12        3.218202   1.000000
   13        3.241359   1.000000
   14        3.298152   1.000000
   15        3.361548   1.000000
   16        3.381745   1.000000
   17        3.398683   1.000000
   18        3.414898   1.000000
   19        3.447288   1.000000
   20        3.467589   1.000000
   21        3.480231   1.000000
   22        3.498113   1.000000
   23        3.570571   1.000000
   24        3.598009   1.000000
   25        3.612470   1.000000
   26        3.782761   1.000000
   27        3.828157   1.000000
   28        3.894068   1.000000
   29        4.060804   1.000000
   30        4.098590   1.000000
   31        4.152944   1.000000
   32        4.206162   1.000000
   33        4.216610   1.000000
   34        4.230594   1.000000
   35        4.282023   1.000000
   36        4.309962   1.000000
   37        4.348898   1.000000
   38        4.362811   1.000000
   39        4.413675   1.000000
   40        4.489542   1.000000
   41        4.527375   1.000000
   42        4.605787   1.000000
   43        4.638505   1.000000
   44        4.649011   1.000000
   45        4.692515   1.000000
   46        4.709938   1.000000
   47        4.787269   1.000000
   48        4.789359   1.000000
   49        4.815243   1.000000
   50        4.842578   1.000000
   51        4.875321   1.000000
   52        4.888998   1.000000
   53        4.924307   1.000000
   54        4.939155   1.000000
   55        4.981091   1.000000
   56        5.004780   1.000000
   57        5.049196   1.000000
   58        5.067659   1.000000
   59        5.093129   1.000000
   60        5.118916   1.000000
   61        5.194590   1.000000
   62        5.224077   1.000000
   63        5.247536   1.000000
   64        5.295210   1.000000
   65        5.316099   1.000000
   66        5.356155   1.000000
   67        5.380844   1.000000
   68        5.410159   1.000000
   69        5.454360   1.000000
   70        5.478560   1.000000
   71        5.506024   1.000000
   72        5.536647   1.000000
   73        5.560737   1.000000
   74        5.604999   1.000000
   75        5.625936   1.000000
   76        5.653141   1.000000
   77        5.690879   1.000000
   78        5.721938   1.000000
   79        5.762767   1.000000
   80        5.805585   1.000000
   81        5.832568   1.000000
   82        5.855264   1.000000
   83        5.888403   1.000000
   84        5.917606   1.000000
   85        5.951633   1.000000
   86        6.011894   1.000000
   87        6.041776   1.000000
   88        6.069258   1.000000
   89        6.123781   1.000000
   90        6.153386   1.000000
   91        6.234445   1.000000
   92        6.253207   1.000000
   93        6.291020   1.000000
   94        6.333021   1.000000
   95        6.420553   1.000000
   96        6.452518   1.000000
   97        6.493505   1.000000
   98        6.530093   1.000000
   99        6.560030   1.000000
  100        6.648787   1.000000
  101        6.684294   1.000000
  102        6.715147   1.000000
  103        6.735024   1.000000
  104        6.772944   1.000000
  105        6.835497   1.000000
  106        6.908002   1.000000
  107        6.949145   1.000000
  108        7.001562   1.000000
  109        7.025463   1.000000
  110        7.073950   1.000000
  111        7.128998   1.000000
  112        7.159593   1.000000
  113        7.204339   1.000000
  114        7.248719   1.000000
  115        7.276936   1.000000
  116        7.300052   1.000000
  117        7.365142   1.000000
  118        7.374540   1.000000
  119        7.417603   1.000000
  120        7.467257   1.000000
  121        7.486284   1.000000
  122        7.498865   1.000000
  123        7.510513   1.000000
  124        7.555508   1.000000
  125        7.577544   1.000000
  126        7.621033   1.000000
  127        7.637078   1.000000
  128        7.686323   1.000000
  129        7.715948   1.000000
  130        7.724169   1.000000
  131        7.742321   1.000000
  132        7.813812   1.000000
  133        7.839575   1.000000
  134        7.890786   1.000000
  135        7.930470   1.000000
  136        7.991243   1.000000
  137        8.029445   1.000000
  138        8.079189   1.000000
  139        8.128881   1.000000
  140        8.154171   1.000000
  141        8.212708   1.000000
  142        8.263321   1.000000
  143        8.282902   1.000000
  144        8.337618   1.000000
  145        8.357197   1.000000
  146        8.438658   1.000000
  147        8.464680   1.000000
  148        8.519211   1.000000
  149        8.595157   1.000000
  150        8.624986   1.000000
  151        8.708760   1.000000
  152        8.739181   1.000000
  153        8.799551   1.000000
  154        8.828031   1.000000
  155        8.892608   1.000000
  156        8.923528   1.000001
  157        8.979815   1.000016
  158        9.026983   1.000100
  159        9.070537   1.000456
  160        9.088327   1.000805
  161        9.159026   1.005547
  162        9.189513   1.010733
  163        9.255167   1.029080
  164        9.286008   1.035257
  165        9.347524   1.002106
  166        9.378567   0.939064
  167        9.512582   0.296547
  168        9.573687   0.056394
  169        9.615324  -0.016806
  170        9.690757  -0.030362
  171        9.776989  -0.007703
  172        9.823134  -0.002500
  173        9.945758  -0.000043
  174       10.105124  -0.000000
  175       10.125805  -0.000000
  176       10.217701  -0.000000
  177       10.422365  -0.000000
  178       10.470098  -0.000000
  179       10.584594  -0.000000
  180       10.607224  -0.000000
  181       11.855754  -0.000000
  182       11.923250  -0.000000
  183       12.019704  -0.000000
  184       12.079080  -0.000000
  185       12.530261  -0.000000
  186       12.681012  -0.000000
  187       13.717479   0.000000
  188       13.805573   0.000000
  189       13.937487   0.000000
  190       14.107333   0.000000
  191       14.678833   0.000000
  192       14.763293   0.000000
  193       14.818172   0.000000
  194       14.872341   0.000000
  195       14.916604   0.000000
  196       15.024995   0.000000
  197       15.528509   0.000000
  198       15.603650   0.000000
  199       16.116192   0.000000
  200       16.291042   0.000000
  201       17.030317   0.000000
  202       17.104583   0.000000
  203       17.218735   0.000000
  204       17.247797   0.000000
 
  0.6334218E-19  0.3333333E+00  0.3252607E-18  0.7407407E-01
    1        0.400489   1.000000
    2        1.321060   1.000000
    3        2.741784   1.000000
    4        2.817088   1.000000
    5        2.857137   1.000000
    6        2.893666   1.000000
    7        2.918115   1.000000
    8        2.938005   1.000000
    9        2.945530   1.000000
   10        2.956429   1.000000
   11        3.045454   1.000000
   12        3.175782   1.000000
   13        3.218699   1.000000
   14        3.255257   1.000000
   15        3.350941   1.000000
   16        3.373588   1.000000
   17        3.395859   1.000000
   18        3.426160   1.000000
   19        3.439570   1.000000
   20        3.459736   1.000000
   21        3.474914   1.000000
   22        3.505121   1.000000
   23        3.571402   1.000000
   24        3.582077   1.000000
   25        3.614783   1.000000
   26        3.744385   1.000000
   27        3.798201   1.000000
   28        3.829134   1.000000
   29        4.101584   1.000000
   30        4.112099   1.000000
   31        4.171990   1.000000
   32        4.240737   1.000000
   33        4.274942   1.000000
   34        4.286327   1.000000
   35        4.324031   1.000000
   36        4.372318   1.000000
   37        4.391528   1.000000
   38        4.396698   1.000000
   39        4.452821   1.000000
   40        4.492451   1.000000
   41        4.584189   1.000000
   42        4.594792   1.000000
   43        4.619841   1.000000
   44        4.644733   1.000000
   45        4.678154   1.000000
   46        4.694189   1.000000
   47        4.710826   1.000000
   48        4.758418   1.000000
   49        4.798713   1.000000
   50        4.808654   1.000000
   51        4.835458   1.000000
   52        4.868780   1.000000
   53        4.898258   1.000000
   54        4.931481   1.000000
   55        4.951207   1.000000
   56        4.986609   1.000000
   57        5.022957   1.000000
   58        5.048249   1.000000
   59        5.070469   1.000000
   60        5.095407   1.000000
   61        5.184953   1.000000
   62        5.232189   1.000000
   63        5.246704   1.000000
   64        5.318590   1.000000
   65        5.333424   1.000000
   66        5.367719   1.000000
   67        5.382899   1.000000
   68        5.413239   1.000000
   69        5.487561   1.000000
   70        5.511270   1.000000
   71        5.530676   1.000000
   72        5.566147   1.000000
   73        5.649061   1.000000
   74        5.674927   1.000000
   75        5.683791   1.000000
   76        5.717923   1.000000
   77        5.766762   1.000000
   78        5.784511   1.000000
   79        5.819473   1.000000
   80        5.830422   1.000000
   81        5.867273   1.000000
   82        5.895591   1.000000
   83        5.937513   1.000000
   84        5.961697   1.000000
   85        5.984401   1.000000
   86        6.013721   1.000000
   87        6.103546   1.000000
   88        6.141711   1.000000
   89        6.166273   1.000000
   90        6.194923   1.000000
   91        6.219456   1.000000
   92        6.272906   1.000000
   93        6.318207   1.000000
   94        6.337148   1.000000
   95        6.399306   1.000000
   96        6.433800   1.000000
   97        6.528260   1.000000
   98        6.542304   1.000000
   99        6.577347   1.000000
  100        6.624856   1.000000
  101        6.660155   1.000000
  102        6.704020   1.000000
  103        6.740590   1.000000
  104        6.769128   1.000000
  105        6.799185   1.000000
  106        6.870292   1.000000
  107        6.887685   1.000000
  108        6.946072   1.000000
  109        6.965461   1.000000
  110        7.023866   1.000000
  111        7.068766   1.000000
  112        7.106463   1.000000
  113        7.138147   1.000000
  114        7.169015   1.000000
  115        7.198221   1.000000
  116        7.255539   1.000000
  117        7.289185   1.000000
  118        7.302854   1.000000
  119        7.346374   1.000000
  120        7.407302   1.000000
  121        7.462389   1.000000
  122        7.496236   1.000000
  123        7.521812   1.000000
  124        7.542652   1.000000
  125        7.569590   1.000000
  126        7.606153   1.000000
  127        7.623319   1.000000
  128        7.650635   1.000000
  129        7.688006   1.000000
  130        7.719577   1.000000
  131        7.753689   1.000000
  132        7.780006   1.000000
  133        7.822445   1.000000
  134        7.869470   1.000000
  135        7.955018   1.000000
  136        8.009493   1.000000
  137        8.040703   1.000000
  138        8.057717   1.000000
  139        8.102680   1.000000
  140        8.130861   1.000000
  141        8.164133   1.000000
  142        8.230229   1.000000
  143        8.278704   1.000000
  144        8.298440   1.000000
  145        8.398534   1.000000
  146        8.419701   1.000000
  147        8.457229   1.000000
  148        8.541718   1.000000
  149        8.604956   1.000000
  150        8.665842   1.000000
  151        8.683076   1.000000
  152        8.736864   1.000000
  153        8.761830   1.000000
  154        8.824930   1.000000
  155        8.896367   1.000000
  156        8.930600   1.000002
  157        8.963530   1.000008
  158        8.987126   1.000021
  159        9.020279   1.000077
  160        9.139414   1.003428
  161        9.177218   1.008335
  162        9.184618   1.009727
  163        9.226335   1.020340
  164        9.256210   1.029375
  165        9.289536   1.035430
  166        9.429529   0.745245
  167        9.540766   0.166665
  168        9.574060   0.055423
  169        9.599105   0.003699
  170        9.666196  -0.035124
  171        9.705052  -0.026210
  172        9.789553  -0.005807
  173       10.131830  -0.000000
  174       10.158827  -0.000000
  175       10.168009  -0.000000
  176       10.286465  -0.000000
  177       10.594044  -0.000000
  178       10.659382  -0.000000
  179       10.697904  -0.000000
  180       10.808914  -0.000000
  181       11.681500  -0.000000
  182       11.803411  -0.000000
  183       11.901407  -0.000000
  184       11.964144  -0.000000
  185       12.577225  -0.000000
  186       12.762631  -0.000000
  187       13.500717  -0.000000
  188       13.627744   0.000000
  189       13.702829   0.000000
  190       13.859129   0.000000
  191       14.634580   0.000000
  192       14.685819   0.000000
  193       14.752110   0.000000
  194       14.823540   0.000000
  195       14.882814   0.000000
  196       14.957931   0.000000
  197       15.765519   0.000000
  198       15.870796   0.000000
  199       16.399612   0.000000
  200       16.571235   0.000000
  201       16.793223   0.000000
  202       16.855424   0.000000
  203       17.000622   0.000000
  204       17.078743   0.000000
 
  0.3333333E+00  0.3333333E+00  0.3252607E-18  0.7407407E-01
    1        0.725053   1.000000
    2        1.610903   1.000000
    3        1.657120   1.000000
    4        2.379133   1.000000
    5        2.829946   1.000000
    6        2.886643   1.000000
    7        2.902341   1.000000
    8        2.983079   1.000000
    9        3.105714   1.000000
   10        3.136324   1.000000
   11        3.152384   1.000000
   12        3.193827   1.000000
   13        3.252154   1.000000
   14        3.271362   1.000000
   15        3.302189   1.000000
   16        3.351409   1.000000
   17        3.378170   1.000000
   18        3.462124   1.000000
   19        3.517102   1.000000
   20        3.611281   1.000000
   21        3.687440   1.000000
   22        3.717384   1.000000
   23        3.762459   1.000000
   24        3.801506   1.000000
   25        3.825856   1.000000
   26        3.861705   1.000000
   27        3.902235   1.000000
   28        3.929480   1.000000
   29        3.950969   1.000000
   30        3.961278   1.000000
   31        3.981137   1.000000
   32        4.005891   1.000000
   33        4.043719   1.000000
   34        4.099946   1.000000
   35        4.124898   1.000000
   36        4.182438   1.000000
   37        4.212068   1.000000
   38        4.270148   1.000000
   39        4.319609   1.000000
   40        4.334951   1.000000
   41        4.363506   1.000000
   42        4.401981   1.000000
   43        4.439856   1.000000
   44        4.551437   1.000000
   45        4.633189   1.000000
   46        4.689273   1.000000
   47        4.726291   1.000000
   48        4.742623   1.000000
   49        4.777797   1.000000
   50        4.844003   1.000000
   51        4.876133   1.000000
   52        4.935917   1.000000
   53        4.988450   1.000000
   54        5.018026   1.000000
   55        5.035337   1.000000
   56        5.115994   1.000000
   57        5.133602   1.000000
   58        5.174624   1.000000
   59        5.216329   1.000000
   60        5.230517   1.000000
   61        5.267735   1.000000
   62        5.314153   1.000000
   63        5.337505   1.000000
   64        5.366295   1.000000
   65        5.388357   1.000000
   66        5.453385   1.000000
   67        5.483554   1.000000
   68        5.504543   1.000000
   69        5.566447   1.000000
   70        5.595543   1.000000
   71        5.615694   1.000000
   72        5.655366   1.000000
   73        5.701527   1.000000
   74        5.725239   1.000000
   75        5.742954   1.000000
   76        5.778166   1.000000
   77        5.805648   1.000000
   78        5.856638   1.000000
   79        5.878477   1.000000
   80        5.923871   1.000000
   81        5.947225   1.000000
   82        5.961585   1.000000
   83        5.987215   1.000000
   84        6.013978   1.000000
   85        6.057033   1.000000
   86        6.087716   1.000000
   87        6.117277   1.000000
   88        6.133543   1.000000
   89        6.184168   1.000000
   90        6.224110   1.000000
   91        6.245349   1.000000
   92        6.267762   1.000000
   93        6.296310   1.000000
   94        6.328675   1.000000
   95        6.361079   1.000000
   96        6.398452   1.000000
   97        6.421696   1.000000
   98        6.449596   1.000000
   99        6.487585   1.000000
  100        6.508463   1.000000
  101        6.514854   1.000000
  102        6.555145   1.000000
  103        6.589806   1.000000
  104        6.627027   1.000000
  105        6.647993   1.000000
  106        6.664362   1.000000
  107        6.712328   1.000000
  108        6.781348   1.000000
  109        6.844682   1.000000
  110        6.892327   1.000000
  111        6.902051   1.000000
  112        6.919558   1.000000
  113        6.958410   1.000000
  114        6.997429   1.000000
  115        7.057561   1.000000
  116        7.225188   1.000000
  117        7.242143   1.000000
  118        7.304671   1.000000
  119        7.347951   1.000000
  120        7.450785   1.000000
  121        7.468245   1.000000
  122        7.485222   1.000000
  123        7.570365   1.000000
  124        7.632037   1.000000
  125        7.677513   1.000000
  126        7.717858   1.000000
  127        7.742300   1.000000
  128        7.769774   1.000000
  129        7.791371   1.000000
  130        7.853157   1.000000
  131        7.877369   1.000000
  132        7.921911   1.000000
  133        7.958175   1.000000
  134        7.983321   1.000000
  135        8.004302   1.000000
  136        8.057069   1.000000
  137        8.107496   1.000000
  138        8.154447   1.000000
  139        8.204597   1.000000
  140        8.257772   1.000000
  141        8.315245   1.000000
  142        8.334506   1.000000
  143        8.351321   1.000000
  144        8.401689   1.000000
  145        8.447238   1.000000
  146        8.474815   1.000000
  147        8.536387   1.000000
  148        8.598348   1.000000
  149        8.627425   1.000000
  150        8.671626   1.000000
  151        8.693135   1.000000
  152        8.726522   1.000000
  153        8.765081   1.000000
  154        8.803843   1.000000
  155        8.814752   1.000000
  156        8.851743   1.000000
  157        8.890472   1.000000
  158        8.936753   1.000002
  159        9.004499   1.000042
  160        9.031784   1.000119
  161        9.087689   1.000790
  162        9.118108   1.001937
  163        9.182716   1.009354
  164        9.228024   1.020850
  165        9.242962   1.025437
  166        9.322804   1.026751
  167        9.380009   0.935135
  168        9.401913   0.864026
  169        9.476072   0.495481
  170        9.532015   0.203844
  171        9.577097   0.047732
  172        9.609334  -0.010300
  173        9.626128  -0.025710
  174        9.681157  -0.032727
  175       10.550014  -0.000000
  176       10.962374  -0.000000
  177       11.024151  -0.000000
  178       11.269890  -0.000000
  179       11.724231  -0.000000
  180       11.783567  -0.000000
  181       11.924078  -0.000000
  182       12.034790  -0.000000
  183       12.200002  -0.000000
  184       12.217032  -0.000000
  185       12.590928  -0.000000
  186       12.710352  -0.000000
  187       13.080929  -0.000000
  188       13.586873   0.000000
  189       13.766936   0.000000
  190       13.907238   0.000000
  191       14.017361   0.000000
  192       14.167808   0.000000
  193       14.642067   0.000000
  194       14.740978   0.000000
  195       14.768609   0.000000
  196       14.894878   0.000000
  197       15.224187   0.000000
  198       15.389916   0.000000
  199       15.487529   0.000000
  200       15.512976   0.000000
  201       15.595858   0.000000
  202       15.664342   0.000000
  203       15.877257   0.000000
  204       16.526414   0.000000
 
 -0.3333333E+00  0.3333333E+00  0.0000000E+00  0.7407407E-01
    1        0.731494   1.000000
    2        1.598714   1.000000
    3        1.646386   1.000000
    4        2.403557   1.000000
    5        2.857460   1.000000
    6        2.894264   1.000000
    7        2.911980   1.000000
    8        2.989499   1.000000
    9        3.075382   1.000000
   10        3.129978   1.000000
   11        3.140370   1.000000
   12        3.196476   1.000000
   13        3.255298   1.000000
   14        3.268470   1.000000
   15        3.310070   1.000000
   16        3.365199   1.000000
   17        3.378568   1.000000
   18        3.452375   1.000000
   19        3.518194   1.000000
   20        3.611261   1.000000
   21        3.673171   1.000000
   22        3.703309   1.000000
   23        3.771323   1.000000
   24        3.790390   1.000000
   25        3.821097   1.000000
   26        3.828053   1.000000
   27        3.885934   1.000000
   28        3.898422   1.000000
   29        3.932391   1.000000
   30        3.950310   1.000000
   31        3.989719   1.000000
   32        3.998815   1.000000
   33        4.071851   1.000000
   34        4.108127   1.000000
   35        4.135936   1.000000
   36        4.196462   1.000000
   37        4.270681   1.000000
   38        4.287774   1.000000
   39        4.326911   1.000000
   40        4.350895   1.000000
   41        4.369672   1.000000
   42        4.421175   1.000000
   43        4.495433   1.000000
   44        4.521355   1.000000
   45        4.562892   1.000000
   46        4.623393   1.000000
   47        4.705301   1.000000
   48        4.783578   1.000000
   49        4.799397   1.000000
   50        4.819406   1.000000
   51        4.853796   1.000000
   52        4.864856   1.000000
   53        4.971419   1.000000
   54        5.024324   1.000000
   55        5.061698   1.000000
   56        5.112833   1.000000
   57        5.141355   1.000000
   58        5.156552   1.000000
   59        5.211171   1.000000
   60        5.255333   1.000000
   61        5.294922   1.000000
   62        5.316065   1.000000
   63        5.341718   1.000000
   64        5.367498   1.000000
   65        5.435318   1.000000
   66        5.461627   1.000000
   67        5.486935   1.000000
   68        5.538877   1.000000
   69        5.564662   1.000000
   70        5.581444   1.000000
   71        5.618513   1.000000
   72        5.645991   1.000000
   73        5.701252   1.000000
   74        5.733993   1.000000
   75        5.764668   1.000000
   76        5.784586   1.000000
   77        5.812430   1.000000