automatically generated by mexm         
           1
     8.023260    0.010758    0.001747
     0.010672    8.165741    0.022125
     0.001726    0.022084    8.125857
   Pt   Au
  17  15
Direct configuration=     1
   0.25030700  0.25136700  0.00087200
   0.00137200  0.24946200  0.25009900
   0.00242200  0.00321700  0.49777000
   0.25019600  0.00244000  0.75019000
   0.24830600  0.74949400  0.00347100
   0.99925700  0.75027400  0.24859500
   0.25093400  0.74812600  0.49885200
   0.24835300  0.49965300  0.75019600
   0.99813400  0.74823500  0.75250400
   0.49945400  0.00042500  0.99734100
   0.49959900  0.00036000  0.49954500
   0.74993000  0.25041000  0.49859100
   0.75039400  0.00210000  0.75127700
   0.50126800  0.49968900  0.00210300
   0.74894100  0.74881700  0.00078600
   0.75087500  0.74685400  0.49675900
   0.99360000  0.49461900  0.00355800
   0.99775800  0.00615700  0.00264400
   0.25500200  0.00229000  0.24981700
   0.25359500  0.25542800  0.50067800
   0.99893300  0.25363800  0.75229400
   0.25086200  0.49821200  0.25611200
   0.00011800  0.49397200  0.49996500
   0.74996600  0.25183500  0.99947200
   0.74437000  0.00425700  0.24179700
   0.49833700  0.25192500  0.25258800
   0.50219900  0.25648400  0.74703800
   0.74772300  0.49692400  0.25018700
   0.49982200  0.74847500  0.25234800
   0.50147000  0.49844700  0.49734700
   0.75225100  0.49443500  0.74949700
   0.50425000  0.74198200  0.74570700
automatically generated by mexm         
           1
     7.975915    0.011208    0.002344
     0.011135    8.116243    0.021863
     0.002332    0.021823    8.076329
   Pt   Au
  17  15
Direct configuration=     2
   0.25050025  0.25180556  0.00040455
   0.00132129  0.24938412  0.25028552
   0.00185773  0.00240532  0.49812271
   0.25034394  0.00152305  0.75017340
   0.24794768  0.74914148  0.00259301
   0.99923226  0.75030916  0.24873084
   0.24982776  0.74913094  0.49980940
   0.24804255  0.50058778  0.75139599
   0.99860079  0.74871010  0.75235083
   0.49897257 -0.00002237  0.99614490
   0.50008971 -0.00005558  0.50052059
   0.75045511  0.24890602  0.49845505
   0.75031797  0.00112407  0.75045448
   0.50033721  0.50014812  0.00168478
   0.74928673  0.74888686  0.00035875
   0.75190402  0.74826047  0.49710017
   0.99508507  0.49582108  0.00379188
   0.99838076  0.00517531  0.00210705
   0.25442859  0.00187098  0.24984674
   0.25302440  0.25426416  0.50121225
   0.99950054  0.25282068  0.75199624
   0.25011081  0.49877655  0.25468669
  -0.00005745  0.49503315  0.49990326
   0.74941286  0.25166826  0.99952469
   0.74486908  0.00360893  0.24306487
   0.49852045  0.25150767  0.25197774
   0.50170288  0.25542386  0.74763112
   0.74840510  0.49738914  0.25005706
   0.49987214  0.74886699  0.25186429
   0.50164528  0.49895145  0.49791203
   0.75232657  0.49554644  0.74957917
   0.50373335  0.74303324  0.74625993
automatically generated by mexm         
           1
     7.985973    0.011363    0.003136
     0.011294    8.127171    0.021223
     0.003136    0.021190    8.085475
   Pt   Au
  17  15
Direct configuration=     3
   0.25070285  0.25226540 -0.00008563
   0.00126812  0.24930247  0.25048110
   0.00126618  0.00155427  0.49849260
   0.25049909  0.00056155  0.75015596
   0.24757211  0.74877184  0.00167238
   0.99920632  0.75034602  0.24887329
   0.24866783  0.75018476  0.50081342
   0.24771692  0.50156800  0.75265434
   0.99909016  0.74920824  0.75219020
   0.49846796 -0.00049147  0.99489070
   0.50060413 -0.00049136  0.50154356
   0.75100576  0.24732897  0.49831243
   0.75023840  0.00010073  0.74959197
   0.49936136  0.50062958  0.00124632
   0.74964922  0.74896009 -0.00008928
   0.75298274  0.74973520  0.49745787
   0.99664193  0.49708146  0.00403703
   0.99903377  0.00414590  0.00154394
   0.25382745  0.00143164  0.24987797
   0.25242621  0.25304385  0.50177250
   0.00009563  0.25196362  0.75168395
   0.24932333  0.49936854  0.25319217
  -0.00024147  0.49614585  0.49983856
   0.74883296  0.25149347  0.99957998
   0.74539226  0.00292937  0.24439431
   0.49871285  0.25107005  0.25133781
   0.50118276  0.25431228  0.74825309
   0.74912019  0.49787683  0.24992075
   0.49992472  0.74927802  0.25135708
   0.50182897  0.49948040  0.49850451
   0.75240573  0.49671185  0.74966535
   0.50319159  0.74413558  0.74683978
automatically generated by mexm         
           1
     8.002150    0.011612    0.004410
     0.011549    8.144745    0.020193
     0.004429    0.020171    8.100186
   Pt   Au
  17  15
Direct configuration=     4
   0.25093494  0.25283221 -0.00080568
   0.00117221  0.24913614  0.25069899
   0.00038947  0.00020587  0.49908455
   0.25068915 -0.00098674  0.75012830
   0.24704659  0.74832097  0.00025136
   0.99917649  0.75046968  0.24907242
   0.24696825  0.75176387  0.50230960
   0.24723201  0.50298570  0.75437415
   0.99980891  0.74999901  0.75190588
   0.49776892 -0.00127349  0.99316243
   0.50129831 -0.00118313  0.50299295
   0.75179613  0.24511075  0.49819970
   0.75021521 -0.00146853  0.74837542
   0.49801399  0.50138810  0.00058425
   0.75021368  0.74913393 -0.00075023
   0.75452183  0.75200960  0.49806323
   0.99889416  0.49892115  0.00426089
   0.99992991  0.00262552  0.00069210
   0.25295934  0.00074980  0.24989515
   0.25157637  0.25136919  0.50249879
   0.00083009  0.25074434  0.75125515
   0.24833449  0.50021441  0.25126601
  -0.00042920  0.49777979  0.49982541
   0.74817683  0.25121182  0.99959763
   0.74622083  0.00182055  0.24623383
   0.49893625  0.25044211  0.25046293
   0.50047364  0.25275071  0.74909513
   0.75009440  0.49862490  0.24974450
   0.49994343  0.74990133  0.25064131
   0.50193748  0.50022290  0.49936176
   0.75252400  0.49834715  0.74981158
   0.50234988  0.74583340  0.74771050
automatically generated by mexm         
           1
     8.003019    0.011626    0.004479
     0.011563    8.145690    0.020138
     0.004498    0.020116    8.100976
   Pt   Au
  17  15
Direct configuration=     5
   0.25130784  0.25374246 -0.00196237
   0.00101813  0.24886902  0.25104901
  -0.00101882 -0.00195971  0.50003545
   0.25099447 -0.00347348  0.75008363
   0.24620272  0.74759665 -0.00203145
   0.99912855  0.75066832  0.24939233
   0.24423799  0.75430036  0.50471363
   0.24645281  0.50526294  0.75713722
   0.00096345  0.75126904  0.75144913
   0.49664638 -0.00252973  0.99038604
   0.50241312 -0.00229403  0.50532114
   0.75306577  0.24154796  0.49801818
   0.75017820 -0.00398912  0.74642088
   0.49584984  0.50260633 -0.00047903
   0.75112047  0.74941304 -0.00181209
   0.75699384  0.75566262  0.49903578
   0.00251174  0.50187588  0.00462042
   0.00136952  0.00018346 -0.00067669
   0.25156494 -0.00034530  0.24992280
   0.25021123  0.24867959  0.50366546
   0.00200993  0.24878595  0.75056603
   0.24674645  0.50157276  0.24817198
  -0.00073081  0.50040410  0.49980454
   0.74712293  0.25075948  0.99962604
   0.74755147  0.00003987  0.24918868
   0.49929525  0.24943343  0.24905735
   0.49933452  0.25024277  0.75044775
   0.75165925  0.49982633  0.24946131
   0.49997357  0.75090236  0.24949155
   0.50211163  0.50141555  0.50073899
   0.75271391  0.50097366  0.75004669
   0.50099769  0.74856046  0.74910964
automatically generated by mexm         
           1
     8.017340    0.011834    0.005299
     0.011773    8.162472    0.021445
     0.005326    0.021419    8.116384
   Pt   Au
  17  15
Direct configuration=     6
   0.25132785  0.25379126 -0.00202441
   0.00100986  0.24885470  0.25106779
  -0.00109434 -0.00207582  0.50008645
   0.25101085 -0.00360682  0.75008121
   0.24615749  0.74755779 -0.00215389
   0.99912598  0.75067897  0.24940949
   0.24409155  0.75443638  0.50484262
   0.24641099  0.50538506  0.75728545
   0.00102536  0.75133713  0.75142464
   0.49658620 -0.00259711  0.99023713
   0.50247288 -0.00235358  0.50544600
   0.75313386  0.24135693  0.49800841
   0.75017624 -0.00412429  0.74631603
   0.49573380  0.50267165 -0.00053603
   0.75116910  0.74942799 -0.00186905
   0.75712639  0.75585849  0.49908795
   0.00270573  0.50203431  0.00463969
   0.00144674  0.00005250 -0.00075014
   0.25149017 -0.00040401  0.24992429
   0.25013802  0.24853539  0.50372803
   0.00207321  0.24868094  0.75052904
   0.24666131  0.50164557  0.24800604
  -0.00074698  0.50054481  0.49980344
   0.74706642  0.25073523  0.99962757
   0.74762281 -0.00005559  0.24934714
   0.49931452  0.24937934  0.24898195
   0.49927343  0.25010831  0.75052029
   0.75174317  0.49989074  0.24944611
   0.49997519  0.75095602  0.24942988
   0.50212095  0.50147951  0.50081287
   0.75272408  0.50111449  0.75005931
   0.50092516  0.74870669  0.74918472
automatically generated by mexm         
           1
     8.017409    0.011835    0.005303
     0.011774    8.162553    0.021451
     0.005330    0.021425    8.116458
   Pt   Au
  17  15
Direct configuration=     7
   0.25105811  0.25346584 -0.00201684
   0.00098268  0.24877810  0.25083742
  -0.00085366 -0.00208095  0.50019939
   0.25083077 -0.00377724  0.75001613
   0.24621537  0.74799184 -0.00210824
   0.99921076  0.75083656  0.24929223
   0.24415201  0.75458170  0.50484424
   0.24633411  0.50528022  0.75678443
   0.00089330  0.75137542  0.75140483
   0.49665789 -0.00284468  0.99055798
   0.50218017 -0.00252328  0.50525042
   0.75315331  0.24157476  0.49823308
   0.75045344 -0.00424988  0.74670729
   0.49605268  0.50284096 -0.00062903
   0.75134199  0.74959066 -0.00185486
   0.75694201  0.75583357  0.49930311
   0.00230644  0.50195542  0.00430703
   0.00125527  0.00021377 -0.00077429
   0.25155372 -0.00047682  0.24981881
   0.25022947  0.24872696  0.50346675
   0.00170458  0.24883856  0.75074004
   0.24716642  0.50160368  0.24889789
  -0.00052549  0.50035763  0.50003511
   0.74756081  0.25067052  0.99942322
   0.74771089 -0.00023864  0.24872425
   0.49913266  0.24931447  0.24915895
   0.49942860  0.25038810  0.75024483
   0.75151378  0.49996594  0.24944224
   0.49981904  0.75100796  0.24951889
   0.50180928  0.50152301  0.50089654
   0.75280094  0.50098861  0.75018842
   0.50092665  0.74849023  0.74908974
automatically generated by mexm         
           1
     8.014061    0.012067    0.006060
     0.012007    8.161612    0.022721
     0.006095    0.022691    8.113757
   Pt   Au
  17  15
Direct configuration=     8
   0.25105682  0.25346428 -0.00201681
   0.00098255  0.24877773  0.25083631
  -0.00085251 -0.00208098  0.50019993
   0.25082991 -0.00377806  0.75001582
   0.24621565  0.74799392 -0.00210802
   0.99921117  0.75083732  0.24929167
   0.24415230  0.75458240  0.50484425
   0.24633374  0.50527972  0.75678203
   0.00089267  0.75137560  0.75140473
   0.49665823 -0.00284586  0.99055952
   0.50217877 -0.00252409  0.50524948
   0.75315341  0.24157580  0.49823416
   0.75045477 -0.00425049  0.74670916
   0.49605421  0.50284177 -0.00062947
   0.75134282  0.74959144 -0.00185479
   0.75694113  0.75583345  0.49930414
   0.00230452  0.50195504  0.00430544
   0.00125435  0.00021454 -0.00077441
   0.25155402 -0.00047717  0.24981831
   0.25022991  0.24872788  0.50346550
   0.00170281  0.24883932  0.75074105
   0.24716885  0.50160348  0.24890217
  -0.00052443  0.50035673  0.50003622
   0.74756318  0.25067021  0.99942224
   0.74771131 -0.00023952  0.24872126
   0.49913179  0.24931415  0.24915980
   0.49942935  0.25038945  0.75024351
   0.75151268  0.49996630  0.24944222
   0.49981829  0.75100821  0.24951932
   0.50180778  0.50152322  0.50089695
   0.75280131  0.50098800  0.75018904
   0.50092665  0.74848919  0.74908929
automatically generated by mexm         
           1
     8.008324    0.012463    0.007356
     0.012406    8.160002    0.024895
     0.007404    0.024860    8.109130
   Pt   Au
  17  15
Direct configuration=     9
   0.25083277  0.25325299 -0.00209589
   0.00093797  0.24872201  0.25063324
  -0.00072897 -0.00217894  0.50035443
   0.25069427 -0.00406021  0.74994563
   0.24619254  0.74830073 -0.00219908
   0.99931012  0.75094411  0.24920542
   0.24402612  0.75490322  0.50499202
   0.24619715  0.50531160  0.75651873
   0.00084001  0.75146526  0.75136523
   0.49666232 -0.00314233  0.99065895
   0.50199512 -0.00275078  0.50520786
   0.75325368  0.24152290  0.49840251
   0.75067646 -0.00452903  0.74695514
   0.49618357  0.50306158 -0.00078154
   0.75157333  0.74975082 -0.00190712
   0.75691570  0.75604564  0.49956817
   0.00223005  0.50207843  0.00406082
   0.00118096  0.00024574 -0.00088037
   0.25152734 -0.00058575  0.24970896
   0.25021270  0.24872009  0.50329481
   0.00144749  0.24888525  0.75088812
   0.24754016  0.50164924  0.24953154
  -0.00036291  0.50031619  0.50023444
   0.74793746  0.25058642  0.99924777
   0.74785483 -0.00048990  0.24831548
   0.49902076  0.24918259  0.24922061
   0.49950339  0.25047523  0.75007467
   0.75138420  0.50011205  0.24945089
   0.49967297  0.75109797  0.24955075
   0.50154879  0.50165428  0.50107293
   0.75287332  0.50102455  0.75031938
   0.50086432  0.74843105  0.74908549
automatically generated by mexm         
           1
     8.008776    0.012431    0.007254
     0.012375    8.160129    0.024724
     0.007301    0.024689    8.109494
   Pt   Au
  17  15
Direct configuration=    10
   0.25044882  0.25289104 -0.00223131
   0.00086161  0.24862661  0.25028527
  -0.00051728 -0.00234682  0.50061920
   0.25046185 -0.00454358  0.74982545
   0.24615295  0.74882641 -0.00235521
   0.99947971  0.75112708  0.24905756
   0.24380984  0.75545284  0.50524518
   0.24596309  0.50536630  0.75606754
   0.00074977  0.75161886  0.75129752
   0.49666933 -0.00365028  0.99082942
   0.50168041 -0.00313914  0.50513663
   0.75342551  0.24143221  0.49869099
   0.75105636 -0.00500634  0.74737671
   0.49640528  0.50343821 -0.00104220
   0.75196838  0.75002390 -0.00199687
   0.75687206  0.75640911  0.50002058
   0.00210245  0.50228990  0.00364161
   0.00105520  0.00029923 -0.00106195
   0.25148165 -0.00077176  0.24952162
   0.25018323  0.24870679  0.50300232
   0.00100991  0.24896392  0.75114017
   0.24817642  0.50172745  0.25060999
  -0.00008613  0.50024667  0.50057410
   0.74857894  0.25044290  0.99894876
   0.74810088 -0.00091877  0.24762018
   0.49883047  0.24895716  0.24932488
   0.49963031  0.25062224  0.74978532
   0.75116399  0.50036177  0.24946572
   0.49942390  0.75125174  0.24960461
   0.50110490  0.50187878  0.50137450
   0.75299671  0.50108713  0.75054272
   0.50075749  0.74833145  0.74907902
automatically generated by mexm         
           1
     8.009560    0.012428    0.007140
     0.012365    8.164278    0.025276
     0.007184    0.025246    8.110814
   Pt   Au
  17  15
Direct configuration=    11
   0.25047907  0.25291954 -0.00222066
   0.00086762  0.24863411  0.25031268
  -0.00053396 -0.00233359  0.50059835
   0.25048016 -0.00450552  0.74983491
   0.24615607  0.74878501 -0.00234290
   0.99946635  0.75111267  0.24906922
   0.24382689  0.75540957  0.50522525
   0.24598152  0.50536199  0.75610308
   0.00075687  0.75160677  0.75130285
   0.49666878 -0.00361028  0.99081599
   0.50170520 -0.00310856  0.50514223
   0.75341197  0.24143936  0.49866827
   0.75102643 -0.00496875  0.74734350
   0.49638781  0.50340855 -0.00102166
   0.75193726  0.75000240 -0.00198979
   0.75687550  0.75638050  0.49998495
   0.00211250  0.50227324  0.00367463
   0.00106511  0.00029501 -0.00104765
   0.25148524 -0.00075712  0.24953637
   0.25018555  0.24870783  0.50302535
   0.00104438  0.24895773  0.75112031
   0.24812631  0.50172131  0.25052505
  -0.00010793  0.50025215  0.50054734
   0.74852840  0.25045420  0.99897232
   0.74808149 -0.00088502  0.24767494
   0.49884546  0.24897491  0.24931666
   0.49962031  0.25061066  0.74980811
   0.75118134  0.50034210  0.24946455
   0.49944352  0.75123964  0.24960037
   0.50113987  0.50186111  0.50135074
   0.75298699  0.50108221  0.75052513
   0.50076590  0.74833930  0.74907952
automatically generated by mexm         
           1
     8.010749    0.012422    0.006966
     0.012350    8.170570    0.026113
     0.007006    0.026091    8.112814
   Pt   Au
  17  15
Direct configuration=    12
   0.25040659  0.25291697 -0.00234080
   0.00081292  0.24870069  0.25019368
  -0.00054723 -0.00228644  0.50065779
   0.25044641 -0.00457606  0.74978337
   0.24608434  0.74881176 -0.00240143
   0.99959642  0.75102098  0.24906608
   0.24363932  0.75571570  0.50534002
   0.24586597  0.50538284  0.75607506
   0.00073354  0.75159576  0.75129109
   0.49667401 -0.00375098  0.99073019
   0.50170146 -0.00324492  0.50515417
   0.75349296  0.24118762  0.49866958
   0.75101977 -0.00517823  0.74746067
   0.49631787  0.50350954 -0.00111859
   0.75212316  0.75004968 -0.00202876
   0.75689753  0.75659091  0.50015329
   0.00242179  0.50249890  0.00370427
   0.00114392  0.00028691 -0.00116274
   0.25136250 -0.00078262  0.24941148
   0.25005157  0.24849765  0.50298070
   0.00098240  0.24893475  0.75110060
   0.24829024  0.50184333  0.25071234
  -0.00011680  0.50028889  0.50059378
   0.74859008  0.25042083  0.99892532
   0.74817604 -0.00102545  0.24755486
   0.49895553  0.24881146  0.24921690
   0.49963381  0.25048153  0.74979320
   0.75110494  0.50047443  0.24956489
   0.49938430  0.75126853  0.24963481
   0.50106226  0.50203361  0.50158010
   0.75296719  0.50121543  0.75056576
   0.50072319  0.74830898  0.74913829
automatically generated by mexm         
           1
     8.007752    0.012451    0.006821
     0.012374    8.170793    0.026570
     0.006858    0.026555    8.110166
   Pt   Au
  17  15
Direct configuration=    13
   0.25029669  0.25291309 -0.00252295
   0.00072999  0.24880162  0.25001325
  -0.00056736 -0.00221498  0.50074791
   0.25039523 -0.00468295  0.74970523
   0.24597558  0.74885231 -0.00249016
   0.99979364  0.75088200  0.24906134
   0.24335492  0.75617969  0.50551401
   0.24569076  0.50541446  0.75603257
   0.00069816  0.75157908  0.75127325
   0.49668193 -0.00396423  0.99060013
   0.50169579 -0.00345159  0.50517230
   0.75361575  0.24080607  0.49867160
   0.75100966 -0.00549574  0.74763835
   0.49621180  0.50366262 -0.00126556
   0.75240503  0.75012134 -0.00208783
   0.75693093  0.75690982  0.50040850
   0.00289076  0.50284093  0.00374920
   0.00126343  0.00027464 -0.00133724
   0.25117638 -0.00082126  0.24922211
   0.24984842  0.24817910  0.50291301
   0.00088843  0.24889991  0.75107073
   0.24853880  0.50202824  0.25099630
  -0.00013024  0.50034458  0.50066418
   0.74868360  0.25037027  0.99885406
   0.74831941 -0.00123828  0.24737283
   0.49912243  0.24856374  0.24906567
   0.49965427  0.25028581  0.74977061
   0.75098911  0.50067497  0.24971702
   0.49929451  0.75131232  0.24968702
   0.50094459  0.50229505  0.50192783
   0.75293718  0.50141735  0.75062733
   0.50065842  0.74826303  0.74922739
automatically generated by mexm         
           1
     8.003873    0.012490    0.006632
     0.012406    8.171082    0.027163
     0.006666    0.027155    8.106736
   Pt   Au
  17  15
Direct configuration=    14
   0.25028449  0.25296478 -0.00261061
   0.00068358  0.24890892  0.24992610
  -0.00062148 -0.00214473  0.50075810
   0.25040186 -0.00468606  0.74967385
   0.24593295  0.74883186 -0.00252481
   0.99988454  0.75077837  0.24909684
   0.24318694  0.75642199  0.50559416
   0.24560989  0.50541351  0.75602709
   0.00068539  0.75154730  0.75126472
   0.49667509 -0.00405025  0.99050122
   0.50172510 -0.00353535  0.50517560
   0.75365576  0.24057442  0.49863192
   0.75095246 -0.00562817  0.74771089
   0.49612468  0.50369426 -0.00131125
   0.75254403  0.75011594 -0.00208723
   0.75697429  0.75707004  0.50049954
   0.00317318  0.50300438  0.00384675
   0.00135584  0.00027510 -0.00142918
   0.25107479 -0.00080394  0.24910126
   0.24975660  0.24799098  0.50287447
   0.00085268  0.24889315  0.75102962
   0.24866647  0.50210137  0.25109405
  -0.00017952  0.50037219  0.50066537
   0.74868017  0.25039670  0.99883798
   0.74839296 -0.00134152  0.24732284
   0.49923771  0.24844338  0.24896879
   0.49965736  0.25015291  0.74976797
   0.75093137  0.50076874  0.24980956
   0.49926876  0.75132773  0.24971396
   0.50090426  0.50239710  0.50211408
   0.75291680  0.50150568  0.75066010
   0.50060901  0.74824224  0.74929625
automatically generated by mexm         
           1
     8.004306    0.012485    0.006653
     0.012402    8.171050    0.027097
     0.006688    0.027088    8.107119
   Pt   Au
  17  15
Direct configuration=    15
   0.25026868  0.25303172 -0.00272416
   0.00062347  0.24904785  0.24981322
  -0.00069158 -0.00205378  0.50077129
   0.25041045 -0.00469008  0.74963321
   0.24587772  0.74880539 -0.00256969
   0.00000228  0.75064420  0.24914283
   0.24296935  0.75673572  0.50569796
   0.24550513  0.50541228  0.75601999
   0.00066885  0.75150615  0.75125367
   0.49666622 -0.00416162  0.99037311
   0.50176307 -0.00364381  0.50517989
   0.75370759  0.24027449  0.49858055
   0.75087837 -0.00579964  0.74780485
   0.49601182  0.50373522 -0.00137045
   0.75272406  0.75010894 -0.00208645
   0.75703045  0.75727747  0.50061745
   0.00353899  0.50321600  0.00397309
   0.00147554  0.00027570 -0.00154826
   0.25094320 -0.00078150  0.24894473
   0.24963767  0.24774741  0.50282456
   0.00080638  0.24888440  0.75097638
   0.24883185  0.50219605  0.25122067
  -0.00024335  0.50040794  0.50066691
   0.74867572  0.25043091  0.99881714
   0.74848823 -0.00147518  0.24725811
   0.49938703  0.24828756  0.24884333
   0.49966136  0.24998083  0.74976456
   0.75085657  0.50089014  0.24992942
   0.49923541  0.75134768  0.24974885
   0.50085202  0.50252921  0.50235530
   0.75289040  0.50162006  0.75070253
   0.50054502  0.74821531  0.74938543
automatically generated by mexm         
           1
     8.006202    0.012467    0.006745
     0.012387    8.170909    0.026807
     0.006781    0.026795    8.108796
   Pt   Au
  17  15
Direct configuration=    16
   0.25027045  0.25302425 -0.00271149
   0.00063018  0.24903235  0.24982582
  -0.00068376 -0.00206393  0.50076982
   0.25040949 -0.00468963  0.74963775
   0.24588389  0.74880835 -0.00256468
  -0.00001087  0.75065917  0.24913769
   0.24299365  0.75670071  0.50568637
   0.24551683  0.50541242  0.75602078
   0.00067070  0.75151074  0.75125490
   0.49666721 -0.00414920  0.99038741
   0.50175883 -0.00363171  0.50517941
   0.75370180  0.24030796  0.49858629
   0.75088664 -0.00578050  0.74779435
   0.49602442  0.50373065 -0.00136384
   0.75270396  0.75010972 -0.00208654
   0.75702418  0.75725432  0.50060428
   0.00349815  0.50319238  0.00395898
   0.00146218  0.00027563 -0.00153496
   0.25095790 -0.00078401  0.24896221
   0.24965095  0.24777459  0.50283013
   0.00081155  0.24888537  0.75098232
   0.24881338  0.50218548  0.25120653
  -0.00023622  0.50040395  0.50066674
   0.74867621  0.25042710  0.99881946
   0.74847759 -0.00146027  0.24726533
   0.49937036  0.24830494  0.24885734
   0.49966092  0.25000004  0.74976494
   0.75086492  0.50087659  0.24991604
   0.49923914  0.75134546  0.24974495
   0.50085785  0.50251447  0.50232837
   0.75289335  0.50160730  0.75069780
   0.50055216  0.74821831  0.74937548
automatically generated by mexm         
           1
     8.004678    0.012482    0.006672
     0.012399    8.171022    0.027040
     0.006706    0.027030    8.107448
   Pt   Au
  17  15
Direct configuration=    17
   0.25027818  0.25299152 -0.00265595
   0.00065958  0.24896442  0.24988104
  -0.00064947 -0.00210839  0.50076337
   0.25040529 -0.00468767  0.74965762
   0.24591090  0.74882129 -0.00254273
  -0.00006845  0.75072477  0.24911519
   0.24310007  0.75654734  0.50563562
   0.24556806  0.50541302  0.75602425
   0.00067879  0.75153086  0.75126031
   0.49667155 -0.00409475  0.99045006
   0.50174026 -0.00357869  0.50517731
   0.75367645  0.24045459  0.49861140
   0.75092288 -0.00569667  0.74774840
   0.49607962  0.50371062 -0.00133488
   0.75261590  0.75011314 -0.00208692
   0.75699671  0.75715291  0.50054662
   0.00331923  0.50308893  0.00389720
   0.00140363  0.00027534 -0.00147672
   0.25102226 -0.00079498  0.24903876
   0.24970912  0.24789367  0.50285453
   0.00083420  0.24888965  0.75100836
   0.24873250  0.50213920  0.25114461
  -0.00020500  0.50038647  0.50066599
   0.74867839  0.25041037  0.99882966
   0.74843100 -0.00139492  0.24729699
   0.49929733  0.24838112  0.24891869
   0.49965896  0.25008416  0.74976660
   0.75090150  0.50081725  0.24985742
   0.49925545  0.75133570  0.24972789
   0.50088340  0.50244989  0.50221040
   0.75290626  0.50155138  0.75067705
   0.50058346  0.74823148  0.74933186
automatically generated by mexm         
           1
     8.004076    0.012527    0.006613
     0.012441    8.172517    0.027271
     0.006647    0.027267    8.106895
   Pt   Au
  17  15
Direct configuration=    18
   0.25027197  0.25301782 -0.00270057
   0.00063596  0.24901901  0.24983668
  -0.00067702 -0.00207266  0.50076856
   0.25040867 -0.00468925  0.74964165
   0.24588920  0.74881089 -0.00256036
  -0.00002219  0.75067206  0.24913326
   0.24301457  0.75667059  0.50567640
   0.24552690  0.50541253  0.75602146
   0.00067229  0.75151469  0.75125596
   0.49666807 -0.00413850  0.99039973
   0.50175518 -0.00362130  0.50517900
   0.75369682  0.24033675  0.49859122
   0.75089377 -0.00576403  0.74778532
   0.49603528  0.50372672 -0.00135814
   0.75268665  0.75011039 -0.00208661
   0.75701878  0.75723441  0.50059295
   0.00346297  0.50317207  0.00394684
   0.00145067  0.00027557 -0.00152352
   0.25097055 -0.00078617  0.24897726
   0.24966239  0.24779798  0.50283492
   0.00081600  0.24888621  0.75098744
   0.24879748  0.50217639  0.25119436
  -0.00023008  0.50040052  0.50066659
   0.74867664  0.25042381  0.99882147
   0.74846843 -0.00144743  0.24727155
   0.49935600  0.24831990  0.24886940
   0.49966053  0.25001656  0.74976526
   0.75087211  0.50086494  0.24990452
   0.49924234  0.75134354  0.24974160
   0.50086288  0.50250179  0.50230518
   0.75289589  0.50159631  0.75069372
   0.50055832  0.74822090  0.74936690
automatically generated by mexm         
           1
     8.002269    0.012662    0.006439
     0.012568    8.177002    0.027967
     0.006470    0.027978    8.105235
   Pt   Au
  17  15
Direct configuration=    19
   0.25032106  0.25308075 -0.00269890
   0.00062422  0.24911273  0.24981222
  -0.00073089 -0.00201486  0.50072096
   0.25044286 -0.00462516  0.74964739
   0.24591893  0.74878793 -0.00254473
  -0.00002004  0.75063503  0.24918911
   0.24297046  0.75671559  0.50567047
   0.24552744  0.50537659  0.75599256
   0.00066824  0.75148156  0.75125429
   0.49665827 -0.00413625  0.99037498
   0.50177867 -0.00361536  0.50514812
   0.75365857  0.24028085  0.49854254
   0.75083508 -0.00573898  0.74780210
   0.49600655  0.50366815 -0.00132244
   0.75270655  0.75005560 -0.00203326
   0.75704644  0.75723799  0.50056131
   0.00351384  0.50315708  0.00404789
   0.00148368  0.00029856 -0.00154031
   0.25095642 -0.00073238  0.24891526
   0.24968431  0.24775499  0.50279328
   0.00079130  0.24891952  0.75096109
   0.24886869  0.50213888  0.25121820
  -0.00028041  0.50038392  0.50063348
   0.74864901  0.25050376  0.99883344
   0.74849342 -0.00147225  0.24727194
   0.49939063  0.24831484  0.24884612
   0.49966111  0.24998193  0.74975176
   0.75083954  0.50086602  0.24994056
   0.49925770  0.75134673  0.24975135
   0.50085871  0.50245919  0.50234113
   0.75289529  0.50157160  0.75071619
   0.50052235  0.74820845  0.74940188
automatically generated by mexm         
           1
     7.998654    0.012932    0.006091
     0.012822    8.185970    0.029358
     0.006115    0.029400    8.101915
   Pt   Au
  17  15
Direct configuration=    20
   0.25046836  0.25326951 -0.00269391
   0.00058901  0.24939385  0.24973882
  -0.00089254 -0.00184150  0.50057817
   0.25054543 -0.00443294  0.74966461
   0.24600812  0.74871905 -0.00249782
  -0.00001359  0.75052398  0.24935666
   0.24283810  0.75685058  0.50565265
   0.24552906  0.50526877  0.75590586
   0.00065611  0.75138220  0.75124928
   0.49662888 -0.00412949  0.99030074
   0.50184915 -0.00359755  0.50505547
   0.75354383  0.24011318  0.49839649
   0.75065902 -0.00566381  0.74785246
   0.49592038  0.50349249 -0.00121531
   0.75276627  0.74989123 -0.00187318
   0.75712941  0.75724875  0.50046638
   0.00366646  0.50311212  0.00435107
   0.00158273  0.00036750 -0.00159072
   0.25091404 -0.00057103  0.24872925
   0.24975007  0.24762605  0.50266835
   0.00071717  0.24901945  0.75088204
   0.24908233  0.50202637  0.25128973
  -0.00043142  0.50033412  0.50053415
   0.74856609  0.25074357  0.99886935
   0.74856840 -0.00154667  0.24727310
   0.49949453  0.24829966  0.24877631
   0.49966285  0.24987804  0.74971127
   0.75074181  0.50086925  0.25004869
   0.49930376  0.75135628  0.24978059
   0.50084623  0.50233141  0.50244902
   0.75289351  0.50149746  0.75078359
   0.50041446  0.74817111  0.74950683
automatically generated by mexm         
           1
     8.000685    0.012780    0.006286
     0.012680    8.180930    0.028576
     0.006314    0.028601    8.103781
   Pt   Au
  17  15
Direct configuration=    21
   0.25076301  0.25364681 -0.00268394
   0.00051855  0.24995581  0.24959194
  -0.00121592 -0.00149492  0.50029248
   0.25075062 -0.00404870  0.74969903
   0.24618654  0.74858135 -0.00240398
  -0.00000067  0.75030197  0.24969184
   0.24257334  0.75712041  0.50561699
   0.24553230  0.50505326  0.75573244
   0.00063184  0.75118359  0.75123927
   0.49657007 -0.00411596  0.99015223
   0.50199015 -0.00356195  0.50487015
   0.75331430  0.23977805  0.49810436
   0.75030680 -0.00551357  0.74795317
   0.49574800  0.50314134 -0.00100098
   0.75288574  0.74956265 -0.00155293
   0.75729539  0.75727028  0.50027649
   0.00397179  0.50302218  0.00495756
   0.00178086  0.00050531 -0.00169155
   0.25082923 -0.00024849  0.24835713
   0.24988163  0.24736832  0.50241846
   0.00056889  0.24921920  0.75072388
   0.24950971  0.50180145  0.25143286
  -0.00073350  0.50023462  0.50033544
   0.74840022  0.25122293  0.99894113
   0.74871838 -0.00169543  0.24727544
   0.49970237  0.24826932  0.24863665
   0.49966632  0.24967040  0.74963030
   0.75054631  0.50087570  0.25026499
   0.49939590  0.75137537  0.24983909
   0.50082126  0.50207598  0.50266484