 vasp.5.4.1 05Feb16 (build Jan 29 2020 16:04:39) complex                        
  
 executed on           IFC91_ompi date 2020.06.15  03:12:07
 running on  160 total cores
 distrk:  each k-point on   20 cores,    8 groups
 distr:  one band on NCORES_PER_BAND=   5 cores,    4 groups


--------------------------------------------------------------------------------------------------------


 INCAR:
 POTCAR:    PAW_PBE Hf 20Jan2003                  
 POTCAR:    PAW_PBE Nb_sv 25May2007               
 POTCAR:    PAW_PBE Ta 17Jan2003                  
 POTCAR:    PAW_PBE Zr_sv 04Jan2005               

 ----------------------------------------------------------------------------- 
|                                                                             |
|           W    W    AA    RRRRR   N    N  II  N    N   GGGG   !!!           |
|           W    W   A  A   R    R  NN   N  II  NN   N  G    G  !!!           |
|           W    W  A    A  R    R  N N  N  II  N N  N  G       !!!           |
|           W WW W  AAAAAA  RRRRR   N  N N  II  N  N N  G  GGG   !            |
|           WW  WW  A    A  R   R   N   NN  II  N   NN  G    G                |
|           W    W  A    A  R    R  N    N  II  N    N   GGGG   !!!           |
|                                                                             |
|      For optimal performance we recommend to set                            |
|        NCORE= 4 - approx SQRT( number of cores)                             |
|      NCORE specifies how many cores store one orbital (NPAR=cpu/NCORE).     |
|      This setting can  greatly improve the performance of VASP for DFT.     |
|      The default, NPAR=number of cores might be grossly inefficient         |
|      on modern multi-core architectures or massively parallel machines.     |
|      Do your own testing !!!!                                               |
|      Unfortunately you need to use the default for GW and RPA calculations. |
|      (for HF NCORE is supported but not extensively tested yet)             |
|                                                                             |
 ----------------------------------------------------------------------------- 


 ----------------------------------------------------------------------------- 
|                                                                             |
|           W    W    AA    RRRRR   N    N  II  N    N   GGGG   !!!           |
|           W    W   A  A   R    R  NN   N  II  NN   N  G    G  !!!           |
|           W    W  A    A  R    R  N N  N  II  N N  N  G       !!!           |
|           W WW W  AAAAAA  RRRRR   N  N N  II  N  N N  G  GGG   !            |
|           WW  WW  A    A  R   R   N   NN  II  N   NN  G    G                |
|           W    W  A    A  R    R  N    N  II  N    N   GGGG   !!!           |
|                                                                             |
|      You have enabled k-point parallelism (KPAR>1).                         |
|      This developmental code was originally  written by Paul Kent at ORNL,  |
|      and carefully double checked in Vienna.                                |
|      GW as well as linear response parallelism added by Martijn Marsman     |
|      and Georg Kresse.                                                      |
|      Carefully verify results versus KPAR=1.                                |
|      Report problems to Paul Kent and Vienna.                               |
|                                                                             |
 ----------------------------------------------------------------------------- 

 POTCAR:    PAW_PBE Hf 20Jan2003                  
   VRHFIN =Hf: 6s5d                                                             
   LEXCH  = PE                                                                  
   EATOM  =    75.9011 eV,    5.5786 Ry                                         
                                                                                
   TITEL  = PAW_PBE Hf 20Jan2003                                                
   LULTRA =        F    use ultrasoft PP ?                                      
   IUNSCR =        1    unscreen: 0-lin 1-nonlin 2-no                           
   RPACOR =    2.500    partial core radius                                     
   POMASS =  178.490; ZVAL   =    4.000    mass and valenz                      
   RCORE  =    3.000    outmost cutoff radius                                   
   RWIGS  =    3.050; RWIGS  =    1.614    wigner-seitz radius (au A)           
   ENMAX  =  220.334; ENMIN  =  165.250 eV                                      
   RCLOC  =    2.212    cutoff for local pot                                    
   LCOR   =        T    correct aug charges                                     
   LPAW   =        T    paw PP                                                  
   EAUG   =  335.116                                                            
   DEXC   =    0.000                                                            
   RMAX   =    3.077    core radius for proj-oper                               
   RAUG   =    1.300    factor for augmentation sphere                          
   RDEP   =    3.047    radius for radial grids                                 
   RDEPT  =    2.344    core radius for aug-charge                              
                                                                                
   Atomic configuration                                                         
   16 entries                                                                   
     n  l   j            E        occ.                                          
     1  0  0.50    -65259.4397   2.0000                                         
     2  0  0.50    -11157.9882   2.0000                                         
     2  1  1.50     -9795.2113   6.0000                                         
     3  0  0.50     -2541.4058   2.0000                                         
     3  1  1.50     -2134.4770   6.0000                                         
     3  2  2.50     -1653.5418  10.0000                                         
     4  0  0.50      -510.9575   2.0000                                         
     4  1  1.50      -377.5023   6.0000                                         
     4  2  2.50      -205.2085  10.0000                                         
     4  3  3.50       -15.4905  14.0000                                         
     5  0  0.50       -65.6020   2.0000                                         
     5  1  1.50       -34.2798   6.0000                                         
     5  2  2.50        -1.9877   3.0000                                         
     6  0  0.50        -4.7357   1.0000                                         
     6  1  1.50        -1.3606   0.0000                                         
     5  3  2.50        -1.3606   0.0000                                         
   Description                                                                  
     l       E           TYP  RCUT    TYP  RCUT                                 
     2     -1.9876627     23  2.500                                             
     2      0.0744703     23  2.500                                             
     0     -4.7356889     23  2.600                                             
     0      3.2364747     23  2.600                                             
     1     -1.3605826     23  3.000                                             
     1     27.2116520     23  3.000                                             
  local pseudopotential read in
  partial core-charges read in
  partial kinetic energy density read in
  atomic valenz-charges read in
  non local Contribution for L=           2  read in
    real space projection operators read in
  non local Contribution for L=           2  read in
    real space projection operators read in
  non local Contribution for L=           0  read in
    real space projection operators read in
  non local Contribution for L=           0  read in
    real space projection operators read in
  non local Contribution for L=           1  read in
    real space projection operators read in
  non local Contribution for L=           1  read in
    real space projection operators read in
    PAW grid and wavefunctions read in
 
   number of l-projection  operators is LMAX  =           6
   number of lm-projection operators is LMMAX =          18
 
 POTCAR:    PAW_PBE Nb_sv 25May2007               
   VRHFIN =Nb: 4p5s4d                                                           
   LEXCH  = PE                                                                  
   EATOM  =  1555.1913 eV,  114.3033 Ry                                         
                                                                                
   TITEL  = PAW_PBE Nb_sv 25May2007                                             
   LULTRA =        F    use ultrasoft PP ?                                      
   IUNSCR =        1    unscreen: 0-lin 1-nonlin 2-no                           
   RPACOR =    1.800    partial core radius                                     
   POMASS =   92.910; ZVAL   =   13.000    mass and valenz                      
   RCORE  =    2.400    outmost cutoff radius                                   
   RWIGS  =    2.400; RWIGS  =    1.270    wigner-seitz radius (au A)           
   ENMAX  =  293.235; ENMIN  =  219.927 eV                                      
   ICORE  =        3    local potential                                         
   LCOR   =        T    correct aug charges                                     
   LPAW   =        T    paw PP                                                  
   EAUG   =  455.659                                                            
   DEXC   =    0.000                                                            
   RMAX   =    2.456    core radius for proj-oper                               
   RAUG   =    1.300    factor for augmentation sphere                          
   RDEP   =    2.451    radius for radial grids                                 
   RDEPT  =    1.956    core radius for aug-charge                              
                                                                                
   Atomic configuration                                                         
   11 entries                                                                   
     n  l   j            E        occ.                                          
     1  0  0.50    -18805.2457   2.0000                                         
     2  0  0.50     -2630.2869   2.0000                                         
     2  1  1.50     -2348.4046   6.0000                                         
     3  0  0.50      -438.8757   2.0000                                         
     3  1  1.50      -346.7588   6.0000                                         
     3  2  2.50      -196.2560  10.0000                                         
     4  0  0.50       -58.3859   2.0000                                         
     5  0  0.50        -3.9816   1.0000                                         
     4  1  1.50       -34.5141   6.0000                                         
     4  2  2.50        -3.0408   4.0000                                         
     4  3  2.50        -1.3606   0.0000                                         
   Description                                                                  
     l       E           TYP  RCUT    TYP  RCUT                                 
     0    -58.3859094     23  2.200                                             
     0     -3.9816262     23  2.200                                             
     1    -34.5140738     23  2.200                                             
     1     13.6058260     23  2.200                                             
     2     -3.0408010     23  2.200                                             
     2     -0.1283038     23  2.200                                             
     3     -1.3605826     23  2.400                                             
  local pseudopotential read in
  partial core-charges read in
  partial kinetic energy density read in
  atomic valenz-charges read in
  non local Contribution for L=           0  read in
    real space projection operators read in
  non local Contribution for L=           0  read in
    real space projection operators read in
  non local Contribution for L=           1  read in
    real space projection operators read in
  non local Contribution for L=           1  read in
    real space projection operators read in
  non local Contribution for L=           2  read in
    real space projection operators read in
  non local Contribution for L=           2  read in
    real space projection operators read in
    PAW grid and wavefunctions read in
 
   number of l-projection  operators is LMAX  =           6
   number of lm-projection operators is LMMAX =          18
 
 POTCAR:    PAW_PBE Ta 17Jan2003                  
   VRHFIN =Ta:  6s5d                                                            
   LEXCH  = PE                                                                  
   EATOM  =   130.6506 eV,    9.6025 Ry                                         
                                                                                
   TITEL  = PAW_PBE Ta 17Jan2003                                                
   LULTRA =        F    use ultrasoft PP ?                                      
   IUNSCR =        1    unscreen: 0-lin 1-nonlin 2-no                           
   RPACOR =    2.330    partial core radius                                     
   POMASS =  180.948; ZVAL   =    5.000    mass and valenz                      
   RCORE  =    2.900    outmost cutoff radius                                   
   RWIGS  =    2.840; RWIGS  =    1.503    wigner-seitz radius (au A)           
   ENMAX  =  223.667; ENMIN  =  167.750 eV                                      
   RCLOC  =    2.205    cutoff for local pot                                    
   LCOR   =        T    correct aug charges                                     
   LPAW   =        T    paw PP                                                  
   EAUG   =  332.075                                                            
   DEXC   =    0.000                                                            
   RMAX   =    2.970    core radius for proj-oper                               
   RAUG   =    1.300    factor for augmentation sphere                          
   RDEP   =    3.060    radius for radial grids                                 
   RDEPT  =    2.354    core radius for aug-charge                              
                                                                                
   Atomic configuration                                                         
   16 entries                                                                   
     n  l   j            E        occ.                                          
     1  0  0.50    -67341.2807   2.0000                                         
     2  0  0.50    -11566.9376   2.0000                                         
     2  1  1.50    -10134.1182   6.0000                                         
     3  0  0.50     -2648.5620   2.0000                                         
     3  1  1.50     -2222.6012   6.0000                                         
     3  2  2.50     -1726.3120  10.0000                                         
     4  0  0.50      -538.6961   2.0000                                         
     4  1  1.50      -399.0129   6.0000                                         
     4  2  2.50      -220.3959  10.0000                                         
     4  3  3.50       -23.0374  14.0000                                         
     5  0  0.50       -71.2901   2.0000                                         
     5  1  1.50       -37.8225   6.0000                                         
     5  2  2.50        -2.6455   4.0000                                         
     6  0  0.50        -4.9623   1.0000                                         
     6  1  1.50        -1.3606   0.0000                                         
     5  3  2.50        -1.3606   0.0000                                         
   Description                                                                  
     l       E           TYP  RCUT    TYP  RCUT                                 
     2     -2.6455043     23  2.500                                             
     2     -0.6258895     23  2.500                                             
     0     -4.9622780     23  2.500                                             
     0      4.7531321     23  2.500                                             
     1     -1.3605826     23  2.900                                             
     1     27.2116520     23  2.900                                             
  local pseudopotential read in
  partial core-charges read in
  partial kinetic energy density read in
  atomic valenz-charges read in
  non local Contribution for L=           2  read in
    real space projection operators read in
  non local Contribution for L=           2  read in
    real space projection operators read in
  non local Contribution for L=           0  read in
    real space projection operators read in
  non local Contribution for L=           0  read in
    real space projection operators read in
  non local Contribution for L=           1  read in
    real space projection operators read in
  non local Contribution for L=           1  read in
    real space projection operators read in
    PAW grid and wavefunctions read in
 
   number of l-projection  operators is LMAX  =           6
   number of lm-projection operators is LMMAX =          18
 
 POTCAR:    PAW_PBE Zr_sv 04Jan2005               
   VRHFIN =Zr: 4s4p5s4d                                                         
   LEXCH  = PE                                                                  
   EATOM  =  1284.2219 eV,   94.3876 Ry                                         
                                                                                
   TITEL  = PAW_PBE Zr_sv 04Jan2005                                             
   LULTRA =        F    use ultrasoft PP ?                                      
   IUNSCR =        1    unscreen: 0-lin 1-nonlin 2-no                           
   RPACOR =    2.200    partial core radius                                     
   POMASS =   91.224; ZVAL   =   12.000    mass and valenz                      
   RCORE  =    2.500    outmost cutoff radius                                   
   RWIGS  =    3.070; RWIGS  =    1.625    wigner-seitz radius (au A)           
   ENMAX  =  229.898; ENMIN  =  172.424 eV                                      
   ICORE  =        3    local potential                                         
   LCOR   =        T    correct aug charges                                     
   LPAW   =        T    paw PP                                                  
   EAUG   =  461.257                                                            
   DEXC   =    0.000                                                            
   RMAX   =    2.561    core radius for proj-oper                               
   RAUG   =    1.300    factor for augmentation sphere                          
   RDEP   =    2.597    radius for radial grids                                 
   RDEPT  =    2.007    core radius for aug-charge                              
                                                                                
   Atomic configuration                                                         
   11 entries                                                                   
     n  l   j            E        occ.                                          
     1  0  0.50    -17820.0161   2.0000                                         
     2  0  0.50     -2467.0882   2.0000                                         
     2  1  1.50     -2199.6095   6.0000                                         
     3  0  0.50      -402.4863   2.0000                                         
     3  1  1.50      -315.3675   6.0000                                         
     3  2  2.50      -172.4472  10.0000                                         
     4  0  0.50       -52.4146   2.0000                                         
     5  0  0.50        -3.8421   1.0000                                         
     4  1  1.50       -30.5054   6.0000                                         
     4  2  2.50        -2.3341   3.0000                                         
     4  3  2.50        -1.3606   0.0000                                         
   Description                                                                  
     l       E           TYP  RCUT    TYP  RCUT                                 
     0    -52.4145962     23  2.200                                             
     0     -3.8421270     23  2.500                                             
     1    -30.5053914     23  2.200                                             
     1     20.4087390     23  2.200                                             
     2     -2.3340816     23  2.500                                             
     2     -0.6120942     23  2.500                                             
     3     -4.0817478     23  2.500                                             
  local pseudopotential read in
  partial core-charges read in
  partial kinetic energy density read in
  atomic valenz-charges read in
  non local Contribution for L=           0  read in
    real space projection operators read in
  non local Contribution for L=           0  read in
    real space projection operators read in
  non local Contribution for L=           1  read in
    real space projection operators read in
  non local Contribution for L=           1  read in
    real space projection operators read in
  non local Contribution for L=           2  read in
    real space projection operators read in
  non local Contribution for L=           2  read in
    real space projection operators read in
    PAW grid and wavefunctions read in
 
   number of l-projection  operators is LMAX  =           6
   number of lm-projection operators is LMMAX =          18
 
 Optimization of the real space projectors (new method)

 maximal supplied QI-value         = 12.47
 optimisation between [QCUT,QGAM] = [  8.86, 17.71] = [ 21.96, 87.83] Ry 
 Optimized for a Real-space Cutoff    1.90 Angstroem

   l    n(q)    QCUT    max X(q) W(low)/X(q) W(high)/X(q)  e(spline) 
   2      9     8.855    48.111    0.22E-03    0.80E-04    0.10E-05
   2      9     8.855    40.545    0.21E-03    0.76E-04    0.95E-06
   0     10     8.855   121.658    0.27E-04    0.12E-04    0.11E-06
   0     10     8.855    71.177    0.22E-04    0.11E-04    0.99E-07
   1     10     8.855    14.183    0.65E-04    0.10E-03    0.98E-07
   1     10     8.855     8.257    0.43E-04    0.73E-04    0.72E-07
 Optimization of the real space projectors (new method)

 maximal supplied QI-value         = 15.68
 optimisation between [QCUT,QGAM] = [  8.78, 17.72] = [ 21.60, 87.97] Ry 
 Optimized for a Real-space Cutoff    1.96 Angstroem

   l    n(q)    QCUT    max X(q) W(low)/X(q) W(high)/X(q)  e(spline) 
   0     10     8.783    10.201    0.29E-04    0.25E-05    0.69E-07
   0     10     8.783     8.174    0.45E-04    0.57E-05    0.14E-06
   1     10     8.783     3.488    0.76E-05    0.24E-04    0.95E-07
   1     10     8.783     4.917    0.78E-04    0.14E-03    0.46E-06
   2      9     8.783   153.744    0.22E-03    0.34E-04    0.15E-05
   2      9     8.783   126.342    0.22E-03    0.35E-04    0.15E-05
 Optimization of the real space projectors (new method)

 maximal supplied QI-value         = 12.85
 optimisation between [QCUT,QGAM] = [  8.87, 17.73] = [ 22.01, 88.06] Ry 
 Optimized for a Real-space Cutoff    1.90 Angstroem

   l    n(q)    QCUT    max X(q) W(low)/X(q) W(high)/X(q)  e(spline) 
   2      9     8.867    62.315    0.23E-03    0.62E-04    0.11E-05
   2      9     8.867    52.185    0.23E-03    0.62E-04    0.11E-05
   0     10     8.867   103.837    0.15E-04    0.23E-04    0.98E-07
   0     10     8.867    59.728    0.12E-04    0.21E-04    0.89E-07
   1     10     8.867    13.958    0.50E-04    0.22E-04    0.14E-06
   1     10     8.867     8.441    0.36E-04    0.19E-04    0.98E-07
 Optimization of the real space projectors (new method)

 maximal supplied QI-value         = 15.12
 optimisation between [QCUT,QGAM] = [  8.77, 17.69] = [ 21.53, 87.61] Ry 
 Optimized for a Real-space Cutoff    1.74 Angstroem

   l    n(q)    QCUT    max X(q) W(low)/X(q) W(high)/X(q)  e(spline) 
   0      9     8.768    12.107    0.28E-04    0.53E-06    0.29E-07
   0      9     8.768     9.948    0.36E-04    0.50E-05    0.64E-07
   1      9     8.768     3.563    0.14E-04    0.16E-04    0.88E-07
   1      9     8.768     4.524    0.21E-03    0.33E-03    0.19E-06
   2      8     8.768    87.261    0.19E-03    0.25E-03    0.24E-06
   2      8     8.768    70.950    0.19E-03    0.24E-03    0.24E-06
  PAW_PBE Hf 20Jan2003                  :
 energy of atom  1       EATOM=  -75.9011
 kinetic energy error for atom=    0.0071 (will be added to EATOM!!)
  PAW_PBE Nb_sv 25May2007               :
 energy of atom  2       EATOM=-1555.1913
 kinetic energy error for atom=    0.0655 (will be added to EATOM!!)
  PAW_PBE Ta 17Jan2003                  :
 energy of atom  3       EATOM= -130.6506
 kinetic energy error for atom=    0.0121 (will be added to EATOM!!)
  PAW_PBE Zr_sv 04Jan2005               :
 energy of atom  4       EATOM=-1284.2219
 kinetic energy error for atom=    0.0483 (will be added to EATOM!!)
 
 
 POSCAR: generated by pypospack                  
  positions in direct lattice
  No initial velocities read in
 exchange correlation table for  LEXCH =        8
   RHO(1)=    0.500       N(1)  =     2000
   RHO(2)=  100.500       N(2)  =     4000
 


--------------------------------------------------------------------------------------------------------


 ion  position               nearest neighbor table
   1  0.258  0.167  0.825-  14 2.89  27 2.89  10 2.92  20 2.94  28 2.95  31 3.03   4 3.05  29 3.10
                            21 3.23  18 3.23  15 3.30  25 3.30
   2  0.251  0.501  0.164-  23 2.97  12 2.98  19 2.99  35 3.01  28 3.02  31 3.06   3 3.07   7 3.08
                            26 3.22   9 3.29  21 3.34  11 3.37  34 3.41  34 3.44
   3  0.013  0.679  0.346-  16 2.89  26 2.91  11 2.99  22 3.01  24 3.05   2 3.07   6 3.08  34 3.13
                            32 3.24   7 3.26  30 3.28   7 3.59  19 3.65
   4  0.506  0.004  0.011-   9 2.99  26 2.99  25 3.02  13 3.03  16 3.05  15 3.05   1 3.05  36 3.10
                            33 3.21  28 3.32  29 3.33  35 3.47  29 3.52
   5  0.749  0.168  0.505-  14 2.95  10 2.95  19 2.98  23 2.99  20 3.00  27 3.01  30 3.06  33 3.07
                            15 3.23  24 3.26   6 3.27  13 3.29  18 3.41  18 3.44
   6  0.748  0.487  0.495-  27 2.89  20 2.93  23 2.97  19 2.98   8 3.05  32 3.06   3 3.08   7 3.10
                             5 3.27  34 3.31  17 3.37  11 3.40  11 3.45  24 3.72
   7  0.490  0.684  0.342-  16 2.97  26 2.99  11 3.03  22 3.03  24 3.05   2 3.08   6 3.10  34 3.12
                            33 3.21   3 3.26   8 3.28   3 3.59  35 3.65  23 3.69
   8  0.489  0.661  0.663-  11 2.98  22 2.99  17 3.01  21 3.03  24 3.03   6 3.05  25 3.05  36 3.06
                            27 3.26  32 3.27   7 3.28  35 3.30  14 3.45  32 3.58
   9  0.256  0.180  0.173-  23 2.71  19 2.76  28 2.90  31 2.95  33 2.96  30 2.99   4 2.99  29 3.05
                             2 3.29
  10  0.004  0.002  0.668-  22 2.71  24 2.79  25 2.86  36 2.87  18 2.87   1 2.92   5 2.95  15 2.97

  11  0.252  0.484  0.494-  23 2.79  19 2.81  27 2.83  20 2.88   8 2.98  32 2.99   3 2.99   7 3.03
                            18 3.28   2 3.37   6 3.40   6 3.45
  12  0.003  0.664  0.989-  26 2.73  16 2.81  25 2.95  36 2.96  21 2.97   2 2.98  17 3.02  34 3.05
                            32 3.34  35 3.41  35 3.45
  13  0.741  0.185  0.183-  23 2.76  19 2.84  28 2.89  31 2.91  33 2.93  30 3.00   4 3.03  29 3.09
                            34 3.24   5 3.29
  14  0.498  0.998  0.667-  22 2.71  24 2.78  25 2.88   1 2.89  18 2.90  15 2.90  36 2.91   5 2.95
                             8 3.45
  15  0.740  0.173  0.821-  27 2.88  28 2.89  14 2.90  20 2.93  31 2.94  10 2.97   4 3.05  29 3.10
                             5 3.23   1 3.30  36 3.45
  16  0.766  0.811  0.158-  12 2.81   3 2.89  29 2.94  35 2.94   7 2.97   4 3.05  30 3.05  33 3.15
                            34 3.18  26 3.23  36 3.42
  17  0.748  0.489  0.825-  27 2.80  20 2.81  28 2.93  31 2.95  35 2.98   8 3.01  32 3.01  12 3.02
                             6 3.37
  18  0.251  0.165  0.509-  23 2.87  19 2.87  10 2.87  14 2.90  27 2.96  20 2.97  30 3.04  33 3.06
                            22 3.15   1 3.23  11 3.28   5 3.41   5 3.44
  19  0.019  0.323  0.336-   9 2.76  11 2.81  13 2.84  18 2.87   5 2.98   6 2.98   2 2.99  34 3.09
                            23 3.17  30 3.33  20 3.42  31 3.45   3 3.65
  20  0.004  0.340  0.671-  17 2.81  21 2.82  11 2.88   6 2.93  15 2.93   1 2.94  18 2.97   5 3.00
                            32 3.28  27 3.35  31 3.36  19 3.42  27 3.50
  21  0.252  0.482  0.838-  27 2.79  20 2.82  28 2.86  31 2.92  35 2.95  12 2.97   8 3.03  32 3.04
                             1 3.23   2 3.34
  22  0.248  0.858  0.518-  10 2.71  14 2.71  30 2.96  33 2.97  32 2.98   8 2.99   3 3.01   7 3.03
                            18 3.15  25 3.21  24 3.40  24 3.46
  23  0.481  0.324  0.336-   9 2.71  13 2.76  11 2.79  18 2.87   6 2.97   2 2.97   5 2.99  34 3.08
                            19 3.17  33 3.36  27 3.41  28 3.46   7 3.69
  24  0.753  0.850  0.516-  14 2.78  10 2.79  30 2.99  33 3.01  32 3.02   8 3.03   3 3.05   7 3.05
                            36 3.14   5 3.26  22 3.40  22 3.46   6 3.72
  25  0.246  0.845  0.832-  10 2.86  14 2.88  12 2.95  35 2.98  29 3.01   4 3.02  32 3.04   8 3.05
                            26 3.20  22 3.21   1 3.30  36 3.35  36 3.51
  26  0.237  0.815  0.144-  12 2.73  35 2.87   3 2.91  29 2.92   7 2.99   4 2.99  30 3.11  33 3.19
                            25 3.20   2 3.22  16 3.23
  27  0.494  0.343  0.669-  21 2.79  17 2.80  11 2.83  15 2.88   6 2.89   1 2.89  18 2.96   5 3.01
                             8 3.26  20 3.35  28 3.36  23 3.41  20 3.50
  28  0.505  0.328  0.997-  21 2.86  13 2.89  15 2.89   9 2.90  17 2.93   1 2.95   2 3.02  34 3.02
                            31 3.32   4 3.32  27 3.36  23 3.46  35 3.47  31 3.54
  29  0.992  0.006  0.009-  26 2.92  16 2.94  25 3.01  36 3.03   9 3.05  13 3.09   1 3.10  15 3.10
                            30 3.25  31 3.27   4 3.33   4 3.52
  30  0.002  0.999  0.327-  22 2.96   9 2.99  24 2.99  13 3.00  18 3.04  16 3.05   5 3.06  26 3.11
                            29 3.25   3 3.28  19 3.33  33 3.41  33 3.45
  31  0.989  0.324  0.999-  13 2.91  21 2.92  15 2.94   9 2.95  17 2.95  34 3.02   1 3.03   2 3.06
                            29 3.27  28 3.32  20 3.36  19 3.45  28 3.54
  32  0.012  0.660  0.662-  22 2.98  11 2.99  36 3.00  17 3.01  24 3.02  25 3.04  21 3.04   6 3.06
                             3 3.24   8 3.27  20 3.28  12 3.34   8 3.58
  33  0.499  0.996  0.326-  13 2.93   9 2.96  22 2.97  24 3.01  18 3.06   5 3.07  16 3.15  26 3.19
                             7 3.21   4 3.21  23 3.36  30 3.41  30 3.45
  34  0.749  0.501  0.171-  31 3.02  28 3.02  12 3.05  35 3.06  23 3.08  19 3.09   7 3.12   3 3.13
                            16 3.18  13 3.24   6 3.31   2 3.41   2 3.44
  35  0.500  0.666  0.986-  26 2.87  16 2.94  21 2.95  25 2.98  36 2.98  17 2.98   2 3.01  34 3.06
                             8 3.30  12 3.41  12 3.45  28 3.47   4 3.47   7 3.65
  36  0.758  0.837  0.823-  10 2.87  14 2.91  12 2.96  35 2.98  32 3.00  29 3.03   8 3.06   4 3.10
                            24 3.14  25 3.35  16 3.42  15 3.45  25 3.51
 
  LATTYP: Found a triclinic cell.
 ALAT       =    21.5562874184
 B/A-ratio  =     1.0591153992
 C/A-ratio  =     1.2384949802
 COS(alpha) =     0.0002174856
 COS(beta)  =     0.5281789436
 COS(gamma) =     0.8474908960
  
  Lattice vectors:
  
 A1 = (  -6.8626175994,  -0.0237792738, -20.4347116812)
 A2 = (  -0.0164763879,  10.2166524889, -20.4170480755)
 A3 = ( -13.6968068201, -20.4953146594, -10.2512563954)


Analysis of symmetry for initial positions (statically):
=====================================================================
 Subroutine PRICEL returns:
 Original cell was already a primitive cell.
 

 Routine SETGRP: Setting up the symmetry group for a 
 triclinic supercell.


 Subroutine GETGRP returns: Found  1 space group operations
 (whereof  1 operations were pure point group operations)
 out of a pool of  2 trial point group operations.


The static configuration has the point symmetry C_1 .


Analysis of symmetry for dynamics (positions and initial velocities):
=====================================================================
 Subroutine PRICEL returns:
 Original cell was already a primitive cell.
 

 Routine SETGRP: Setting up the symmetry group for a 
 triclinic supercell.


 Subroutine GETGRP returns: Found  1 space group operations
 (whereof  1 operations were pure point group operations)
 out of a pool of  2 trial point group operations.


The dynamic configuration has the point symmetry C_1 .


 Subroutine INISYM returns: Found  1 space group operations
 (whereof  1 operations are pure point group operations),
 and found     1 'primitive' translations

 
 
 KPOINTS: k-points                                

Automatic generation of k-mesh.
Space group operators:
 irot       det(A)        alpha          n_x          n_y          n_z        tau_x        tau_y        tau_z
    1     1.000000     0.000000     1.000000     0.000000     0.000000     0.000000     0.000000     0.000000
 
 Subroutine IBZKPT returns following result:
 ===========================================
 
 Found     14 irreducible k-points:
 
 Following reciprocal coordinates:
            Coordinates               Weight
  0.000000  0.000000  0.000000      1.000000
  0.333333 -0.000000 -0.000000      2.000000
 -0.000000  0.333333  0.000000      2.000000
  0.333333  0.333333  0.000000      2.000000
 -0.333333  0.333333  0.000000      2.000000
  0.000000  0.000000  0.333333      2.000000
  0.333333  0.000000  0.333333      2.000000
 -0.333333  0.000000  0.333333      2.000000
 -0.000000  0.333333  0.333333      2.000000
  0.333333  0.333333  0.333333      2.000000
 -0.333333  0.333333  0.333333      2.000000
  0.000000 -0.333333  0.333333      2.000000
  0.333333 -0.333333  0.333333      2.000000
 -0.333333 -0.333333  0.333333      2.000000
 
 Following cartesian coordinates:
            Coordinates               Weight
  0.000000  0.000000  0.000000      1.000000
  0.242614  0.000176 -0.000108      2.000000
  0.000121  0.162292 -0.000230      2.000000
  0.242735  0.162468 -0.000337      2.000000
 -0.242493  0.162116 -0.000122      2.000000
 -0.000068 -0.000235  0.162763      2.000000
  0.242546 -0.000059  0.162655      2.000000
 -0.242682 -0.000411  0.162871      2.000000
  0.000053  0.162057  0.162533      2.000000
  0.242667  0.162233  0.162426      2.000000
 -0.242560  0.161881  0.162641      2.000000
 -0.000189 -0.162528  0.162992      2.000000
  0.242425 -0.162352  0.162885      2.000000
 -0.242803 -0.162704  0.163100      2.000000
 


--------------------------------------------------------------------------------------------------------




 Dimension of arrays:
   k-points           NKPTS =     14   k-points in BZ     NKDIM =     14   number of bands    NBANDS=    180
   number of dos      NEDOS =    301   number of ions     NIONS =     36
   non local maximal  LDIM  =      6   non local SUM 2l+1 LMDIM =     18
   total plane-waves  NPLWV = 144000
   max r-space proj   IRMAX =   6386   max aug-charges    IRDMAX=  13863
   dimension x,y,z NGX =    40 NGY =   60 NGZ =   60
   dimension x,y,z NGXF=    80 NGYF=  120 NGZF=  120
   support grid    NGXF=    80 NGYF=  120 NGZF=  120
   ions per type =               8   9  11   8
 NGX,Y,Z   is equivalent  to a cutoff of   9.70,  9.74,  9.76 a.u.
 NGXF,Y,Z  is equivalent  to a cutoff of  19.41, 19.47, 19.53 a.u.


 I would recommend the setting:
   dimension x,y,z NGX =    39 NGY =   58 NGZ =   58
 SYSTEM =  automatically generated by mexm         
 POSCAR =  generated by pypospack                  

 Startparameter for this run:
   NWRITE =      2    write-flag & timer
   PREC   = accura    normal or accurate (medium, high low for compatibility)
   ISTART =      0    job   : 0-new  1-cont  2-samecut
   ICHARG =      2    charge: 1-file 2-atom 10-const
   ISPIN  =      1    spin polarized calculation?
   LNONCOLLINEAR =      F non collinear calculations
   LSORBIT =      F    spin-orbit coupling
   INIWAV =      1    electr: 0-lowe 1-rand  2-diag
   LASPH  =      F    aspherical Exc in radial PAW
   METAGGA=      F    non-selfconsistent MetaGGA calc.

 Electronic Relaxation 1
   ENCUT  =  300.0 eV  22.05 Ry    4.70 a.u.   9.68 14.47 14.43*2*pi/ulx,y,z
   ENINI  =  300.0     initial cutoff
   ENAUG  =  461.3 eV  augmentation charge cutoff
   NELM   =     70;   NELMIN=  2; NELMDL= -5     # of ELM steps 
   EDIFF  = 0.1E-04   stopping-criterion for ELM
   LREAL  =      T    real-space projection
   NLSPLINE    = F    spline interpolate recip. space projectors
   LCOMPAT=      F    compatible to vasp.4.4
   GGA_COMPAT  = T    GGA compatible to vasp.4.4-vasp.4.6
   LMAXPAW     = -100 max onsite density
   LMAXMIX     =    2 max onsite mixed and CHGCAR
   VOSKOWN=      0    Vosko Wilk Nusair interpolation
   ROPT   =   -0.00025  -0.00025  -0.00025  -0.00025
 Ionic relaxation
   EDIFFG = -.1E-01   stopping-criterion for IOM
   NSW    =    300    number of steps for IOM
   NBLOCK =      1;   KBLOCK =    300    inner block; outer block 
   IBRION =      2    ionic relax: 0-MD 1-quasi-New 2-CG
   NFREE  =      1    steps in history (QN), initial steepest desc. (CG)
   ISIF   =      3    stress and relaxation
   IWAVPR =     11    prediction:  0-non 1-charg 2-wave 3-comb
   ISYM   =      1    0-nonsym 1-usesym 2-fastsym
   LCORR  =      T    Harris-Foulkes like correction to forces

   POTIM  = 0.1500    time-step for ionic-motion
   TEIN   =    0.0    initial temperature
   TEBEG  =    0.0;   TEEND  =   0.0 temperature during run
   SMASS  =  -3.00    Nose mass-parameter (am)
   estimated Nose-frequenzy (Omega)   =  0.10E-29 period in steps =****** mass=  -0.107E-26a.u.
   SCALEE = 1.0000    scale energy and forces
   NPACO  =    256;   APACO  = 16.0  distance and # of slots for P.C.
   PSTRESS=    0.0 pullay stress

  Mass of Ions in am
   POMASS = 178.49 92.91180.95 91.22
  Ionic Valenz
   ZVAL   =   4.00 13.00  5.00 12.00
  Atomic Wigner-Seitz radii
   RWIGS  =  -1.00 -1.00 -1.00 -1.00
  virtual crystal weights 
   VCA    =   1.00  1.00  1.00  1.00
   NELECT =     300.0000    total number of electrons
   NUPDOWN=      -1.0000    fix difference up-down

 DOS related values:
   EMIN   =  10.00;   EMAX   =-10.00  energy-range for DOS
   EFERMI =   0.00
   ISMEAR =     1;   SIGMA  =   0.15  broadening in eV -4-tet -1-fermi 0-gaus

 Electronic relaxation 2 (details)
   IALGO  =     68    algorithm
   LDIAG  =      T    sub-space diagonalisation (order eigenvalues)
   LSUBROT=      F    optimize rotation matrix (better conditioning)
   TURBO    =      0    0=normal 1=particle mesh
   IRESTART =      0    0=no restart 2=restart with 2 vectors
   NREBOOT  =      0    no. of reboots
   NMIN     =      0    reboot dimension
   EREF     =   0.00    reference energy to select bands
   IMIX   =      4    mixing-type and parameters
     AMIX     =   0.40;   BMIX     =  1.00
     AMIX_MAG =   1.60;   BMIX_MAG =  1.00
     AMIN     =   0.10
     WC   =   100.;   INIMIX=   1;  MIXPRE=   1;  MAXMIX= -45

 Intra band minimization:
   WEIMIN = 0.0010     energy-eigenvalue tresh-hold
   EBREAK =  0.14E-07  absolut break condition
   DEPER  =   0.30     relativ break condition  

   TIME   =   0.40     timestep for ELM

  volume/ion in A,a.u.               =      19.93       134.47
  Fermi-wavevector in a.u.,A,eV,Ry     =   1.224256  2.313509 20.392453  1.498803
  Thomas-Fermi vector in A             =   2.359337
 
 Write flags
   LWAVE  =      F    write WAVECAR
   LCHARG =      F    write CHGCAR
   LVTOT  =      F    write LOCPOT, total local potential
   LVHAR  =      F    write LOCPOT, Hartree potential only
   LELF   =      F    write electronic localiz. function (ELF)
   LORBIT =      0    0 simple, 1 ext, 2 COOP (PROOUT)


 Dipole corrections
   LMONO  =      F    monopole corrections only (constant potential shift)
   LDIPOL =      F    correct potential (dipole corrections)
   IDIPOL =      0    1-x, 2-y, 3-z, 4-all directions 
   EPSILON=  1.0000000 bulk dielectric constant

 Exchange correlation treatment:
   GGA     =    --    GGA type
   LEXCH   =     8    internal setting for exchange type
   VOSKOWN=      0    Vosko Wilk Nusair interpolation
   LHFCALC =     F    Hartree Fock is set to
   LHFONE  =     F    Hartree Fock one center treatment
   AEXX    =    0.0000 exact exchange contribution

 Linear response parameters
   LEPSILON=     F    determine dielectric tensor
   LRPA    =     F    only Hartree local field effects (RPA)
   LNABLA  =     F    use nabla operator in PAW spheres
   LVEL    =     F    velocity operator in full k-point grid
   LINTERFAST=   F  fast interpolation
   KINTER  =     0    interpolate to denser k-point grid
   CSHIFT  =0.1000    complex shift for real part using Kramers Kronig
   OMEGAMAX=  -1.0    maximum frequency
   DEG_THRESHOLD= 0.2000000E-02 threshold for treating states as degnerate
   RTIME   =    0.100 relaxation time in fs

 Orbital magnetization related:
   ORBITALMAG=     F  switch on orbital magnetization
   LCHIMAG   =     F  perturbation theory with respect to B field
   DQ        =  0.001000  dq finite difference perturbation B field



--------------------------------------------------------------------------------------------------------


 conjugate gradient relaxation of ions
 charge density and potential will be updated during run
 non-spin polarized calculation
 RMM-DIIS sequential band-by-band and
  variant of blocked Davidson during initial phase
 perform sub-space diagonalisation
    before iterative eigenvector-optimisation
 modified Broyden-mixing scheme, WC =      100.0
 initial mixing is a Kerker type mixing with AMIX =  0.4000 and BMIX =      1.0000
 Hartree-type preconditioning will be used
 using additional bands           30
 real space projection scheme for non local part
 use partial core corrections
 calculate Harris-corrections to forces 
   (improved forces if not selfconsistent)
 use gradient corrections 
 use of overlap-Matrix (Vanderbilt PP)
 Methfessel and Paxton  Order N= 1 SIGMA  =   0.15


--------------------------------------------------------------------------------------------------------


  energy-cutoff  :      300.00
  volume of cell :      717.35
      direct lattice vectors                 reciprocal lattice vectors
     6.853568805 -0.005122994  0.002853313     0.145909490  0.000105872 -0.000064770
    -0.007427594 10.245554757  0.014810292     0.000073015  0.097603557 -0.000138099
     0.004524397  0.014451134 10.215929184    -0.000040858 -0.000141528  0.097886566

  length of vectors
     6.853571314 10.245568154 10.215940407     0.145909543  0.097603682  0.097886677


 
 k-points in units of 2pi/SCALE and weight: k-points                                
   0.00000000  0.00000000  0.00000000       0.037
   0.24261392  0.00017604 -0.00010770       0.074
   0.00012141  0.16229227 -0.00022963       0.074
   0.24273533  0.16246831 -0.00033732       0.074
  -0.24249251  0.16211623 -0.00012193       0.074
  -0.00006794 -0.00023533  0.16276285       0.074
   0.24254598 -0.00005929  0.16265515       0.074
  -0.24268186 -0.00041137  0.16287054       0.074
   0.00005347  0.16205694  0.16253322       0.074
   0.24266739  0.16223298  0.16242552       0.074
  -0.24256045  0.16188090  0.16264092       0.074
  -0.00018935 -0.16252759  0.16299247       0.074
   0.24242458 -0.16235155  0.16288478       0.074
  -0.24280327 -0.16270364  0.16310017       0.074
 
 k-points in reciprocal lattice and weights: k-points                                
   0.00000000  0.00000000  0.00000000       0.037
   0.33333333 -0.00000000 -0.00000000       0.074
  -0.00000000  0.33333333  0.00000000       0.074
   0.33333333  0.33333333  0.00000000       0.074
  -0.33333333  0.33333333  0.00000000       0.074
   0.00000000  0.00000000  0.33333333       0.074
   0.33333333  0.00000000  0.33333333       0.074
  -0.33333333  0.00000000  0.33333333       0.074
  -0.00000000  0.33333333  0.33333333       0.074
   0.33333333  0.33333333  0.33333333       0.074
  -0.33333333  0.33333333  0.33333333       0.074
   0.00000000 -0.33333333  0.33333333       0.074
   0.33333333 -0.33333333  0.33333333       0.074
  -0.33333333 -0.33333333  0.33333333       0.074
 
 position of ions in fractional coordinates (direct lattice) 
   0.25782000  0.16744500  0.82483600
   0.25138900  0.50131300  0.16422900
   0.01330600  0.67946900  0.34560600
   0.50563000  0.00351900  0.01131000
   0.74897100  0.16811000  0.50534700
   0.74801500  0.48700200  0.49505300
   0.48954300  0.68350400  0.34238600
   0.48864900  0.66145800  0.66273400
   0.25605900  0.17993700  0.17312500
   0.00365300  0.00206100  0.66756000
   0.25192900  0.48445400  0.49390300
   0.00305600  0.66448800  0.98871300
   0.74066600  0.18510700  0.18342000
   0.49840500  0.99844300  0.66724400
   0.73958600  0.17287100  0.82127400
   0.76619900  0.81122900  0.15766600
   0.74826600  0.48853000  0.82492400
   0.25101800  0.16486000  0.50859000
   0.01860400  0.32313200  0.33632400
   0.00403500  0.34011500  0.67062100
   0.25221200  0.48223600  0.83777200
   0.24823700  0.85781200  0.51847600
   0.48056100  0.32386100  0.33590900
   0.75252600  0.84974300  0.51636000
   0.24640000  0.84523700  0.83248600
   0.23653700  0.81470500  0.14388400
   0.49350800  0.34286900  0.66864500
   0.50488000  0.32774800  0.99747800
   0.99172000  0.00563500  0.00936200
   0.00162900  0.99869800  0.32712600
   0.98910600  0.32427200  0.99893000
   0.01165000  0.66031000  0.66229800
   0.49891600  0.99642100  0.32590900
   0.74917900  0.50088500  0.17145300
   0.50039800  0.66579200  0.98559400
   0.75773300  0.83673300  0.82345200
 
 position of ions in cartesian coordinates  (Angst):
   1.76947528  1.72616592  8.42968172
   1.71993130  5.13731522  1.68589372
   0.08771043  6.96646308  3.54078752
   3.46539503  0.03362721  0.11703700
   5.13416202  1.72584607  5.16721597
   5.12519483  4.99292766  5.06677335
   3.35158893  7.00531760  3.50931084
   3.34707497  6.78407807  6.78163427
   1.75436476  1.84474445  1.77202828
   0.02804109  0.03074437  6.81978663
   1.72524902  4.96934681  5.05357181
   0.02048229  6.82232056 10.11047197
   5.07566036  1.89538010  1.87866057
   3.41145581 10.23669153  6.83272679
   5.07123529  1.77923874  8.39474757
   5.24588543  8.30984436  1.62490544
   5.12839620  5.01334859  8.43673548
   1.72144568  1.69514590  5.19887728
   0.12662536  3.31543155  3.44070093
   0.02816207  3.49433742  6.85606536
   1.72876086  4.95159002  8.56648112
   1.69728367  8.79498067  5.31012684
   3.29267216  3.32052796  3.43779022
   5.15351339  8.70969524  5.28982933
   1.68620777  8.67069003  8.51783929
   1.61572230  8.34797220  1.48264969
   3.38276956  3.52001755  6.83731609
   3.46230843  3.36978827 10.19645924
   6.79682176  0.05278842  0.09855467
   0.00522659 10.23693404  3.35669171
   6.78101702  3.33171502 10.21262293
   0.07793606  6.77475354  6.77580209
   3.41342867 10.21103973  3.34564411
   5.13160518  5.13048434  1.76110760
   3.42902611  6.83308781 10.08004687
   5.19068596  8.58081172  8.42688163
 


--------------------------------------------------------------------------------------------------------


 k-point  1 :   0.0000 0.0000 0.0000  plane waves:    8509
 k-point  2 :   0.3333-0.0000-0.0000  plane waves:    8470
 k-point  3 :  -0.0000 0.3333 0.0000  plane waves:    8472
 k-point  4 :   0.3333 0.3333 0.0000  plane waves:    8452
 k-point  5 :  -0.3333 0.3333 0.0000  plane waves:    8456
 k-point  6 :   0.0000 0.0000 0.3333  plane waves:    8469
 k-point  7 :   0.3333 0.0000 0.3333  plane waves:    8449
 k-point  8 :  -0.3333 0.0000 0.3333  plane waves:    8452
 k-point  9 :  -0.0000 0.3333 0.3333  plane waves:    8470
 k-point 10 :   0.3333 0.3333 0.3333  plane waves:    8463
 k-point 11 :  -0.3333 0.3333 0.3333  plane waves:    8462
 k-point 12 :   0.0000-0.3333 0.3333  plane waves:    8469
 k-point 13 :   0.3333-0.3333 0.3333  plane waves:    8459
 k-point 14 :  -0.3333-0.3333 0.3333  plane waves:    8459

 maximum and minimum number of plane-waves per node :      1723     1672

 maximum number of plane-waves:      8509
 maximum index in each direction: 
   IXMAX=   10   IYMAX=   14   IZMAX=   14
   IXMIN=  -10   IYMIN=  -14   IZMIN=  -14

 WARNING: aliasing errors must be expected set NGX to  42 to avoid them
 NGY is ok and might be reduce to  58
 NGZ is ok and might be reduce to  58
 aliasing errors are usually negligible using standard VASP settings
 and one can safely disregard these warnings

 real space projection operators:
  total allocation   :      27652.92 KBytes
  max/ min on nodes  :       5573.39       5494.08


 parallel 3D FFT for wavefunctions:
    minimum data exchange during FFTs selected (reduces bandwidth)
 parallel 3D FFT for charge:
    minimum data exchange during FFTs selected (reduces bandwidth)


 total amount of memory used by VASP on root node    67617. kBytes
========================================================================

   base      :      30000. kBytes
   nonlr-proj:      10651. kBytes
   fftplans  :       2814. kBytes
   grid      :       5360. kBytes
   one-center:        124. kBytes
   wavefun   :      18668. kBytes
 
     INWAV:  cpu time    0.0000: real time    0.0000
 Broyden mixing: mesh for mixing (old mesh)
   NGX = 19   NGY = 29   NGZ = 29
  (NGX  = 80   NGY  =120   NGZ  =120)
  gives a total of  15979 points

 initial charge density was supplied:
 charge density of overlapping atoms calculated
 number of electron     300.0000000 magnetization 
 keeping initial charge density in first step


--------------------------------------------------------------------------------------------------------


 Maximum index for non-local projection operator         1256
 Maximum index for augmentation-charges          683 (set IRDMAX)


--------------------------------------------------------------------------------------------------------


 First call to EWALD:  gamma=   0.198
 Maximum number of real-space cells 3x 2x 2
 Maximum number of reciprocal cells 2x 3x 3

 FEWALD executed in parallel
    FEWALD:  cpu time    0.0429: real time    0.0430


----------------------------------------- Iteration    1(   1)  ---------------------------------------


    POTLOK:  cpu time    0.0477: real time    0.0661
    SETDIJ:  cpu time    0.0581: real time    0.0583
     EDDAV:  cpu time    1.1066: real time    1.1421
       DOS:  cpu time    0.0017: real time    0.0017
    --------------------------------------------
      LOOP:  cpu time    1.2212: real time    1.5803

 eigenvalue-minimisations  :  5496
 total energy-change (2. order) : 0.1927207E+04  (-0.1134461E+05)
 number of electron     300.0000000 magnetization 
 augmentation part      300.0000000 magnetization 

 Free energy of the ion-electron system (eV)
  ---------------------------------------------------
  alpha Z        PSCENC =      1588.35930767
  Ewald energy   TEWEN  =    -20294.68554368
  -Hartree energ DENC   =     -6948.15840322
  -exchange      EXHF   =         0.00000000
  -V(xc)+E(xc)   XCENC  =      -246.69797531
  PAW double counting   =     22207.11356525   -20599.22609212
  entropy T*S    EENTRO =        -0.00120311
  eigenvalues    EBANDS =       -93.19345459
  atomic energy  EATOM  =     26313.69662656
  Solvation  Ediel_sol  =         0.00000000
  ---------------------------------------------------
  free energy    TOTEN  =      1927.20682745 eV

  energy without entropy =     1927.20803055  energy(sigma->0) =     1927.20722848


--------------------------------------------------------------------------------------------------------




----------------------------------------- Iteration    1(   2)  ---------------------------------------


     EDDAV:  cpu time    0.9975: real time    1.1971
       DOS:  cpu time    0.0024: real time    0.0025
    --------------------------------------------
      LOOP:  cpu time    1.0009: real time    1.3725

 eigenvalue-minimisations  :  5760
 total energy-change (2. order) :-0.2019752E+04  (-0.1951904E+04)
 number of electron     300.0000000 magnetization 
 augmentation part      300.0000000 magnetization 

 Free energy of the ion-electron system (eV)
  ---------------------------------------------------
  alpha Z        PSCENC =      1588.35930767
  Ewald energy   TEWEN  =    -20294.68554368
  -Hartree energ DENC   =     -6948.15840322
  -exchange      EXHF   =         0.00000000
  -V(xc)+E(xc)   XCENC  =      -246.69797531
  PAW double counting   =     22207.11356525   -20599.22609212
  entropy T*S    EENTRO =         0.00499935
  eigenvalues    EBANDS =     -2112.95197606
  atomic energy  EATOM  =     26313.69662656
  Solvation  Ediel_sol  =         0.00000000
  ---------------------------------------------------
  free energy    TOTEN  =       -92.54549157 eV

  energy without entropy =      -92.55049092  energy(sigma->0) =      -92.54715802


--------------------------------------------------------------------------------------------------------




----------------------------------------- Iteration    1(   3)  ---------------------------------------


     EDDAV:  cpu time    1.4766: real time    1.4832
       DOS:  cpu time    0.0014: real time    0.0014
    --------------------------------------------
      LOOP:  cpu time    1.4784: real time    1.5264

 eigenvalue-minimisations  :  8680
 total energy-change (2. order) :-0.2564023E+03  (-0.2438546E+03)
 number of electron     300.0000000 magnetization 
 augmentation part      300.0000000 magnetization 

 Free energy of the ion-electron system (eV)
  ---------------------------------------------------
  alpha Z        PSCENC =      1588.35930767
  Ewald energy   TEWEN  =    -20294.68554368
  -Hartree energ DENC   =     -6948.15840322
  -exchange      EXHF   =         0.00000000
  -V(xc)+E(xc)   XCENC  =      -246.69797531
  PAW double counting   =     22207.11356525   -20599.22609212
  entropy T*S    EENTRO =        -0.00140140
  eigenvalues    EBANDS =     -2369.34786544
  atomic energy  EATOM  =     26313.69662656
  Solvation  Ediel_sol  =         0.00000000
  ---------------------------------------------------
  free energy    TOTEN  =      -348.94778170 eV

  energy without entropy =     -348.94638030  energy(sigma->0) =     -348.94731457


--------------------------------------------------------------------------------------------------------




----------------------------------------- Iteration    1(   4)  ---------------------------------------


     EDDAV:  cpu time    1.5275: real time    1.6011
       DOS:  cpu time    0.0102: real time    0.0439
    --------------------------------------------
      LOOP:  cpu time    1.5381: real time    1.6768

 eigenvalue-minimisations  :  8408
 total energy-change (2. order) :-0.3008897E+02  (-0.2861278E+02)
 number of electron     300.0000000 magnetization 
 augmentation part      300.0000000 magnetization 

 Free energy of the ion-electron system (eV)
  ---------------------------------------------------
  alpha Z        PSCENC =      1588.35930767
  Ewald energy   TEWEN  =    -20294.68554368
  -Hartree energ DENC   =     -6948.15840322
  -exchange      EXHF   =         0.00000000
  -V(xc)+E(xc)   XCENC  =      -246.69797531
  PAW double counting   =     22207.11356525   -20599.22609212
  entropy T*S    EENTRO =         0.01129352
  eigenvalues    EBANDS =     -2399.44952658
  atomic energy  EATOM  =     26313.69662656
  Solvation  Ediel_sol  =         0.00000000
  ---------------------------------------------------
  free energy    TOTEN  =      -379.03674792 eV

  energy without entropy =     -379.04804144  energy(sigma->0) =     -379.04051243


--------------------------------------------------------------------------------------------------------




----------------------------------------- Iteration    1(   5)  ---------------------------------------


     EDDAV:  cpu time    1.3878: real time    1.4835
       DOS:  cpu time    0.0012: real time    0.0012
    CHARGE:  cpu time    0.0329: real time    0.0332
    MIXING:  cpu time    0.0014: real time    0.0015
    --------------------------------------------
      LOOP:  cpu time    1.4239: real time    1.5679

 eigenvalue-minimisations  :  8296
 total energy-change (2. order) :-0.2967779E+01  (-0.2907811E+01)
 number of electron     299.9999998 magnetization 
 augmentation part       17.6871701 magnetization 

 Broyden mixing:
  rms(total) = 0.65602E+01    rms(broyden)= 0.65597E+01
  rms(prec ) = 0.68252E+01
  weight for this iteration     100.00

 Free energy of the ion-electron system (eV)
  ---------------------------------------------------
  alpha Z        PSCENC =      1588.35930767
  Ewald energy   TEWEN  =    -20294.68554368
  -Hartree energ DENC   =     -6948.15840322
  -exchange      EXHF   =         0.00000000
  -V(xc)+E(xc)   XCENC  =      -246.69797531
  PAW double counting   =     22207.11356525   -20599.22609212
  entropy T*S    EENTRO =         0.01016153
  eigenvalues    EBANDS =     -2402.41617363
  atomic energy  EATOM  =     26313.69662656
  Solvation  Ediel_sol  =         0.00000000
  ---------------------------------------------------
  free energy    TOTEN  =      -382.00452696 eV

  energy without entropy =     -382.01468849  energy(sigma->0) =     -382.00791414


--------------------------------------------------------------------------------------------------------




----------------------------------------- Iteration    1(   6)  ---------------------------------------


    POTLOK:  cpu time    0.0300: real time    0.0301
    SETDIJ:  cpu time    0.0038: real time    0.0038
    EDDIAG:  cpu time    0.0780: real time    0.0784
  RMM-DIIS:  cpu time    0.7263: real time    0.7314
    ORTHCH:  cpu time    0.0122: real time    0.0123
       DOS:  cpu time    0.0012: real time    0.0012
    CHARGE:  cpu time    0.0302: real time    0.0304
    MIXING:  cpu time    0.0017: real time    0.0025
    --------------------------------------------
      LOOP:  cpu time    0.8841: real time    0.9210

 eigenvalue-minimisations  :  6960
 total energy-change (2. order) : 0.1059579E+02  (-0.2318672E+01)
 number of electron     299.9999998 magnetization 
 augmentation part       18.4044175 magnetization 

 Broyden mixing:
  rms(total) = 0.31249E+01    rms(broyden)= 0.31249E+01
  rms(prec ) = 0.33817E+01
  weight for this iteration     100.00

 eigenvalues of (default mixing * dielectric matrix)
  average eigenvalue GAMMA=   1.8347
  1.8347

 Free energy of the ion-electron system (eV)
  ---------------------------------------------------
  alpha Z        PSCENC =      1588.35930767
  Ewald energy   TEWEN  =    -20294.68554368
  -Hartree energ DENC   =     -6776.30657720
  -exchange      EXHF   =         0.00000000
  -V(xc)+E(xc)   XCENC  =      -250.23835646
  PAW double counting   =     27778.30888663   -26177.95767140
  entropy T*S    EENTRO =         0.01763339
  eigenvalues    EBANDS =     -2552.60304178
  atomic energy  EATOM  =     26313.69662656
  Solvation  Ediel_sol  =         0.00000000
  ---------------------------------------------------
  free energy    TOTEN  =      -371.40873628 eV

  energy without entropy =     -371.42636967  energy(sigma->0) =     -371.41461408


--------------------------------------------------------------------------------------------------------




----------------------------------------- Iteration    1(   7)  ---------------------------------------


    POTLOK:  cpu time    0.0288: real time    0.0289
    SETDIJ:  cpu time    0.0036: real time    0.0036
    EDDIAG:  cpu time    0.0830: real time    0.0833
  RMM-DIIS:  cpu time    0.8524: real time    0.8560
    ORTHCH:  cpu time    0.0139: real time    0.0140
       DOS:  cpu time    0.0008: real time    0.0008
    CHARGE:  cpu time    0.0299: real time    0.0300
    MIXING:  cpu time    0.0016: real time    0.0016
    --------------------------------------------
      LOOP:  cpu time    1.0146: real time    1.0498

 eigenvalue-minimisations  :  7495
 total energy-change (2. order) :-0.1270685E+01  (-0.2534715E+01)
 number of electron     299.9999998 magnetization 
 augmentation part       18.9268617 magnetization 

 Broyden mixing:
  rms(total) = 0.11327E+01    rms(broyden)= 0.11323E+01
  rms(prec ) = 0.32450E+01
  weight for this iteration     100.00

 eigenvalues of (default mixing * dielectric matrix)
  average eigenvalue GAMMA=   1.1773
  1.8417  0.5129

 Free energy of the ion-electron system (eV)
  ---------------------------------------------------
  alpha Z        PSCENC =      1588.35930767
  Ewald energy   TEWEN  =    -20294.68554368
  -Hartree energ DENC   =     -6704.27030085
  -exchange      EXHF   =         0.00000000
  -V(xc)+E(xc)   XCENC  =      -249.30563115
  PAW double counting   =     33290.75085464   -31684.17933643
  entropy T*S    EENTRO =         0.01535100
  eigenvalues    EBANDS =     -2633.06074886
  atomic energy  EATOM  =     26313.69662656
  Solvation  Ediel_sol  =         0.00000000
  ---------------------------------------------------
  free energy    TOTEN  =      -372.67942110 eV

  energy without entropy =     -372.69477210  energy(sigma->0) =     -372.68453810


--------------------------------------------------------------------------------------------------------




----------------------------------------- Iteration    1(   8)  ---------------------------------------


    POTLOK:  cpu time    0.0297: real time    0.0308
    SETDIJ:  cpu time    0.0037: real time    0.0037
    EDDIAG:  cpu time    0.0790: real time    0.0792
  RMM-DIIS:  cpu time    0.7477: real time    0.8252
    ORTHCH:  cpu time    0.0137: real time    0.0145
       DOS:  cpu time    0.0013: real time    0.0013
    CHARGE:  cpu time    0.0317: real time    0.0326
    MIXING:  cpu time    0.0014: real time    0.0014
    --------------------------------------------
      LOOP:  cpu time    0.9089: real time    1.0276

 eigenvalue-minimisations  :  7634
 total energy-change (2. order) : 0.5321608E+01  (-0.6410599E+00)
 number of electron     299.9999998 magnetization 
 augmentation part       18.7212774 magnetization 

 Broyden mixing:
  rms(total) = 0.46402E+00    rms(broyden)= 0.46344E+00
  rms(prec ) = 0.78897E+00
  weight for this iteration     100.00

 eigenvalues of (default mixing * dielectric matrix)
  average eigenvalue GAMMA=   1.0860
  1.8112  1.0722  0.3746

 Free energy of the ion-electron system (eV)
  ---------------------------------------------------
  alpha Z        PSCENC =      1588.35930767
  Ewald energy   TEWEN  =    -20294.68554368
  -Hartree energ DENC   =     -6680.82448770
  -exchange      EXHF   =         0.00000000
  -V(xc)+E(xc)   XCENC  =      -249.25555257
  PAW double counting   =     34143.02858226   -32534.18276189
  entropy T*S    EENTRO =         0.00227931
  eigenvalues    EBANDS =     -2653.49626278
  atomic energy  EATOM  =     26313.69662656
  Solvation  Ediel_sol  =         0.00000000
  ---------------------------------------------------
  free energy    TOTEN  =      -367.35781282 eV

  energy without entropy =     -367.36009213  energy(sigma->0) =     -367.35857259


--------------------------------------------------------------------------------------------------------




----------------------------------------- Iteration    1(   9)  ---------------------------------------


    POTLOK:  cpu time    0.0287: real time    0.0530
    SETDIJ:  cpu time    0.0039: real time    0.0057
    EDDIAG:  cpu time    0.1000: real time    0.1166
  RMM-DIIS:  cpu time    0.8167: real time    0.8627
    ORTHCH:  cpu time    0.0234: real time    0.0285
       DOS:  cpu time    0.0324: real time    0.0333
    CHARGE:  cpu time    0.0887: real time    0.0890
    MIXING:  cpu time    0.0013: real time    0.0013
    --------------------------------------------
      LOOP:  cpu time    1.0959: real time    1.2271

 eigenvalue-minimisations  :  7706
 total energy-change (2. order) : 0.3267770E+00  (-0.2335178E+00)
 number of electron     299.9999998 magnetization 
 augmentation part       18.5937150 magnetization 

 Broyden mixing:
  rms(total) = 0.30407E+00    rms(broyden)= 0.30391E+00
  rms(prec ) = 0.42310E+00
  weight for this iteration     100.00

 eigenvalues of (default mixing * dielectric matrix)
  average eigenvalue GAMMA=   1.1138
  1.8165  1.8165  0.4288  0.3933

 Free energy of the ion-electron system (eV)
  ---------------------------------------------------
  alpha Z        PSCENC =      1588.35930767
  Ewald energy   TEWEN  =    -20294.68554368
  -Hartree energ DENC   =     -6686.41991631
  -exchange      EXHF   =         0.00000000
  -V(xc)+E(xc)   XCENC  =      -248.73293433
  PAW double counting   =     34307.05521309   -32694.52030646
  entropy T*S    EENTRO =         0.00620981
  eigenvalues    EBANDS =     -2651.78969217
  atomic energy  EATOM  =     26313.69662656
  Solvation  Ediel_sol  =         0.00000000
  ---------------------------------------------------
  free energy    TOTEN  =      -367.03103582 eV

  energy without entropy =     -367.03724562  energy(sigma->0) =     -367.03310575


--------------------------------------------------------------------------------------------------------




----------------------------------------- Iteration    1(  10)  ---------------------------------------


    POTLOK:  cpu time    0.0347: real time    0.0348
    SETDIJ:  cpu time    0.0049: real time    0.0049
    EDDIAG:  cpu time    0.0965: real time    0.0973
  RMM-DIIS:  cpu time    0.7106: real time    0.8768
    ORTHCH:  cpu time    0.0126: real time    0.0132
       DOS:  cpu time    0.0009: real time    0.0009
    CHARGE:  cpu time    0.0300: real time    0.0745
    MIXING:  cpu time    0.0013: real time    0.0013
    --------------------------------------------
      LOOP:  cpu time    0.8924: real time    1.1511

 eigenvalue-minimisations  :  7647
 total energy-change (2. order) : 0.2464943E-01  (-0.5437872E-01)
 number of electron     299.9999998 magnetization 
 augmentation part       18.5022828 magnetization 

 Broyden mixing:
  rms(total) = 0.16447E+00    rms(broyden)= 0.16441E+00
  rms(prec ) = 0.30374E+00
  weight for this iteration     100.00

 eigenvalues of (default mixing * dielectric matrix)
  average eigenvalue GAMMA=   1.0689
  1.9352  1.9352  0.6471  0.3921  0.4352

 Free energy of the ion-electron system (eV)
  ---------------------------------------------------
  alpha Z        PSCENC =      1588.35930767
  Ewald energy   TEWEN  =    -20294.68554368
  -Hartree energ DENC   =     -6699.13930111
  -exchange      EXHF   =         0.00000000
  -V(xc)+E(xc)   XCENC  =      -247.76834689
  PAW double counting   =     34515.41610911   -32896.14068808
  entropy T*S    EENTRO =         0.00315150
  eigenvalues    EBANDS =     -2646.74770145
  atomic energy  EATOM  =     26313.69662656
  Solvation  Ediel_sol  =         0.00000000
  ---------------------------------------------------
  free energy    TOTEN  =      -367.00638639 eV

  energy without entropy =     -367.00953789  energy(sigma->0) =     -367.00743689


--------------------------------------------------------------------------------------------------------




----------------------------------------- Iteration    1(  11)  ---------------------------------------


    POTLOK:  cpu time    0.0289: real time    0.0336
    SETDIJ:  cpu time    0.0037: real time    0.0038
    EDDIAG:  cpu time    0.1123: real time    0.1222
  RMM-DIIS:  cpu time    0.8343: real time    0.8396
    ORTHCH:  cpu time    0.0121: real time    0.0122
       DOS:  cpu time    0.0014: real time    0.0014
    CHARGE:  cpu time    0.0300: real time    0.0301
    MIXING:  cpu time    0.0016: real time    0.0016
    --------------------------------------------
      LOOP:  cpu time    1.0249: real time    1.0759

 eigenvalue-minimisations  :  7631
 total energy-change (2. order) : 0.4416859E-01  (-0.1618184E-01)
 number of electron     299.9999998 magnetization 
 augmentation part       18.4677024 magnetization 

 Broyden mixing:
  rms(total) = 0.78147E-01    rms(broyden)= 0.78099E-01
  rms(prec ) = 0.15507E+00
  weight for this iteration     100.00

 eigenvalues of (default mixing * dielectric matrix)
  average eigenvalue GAMMA=   1.0449
  2.1685  1.8422  0.9868  0.4810  0.3671  0.4237

 Free energy of the ion-electron system (eV)
  ---------------------------------------------------
  alpha Z        PSCENC =      1588.35930767
  Ewald energy   TEWEN  =    -20294.68554368
  -Hartree energ DENC   =     -6706.19375267
  -exchange      EXHF   =         0.00000000
  -V(xc)+E(xc)   XCENC  =      -247.25004943
  PAW double counting   =     34692.82946285   -33069.23481061
  entropy T*S    EENTRO =         0.00422790
  eigenvalues    EBANDS =     -2644.48768638
  atomic energy  EATOM  =     26313.69662656
  Solvation  Ediel_sol  =         0.00000000
  ---------------------------------------------------
  free energy    TOTEN  =      -366.96221780 eV

  energy without entropy =     -366.96644570  energy(sigma->0) =     -366.96362710


--------------------------------------------------------------------------------------------------------




----------------------------------------- Iteration    1(  12)  ---------------------------------------


    POTLOK:  cpu time    0.0292: real time    0.0293
    SETDIJ:  cpu time    0.0036: real time    0.0037
    EDDIAG:  cpu time    0.0780: real time    0.0783
  RMM-DIIS:  cpu time    0.7936: real time    0.8034
    ORTHCH:  cpu time    0.0122: real time    0.0122
       DOS:  cpu time    0.0011: real time    0.0011
    CHARGE:  cpu time    0.0299: real time    0.0301
    MIXING:  cpu time    0.0015: real time    0.0015
    --------------------------------------------
      LOOP:  cpu time    0.9499: real time    0.9862

 eigenvalue-minimisations  :  7716
 total energy-change (2. order) : 0.7351567E-02  (-0.6261227E-02)
 number of electron     299.9999998 magnetization 
 augmentation part       18.4663858 magnetization 

 Broyden mixing:
  rms(total) = 0.44578E-01    rms(broyden)= 0.44562E-01
  rms(prec ) = 0.67149E-01
  weight for this iteration     100.00

 eigenvalues of (default mixing * dielectric matrix)
  average eigenvalue GAMMA=   1.0123
  2.2472  1.8311  1.1977  0.5442  0.5442  0.3683  0.3536

 Free energy of the ion-electron system (eV)
  ---------------------------------------------------
  alpha Z        PSCENC =      1588.35930767
  Ewald energy   TEWEN  =    -20294.68554368
  -Hartree energ DENC   =     -6706.68166169
  -exchange      EXHF   =         0.00000000
  -V(xc)+E(xc)   XCENC  =      -247.11176022
  PAW double counting   =     34812.87047953   -33187.33935056
  entropy T*S    EENTRO =         0.00263676
  eigenvalues    EBANDS =     -2646.06560059
  atomic energy  EATOM  =     26313.69662656
  Solvation  Ediel_sol  =         0.00000000
  ---------------------------------------------------
  free energy    TOTEN  =      -366.95486623 eV

  energy without entropy =     -366.95750299  energy(sigma->0) =     -366.95574515


--------------------------------------------------------------------------------------------------------




----------------------------------------- Iteration    1(  13)  ---------------------------------------


    POTLOK:  cpu time    0.0293: real time    0.0294
    SETDIJ:  cpu time    0.0037: real time    0.0037
    EDDIAG:  cpu time    0.0781: real time    0.0784
  RMM-DIIS:  cpu time    0.7979: real time    0.8033
    ORTHCH:  cpu time    0.0119: real time    0.0130
       DOS:  cpu time    0.0009: real time    0.0009
    CHARGE:  cpu time    0.0297: real time    0.0298
    MIXING:  cpu time    0.0015: real time    0.0015
    --------------------------------------------
      LOOP:  cpu time    0.9535: real time    0.9894

 eigenvalue-minimisations  :  7728
 total energy-change (2. order) : 0.1401920E-02  (-0.1687858E-02)
 number of electron     299.9999998 magnetization 
 augmentation part       18.4673365 magnetization 

 Broyden mixing:
  rms(total) = 0.25486E-01    rms(broyden)= 0.25476E-01
  rms(prec ) = 0.33710E-01
  weight for this iteration     100.00

 eigenvalues of (default mixing * dielectric matrix)
  average eigenvalue GAMMA=   1.0607
  2.2921  1.8468  1.7383  0.8171  0.6150  0.4406  0.3810  0.3551

 Free energy of the ion-electron system (eV)
  ---------------------------------------------------
  alpha Z        PSCENC =      1588.35930767
  Ewald energy   TEWEN  =    -20294.68554368
  -Hartree energ DENC   =     -6707.53223271
  -exchange      EXHF   =         0.00000000
  -V(xc)+E(xc)   XCENC  =      -247.05991027
  PAW double counting   =     34884.88291286   -33258.40720722
  entropy T*S    EENTRO =         0.00276346
  eigenvalues    EBANDS =     -2646.21018098
  atomic energy  EATOM  =     26313.69662656
  Solvation  Ediel_sol  =         0.00000000
  ---------------------------------------------------
  free energy    TOTEN  =      -366.95346431 eV

  energy without entropy =     -366.95622778  energy(sigma->0) =     -366.95438547


--------------------------------------------------------------------------------------------------------




----------------------------------------- Iteration    1(  14)  ---------------------------------------


    POTLOK:  cpu time    0.0289: real time    0.0290
    SETDIJ:  cpu time    0.0248: real time    0.0249
    EDDIAG:  cpu time    0.0808: real time    0.0811
  RMM-DIIS:  cpu time    0.8181: real time    0.8216
    ORTHCH:  cpu time    0.0123: real time    0.0126
       DOS:  cpu time    0.0009: real time    0.0009
    CHARGE:  cpu time    0.0299: real time    0.0301
    MIXING:  cpu time    0.0016: real time    0.0016
    --------------------------------------------
      LOOP:  cpu time    0.9978: real time    1.0302

 eigenvalue-minimisations  :  7890
 total energy-change (2. order) :-0.5144510E-04  (-0.6790213E-03)
 number of electron     299.9999998 magnetization 
 augmentation part       18.4687594 magnetization 

 Broyden mixing:
  rms(total) = 0.14355E-01    rms(broyden)= 0.14352E-01
  rms(prec ) = 0.23367E-01
  weight for this iteration     100.00

 eigenvalues of (default mixing * dielectric matrix)
  average eigenvalue GAMMA=   1.0626
  2.4784  2.0911  1.6601  1.0091  0.5858  0.5858  0.4170  0.3873  0.3484

 Free energy of the ion-electron system (eV)
  ---------------------------------------------------
  alpha Z        PSCENC =      1588.35930767
  Ewald energy   TEWEN  =    -20294.68554368
  -Hartree energ DENC   =     -6707.69505141
  -exchange      EXHF   =         0.00000000
  -V(xc)+E(xc)   XCENC  =      -247.05888408
  PAW double counting   =     34924.98882913   -33297.98198322
  entropy T*S    EENTRO =         0.00274889
  eigenvalues    EBANDS =     -2646.57956562
  atomic energy  EATOM  =     26313.69662656
  Solvation  Ediel_sol  =         0.00000000
  ---------------------------------------------------
  free energy    TOTEN  =      -366.95351576 eV

  energy without entropy =     -366.95626465  energy(sigma->0) =     -366.95443206


--------------------------------------------------------------------------------------------------------




----------------------------------------- Iteration    1(  15)  ---------------------------------------


    POTLOK:  cpu time    0.0291: real time    0.0293
    SETDIJ:  cpu time    0.0041: real time    0.0041
    EDDIAG:  cpu time    0.0777: real time    0.0780
  RMM-DIIS:  cpu time    0.7994: real time    0.8028
    ORTHCH:  cpu time    0.0128: real time    0.0129
       DOS:  cpu time    0.0015: real time    0.0015
    CHARGE:  cpu time    0.0309: real time    0.0312
    MIXING:  cpu time    0.0016: real time    0.0016
    --------------------------------------------
      LOOP:  cpu time    0.9577: real time    0.9921

 eigenvalue-minimisations  :  7737
 total energy-change (2. order) :-0.7806663E-04  (-0.2999220E-03)
 number of electron     299.9999998 magnetization 
 augmentation part       18.4671310 magnetization 

 Broyden mixing:
  rms(total) = 0.62713E-02    rms(broyden)= 0.62675E-02
  rms(prec ) = 0.14079E-01
  weight for this iteration     100.00

 eigenvalues of (default mixing * dielectric matrix)
  average eigenvalue GAMMA=   1.0338
  2.5671  2.0748  1.5605  1.1940  0.6687  0.6687  0.3495  0.3781  0.4380  0.4380

 Free energy of the ion-electron system (eV)
  ---------------------------------------------------
  alpha Z        PSCENC =      1588.35930767
  Ewald energy   TEWEN  =    -20294.68554368
  -Hartree energ DENC   =     -6708.09415222
  -exchange      EXHF   =         0.00000000
  -V(xc)+E(xc)   XCENC  =      -247.05078426
  PAW double counting   =     34948.50627237   -33321.08095757
  entropy T*S    EENTRO =         0.00295357
  eigenvalues    EBANDS =     -2646.60731626
  atomic energy  EATOM  =     26313.69662656
  Solvation  Ediel_sol  =         0.00000000
  ---------------------------------------------------
  free energy    TOTEN  =      -366.95359382 eV

  energy without entropy =     -366.95654740  energy(sigma->0) =     -366.95457835


--------------------------------------------------------------------------------------------------------




----------------------------------------- Iteration    1(  16)  ---------------------------------------


    POTLOK:  cpu time    0.0293: real time    0.0294
    SETDIJ:  cpu time    0.0038: real time    0.0038
    EDDIAG:  cpu time    0.0789: real time    0.0793
  RMM-DIIS:  cpu time    0.7610: real time    0.7659
    ORTHCH:  cpu time    0.0121: real time    0.0122
       DOS:  cpu time    0.0069: real time    0.0070
    CHARGE:  cpu time    0.0464: real time    0.0465
    MIXING:  cpu time    0.0017: real time    0.0017
    --------------------------------------------
      LOOP:  cpu time    0.9406: real time    0.9773

 eigenvalue-minimisations  :  6935
 total energy-change (2. order) :-0.2387449E-04  (-0.1309643E-03)
 number of electron     299.9999998 magnetization 
 augmentation part       18.4665058 magnetization 

 Broyden mixing:
  rms(total) = 0.37335E-02    rms(broyden)= 0.37305E-02
  rms(prec ) = 0.65101E-02
  weight for this iteration     100.00

 eigenvalues of (default mixing * dielectric matrix)
  average eigenvalue GAMMA=   1.0182
  2.6255  2.0635  1.4949  1.4949  0.7452  0.7452  0.4747  0.4747  0.3692  0.3692
  0.3427

 Free energy of the ion-electron system (eV)
  ---------------------------------------------------
  alpha Z        PSCENC =      1588.35930767
  Ewald energy   TEWEN  =    -20294.68554368
  -Hartree energ DENC   =     -6708.20068428
  -exchange      EXHF   =         0.00000000
  -V(xc)+E(xc)   XCENC  =      -247.04616423
[...]
    102       5.5515      2.00000
    103       5.6131      2.00000
    104       5.6544      2.00000
    105       5.7067      2.00000
    106       5.7543      2.00000
    107       5.8295      2.00000
    108       5.8654      2.00000
    109       5.9708      2.00000
    110       6.1708      2.00000
    111       6.2091      2.00000
    112       6.2353      2.00000
    113       6.2826      2.00000
    114       6.3056      2.00000
    115       6.3485      2.00000
    116       6.3700      2.00000
    117       6.3927      2.00000
    118       6.4213      2.00000
    119       6.4730      2.00000
    120       6.5045      2.00000
    121       6.5184      2.00000
    122       6.5481      2.00000
    123       6.5737      2.00000
    124       6.5967      2.00000
    125       6.6276      2.00000
    126       6.6642      2.00000
    127       6.7206      2.00000
    128       6.7489      2.00000
    129       6.8244      2.00000
    130       6.8618      2.00000
    131       6.9047      2.00000
    132       6.9436      2.00000
    133       6.9726      2.00000
    134       7.0246      2.00000
    135       7.0572      2.00000
    136       7.0871      2.00000
    137       7.1374      2.00002
    138       7.1779      2.00010
    139       7.1976      2.00021
    140       7.2163      2.00042
    141       7.2740      2.00269
    142       7.3175      2.00868
    143       7.3616      2.02294
    144       7.4000      2.04367
    145       7.4314      2.06227
    146       7.4705      2.06933
    147       7.4915      2.05354
    148       7.5112      2.01745
    149       7.5319      1.95059
    150       7.5726      1.71336
    151       7.6266      1.19456
    152       7.6411      1.03205
    153       7.6741      0.66798
    154       7.7256      0.21305
    155       7.7680      0.00693
    156       7.8114     -0.06670
    157       7.8538     -0.06364
    158       7.8901     -0.04235
    159       7.9351     -0.01927
    160       7.9630     -0.01040
    161       7.9957     -0.00451
    162       8.0125     -0.00280
    163       8.0657     -0.00052
    164       8.1237     -0.00006
    165       8.1376     -0.00003
    166       8.1866     -0.00000
    167       8.2257     -0.00000
    168       8.2972     -0.00000
    169       8.3490     -0.00000
    170       8.3951     -0.00000
    171       8.4593     -0.00000
    172       8.5068     -0.00000
    173       8.7035     -0.00000
    174       8.9726     -0.00000
    175       9.0151     -0.00000
    176       9.5549     -0.00000
    177       9.5926     -0.00000
    178       9.6625     -0.00000
    179       9.7003     -0.00000
    180       9.7454     -0.00000


--------------------------------------------------------------------------------------------------------


 soft charge-density along one line, spin component           1
         0         1         2         3         4         5         6         7         8         9
 total charge-density along one line
 
 pseudopotential strength for first ion, spin component:           1
 -5.025   0.002  -0.000   0.001  -0.000  -6.265   0.002  -0.000
  0.002  -5.024   0.000   0.001  -0.000   0.002  -6.264   0.000
 -0.000   0.000  -5.023   0.001   0.002  -0.000   0.000  -6.263
  0.001   0.001   0.001  -5.026   0.001   0.002   0.002   0.001
 -0.000  -0.000   0.002   0.001  -5.022  -0.000  -0.000   0.002
 -6.265   0.002  -0.000   0.002  -0.000  -7.791   0.003  -0.000
  0.002  -6.264   0.000   0.002  -0.000   0.003  -7.790   0.000
 -0.000   0.000  -6.263   0.001   0.002  -0.000   0.000  -7.788
  0.002   0.002   0.001  -6.267   0.002   0.002   0.002   0.001
 -0.000  -0.000   0.002   0.002  -6.261  -0.000  -0.000   0.003
 -0.001  -0.001   0.001  -0.002   0.001  -0.001  -0.001   0.001
 -0.001  -0.001   0.001  -0.003   0.001  -0.002  -0.001   0.001
 -0.004   0.003   0.003  -0.002   0.005  -0.005   0.004   0.004
 -0.002  -0.006   0.005  -0.004   0.000  -0.002  -0.007   0.006
 -0.006  -0.002   0.003   0.003  -0.005  -0.008  -0.002   0.004
  0.004  -0.003  -0.003   0.002  -0.006   0.006  -0.003  -0.004
  0.002   0.007  -0.005   0.005   0.000   0.003   0.009  -0.006
  0.007   0.002  -0.004  -0.002   0.007   0.009   0.003  -0.004
 total augmentation occupancy for first ion, spin component:           1
  4.136   0.078   0.024   0.107  -0.025  -2.196  -0.045  -0.005  -0.054   0.011   0.037  -0.013   0.043   0.027   0.075   0.002
  0.078   4.115   0.018   0.108   0.009  -0.045  -2.187  -0.013  -0.055   0.000   0.032  -0.012  -0.094   0.047   0.026  -0.003
  0.024   0.018   4.550   0.030   0.100  -0.005  -0.014  -2.467  -0.017  -0.065  -0.024   0.010  -0.037  -0.063  -0.029  -0.002
  0.107   0.108   0.030   4.123   0.026  -0.054  -0.055  -0.018  -2.170  -0.017   0.070  -0.030   0.029   0.039  -0.050   0.001
 -0.025   0.009   0.100   0.026   4.615   0.011   0.001  -0.065  -0.016  -2.507  -0.102   0.029  -0.027   0.030   0.048  -0.003
 -2.196  -0.045  -0.005  -0.054   0.011   1.177   0.025  -0.001   0.029  -0.005  -0.023   0.007  -0.024  -0.013  -0.041  -0.001
 -0.045  -2.187  -0.014  -0.055   0.001   0.025   1.174   0.009   0.027  -0.003  -0.016   0.007   0.051  -0.028  -0.013   0.001
 -0.005  -0.013  -2.467  -0.018  -0.065  -0.001   0.009   1.345   0.010   0.042   0.016  -0.006   0.021   0.038   0.016   0.001
 -0.054  -0.055  -0.017  -2.170  -0.016   0.029   0.027   0.010   1.154   0.010  -0.043   0.016  -0.014  -0.022   0.028  -0.001
  0.011   0.000  -0.065  -0.017  -2.507  -0.005  -0.003   0.042   0.010   1.370   0.063  -0.016   0.017  -0.015  -0.027   0.002
  0.037   0.032  -0.024   0.070  -0.102  -0.023  -0.016   0.016  -0.043   0.063   2.423  -0.314   0.029  -0.024   0.020   0.002
 -0.013  -0.012   0.010  -0.030   0.029   0.007   0.007  -0.006   0.016  -0.016  -0.314   0.043   0.000   0.001   0.001  -0.000
  0.043  -0.094  -0.037   0.029  -0.027  -0.024   0.051   0.021  -0.014   0.017   0.029   0.000   0.332   0.001   0.004   0.006
  0.027   0.047  -0.063   0.039   0.030  -0.013  -0.028   0.038  -0.022  -0.015  -0.024   0.001   0.001   0.309   0.007  -0.000
  0.075   0.026  -0.029  -0.050   0.048  -0.041  -0.013   0.016   0.028  -0.027   0.020   0.001   0.004   0.007   0.301   0.000
  0.002  -0.003  -0.002   0.001  -0.003  -0.001   0.001   0.001  -0.001   0.002   0.002  -0.000   0.006  -0.000   0.000   0.000
  0.001   0.003  -0.004   0.002   0.000  -0.001  -0.002   0.002  -0.001  -0.000  -0.001   0.000  -0.000   0.005   0.000   0.000
  0.003   0.001  -0.002  -0.002   0.003  -0.002  -0.001   0.001   0.001  -0.002   0.001  -0.000   0.000   0.000   0.005  -0.000


------------------------ aborting loop because EDIFF is reached ----------------------------------------


    CHARGE:  cpu time    0.0292: real time    0.0294
    FORLOC:  cpu time    0.0133: real time    0.0133
    FORNL :  cpu time    0.3145: real time    0.3165
    STRESS:  cpu time    0.9820: real time    0.9879
    FORCOR:  cpu time    0.0427: real time    0.0428
    FORHAR:  cpu time    0.0181: real time    0.0182
    MIXING:  cpu time    0.0012: real time    0.0012
    OFIELD:  cpu time    0.0000: real time    0.0000

  FORCE on cell =-STRESS in cart. coord.  units (eV):
  Direction    XX          YY          ZZ          XY          YZ          ZX
  --------------------------------------------------------------------------------------
  Alpha Z  1588.50951  1588.50951  1588.50951
  Ewald   -6607.00879 -6321.40780 -7354.11888   -42.50333   -75.79292   -67.76651
  Hartree  2387.97298  2639.45089  1693.75576   -37.49326   -83.97071   -52.18924
  E(xc)   -1314.67460 -1315.00901 -1315.51485     0.07382    -0.13886    -0.10082
  Local   -1057.13026 -1592.99807   385.77816    79.88478   160.18081   119.58522
  n-local  -303.46536  -306.63610  -305.46016    -0.59230    -1.38838     0.50349
  augment   227.99912   228.05992   228.08634     0.10182     0.09380    -0.11234
  Kinetic  5077.62715  5080.03573  5078.91440     0.47109     0.99072     0.06776
  Fock        0.00000     0.00000     0.00000     0.00000     0.00000     0.00000
  -------------------------------------------------------------------------------------
  Total      -0.17025     0.00507    -0.04972    -0.05738    -0.02554    -0.01244
  in kB      -0.38029     0.01133    -0.11106    -0.12816    -0.05704    -0.02779
  external pressure =       -0.16 kB  Pullay stress =        0.00 kB


 VOLUME and BASIS-vectors are now :
 -----------------------------------------------------------------------------
  energy-cutoff  :      300.00
  volume of cell :      717.28
      direct lattice vectors                 reciprocal lattice vectors
     6.848053738 -0.001512113  0.004495827     0.146026963  0.000028900 -0.000099861
    -0.002018448 10.256497175  0.016685916     0.000021631  0.097499432 -0.000156054
     0.006980442  0.016343866 10.212286237    -0.000064322 -0.000159318  0.097921565

  length of vectors
     6.848055381 10.256510946 10.212301701     0.146027000  0.097499559  0.097921716


 FORCES acting on ions
    electron-ion (+dipol)            ewald-force                    non-local-force                 convergence-correction
 -----------------------------------------------------------------------------------------------
   -.278E+02 -.496E+02 0.271E+02   0.283E+02 0.501E+02 -.276E+02   -.481E+00 -.551E+00 0.570E+00   -.922E-04 -.940E-02 0.101E-01
   -.228E+02 -.192E+02 -.782E+02   0.229E+02 0.190E+02 0.781E+02   -.721E-01 0.187E+00 0.851E-01   -.741E-03 0.158E-01 -.954E-02
   -.205E+02 0.408E+02 -.489E+02   0.208E+02 -.402E+02 0.491E+02   -.329E+00 -.608E+00 -.168E+00   0.288E-03 0.126E-01 -.142E-01
   0.585E+02 0.776E+01 0.143E+02   -.586E+02 -.786E+01 -.143E+02   0.109E+00 0.106E+00 0.378E-01   -.209E-03 -.150E-01 0.350E-02
   0.444E+01 -.893E+02 0.115E+02   -.448E+01 0.897E+02 -.113E+02   0.437E-01 -.341E+00 -.139E+00   -.428E-03 -.108E-01 -.251E-02
   0.188E+02 -.833E+01 0.248E+02   -.189E+02 0.730E+01 -.245E+02   0.849E-01 0.102E+01 -.258E+00   0.546E-03 0.113E-01 -.352E-02
   0.190E+02 0.385E+02 -.581E+02   -.194E+02 -.382E+02 0.583E+02   0.335E+00 -.357E+00 -.158E+00   -.631E-03 0.126E-01 -.141E-01
   0.116E+02 0.250E+02 0.853E+02   -.119E+02 -.252E+02 -.852E+02   0.287E+00 0.178E+00 -.719E-01   -.554E-03 0.102E-01 0.888E-02
   -.997E+02 -.134E+03 -.574E+02   0.100E+03 0.135E+03 0.577E+02   -.596E+00 -.140E+01 -.317E+00   -.706E-03 -.444E-01 -.319E-01
   -.128E+03 -.911E+02 0.202E+03   0.129E+03 0.905E+02 -.202E+03   -.503E+00 0.672E+00 0.463E+00   0.822E-02 -.443E-01 0.243E-01
   -.680E+02 -.427E+02 0.861E+02   0.682E+02 0.414E+02 -.862E+02   -.179E+00 0.128E+01 0.906E-01   -.201E-02 0.377E-01 -.415E-02
   -.256E+03 0.107E+03 -.765E+02   0.256E+03 -.106E+03 0.766E+02   -.393E+00 -.657E+00 -.161E+00   0.807E-02 0.414E-01 0.207E-01
   0.979E+02 -.126E+03 -.180E+03   -.985E+02 0.127E+03 0.180E+03   0.596E+00 -.118E+01 -.716E+00   -.201E-02 -.398E-01 -.311E-01
   0.128E+03 -.234E+02 0.152E+03   -.128E+03 0.229E+02 -.153E+03   0.471E+00 0.465E+00 0.354E+00   -.370E-02 -.385E-01 0.240E-01
   0.118E+03 -.151E+03 0.142E+03   -.119E+03 0.152E+03 -.143E+03   0.593E+00 -.675E+00 0.705E+00   -.152E-02 -.282E-01 0.367E-01
   0.113E+03 0.971E+02 -.316E+03   -.113E+03 -.980E+02 0.315E+03   -.825E+00 0.882E+00 0.752E+00   0.503E-02 -.442E-02 -.306E-01
   0.133E+03 0.668E+02 0.286E+03   -.134E+03 -.678E+02 -.286E+03   0.240E+00 0.990E+00 0.630E+00   -.294E-02 0.424E-01 0.330E-01
   -.660E+01 -.877E+02 -.111E+02   0.659E+01 0.879E+02 0.115E+02   0.793E-02 -.203E+00 -.327E+00   0.139E-03 -.145E-01 -.157E-02
   0.146E+02 -.867E+02 -.110E+03   -.138E+02 0.861E+02 0.110E+03   -.850E+00 0.561E+00 -.435E-01   0.193E-03 -.114E-03 -.125E-01
   -.295E+02 0.166E+01 0.101E+03   0.297E+02 -.132E+01 -.101E+03   -.262E+00 -.341E+00 -.345E+00   0.165E-02 0.182E-02 0.111E-01
   -.492E+02 0.332E+02 0.605E+02   0.494E+02 -.344E+02 -.605E+02   -.195E+00 0.114E+01 0.133E-02   -.929E-03 0.141E-01 0.148E-01
   -.305E+02 0.110E+03 0.674E+02   0.305E+02 -.110E+03 -.666E+02   0.478E-01 -.697E+00 -.772E+00   -.631E-03 -.312E-02 -.420E-02
   -.161E+02 -.924E+02 -.987E+02   0.153E+02 0.918E+02 0.989E+02   0.880E+00 0.612E+00 -.193E+00   -.790E-04 -.882E-03 -.127E-01
   0.300E+02 0.117E+03 0.762E+02   -.300E+02 -.116E+03 -.754E+02   -.304E-01 -.628E+00 -.756E+00   0.628E-03 -.247E-02 -.568E-02
   -.607E+02 0.215E+02 0.211E+02   0.605E+02 -.209E+02 -.211E+02   0.160E+00 -.622E+00 0.319E-01   -.913E-03 -.381E-02 0.175E-01
   -.623E+02 0.470E+02 -.968E+02   0.620E+02 -.477E+02 0.962E+02   0.387E+00 0.701E+00 0.667E+00   -.104E-02 -.104E-02 -.899E-02
   0.266E+02 -.189E+02 0.803E+02   -.268E+02 0.193E+02 -.802E+02   0.286E+00 -.379E+00 -.178E+00   -.131E-02 0.167E-02 0.112E-01
   0.881E+02 -.327E+02 0.174E+02   -.880E+02 0.326E+02 -.178E+02   -.198E-01 0.786E-01 0.383E+00   -.118E-02 0.252E-02 0.208E-02
   -.166E+03 0.832E+01 0.371E+02   0.166E+03 -.856E+01 -.370E+02   -.852E-01 0.283E+00 -.844E-01   0.107E-02 -.508E-01 0.113E-01
   -.533E+02 0.972E+02 -.228E+03   0.534E+02 -.973E+02 0.228E+03   -.107E+00 0.157E+00 -.197E+00   0.197E-02 -.465E-01 -.382E-01
   -.196E+03 -.105E+03 0.346E+02   0.196E+03 0.105E+03 -.350E+02   0.194E+00 0.100E+00 0.406E+00   0.388E-02 0.546E-02 0.245E-02
   -.595E+02 0.843E+02 0.278E+03   0.599E+02 -.844E+02 -.278E+03   -.454E+00 0.371E-01 0.142E+00   0.321E-02 0.346E-01 0.292E-01
   0.526E+02 0.133E+03 -.167E+03   -.527E+02 -.133E+03 0.167E+03   0.908E-01 -.417E-01 -.939E-01   -.158E-02 -.436E-01 -.377E-01
   0.699E+02 -.112E+02 -.363E+03   -.700E+02 0.110E+02 0.363E+03   0.876E-01 0.176E+00 -.418E+00   0.296E-02 0.505E-01 -.297E-01
   0.234E+03 0.582E+02 -.409E+02   -.234E+03 -.579E+02 0.408E+02   0.425E+00 -.416E+00 0.986E-01   -.280E-02 0.412E-01 0.202E-01
   0.134E+03 0.743E+02 0.124E+03   -.134E+03 -.740E+02 -.125E+03   -.179E+00 -.293E+00 0.482E+00   0.297E-02 -.810E-02 0.484E-01
 -----------------------------------------------------------------------------------------------
   0.218E+00 -.155E+00 -.540E+00   0.114E-12 0.313E-12 -.995E-13   -.235E+00 0.229E+00 0.502E+00   0.148E-01 -.739E-01 0.367E-01
 
 
 POSITION                                       TOTAL-FORCE (eV/Angst)
 -----------------------------------------------------------------------------------
      1.77064      1.74387      8.42799         0.001496      0.001441     -0.003481
      1.72261      5.14311      1.68228         0.000860      0.000105     -0.002467
      0.09639      6.98138      3.53937        -0.003056      0.002043      0.001615
      3.45649      0.03647      0.12234         0.003134      0.000420      0.000102
      5.13003      1.73680      5.17022         0.001222      0.001432      0.000412
      5.12162      5.00185      5.02681        -0.001613     -0.004929     -0.005986
      3.34959      7.02131      3.51166         0.002367      0.000329      0.001251
      3.35849      6.79127      6.78317         0.000295      0.001610     -0.003569
      1.75259      1.84675      1.76723         0.002140      0.000070      0.001242
      0.03195      0.03811      6.81560        -0.002988      0.003288      0.002315
      1.72843      4.97945      5.06359        -0.001238     -0.000045     -0.002057
      0.02410      6.83256     10.10519        -0.002563     -0.002324     -0.002070
      5.07022      1.90050      1.87232        -0.001076     -0.000235      0.001325
      3.41119     10.25719      6.83034         0.001327      0.003030      0.003304
      5.06928      1.75508      8.39621        -0.000976     -0.007462     -0.000774
      5.24429      8.32545      1.62911        -0.000883      0.000782      0.001982
      5.13952      5.03782      8.45704         0.004806      0.004332      0.003200
      1.72116      1.70250      5.20426         0.000398      0.006484      0.000294
      0.13264      3.31262      3.43819         0.001021     -0.000636     -0.000878
      0.01963      3.50278      6.85182        -0.001971      0.002796     -0.003913
      1.73107      4.95341      8.55933         0.001020     -0.002346     -0.000784
      1.69819      8.79105      5.32475         0.000067     -0.001354      0.007486
      3.28635      3.31644      3.43744         0.001951      0.002045     -0.000431
      5.15746      8.72436      5.28990        -0.002618      0.001052      0.001944
      1.69623      8.67139      8.51772        -0.000518     -0.002511     -0.000972
      1.62459      8.35460      1.47482         0.000239      0.002523     -0.001345
      3.39488      3.53129      6.83721         0.003311      0.001450     -0.006484
      3.46572      3.37851     10.19327         0.002363      0.000441      0.005101
      6.79568      0.05464      0.10201        -0.002304     -0.000520     -0.003185
      0.01370     10.24788      3.35870         0.000585     -0.005060      0.003535
      6.77301      3.34638     10.20718        -0.003121      0.004197      0.001540
      0.07011      6.77874      6.78352        -0.004987     -0.003915      0.001926
      3.41333     10.22420      3.35072        -0.002491     -0.004263      0.000846
      5.13264      5.13447      1.77837         0.000214     -0.005626      0.003249
      3.44845      6.82724     10.06784         0.000235     -0.001516     -0.001058
      5.18878      8.62260      8.42598         0.003355      0.002872     -0.003215
 -----------------------------------------------------------------------------------
    total drift:                               -0.002147      0.000321     -0.000837


--------------------------------------------------------------------------------------------------------



  FREE ENERGIE OF THE ION-ELECTRON SYSTEM (eV)
  ---------------------------------------------------
  free  energy   TOTEN  =      -366.96615854 eV

  energy  without entropy=     -366.96867470  energy(sigma->0) =     -366.96699726
 
 d Force = 0.7034807E-04[ 0.600E-04, 0.807E-04]  d Energy = 0.1010053E-03-0.307E-04
 d Force =-0.1469193E+00[-0.147E+00,-0.146E+00]  d Ewald  =-0.3351636E+00 0.188E+00


--------------------------------------------------------------------------------------------------------


    POTLOK:  cpu time    0.0949: real time    0.0952


--------------------------------------------------------------------------------------------------------


 Conjugate gradient step on ions:
 trial-energy change:   -0.000101  1 .order   -0.000097   -0.000109   -0.000085
  (g-gl).g = 0.234E-04      g.g   = 0.330E-04  gl.gl    = 0.441E-04
 g(Force)  = 0.240E-04   g(Stress)= 0.903E-05 ortho     =-0.583E-05
 gamma     =   0.53138
 trial     =   3.65220
 opt step  =  14.60880  (harmonic =  16.32844) maximal distance =0.00464156
 next E    =  -366.966302   (d E  =  -0.00024)


--------------------------------------------------------------------------------------------------------


  
 reached required accuracy - stopping structural energy minimisation
     LOOP+:  cpu time    5.1341: real time    5.7366
    4ORBIT:  cpu time    0.0000: real time    0.0000

 total amount of memory used by VASP on root node    67617. kBytes
========================================================================

   base      :      30000. kBytes
   nonlr-proj:      10651. kBytes
   fftplans  :       2814. kBytes
   grid      :       5360. kBytes
   one-center:        124. kBytes
   wavefun   :      18668. kBytes
 
  
  
 General timing and accounting informations for this job:
 ========================================================
  
                  Total CPU time used (sec):      157.999
                            User time (sec):      157.050
                          System time (sec):        0.949
                         Elapsed time (sec):      179.858
  
                   Maximum memory used (kb):      268892.
                   Average memory used (kb):           0.
  
                          Minor page faults:       124748
                          Major page faults:           37
                 Voluntary context switches:         7404
