       N       E                     dE             d eps       ncg     rms          rms(c)
DAV:   1     0.236156566970E+04    0.23616E+04   -0.12728E+05  6072   0.107E+03
DAV:   2    -0.312447651290E+02   -0.23928E+04   -0.23081E+04  6296   0.411E+02
DAV:   3    -0.330389807601E+03   -0.29915E+03   -0.28419E+03  9488   0.101E+02
DAV:   4    -0.365424620139E+03   -0.35035E+02   -0.33529E+02  9448   0.318E+01
DAV:   5    -0.368935768870E+03   -0.35111E+01   -0.34678E+01  8920   0.101E+01    0.640E+01
RMM:   6    -0.358474332856E+03    0.10461E+02   -0.23013E+01  7505   0.982E+00    0.297E+01
RMM:   7    -0.358614766840E+03   -0.14043E+00   -0.22726E+01  7999   0.846E+00    0.973E+00
RMM:   8    -0.354884476164E+03    0.37303E+01   -0.44247E+00  8370   0.314E+00    0.454E+00
RMM:   9    -0.354681352833E+03    0.20312E+00   -0.17958E+00  8218   0.172E+00    0.310E+00
RMM:  10    -0.354637552652E+03    0.43800E-01   -0.40448E-01  8213   0.107E+00    0.147E+00
RMM:  11    -0.354608285933E+03    0.29267E-01   -0.14561E-01  8204   0.617E-01    0.713E-01
RMM:  12    -0.354603568887E+03    0.47170E-02   -0.45063E-02  8297   0.311E-01    0.417E-01
RMM:  13    -0.354601176749E+03    0.23921E-02   -0.14169E-02  8317   0.164E-01    0.249E-01
RMM:  14    -0.354601032017E+03    0.14473E-03   -0.58436E-03  8413   0.955E-02    0.145E-01
RMM:  15    -0.354601102273E+03   -0.70256E-04   -0.26542E-03  8519   0.643E-02    0.674E-02
RMM:  16    -0.354601109754E+03   -0.74808E-05   -0.10274E-03  7620   0.364E-02    0.319E-02
RMM:  17    -0.354601116587E+03   -0.68332E-05   -0.42002E-04  6333   0.226E-02    0.172E-02
RMM:  18    -0.354601124576E+03   -0.79887E-05   -0.20520E-04  6061   0.165E-02    0.105E-02
RMM:  19    -0.354601125440E+03   -0.86437E-06   -0.71809E-05  5155   0.122E-02
   1 F= -.35460113E+03 E0= -.35460592E+03  d E =-.354601E+03
       N       E                     dE             d eps       ncg     rms          rms(c)
DAV:   1    -0.354682863986E+03   -0.81739E-01   -0.33744E+00  7120   0.587E+00    0.214E+00
RMM:   2    -0.354658780963E+03    0.24083E-01   -0.35466E-01  7887   0.153E+00    0.734E-01
RMM:   3    -0.354648963627E+03    0.98173E-02   -0.71323E-02  8380   0.474E-01    0.544E-01
RMM:   4    -0.354640653555E+03    0.83101E-02   -0.19467E-02  8401   0.268E-01    0.294E-01
RMM:   5    -0.354639122217E+03    0.15313E-02   -0.65769E-03  8323   0.153E-01    0.225E-01
RMM:   6    -0.354639142976E+03   -0.20759E-04   -0.24411E-03  9004   0.765E-02    0.143E-01
RMM:   7    -0.354639182104E+03   -0.39128E-04   -0.10797E-03  8587   0.587E-02    0.808E-02
RMM:   8    -0.354639206071E+03   -0.23967E-04   -0.58064E-04  7780   0.343E-02    0.522E-02
RMM:   9    -0.354639231583E+03   -0.25512E-04   -0.22147E-04  6822   0.261E-02    0.428E-02
RMM:  10    -0.354639258962E+03   -0.27379E-04   -0.13067E-04  6235   0.186E-02    0.283E-02
RMM:  11    -0.354639262282E+03   -0.33203E-05   -0.95206E-05  5245   0.167E-02
   2 F= -.35463926E+03 E0= -.35464422E+03  d E =-.381368E-01
       N       E                     dE             d eps       ncg     rms          rms(c)
DAV:   1    -0.354862423341E+03   -0.22316E+00   -0.14587E+01  6864   0.122E+01    0.437E+00
RMM:   2    -0.354756921862E+03    0.10550E+00   -0.14962E+00  7884   0.317E+00    0.153E+00
RMM:   3    -0.354712060521E+03    0.44861E-01   -0.30228E-01  8398   0.968E-01    0.113E+00
RMM:   4    -0.354677074787E+03    0.34986E-01   -0.82983E-02  8414   0.551E-01    0.615E-01
RMM:   5    -0.354670133555E+03    0.69412E-02   -0.28150E-02  8368   0.316E-01    0.464E-01
RMM:   6    -0.354670316009E+03   -0.18245E-03   -0.10220E-02  9190   0.156E-01    0.297E-01
RMM:   7    -0.354670613309E+03   -0.29730E-03   -0.46210E-03  9170   0.122E-01    0.168E-01
RMM:   8    -0.354670787062E+03   -0.17375E-03   -0.26654E-03  9507   0.713E-02    0.109E-01
RMM:   9    -0.354670921383E+03   -0.13432E-03   -0.88734E-04  8638   0.497E-02    0.911E-02
RMM:  10    -0.354671085176E+03   -0.16379E-03   -0.50144E-04  8215   0.335E-02    0.614E-02
RMM:  11    -0.354671161852E+03   -0.76676E-04   -0.37617E-04  7483   0.297E-02    0.232E-02
RMM:  12    -0.354671160784E+03    0.10684E-05   -0.20911E-04  6513   0.207E-02    0.109E-02
RMM:  13    -0.354671161933E+03   -0.11488E-05   -0.62737E-05  5294   0.149E-02
   3 F= -.35467116E+03 E0= -.35467638E+03  d E =-.700365E-01
       N       E                     dE             d eps       ncg     rms          rms(c)
DAV:   1    -0.354698720047E+03   -0.27559E-01   -0.37355E+00  5960   0.543E+00    0.811E-01
RMM:   2    -0.354710832278E+03   -0.12112E-01   -0.18158E-01  7451   0.109E+00    0.429E-01
RMM:   3    -0.354704477746E+03    0.63545E-02   -0.22531E-02  8097   0.334E-01    0.320E-01
RMM:   4    -0.354703133790E+03    0.13440E-02   -0.52231E-03  8597   0.117E-01    0.196E-01
RMM:   5    -0.354702825213E+03    0.30858E-03   -0.19295E-03  8429   0.847E-02    0.125E-01
RMM:   6    -0.354702874087E+03   -0.48874E-04   -0.94443E-04  8580   0.513E-02    0.793E-02
RMM:   7    -0.354702837732E+03    0.36355E-04   -0.33728E-04  7900   0.321E-02    0.478E-02
RMM:   8    -0.354702860809E+03   -0.23077E-04   -0.15259E-04  6662   0.183E-02    0.307E-02
RMM:   9    -0.354702874825E+03   -0.14016E-04   -0.69157E-05  5710   0.151E-02    0.171E-02
RMM:  10    -0.354702883497E+03   -0.86714E-05   -0.27440E-05  4442   0.115E-02
   4 F= -.35470288E+03 E0= -.35470785E+03  d E =-.317216E-01
       N       E                     dE             d eps       ncg     rms          rms(c)
DAV:   1    -0.354716673556E+03   -0.13799E-01   -0.33619E+01  5712   0.163E+01    0.249E+00
RMM:   2    -0.354830428201E+03   -0.11375E+00   -0.16519E+00  7539   0.333E+00    0.133E+00
RMM:   3    -0.354766769350E+03    0.63659E-01   -0.20029E-01  8119   0.998E-01    0.933E-01
RMM:   4    -0.354755719566E+03    0.11050E-01   -0.49801E-02  8618   0.361E-01    0.568E-01
RMM:   5    -0.354753013918E+03    0.27056E-02   -0.16980E-02  8427   0.256E-01    0.364E-01
RMM:   6    -0.354753518469E+03   -0.50455E-03   -0.84506E-03  8855   0.151E-01    0.240E-01
RMM:   7    -0.354753129842E+03    0.38863E-03   -0.29241E-03  9346   0.948E-02    0.145E-01
RMM:   8    -0.354753313893E+03   -0.18405E-03   -0.15489E-03  9468   0.512E-02    0.941E-02
RMM:   9    -0.354753385218E+03   -0.71325E-04   -0.56901E-04  8536   0.395E-02    0.547E-02
RMM:  10    -0.354753438710E+03   -0.53492E-04   -0.24970E-04  7689   0.232E-02    0.349E-02
RMM:  11    -0.354753459896E+03   -0.21186E-04   -0.12269E-04  6075   0.181E-02    0.198E-02
RMM:  12    -0.354753465450E+03   -0.55538E-05   -0.52968E-05  5464   0.139E-02
   5 F= -.35475347E+03 E0= -.35475758E+03  d E =-.823035E-01
       N       E                     dE             d eps       ncg     rms          rms(c)
DAV:   1    -0.354753135693E+03    0.32420E-03   -0.19232E+00  5920   0.391E+00    0.588E-01
RMM:   2    -0.354759440923E+03   -0.63052E-02   -0.93198E-02  7423   0.788E-01    0.308E-01
RMM:   3    -0.354756183945E+03    0.32570E-02   -0.11572E-02  8029   0.242E-01    0.226E-01
RMM:   4    -0.354755513468E+03    0.67048E-03   -0.27159E-03  8577   0.843E-02    0.137E-01
RMM:   5    -0.354755368701E+03    0.14477E-03   -0.99854E-04  8431   0.607E-02    0.866E-02
RMM:   6    -0.354755406468E+03   -0.37768E-04   -0.49082E-04  8478   0.369E-02    0.558E-02
RMM:   7    -0.354755392534E+03    0.13935E-04   -0.17394E-04  7461   0.230E-02    0.343E-02
RMM:   8    -0.354755408019E+03   -0.15486E-04   -0.71345E-05  5616   0.142E-02    0.219E-02
RMM:   9    -0.354755419104E+03   -0.11085E-04   -0.38015E-05  4521   0.120E-02    0.121E-02
RMM:  10    -0.354755425428E+03   -0.63244E-05   -0.19504E-05  3847   0.113E-02
   6 F= -.35475543E+03 E0= -.35475932E+03  d E =-.842635E-01
       N       E                     dE             d eps       ncg     rms          rms(c)
DAV:   1    -0.354760340989E+03   -0.49219E-02   -0.10564E+00  5904   0.298E+00    0.361E-01
RMM:   2    -0.354763696332E+03   -0.33553E-02   -0.43426E-02  7378   0.574E-01    0.185E-01
RMM:   3    -0.354762743685E+03    0.95265E-03   -0.51705E-03  8031   0.178E-01    0.137E-01
RMM:   4    -0.354762418807E+03    0.32488E-03   -0.10182E-03  8853   0.551E-02    0.784E-02
RMM:   5    -0.354762377896E+03    0.40911E-04   -0.42991E-04  8525   0.373E-02    0.498E-02
RMM:   6    -0.354762361544E+03    0.16352E-04   -0.18369E-04  7996   0.243E-02    0.298E-02
RMM:   7    -0.354762349409E+03    0.12135E-04   -0.77154E-05  6125   0.150E-02    0.186E-02
RMM:   8    -0.354762346137E+03    0.32717E-05   -0.30319E-05  3961   0.121E-02
   7 F= -.35476235E+03 E0= -.35476630E+03  d E =-.692071E-02
       N       E                     dE             d eps       ncg     rms          rms(c)
DAV:   1    -0.354758122747E+03    0.42267E-02   -0.95021E+00  5600   0.895E+00    0.106E+00
RMM:   2    -0.354789053804E+03   -0.30931E-01   -0.39198E-01  7278   0.172E+00    0.549E-01
RMM:   3    -0.354780330318E+03    0.87235E-02   -0.46458E-02  8108   0.543E-01    0.409E-01
RMM:   4    -0.354777611621E+03    0.27187E-02   -0.90223E-03  8846   0.163E-01    0.236E-01
RMM:   5    -0.354777273287E+03    0.33833E-03   -0.37662E-03  8699   0.110E-01    0.152E-01
RMM:   6    -0.354777164363E+03    0.10892E-03   -0.16683E-03  8954   0.732E-02    0.911E-02
RMM:   7    -0.354777081351E+03    0.83013E-04   -0.72086E-04  9497   0.422E-02    0.579E-02
RMM:   8    -0.354777083877E+03   -0.25262E-05   -0.26584E-04  8033   0.237E-02    0.372E-02
RMM:   9    -0.354777086769E+03   -0.28921E-05   -0.13747E-04  7156   0.200E-02    0.240E-02
RMM:  10    -0.354777087626E+03   -0.85711E-06   -0.66324E-05  5828   0.153E-02
   8 F= -.35477709E+03 E0= -.35478123E+03  d E =-.216622E-01
       N       E                     dE             d eps       ncg     rms          rms(c)
DAV:   1    -0.354699221845E+03    0.77865E-01   -0.38000E+01  5600   0.179E+01    0.208E+00
RMM:   2    -0.354827214208E+03   -0.12799E+00   -0.15944E+00  7220   0.348E+00    0.109E+00
RMM:   3    -0.354792836662E+03    0.34378E-01   -0.19114E-01  8257   0.112E+00    0.824E-01
RMM:   4    -0.354782427922E+03    0.10409E-01   -0.36118E-02  8710   0.321E-01    0.485E-01
RMM:   5    -0.354781024868E+03    0.14031E-02   -0.15101E-02  8584   0.221E-01    0.316E-01
RMM:   6    -0.354780489152E+03    0.53572E-03   -0.68554E-03  8781   0.150E-01    0.187E-01
RMM:   7    -0.354780122208E+03    0.36694E-03   -0.29811E-03  9845   0.862E-02    0.117E-01
RMM:   8    -0.354780170410E+03   -0.48203E-04   -0.11966E-03  9700   0.472E-02    0.764E-02
RMM:   9    -0.354780192068E+03   -0.21658E-04   -0.50728E-04  8846   0.354E-02    0.511E-02
RMM:  10    -0.354780216653E+03   -0.24584E-04   -0.25148E-04  7924   0.246E-02    0.306E-02
RMM:  11    -0.354780212816E+03    0.38367E-05   -0.13417E-04  6840   0.194E-02    0.164E-02
RMM:  12    -0.354780209522E+03    0.32936E-05   -0.62439E-05  5698   0.147E-02
   9 F= -.35478021E+03 E0= -.35478471E+03  d E =-.247841E-01
       N       E                     dE             d eps       ncg     rms          rms(c)
DAV:   1    -0.354771527861E+03    0.86850E-02   -0.64496E+00  5704   0.733E+00    0.885E-01
RMM:   2    -0.354791090491E+03   -0.19563E-01   -0.26259E-01  7359   0.141E+00    0.455E-01
RMM:   3    -0.354785220454E+03    0.58700E-02   -0.30685E-02  8082   0.432E-01    0.330E-01
RMM:   4    -0.354783313545E+03    0.19069E-02   -0.63086E-03  8837   0.136E-01    0.187E-01
RMM:   5    -0.354783115153E+03    0.19839E-03   -0.25487E-03  8940   0.928E-02    0.120E-01
RMM:   6    -0.354783104646E+03    0.10507E-04   -0.10975E-03  9051   0.575E-02    0.748E-02
RMM:   7    -0.354783072963E+03    0.31683E-04   -0.44095E-04  8920   0.353E-02    0.464E-02
RMM:   8    -0.354783096274E+03   -0.23311E-04   -0.17182E-04  7453   0.198E-02    0.297E-02
RMM:   9    -0.354783112641E+03   -0.16368E-04   -0.84491E-05  6018   0.168E-02    0.181E-02
RMM:  10    -0.354783125592E+03   -0.12951E-04   -0.42347E-05  4950   0.133E-02    0.109E-02
RMM:  11    -0.354783129558E+03   -0.39664E-05   -0.13036E-05  3566   0.109E-02
  10 F= -.35478313E+03 E0= -.35478748E+03  d E =-.277041E-01
       N       E                     dE             d eps       ncg     rms          rms(c)
DAV:   1    -0.354796506056E+03   -0.13380E-01   -0.19269E+00  6056   0.421E+00    0.105E+00
RMM:   2    -0.354796415748E+03    0.90308E-04   -0.13181E-01  6833   0.952E-01    0.433E-01
RMM:   3    -0.354791751824E+03    0.46639E-02   -0.22235E-02  8139   0.316E-01    0.319E-01
RMM:   4    -0.354789210902E+03    0.25409E-02   -0.63592E-03  8403   0.140E-01    0.168E-01
RMM:   5    -0.354788805292E+03    0.40561E-03   -0.18994E-03  8266   0.888E-02    0.124E-01
RMM:   6    -0.354788857720E+03   -0.52428E-04   -0.78454E-04  8683   0.445E-02    0.833E-02
RMM:   7    -0.354788897375E+03   -0.39654E-04   -0.31376E-04  7499   0.336E-02    0.477E-02
RMM:   8    -0.354788930097E+03   -0.32723E-04   -0.18832E-04  7027   0.210E-02    0.303E-02
RMM:   9    -0.354788953959E+03   -0.23862E-04   -0.86782E-05  5198   0.170E-02    0.227E-02
RMM:  10    -0.354788974626E+03   -0.20667E-04   -0.40008E-05  4559   0.122E-02    0.149E-02
RMM:  11    -0.354788992110E+03   -0.17485E-04   -0.26829E-05  4062   0.121E-02    0.688E-03
RMM:  12    -0.354788997074E+03   -0.49635E-05   -0.15976E-05  3773   0.119E-02
  11 F= -.35478900E+03 E0= -.35479330E+03  d E =-.586752E-02
       N       E                     dE             d eps       ncg     rms          rms(c)
DAV:   1    -0.354798661342E+03   -0.96692E-02   -0.20394E+00  6072   0.433E+00    0.108E+00
RMM:   2    -0.354798412541E+03    0.24880E-03   -0.13971E-01  6847   0.978E-01    0.444E-01
RMM:   3    -0.354793570239E+03    0.48423E-02   -0.23903E-02  8167   0.326E-01    0.328E-01
RMM:   4    -0.354790876397E+03    0.26938E-02   -0.68208E-03  8402   0.144E-01    0.172E-01
RMM:   5    -0.354790459870E+03    0.41653E-03   -0.20469E-03  8303   0.921E-02    0.128E-01
RMM:   6    -0.354790520250E+03   -0.60380E-04   -0.85685E-04  8788   0.462E-02    0.858E-02
RMM:   7    -0.354790565510E+03   -0.45260E-04   -0.33981E-04  7581   0.349E-02    0.493E-02
RMM:   8    -0.354790600620E+03   -0.35110E-04   -0.20230E-04  7074   0.218E-02    0.313E-02
RMM:   9    -0.354790626114E+03   -0.25494E-04   -0.93511E-05  5282   0.176E-02    0.236E-02
RMM:  10    -0.354790648405E+03   -0.22291E-04   -0.44412E-05  4734   0.127E-02    0.152E-02
RMM:  11    -0.354790666670E+03   -0.18265E-04   -0.28981E-05  4170   0.124E-02    0.688E-03
RMM:  12    -0.354790671571E+03   -0.49012E-05   -0.17311E-05  3846   0.122E-02
  12 F= -.35479067E+03 E0= -.35479491E+03  d E =-.754201E-02
       N       E                     dE             d eps       ncg     rms          rms(c)
DAV:   1    -0.354792076951E+03   -0.14103E-02   -0.97001E-01  5680   0.273E+00    0.201E-01
RMM:   2    -0.354794808040E+03   -0.27311E-02   -0.31838E-02  6600   0.499E-01    0.996E-02
RMM:   3    -0.354794665581E+03    0.14246E-03   -0.34901E-03  8037   0.158E-01    0.954E-02
RMM:   4    -0.354794606131E+03    0.59450E-04   -0.70330E-04  9141   0.358E-02    0.686E-02
RMM:   5    -0.354794599384E+03    0.67477E-05   -0.22719E-04  8071   0.242E-02    0.466E-02
RMM:   6    -0.354794586558E+03    0.12826E-04   -0.12789E-04  7778   0.246E-02    0.162E-02
RMM:   7    -0.354794581475E+03    0.50829E-05   -0.34045E-05  4222   0.115E-02
  13 F= -.35479458E+03 E0= -.35479885E+03  d E =-.390990E-02
       N       E                     dE             d eps       ncg     rms          rms(c)
DAV:   1    -0.354779293262E+03    0.15293E-01   -0.87304E+00  5616   0.821E+00    0.612E-01
RMM:   2    -0.354804051419E+03   -0.24758E-01   -0.28823E-01  6488   0.150E+00    0.295E-01
RMM:   3    -0.354802951428E+03    0.11000E-02   -0.32239E-02  8074   0.483E-01    0.291E-01
RMM:   4    -0.354802461532E+03    0.48990E-03   -0.64229E-03  9956   0.109E-01    0.211E-01
RMM:   5    -0.354802414337E+03    0.47195E-04   -0.19849E-03  9209   0.718E-02    0.147E-01
RMM:   6    -0.354802322520E+03    0.91818E-04   -0.12485E-03  8355   0.775E-02    0.509E-02
RMM:   7    -0.354802290918E+03    0.31602E-04   -0.40125E-04  9223   0.313E-02    0.344E-02
RMM:   8    -0.354802280770E+03    0.10148E-04   -0.11165E-04  6588   0.167E-02    0.237E-02
RMM:   9    -0.354802280687E+03    0.83135E-07   -0.78096E-05  6085   0.145E-02
  14 F= -.35480228E+03 E0= -.35480659E+03  d E =-.116091E-01
       N       E                     dE             d eps       ncg     rms          rms(c)
DAV:   1    -0.354703432140E+03    0.98849E-01   -0.34904E+01  5608   0.164E+01    0.126E+00
RMM:   2    -0.354805392838E+03   -0.10196E+00   -0.11816E+00  6480   0.306E+00    0.588E-01
RMM:   3    -0.354801819847E+03    0.35730E-02   -0.13417E-01  8190   0.983E-01    0.596E-01
RMM:   4    -0.354800043054E+03    0.17768E-02   -0.25978E-02  9940   0.219E-01    0.443E-01
RMM:   5    -0.354799810726E+03    0.23233E-03   -0.76237E-03  9242   0.143E-01    0.317E-01
RMM:   6    -0.354799378088E+03    0.43264E-03   -0.54609E-03  8126   0.166E-01    0.107E-01
RMM:   7    -0.354799243507E+03    0.13458E-03   -0.15967E-03  9762   0.631E-02    0.754E-02
RMM:   8    -0.354799209885E+03    0.33622E-04   -0.52314E-04  8819   0.335E-02    0.530E-02
RMM:   9    -0.354799214167E+03   -0.42814E-05   -0.28204E-04  8674   0.261E-02    0.343E-02
RMM:  10    -0.354799206877E+03    0.72891E-05   -0.11314E-04  6998   0.173E-02    0.143E-02
RMM:  11    -0.354799206674E+03    0.20298E-06   -0.61813E-05  5085   0.136E-02
  15 F= -.35479921E+03 E0= -.35480341E+03  d E =-.853510E-02
       N       E                     dE             d eps       ncg     rms          rms(c)
DAV:   1    -0.354767974239E+03    0.31233E-01   -0.14300E+01  5656   0.105E+01    0.750E-01
RMM:   2    -0.354807015911E+03   -0.39042E-01   -0.46412E-01  6407   0.190E+00    0.372E-01
RMM:   3    -0.354804912126E+03    0.21038E-02   -0.50129E-02  8042   0.616E-01    0.342E-01
RMM:   4    -0.354804143590E+03    0.76854E-03   -0.10464E-02  9937   0.141E-01    0.237E-01
RMM:   5    -0.354804104546E+03    0.39044E-04   -0.33473E-03  9354   0.965E-02    0.158E-01
RMM:   6    -0.354804037896E+03    0.66650E-04   -0.16593E-03  9301   0.815E-02    0.609E-02
RMM:   7    -0.354804023252E+03    0.14644E-04   -0.60436E-04  9618   0.390E-02    0.369E-02
RMM:   8    -0.354804024942E+03   -0.16902E-05   -0.19002E-04  7684   0.212E-02    0.253E-02
RMM:   9    -0.354804034145E+03   -0.92033E-05   -0.10528E-04  6849   0.170E-02    0.162E-02
RMM:  10    -0.354804041073E+03   -0.69281E-05   -0.36706E-05  4533   0.119E-02
  16 F= -.35480404E+03 E0= -.35480834E+03  d E =-.133695E-01
       N       E                     dE             d eps       ncg     rms          rms(c)
DAV:   1    -0.354805511291E+03   -0.14771E-02   -0.85838E-01  5728   0.266E+00    0.223E-01
RMM:   2    -0.354808428769E+03   -0.29175E-02   -0.31901E-02  7094   0.504E-01    0.131E-01
RMM:   3    -0.354807807390E+03    0.62138E-03   -0.33497E-03  8093   0.150E-01    0.102E-01
RMM:   4    -0.354807712616E+03    0.94774E-04   -0.62815E-04  9239   0.395E-02    0.668E-02
RMM:   5    -0.354807699960E+03    0.12655E-04   -0.24849E-04  8010   0.281E-02    0.419E-02
RMM:   6    -0.354807686546E+03    0.13414E-04   -0.11947E-04  7512   0.218E-02    0.195E-02
RMM:   7    -0.354807679965E+03    0.65813E-05   -0.36614E-05  4249   0.114E-02
  17 F= -.35480768E+03 E0= -.35481188E+03  d E =-.363889E-02
       N       E                     dE             d eps       ncg     rms          rms(c)
DAV:   1    -0.354792551655E+03    0.15135E-01   -0.77280E+00  5600   0.799E+00    0.675E-01
RMM:   2    -0.354819216240E+03   -0.26665E-01   -0.28922E-01  7134   0.152E+00    0.399E-01
RMM:   3    -0.354813730813E+03    0.54854E-02   -0.31200E-02  8105   0.451E-01    0.309E-01
RMM:   4    -0.354812933593E+03    0.79722E-03   -0.59273E-03  9720   0.120E-01    0.205E-01
RMM:   5    -0.354812844602E+03    0.88991E-04   -0.22902E-03  8862   0.843E-02    0.130E-01
RMM:   6    -0.354812748783E+03    0.95820E-04   -0.11656E-03  8806   0.682E-02    0.600E-02
RMM:   7    -0.354812708590E+03    0.40193E-04   -0.45412E-04  9170   0.321E-02    0.373E-02
RMM:   8    -0.354812705229E+03    0.33616E-05   -0.14490E-04  6739   0.184E-02    0.245E-02
RMM:   9    -0.354812703852E+03    0.13763E-05   -0.81491E-05  6213   0.152E-02
  18 F= -.35481270E+03 E0= -.35481658E+03  d E =-.866278E-02
       N       E                     dE             d eps       ncg     rms          rms(c)
DAV:   1    -0.354835019333E+03   -0.22314E-01   -0.21933E+00  6520   0.473E+00    0.155E+00
RMM:   2    -0.354823154052E+03    0.11865E-01   -0.20393E-01  7470   0.119E+00    0.524E-01
RMM:   3    -0.354817966993E+03    0.51871E-02   -0.39609E-02  8258   0.378E-01    0.394E-01
RMM:   4    -0.354813606852E+03    0.43601E-02   -0.10582E-02  8392   0.196E-01    0.217E-01
RMM:   5    -0.354812982171E+03    0.62468E-03   -0.34813E-03  8253   0.111E-01    0.170E-01
RMM:   6    -0.354813069880E+03   -0.87709E-04   -0.13989E-03  8789   0.593E-02    0.103E-01
RMM:   7    -0.354813161418E+03   -0.91537E-04   -0.60448E-04  8019   0.464E-02    0.552E-02
RMM:   8    -0.354813219732E+03   -0.58314E-04   -0.31922E-04  7247   0.269E-02    0.367E-02
RMM:   9    -0.354813254840E+03   -0.35108E-04   -0.11650E-04  5408   0.203E-02    0.309E-02
RMM:  10    -0.354813295214E+03   -0.40374E-04   -0.76541E-05  5307   0.153E-02    0.189E-02
RMM:  11    -0.354813323111E+03   -0.27897E-04   -0.51505E-05  4808   0.141E-02    0.776E-03
RMM:  12    -0.354813328827E+03   -0.57158E-05   -0.22147E-05  4319   0.126E-02
  19 F= -.35481333E+03 E0= -.35481704E+03  d E =-.624974E-03
       N       E                     dE             d eps       ncg     rms          rms(c)
DAV:   1    -0.354817684941E+03   -0.43618E-02   -0.37387E-01  6520   0.195E+00    0.637E-01
RMM:   2    -0.354815788593E+03    0.18963E-02   -0.34642E-02  7619   0.490E-01    0.218E-01
RMM:   3    -0.354814883410E+03    0.90518E-03   -0.67935E-03  8299   0.155E-01    0.165E-01
RMM:   4    -0.354814116479E+03    0.76693E-03   -0.18153E-03  8371   0.814E-02    0.905E-02
RMM:   5    -0.354813983613E+03    0.13287E-03   -0.59242E-04  8130   0.469E-02    0.693E-02
RMM:   6    -0.354813970874E+03    0.12739E-04   -0.24087E-04  7407   0.252E-02    0.421E-02
RMM:   7    -0.354813958894E+03    0.11981E-04   -0.91187E-05  6482   0.194E-02    0.224E-02
RMM:   8    -0.354813955423E+03    0.34704E-05   -0.56913E-05  4589   0.134E-02
  20 F= -.35481396E+03 E0= -.35481773E+03  d E =-.125157E-02
       N       E                     dE             d eps       ncg     rms          rms(c)
DAV:   1    -0.354812806279E+03    0.11526E-02   -0.84610E-01  5616   0.267E+00    0.161E-01
RMM:   2    -0.354815743072E+03   -0.29368E-02   -0.31887E-02  6202   0.502E-01    0.104E-01
RMM:   3    -0.354815418314E+03    0.32476E-03   -0.29926E-03  7957   0.160E-01    0.805E-02
RMM:   4    -0.354815384162E+03    0.34152E-04   -0.60573E-04  9210   0.343E-02    0.537E-02
RMM:   5    -0.354815375415E+03    0.87470E-05   -0.20878E-04  7711   0.256E-02    0.336E-02
RMM:   6    -0.354815365846E+03    0.95693E-05   -0.86627E-05  7098   0.202E-02
  21 F= -.35481537E+03 E0= -.35481918E+03  d E =-.141042E-02
       N       E                     dE             d eps       ncg     rms          rms(c)
DAV:   1    -0.354808880065E+03    0.64953E-02   -0.23683E+00  5600   0.447E+00    0.271E-01
RMM:   2    -0.354817119143E+03   -0.82391E-02   -0.90075E-02  6304   0.841E-01    0.172E-01
RMM:   3    -0.354816311075E+03    0.80807E-03   -0.88271E-03  8005   0.268E-01    0.137E-01
RMM:   4    -0.354816225215E+03    0.85861E-04   -0.17720E-03  9788   0.582E-02    0.918E-02
RMM:   5    -0.354816211464E+03    0.13751E-04   -0.61600E-04  9039   0.416E-02    0.588E-02
RMM:   6    -0.354816193609E+03    0.17855E-04   -0.26952E-04  8327   0.335E-02    0.202E-02
RMM:   7    -0.354816188999E+03    0.46106E-05   -0.84384E-05  5661   0.140E-02
  22 F= -.35481619E+03 E0= -.35482013E+03  d E =-.223358E-02
       N       E                     dE             d eps       ncg     rms          rms(c)
DAV:   1    -0.354825539940E+03   -0.93463E-02   -0.39497E-01  7568   0.211E+00    0.858E-01
RMM:   2    -0.354820724487E+03    0.48155E-02   -0.58774E-02  8194   0.590E-01    0.325E-01
RMM:   3    -0.354818118526E+03    0.26060E-02   -0.12305E-02  8417   0.178E-01    0.219E-01
RMM:   4    -0.354816897781E+03    0.12207E-02   -0.34929E-03  8383   0.114E-01    0.126E-01
RMM:   5    -0.354816557903E+03    0.33988E-03   -0.10706E-03  8308   0.622E-02    0.921E-02
RMM:   6    -0.354816551247E+03    0.66566E-05   -0.39955E-04  7816   0.307E-02    0.630E-02
RMM:   7    -0.354816545083E+03    0.61639E-05   -0.18656E-04  7107   0.248E-02    0.342E-02
RMM:   8    -0.354816540597E+03    0.44859E-05   -0.10827E-04  6493   0.172E-02    0.204E-02
RMM:   9    -0.354816541951E+03   -0.13542E-05   -0.45753E-05  4324   0.128E-02
  23 F= -.35481654E+03 E0= -.35482058E+03  d E =-.352952E-03
       N       E                     dE             d eps       ncg     rms          rms(c)
DAV:   1    -0.354817733175E+03   -0.11926E-02   -0.46550E-02  7672   0.721E-01    0.301E-01
RMM:   2    -0.354817143069E+03    0.59011E-03   -0.70955E-03  8182   0.202E-01    0.115E-01
RMM:   3    -0.354816842943E+03    0.30013E-03   -0.15456E-03  8407   0.622E-02    0.806E-02
RMM:   4    -0.354816684366E+03    0.15858E-03   -0.44146E-04  8157   0.400E-02    0.451E-02
RMM:   5    -0.354816640555E+03    0.43810E-04   -0.13293E-04  7033   0.229E-02    0.311E-02
RMM:   6    -0.354816643848E+03   -0.32926E-05   -0.43828E-05  4410   0.126E-02
  24 F= -.35481664E+03 E0= -.35482065E+03  d E =-.454849E-03
       N       E                     dE             d eps       ncg     rms          rms(c)
DAV:   1    -0.354816763676E+03   -0.12312E-03   -0.19627E-01  5712   0.127E+00    0.108E-01
RMM:   2    -0.354817414053E+03   -0.65038E-03   -0.75706E-03  7237   0.247E-01    0.702E-02
RMM:   3    -0.354817255663E+03    0.15839E-03   -0.81700E-04  7944   0.697E-02    0.482E-02
RMM:   4    -0.354817237126E+03    0.18538E-04   -0.18315E-04  7579   0.214E-02    0.293E-02
RMM:   5    -0.354817236823E+03    0.30232E-06   -0.81779E-05  6668   0.151E-02
  25 F= -.35481724E+03 E0= -.35482124E+03  d E =-.592975E-03
       N       E                     dE             d eps       ncg     rms          rms(c)
DAV:   1    -0.354815953191E+03    0.12839E-02   -0.64690E-01  5600   0.230E+00    0.196E-01
RMM:   2    -0.354818036295E+03   -0.20831E-02   -0.24817E-02  7398   0.449E-01    0.124E-01
RMM:   3    -0.354817637756E+03    0.39854E-03   -0.28594E-03  8107   0.125E-01    0.896E-02
RMM:   4    -0.354817563341E+03    0.74414E-04   -0.61724E-04  9262   0.388E-02    0.530E-02
RMM:   5    -0.354817563219E+03    0.12237E-06   -0.30302E-04  7873   0.289E-02    0.339E-02
RMM:   6    -0.354817555060E+03    0.81587E-05   -0.11103E-04  7090   0.196E-02    0.149E-02
RMM:   7    -0.354817554987E+03    0.73553E-07   -0.29903E-05  4479   0.114E-02
  26 F= -.35481755E+03 E0= -.35482156E+03  d E =-.911139E-03
       N       E                     dE             d eps       ncg     rms          rms(c)
DAV:   1    -0.354817531119E+03    0.23942E-04   -0.19779E-02  5824   0.403E-01    0.344E-02
RMM:   2    -0.354817594204E+03   -0.63085E-04   -0.74315E-04  6279   0.786E-02    0.210E-02
RMM:   3    -0.354817578008E+03    0.16196E-04   -0.66181E-05  5403   0.237E-02    0.150E-02
RMM:   4    -0.354817574685E+03    0.33227E-05   -0.11855E-05  3168   0.852E-03
  27 F= -.35481757E+03 E0= -.35482158E+03  d E =-.930837E-03
       N       E                     dE             d eps       ncg     rms          rms(c)
DAV:   1    -0.354818065174E+03   -0.48717E-03   -0.11906E-01  5760   0.103E+00    0.210E-01
RMM:   2    -0.354818124221E+03   -0.59047E-04   -0.73288E-03  7501   0.224E-01    0.877E-02
RMM:   3    -0.354817971625E+03    0.15260E-03   -0.10172E-03  8122   0.727E-02    0.679E-02
RMM:   4    -0.354817871446E+03    0.10018E-03   -0.29196E-04  7831   0.287E-02    0.388E-02
RMM:   5    -0.354817850672E+03    0.20774E-04   -0.10666E-04  6969   0.186E-02    0.272E-02
RMM:   6    -0.354817853330E+03   -0.26578E-05   -0.36974E-05  4200   0.114E-02
  28 F= -.35481785E+03 E0= -.35482184E+03  d E =-.278645E-03
       N       E                     dE             d eps       ncg     rms          rms(c)
DAV:   1    -0.354818107704E+03   -0.25703E-03   -0.10947E-01  5696   0.989E-01    0.199E-01
RMM:   2    -0.354818175933E+03   -0.68229E-04   -0.67793E-03  7619   0.214E-01    0.854E-02
RMM:   3    -0.354818018829E+03    0.15710E-03   -0.95844E-04  8090   0.681E-02    0.661E-02
RMM:   4    -0.354817932580E+03    0.86248E-04   -0.29166E-04  7811   0.283E-02    0.386E-02
RMM:   5    -0.354817916020E+03    0.16561E-04   -0.10965E-04  7098   0.187E-02    0.273E-02
RMM:   6    -0.354817921984E+03   -0.59649E-05   -0.41001E-05  4531   0.115E-02
  29 F= -.35481792E+03 E0= -.35482189E+03  d E =-.347299E-03
       N       E                     dE             d eps       ncg     rms          rms(c)
DAV:   1    -0.354818101557E+03   -0.18554E-03   -0.29648E-02  5920   0.510E-01    0.104E-01
RMM:   2    -0.354818150133E+03   -0.48576E-04   -0.17798E-03  7720   0.112E-01    0.434E-02
RMM:   3    -0.354818132499E+03    0.17634E-04   -0.27751E-04  7756   0.365E-02    0.335E-02
RMM:   4    -0.354818108036E+03    0.24463E-04   -0.78695E-05  6777   0.158E-02    0.185E-02
RMM:   5    -0.354818103353E+03    0.46837E-05   -0.28436E-05  3909   0.997E-03
  30 F= -.35481810E+03 E0= -.35482207E+03  d E =-.181368E-03
       N       E                     dE             d eps       ncg     rms          rms(c)
DAV:   1    -0.354818389057E+03   -0.28102E-03   -0.26618E-01  5648   0.153E+00    0.288E-01
RMM:   2    -0.354818750009E+03   -0.36095E-03   -0.15210E-02  7453   0.325E-01    0.117E-01
RMM:   3    -0.354818523373E+03    0.22664E-03   -0.20193E-03  8085   0.105E-01    0.895E-02
RMM:   4    -0.354818336286E+03    0.18709E-03   -0.54515E-04  8115   0.397E-02    0.524E-02
RMM:   5    -0.354818302524E+03    0.33762E-04   -0.22566E-04  7532   0.245E-02    0.371E-02
RMM:   6    -0.354818292603E+03    0.99215E-05   -0.86508E-05  6382   0.161E-02
  31 F= -.35481829E+03 E0= -.35482228E+03  d E =-.370618E-03
       N       E                     dE             d eps       ncg     rms          rms(c)
DAV:   1    -0.354818352993E+03   -0.50469E-04   -0.97224E-03  6032   0.285E-01    0.326E-02
RMM:   2    -0.354818376936E+03   -0.23944E-04   -0.44773E-04  7448   0.572E-02    0.189E-02
RMM:   3    -0.354818367213E+03    0.97231E-05   -0.43992E-05  4706   0.167E-02
  32 F= -.35481837E+03 E0= -.35482236E+03  d E =-.746105E-04
       N       E                     dE             d eps       ncg     rms          rms(c)
DAV:   1    -0.354818451308E+03   -0.74372E-04   -0.87562E-02  5696   0.853E-01    0.104E-01
RMM:   2    -0.354818618862E+03   -0.16755E-03   -0.39067E-03  7960   0.168E-01    0.533E-02
RMM:   3    -0.354818580170E+03    0.38692E-04   -0.48228E-04  7927   0.458E-02    0.395E-02
RMM:   4    -0.354818554340E+03    0.25830E-04   -0.14415E-04  6921   0.206E-02    0.217E-02
RMM:   5    -0.354818549896E+03    0.44439E-05   -0.60040E-05  5192   0.121E-02
  33 F= -.35481855E+03 E0= -.35482252E+03  d E =-.257293E-03
       N       E                     dE             d eps       ncg     rms          rms(c)
DAV:   1    -0.354818221910E+03    0.33243E-03   -0.34988E-01  5616   0.171E+00    0.204E-01
RMM:   2    -0.354818940859E+03   -0.71895E-03   -0.15376E-02  8003   0.336E-01    0.103E-01
RMM:   3    -0.354818815298E+03    0.12556E-03   -0.18529E-03  8109   0.921E-02    0.780E-02
RMM:   4    -0.354818710930E+03    0.10437E-03   -0.53899E-04  8476   0.394E-02    0.424E-02
RMM:   5    -0.354818700048E+03    0.10881E-04   -0.22760E-04  7299   0.241E-02    0.285E-02
RMM:   6    -0.354818690378E+03    0.96701E-05   -0.81114E-05  5328   0.150E-02
  34 F= -.35481869E+03 E0= -.35482262E+03  d E =-.397775E-03
       N       E                     dE             d eps       ncg     rms          rms(c)
DAV:   1    -0.354818750598E+03   -0.50549E-04   -0.70974E-03  6384   0.252E-01    0.583E-02
RMM:   2    -0.354818747264E+03    0.33336E-05   -0.48109E-04  8019   0.567E-02    0.231E-02
RMM:   3    -0.354818745704E+03    0.15598E-05   -0.89404E-05  6885   0.185E-02
  35 F= -.35481875E+03 E0= -.35482267E+03  d E =-.553261E-04
       N       E                     dE             d eps       ncg     rms          rms(c)
DAV:   1    -0.354818957817E+03   -0.21055E-03   -0.63621E-02  5712   0.752E-01    0.158E-01
RMM:   2    -0.354818946804E+03    0.11013E-04   -0.39279E-03  7681   0.164E-01    0.625E-02
RMM:   3    -0.354818885087E+03    0.61717E-04   -0.54156E-04  8025   0.521E-02    0.465E-02
RMM:   4    -0.354818844731E+03    0.40356E-04   -0.15688E-04  7381   0.216E-02    0.288E-02
RMM:   5    -0.354818837301E+03    0.74302E-05   -0.63154E-05  6142   0.128E-02
  36 F= -.35481884E+03 E0= -.35482272E+03  d E =-.146922E-03
       N       E                     dE             d eps       ncg     rms          rms(c)
DAV:   1    -0.354819127958E+03   -0.28323E-03   -0.25469E-01  5616   0.151E+00    0.309E-01
RMM:   2    -0.354819185474E+03   -0.57516E-04   -0.15162E-02  7379   0.326E-01    0.122E-01
RMM:   3    -0.354818948593E+03    0.23688E-03   -0.20259E-03  8084   0.105E-01    0.915E-02
RMM:   4    -0.354818763254E+03    0.18534E-03   -0.57835E-04  8201   0.412E-02    0.550E-02
RMM:   5    -0.354818734906E+03    0.28349E-04   -0.23656E-04  7631   0.254E-02    0.416E-02
RMM:   6    -0.354818742032E+03   -0.71267E-05   -0.86334E-05  6489   0.163E-02
  37 F= -.35481874E+03 E0= -.35482256E+03  d E =-.516542E-04
       N       E                     dE             d eps       ncg     rms          rms(c)
DAV:   1    -0.354818976152E+03   -0.24125E-03   -0.72673E-02  5872   0.805E-01    0.175E-01
RMM:   2    -0.354819028595E+03   -0.52442E-04   -0.44772E-03  7168   0.176E-01    0.693E-02
RMM:   3    -0.354818957452E+03    0.71143E-04   -0.62283E-04  8057   0.580E-02    0.513E-02
RMM:   4    -0.354818889248E+03    0.68204E-04   -0.16378E-04  7502   0.232E-02    0.283E-02
RMM:   5    -0.354818876124E+03    0.13124E-04   -0.58560E-05  5971   0.149E-02    0.202E-02
RMM:   6    -0.354818870147E+03    0.59768E-05   -0.15231E-05  3085   0.936E-03
  38 F= -.35481887E+03 E0= -.35482273E+03  d E =-.179769E-03
       N       E                     dE             d eps       ncg     rms          rms(c)
DAV:   1    -0.354818887779E+03   -0.11654E-04   -0.64392E-03  5824   0.241E-01    0.484E-02
RMM:   2    -0.354818893830E+03   -0.60513E-05   -0.39660E-04  7781   0.516E-02    0.203E-02
RMM:   3    -0.354818882928E+03    0.10902E-04   -0.46922E-05  5429   0.159E-02    0.150E-02
RMM:   4    -0.354818876756E+03    0.61713E-05   -0.14342E-05  3184   0.101E-02
  39 F= -.35481888E+03 E0= -.35482274E+03  d E =-.186378E-03
       N       E                     dE             d eps       ncg     rms          rms(c)
DAV:   1    -0.354818881770E+03    0.11579E-05   -0.38984E-03  5808   0.187E-01    0.365E-02
RMM:   2    -0.354818884350E+03   -0.25805E-05   -0.24221E-04  7836   0.406E-02    0.149E-02
RMM:   3    -0.354818878989E+03    0.53612E-05   -0.26123E-05  4169   0.123E-02
  40 F= -.35481888E+03 E0= -.35482276E+03  d E =-.188611E-03
       N       E                     dE             d eps       ncg     rms          rms(c)
DAV:   1    -0.354818898030E+03   -0.13680E-04   -0.54020E-03  5776   0.210E-01    0.183E-02
RMM:   2    -0.354818911860E+03   -0.13830E-04   -0.20213E-04  6800   0.404E-02    0.940E-03
RMM:   3    -0.354818909233E+03    0.26276E-05   -0.12496E-05  2965   0.132E-02
  41 F= -.35481891E+03 E0= -.35482278E+03  d E =-.302434E-04
       N       E                     dE             d eps       ncg     rms          rms(c)
DAV:   1    -0.354818897448E+03    0.14412E-04   -0.38813E-02  5648   0.557E-01    0.442E-02
RMM:   2    -0.354819006133E+03   -0.10869E-03   -0.14317E-03  7300   0.105E-01    0.238E-02
RMM:   3    -0.354818998717E+03    0.74159E-05   -0.14535E-04  6862   0.307E-02    0.188E-02
RMM:   4    -0.354818995779E+03    0.29385E-05   -0.35973E-05  4284   0.101E-02
  42 F= -.35481900E+03 E0= -.35482285E+03  d E =-.116789E-03
       N       E                     dE             d eps       ncg     rms          rms(c)
DAV:   1    -0.354818713193E+03    0.28552E-03   -0.15459E-01  5616   0.111E+00    0.858E-02
RMM:   2    -0.354819155355E+03   -0.44216E-03   -0.56366E-03  7253   0.211E-01    0.465E-02
RMM:   3    -0.354819145845E+03    0.95097E-05   -0.63457E-04  7863   0.606E-02    0.385E-02
RMM:   4    -0.354819132156E+03    0.13690E-04   -0.14017E-04  6905   0.173E-02    0.249E-02
RMM:   5    -0.354819132040E+03    0.11537E-06   -0.49577E-05  4997   0.116E-02
  43 F= -.35481913E+03 E0= -.35482297E+03  d E =-.253051E-03
       N       E                     dE             d eps       ncg     rms          rms(c)
DAV:   1    -0.354817547344E+03    0.15848E-02   -0.61815E-01  5616   0.223E+00    0.169E-01
RMM:   2    -0.354819316211E+03   -0.17689E-02   -0.22454E-02  7123   0.421E-01    0.881E-02
RMM:   3    -0.354819247402E+03    0.68809E-04   -0.23985E-03  8049   0.122E-01    0.717E-02
RMM:   4    -0.354819206703E+03    0.40698E-04   -0.50444E-04  8887   0.323E-02    0.475E-02
RMM:   5    -0.354819206449E+03    0.25385E-06   -0.20617E-04  7506   0.233E-02    0.304E-02
RMM:   6    -0.354819201464E+03    0.49853E-05   -0.86196E-05  7151   0.186E-02
  44 F= -.35481920E+03 E0= -.35482298E+03  d E =-.322475E-03
       N       E                     dE             d eps       ncg     rms          rms(c)
DAV:   1    -0.354819823950E+03   -0.61750E-03   -0.77032E-02  6120   0.856E-01    0.248E-01
RMM:   2    -0.354819615444E+03    0.20851E-03   -0.59725E-03  7745   0.206E-01    0.896E-02
RMM:   3    -0.354819473438E+03    0.14201E-03   -0.11332E-03  8229   0.658E-02    0.720E-02
RMM:   4    -0.354819341500E+03    0.13194E-03   -0.32365E-04  8163   0.330E-02    0.398E-02
RMM:   5    -0.354819312582E+03    0.28918E-04   -0.10997E-04  7032   0.200E-02    0.288E-02
RMM:   6    -0.354819305666E+03    0.69163E-05   -0.40817E-05  4381   0.119E-02
  45 F= -.35481931E+03 E0= -.35482312E+03  d E =-.104202E-03
