<?xml version="1.0" encoding="ISO-8859-1"?>
<modeling>
 <generator>
  <i name="program" type="string">vasp </i>
  <i name="version" type="string">5.4.1  </i>
  <i name="subversion" type="string">05Feb16 (build Jan 29 2020 16:04:39) complex                          parallel </i>
  <i name="platform" type="string">IFC91_ompi </i>
  <i name="date" type="string">2020 06 15 </i>
  <i name="time" type="string">11:29:12 </i>
 </generator>
 <incar>
  <i type="string" name="SYSTEM"> automatically generated by mexm</i>
  <i type="int" name="ISTART">     0</i>
  <i type="string" name="PREC">accurate               ! avoid wrap aro</i>
  <i type="string" name="ALGO"> Fast                   ! blocked Davids</i>
  <i type="int" name="ISPIN">     1</i>
  <i type="int" name="ICHARG">     2</i>
  <i type="int" name="NELM">    70</i>
  <i type="int" name="IBRION">     2</i>
  <i name="EDIFF">      0.00001000</i>
  <i name="EDIFFG">     -0.01000000</i>
  <i type="int" name="NSW">   300</i>
  <i type="int" name="ISIF">     3</i>
  <i type="int" name="ISYM">     1</i>
  <i name="ENCUT">    300.00000000</i>
  <i name="POTIM">      0.15000000</i>
  <i type="string" name="LREAL"> Auto                  ! unpublished met</i>
  <i type="int" name="ISMEAR">     1</i>
  <i name="SIGMA">      0.15000000</i>
  <i type="logical" name="LWAVE"> F  </i>
  <i type="logical" name="LCHARG"> F  </i>
  <i type="logical" name="LVTOT"> F  </i>
  <v type="int" name="KPOINT_BSE">    -1     0     0     0</v>
  <i type="int" name="NELM">    70</i>
 </incar>
 <kpoints>
  <generation param="Gamma">
   <v type="int" name="divisions">       3        3        3 </v>
   <v name="usershift">      0.00000000       0.00000000       0.00000000 </v>
   <v name="genvec1">      0.33333333      -0.00000000       0.00000000 </v>
   <v name="genvec2">      0.00000000       0.33333333       0.00000000 </v>
   <v name="genvec3">     -0.00000000       0.00000000       0.33333333 </v>
   <v name="shift">      0.00000000       0.00000000       0.00000000 </v>
  </generation>
  <varray name="kpointlist" >
   <v>       0.00000000       0.00000000       0.00000000 </v>
   <v>       0.33333333       0.00000000      -0.00000000 </v>
   <v>       0.00000000       0.33333333       0.00000000 </v>
   <v>       0.33333333       0.33333333      -0.00000000 </v>
   <v>      -0.33333333       0.33333333       0.00000000 </v>
   <v>       0.00000000       0.00000000       0.33333333 </v>
   <v>       0.33333333       0.00000000       0.33333333 </v>
   <v>      -0.33333333      -0.00000000       0.33333333 </v>
   <v>       0.00000000       0.33333333       0.33333333 </v>
   <v>       0.33333333       0.33333333       0.33333333 </v>
   <v>      -0.33333333       0.33333333       0.33333333 </v>
   <v>      -0.00000000      -0.33333333       0.33333333 </v>
   <v>       0.33333333      -0.33333333       0.33333333 </v>
   <v>      -0.33333333      -0.33333333       0.33333333 </v>
  </varray>
  <varray name="weights" >
   <v>       0.03703704 </v>
   <v>       0.07407407 </v>
   <v>       0.07407407 </v>
   <v>       0.07407407 </v>
   <v>       0.07407407 </v>
   <v>       0.07407407 </v>
   <v>       0.07407407 </v>
   <v>       0.07407407 </v>
   <v>       0.07407407 </v>
   <v>       0.07407407 </v>
   <v>       0.07407407 </v>
   <v>       0.07407407 </v>
   <v>       0.07407407 </v>
   <v>       0.07407407 </v>
  </varray>
 </kpoints>
 <parameters>
  <separator name="general" >
   <i type="string" name="SYSTEM">automatically generated by mexm</i>
   <i type="logical" name="LCOMPAT"> F  </i>
  </separator>
  <separator name="electronic" >
   <i type="string" name="PREC">accura</i>
   <i name="ENMAX">    300.00000000</i>
   <i name="ENAUG">    461.25700000</i>
   <i name="EDIFF">      0.00001000</i>
   <i type="int" name="IALGO">    68</i>
   <i type="int" name="IWAVPR">    11</i>
   <i type="int" name="NBANDS">   180</i>
   <i name="NELECT">    295.00000000</i>
   <i type="int" name="TURBO">     0</i>
   <i type="int" name="IRESTART">     0</i>
   <i type="int" name="NREBOOT">     0</i>
   <i type="int" name="NMIN">     0</i>
   <i name="EREF">      0.00000000</i>
   <separator name="electronic smearing" >
    <i type="int" name="ISMEAR">     1</i>
    <i name="SIGMA">      0.15000000</i>
    <i name="KSPACING">      0.50000000</i>
    <i type="logical" name="KGAMMA"> T  </i>
   </separator>
   <separator name="electronic projectors" >
    <i type="logical" name="LREAL"> T  </i>
    <v name="ROPT">     -0.00025000     -0.00025000     -0.00025000     -0.00025000</v>
    <i type="int" name="LMAXPAW">  -100</i>
    <i type="int" name="LMAXMIX">     2</i>
    <i type="logical" name="NLSPLINE"> F  </i>
   </separator>
   <separator name="electronic startup" >
    <i type="int" name="ISTART">     0</i>
    <i type="int" name="ICHARG">     2</i>
    <i type="int" name="INIWAV">     1</i>
   </separator>
   <separator name="electronic spin" >
    <i type="int" name="ISPIN">     1</i>
    <i type="logical" name="LNONCOLLINEAR"> F  </i>
    <v name="MAGMOM">      1.00000000      1.00000000      1.00000000      1.00000000      1.00000000      1.00000000      1.00000000      1.00000000      1.00000000      1.00000000      1.00000000      1.00000000      1.00000000      1.00000000      1.00000000      1.00000000      1.00000000      1.00000000      1.00000000      1.00000000
      1.00000000      1.00000000      1.00000000      1.00000000      1.00000000      1.00000000      1.00000000      1.00000000      1.00000000      1.00000000      1.00000000      1.00000000      1.00000000      1.00000000      1.00000000      1.00000000</v>
    <i name="NUPDOWN">     -1.00000000</i>
    <i type="logical" name="LSORBIT"> F  </i>
    <v name="SAXIS">      0.00000000      0.00000000      1.00000000</v>
    <i type="logical" name="LSPIRAL"> F  </i>
    <v name="QSPIRAL">      0.00000000      0.00000000      0.00000000</v>
    <i type="logical" name="LZEROZ"> F  </i>
   </separator>
   <separator name="electronic exchange-correlation" >
    <i type="logical" name="LASPH"> F  </i>
    <i type="logical" name="LMETAGGA"> F  </i>
   </separator>
   <separator name="electronic convergence" >
    <i type="int" name="NELM">    70</i>
    <i type="int" name="NELMDL">    -5</i>
    <i type="int" name="NELMIN">     2</i>
    <i name="ENINI">    300.00000000</i>
    <separator name="electronic convergence detail" >
     <i type="logical" name="LDIAG"> T  </i>
     <i type="logical" name="LSUBROT"> F  </i>
     <i name="WEIMIN">      0.00100000</i>
     <i name="EBREAK">      0.00000001</i>
     <i name="DEPER">      0.30000000</i>
     <i type="int" name="NRMM">     4</i>
     <i name="TIME">      0.40000000</i>
    </separator>
   </separator>
   <separator name="electronic mixer" >
    <i name="AMIX">      0.40000000</i>
    <i name="BMIX">      1.00000000</i>
    <i name="AMIN">      0.10000000</i>
    <i name="AMIX_MAG">      1.60000000</i>
    <i name="BMIX_MAG">      1.00000000</i>
    <separator name="electronic mixer details" >
     <i type="int" name="IMIX">     4</i>
     <i type="logical" name="MIXFIRST"> F  </i>
     <i type="int" name="MAXMIX">   -45</i>
     <i name="WC">    100.00000000</i>
     <i type="int" name="INIMIX">     1</i>
     <i type="int" name="MIXPRE">     1</i>
     <i type="int" name="MREMOVE">     5</i>
    </separator>
   </separator>
   <separator name="electronic dipolcorrection" >
    <i type="logical" name="LDIPOL"> F  </i>
    <i type="logical" name="LMONO"> F  </i>
    <i type="int" name="IDIPOL">     0</i>
    <i name="EPSILON">      1.00000000</i>
    <v name="DIPOL">   -100.00000000   -100.00000000   -100.00000000</v>
    <i name="EFIELD">      0.00000000</i>
   </separator>
  </separator>
  <separator name="grids" >
   <i type="int" name="NGX">    40</i>
   <i type="int" name="NGY">    60</i>
   <i type="int" name="NGZ">    60</i>
   <i type="int" name="NGXF">    80</i>
   <i type="int" name="NGYF">   120</i>
   <i type="int" name="NGZF">   120</i>
   <i type="logical" name="ADDGRID"> F  </i>
  </separator>
  <separator name="ionic" >
   <i type="int" name="NSW">   300</i>
   <i type="int" name="IBRION">     2</i>
   <i type="int" name="ISIF">     3</i>
   <i name="PSTRESS">      0.00000000</i>
   <i name="EDIFFG">     -0.01000000</i>
   <i type="int" name="NFREE">     1</i>
   <i name="POTIM">      0.15000000</i>
   <i name="SMASS">     -3.00000000</i>
   <i name="SCALEE">      1.00000000</i>
  </separator>
  <separator name="ionic md" >
   <i name="TEBEG">      0.00010000</i>
   <i name="TEEND">      0.00010000</i>
   <i type="int" name="NBLOCK">     1</i>
   <i type="int" name="KBLOCK">   300</i>
   <i type="int" name="NPACO">   256</i>
   <i name="APACO">     16.00000000</i>
  </separator>
  <separator name="symmetry" >
   <i type="int" name="ISYM">     1</i>
   <i name="SYMPREC">      0.00001000</i>
  </separator>
  <separator name="dos" >
   <i type="logical" name="LORBIT"> F  </i>
   <v name="RWIGS">     -1.00000000     -1.00000000     -1.00000000     -1.00000000</v>
   <i type="int" name="NEDOS">   301</i>
   <i name="EMIN">     10.00000000</i>
   <i name="EMAX">    -10.00000000</i>
   <i name="EFERMI">      0.00000000</i>
  </separator>
  <separator name="writing" >
   <i type="int" name="NWRITE">     2</i>
   <i type="logical" name="LWAVE"> F  </i>
   <i type="logical" name="LCHARG"> F  </i>
   <i type="logical" name="LPARD"> F  </i>
   <i type="logical" name="LVTOT"> F  </i>
   <i type="logical" name="LVHAR"> F  </i>
   <i type="logical" name="LELF"> F  </i>
   <i type="logical" name="LOPTICS"> F  </i>
   <v name="STM">      0.00000000      0.00000000      0.00000000      0.00000000      0.00000000      0.00000000      0.00000000</v>
  </separator>
  <separator name="performance" >
   <i type="int" name="NPAR">     4</i>
   <i type="int" name="NSIM">     4</i>
   <i type="int" name="NBLK">    -1</i>
   <i type="logical" name="LPLANE"> T  </i>
   <i type="logical" name="LSCALAPACK"> T  </i>
   <i type="logical" name="LSCAAWARE"> F  </i>
   <i type="logical" name="LSCALU"> F  </i>
   <i type="logical" name="LASYNC"> F  </i>
   <i type="logical" name="LORBITALREAL"> F  </i>
  </separator>
  <separator name="miscellaneous" >
   <i type="int" name="IDIOT">     3</i>
   <i type="logical" name="LMUSIC"> F  </i>
   <v name="POMASS">     91.22400000    180.94800000     92.91000000    178.49000000</v>
   <v name="DARWINR">      0.00000000      0.00000000      0.00000000      0.00000000</v>
   <v name="DARWINV">      1.00000000      1.00000000      1.00000000      1.00000000</v>
   <i type="logical" name="LCORR"> T  </i>
  </separator>
  <i type="logical" name="GGA_COMPAT"> T  </i>
  <i type="logical" name="LBERRY"> F  </i>
  <i type="int" name="ICORELEVEL">     0</i>
  <i type="logical" name="LDAU"> F  </i>
  <i type="int" name="I_CONSTRAINED_M">     0</i>
  <separator name="electronic exchange-correlation" >
   <i type="string" name="GGA">--</i>
   <i type="int" name="VOSKOWN">     0</i>
   <i type="logical" name="LHFCALC"> F  </i>
   <i type="string" name="PRECFOCK"></i>
   <i type="logical" name="LSYMGRAD"> F  </i>
   <i type="logical" name="LHFONE"> F  </i>
   <i type="logical" name="LRHFCALC"> F  </i>
   <i type="logical" name="LTHOMAS"> F  </i>
   <i type="logical" name="LMODELHF"> F  </i>
   <i name="ENCUT4O">     -1.00000000</i>
   <i type="int" name="EXXOEP">     0</i>
   <i type="int" name="FOURORBIT">     0</i>
   <i name="AEXX">      0.00000000</i>
   <i name="HFALPHA">      0.00000000</i>
   <i name="MCALPHA">      0.00000000</i>
   <i name="ALDAX">      1.00000000</i>
   <i name="AGGAX">      1.00000000</i>
   <i name="ALDAC">      1.00000000</i>
   <i name="AGGAC">      1.00000000</i>
   <i type="int" name="NKREDX">     1</i>
   <i type="int" name="NKREDY">     1</i>
   <i type="int" name="NKREDZ">     1</i>
   <i type="logical" name="SHIFTRED"> F  </i>
   <i type="logical" name="ODDONLY"> F  </i>
   <i type="logical" name="EVENONLY"> F  </i>
   <i type="int" name="LMAXFOCK">     0</i>
   <i type="int" name="NMAXFOCKAE">     0</i>
   <i type="logical" name="LFOCKAEDFT"> F  </i>
   <i name="HFSCREEN">      0.00000000</i>
   <i name="HFSCREENC">      0.00000000</i>
   <i type="int" name="NBANDSGWLOW">     0</i>
  </separator>
  <separator name="vdW DFT" >
   <i type="logical" name="LUSE_VDW"> F  </i>
   <i name="Zab_VDW">     -0.84910000</i>
   <i name="PARAM1">      0.12340000</i>
   <i name="PARAM2">      1.00000000</i>
   <i name="PARAM3">      0.00000000</i>
  </separator>
  <separator name="model GW" >
   <i type="int" name="MODEL_GW">     0</i>
   <i name="MODEL_EPS0">     12.47651824</i>
   <i name="MODEL_ALPHA">      1.00000000</i>
  </separator>
  <separator name="linear response parameters" >
   <i type="logical" name="LEPSILON"> F  </i>
   <i type="logical" name="LRPA"> F  </i>
   <i type="logical" name="LNABLA"> F  </i>
   <i type="logical" name="LVEL"> F  </i>
   <i type="int" name="KINTER">     0</i>
   <i name="CSHIFT">      0.10000000</i>
   <i name="OMEGAMAX">     -1.00000000</i>
   <i name="DEG_THRESHOLD">      0.00200000</i>
  </separator>
  <separator name="orbital magnetization" >
   <i type="logical" name="NUCIND"> F  </i>
   <v name="MAGPOS">      0.00000000      0.00000000      0.00000000</v>
   <i type="logical" name="LNICSALL"> T  </i>
   <i type="logical" name="ORBITALMAG"> F  </i>
   <i type="logical" name="LMAGBLOCH"> F  </i>
   <i type="logical" name="LCHIMAG"> F  </i>
   <i type="logical" name="LGAUGE"> T  </i>
   <i type="int" name="MAGATOM">     0</i>
   <v name="MAGDIPOL">      0.00000000      0.00000000      0.00000000</v>
   <v name="AVECCONST">      0.00000000      0.00000000      0.00000000</v>
  </separator>
  <separator name="response functions" >
   <i type="logical" name="LADDER"> F  </i>
   <i type="logical" name="LFXC"> F  </i>
   <i type="logical" name="LHARTREE"> T  </i>
   <i type="int" name="IBSE">     0</i>
   <v type="int" name="KPOINT">    -1     0     0     0</v>
   <i type="logical" name="LTCTE"> F  </i>
   <i type="logical" name="LTETE"> F  </i>
   <i type="logical" name="LTRIPLET"> F  </i>
   <i type="logical" name="LFXCEPS"> F  </i>
   <i type="logical" name="LFXHEG"> F  </i>
   <i type="int" name="NATURALO">     0</i>
   <i type="logical" name="L2ORDER"> F  </i>
   <i type="logical" name="LUSEW"> F  </i>
   <i name="ENCUTGW">     -2.00000000</i>
   <i name="ENCUTGWSOFT">     -2.00000000</i>
   <i name="ENCUTLF">     -1.00000000</i>
   <i type="int" name="LMAXMP2">    -1</i>
   <i name="SCISSOR">      0.00000000</i>
   <i type="int" name="NOMEGA">     0</i>
   <i type="int" name="NOMEGAR">     0</i>
   <i type="int" name="NBANDSGW">    -1</i>
   <i type="int" name="NBANDSO">    -1</i>
   <i type="int" name="NBANDSV">    -1</i>
   <i type="int" name="NELM">    70</i>
   <i type="int" name="NELMHF">     1</i>
   <i type="int" name="DIM">     3</i>
   <i type="int" name="ANTIRES">     0</i>
   <i name="OMEGAMAX">    -30.00000000</i>
   <i name="OMEGAMIN">    -30.00000000</i>
   <i name="OMEGATL">   -200.00000000</i>
   <i type="int" name="OMEGAGRID">     0</i>
   <i name="CSHIFT">     -0.10000000</i>
   <i type="logical" name="SELFENERGY"> F  </i>
   <i type="logical" name="LSPECTRAL"> F  </i>
   <i type="logical" name="LSPECTRALGW"> F  </i>
   <i type="logical" name="LSINGLES"> F  </i>
   <i type="logical" name="LFERMIGW"> F  </i>
   <i type="logical" name="ODDONLYGW"> F  </i>
   <i type="logical" name="EVENONLYGW"> F  </i>
   <i type="int" name="NKREDLFX">     1</i>
   <i type="int" name="NKREDLFY">     1</i>
   <i type="int" name="NKREDLFZ">     1</i>
   <i type="int" name="MAXMEM">  1800</i>
   <i type="int" name="TELESCOPE">     0</i>
   <i type="int" name="TAUPAR">     1</i>
   <i type="int" name="OMEGAPAR">    -1</i>
   <i name="LAMBDA">      1.00000000</i>
  </separator>
  <separator name="External order field" >
   <i name="OFIELD_KAPPA">      0.00000000</i>
   <v name="OFIELD_K">      0.00000000      0.00000000      0.00000000</v>
   <i name="OFIELD_Q6_NEAR">      0.00000000</i>
   <i name="OFIELD_Q6_FAR">      0.00000000</i>
   <i name="OFIELD_A">      0.00000000</i>
  </separator>
 </parameters>
 <atominfo>
  <atoms>      36 </atoms>
  <types>       4 </types>
  <array name="atoms" >
   <dimension dim="1">ion</dimension>
   <field type="string">element</field>
   <field type="int">atomtype</field>
   <set>
    <rc><c>Zr</c><c>   1</c></rc>
    <rc><c>Zr</c><c>   1</c></rc>
    <rc><c>Zr</c><c>   1</c></rc>
    <rc><c>Zr</c><c>   1</c></rc>
    <rc><c>Zr</c><c>   1</c></rc>
    <rc><c>Zr</c><c>   1</c></rc>
    <rc><c>Zr</c><c>   1</c></rc>
    <rc><c>Zr</c><c>   1</c></rc>
    <rc><c>Zr</c><c>   1</c></rc>
    <rc><c>Zr</c><c>   1</c></rc>
    <rc><c>Zr</c><c>   1</c></rc>
    <rc><c>Zr</c><c>   1</c></rc>
    <rc><c>Ta</c><c>   2</c></rc>
    <rc><c>Ta</c><c>   2</c></rc>
    <rc><c>Ta</c><c>   2</c></rc>
    <rc><c>Ta</c><c>   2</c></rc>
    <rc><c>Ta</c><c>   2</c></rc>
    <rc><c>Ta</c><c>   2</c></rc>
    <rc><c>Ta</c><c>   2</c></rc>
    <rc><c>Ta</c><c>   2</c></rc>
    <rc><c>Ta</c><c>   2</c></rc>
    <rc><c>Ta</c><c>   2</c></rc>
    <rc><c>Nb</c><c>   3</c></rc>
    <rc><c>Nb</c><c>   3</c></rc>
    <rc><c>Nb</c><c>   3</c></rc>
    <rc><c>Nb</c><c>   3</c></rc>
    <rc><c>Nb</c><c>   3</c></rc>
    <rc><c>Hf</c><c>   4</c></rc>
    <rc><c>Hf</c><c>   4</c></rc>
    <rc><c>Hf</c><c>   4</c></rc>
    <rc><c>Hf</c><c>   4</c></rc>
    <rc><c>Hf</c><c>   4</c></rc>
    <rc><c>Hf</c><c>   4</c></rc>
    <rc><c>Hf</c><c>   4</c></rc>
    <rc><c>Hf</c><c>   4</c></rc>
    <rc><c>Hf</c><c>   4</c></rc>
   </set>
  </array>
  <array name="atomtypes" >
   <dimension dim="1">type</dimension>
   <field type="int">atomspertype</field>
   <field type="string">element</field>
   <field>mass</field>
   <field>valence</field>
   <field type="string">pseudopotential</field>
   <set>
    <rc><c>  12</c><c>Zr</c><c>     91.22400000</c><c>     12.00000000</c><c>  PAW_PBE Zr_sv 04Jan2005               </c></rc>
    <rc><c>  10</c><c>Ta</c><c>    180.94800000</c><c>      5.00000000</c><c>  PAW_PBE Ta 17Jan2003                  </c></rc>
    <rc><c>   5</c><c>Nb</c><c>     92.91000000</c><c>     13.00000000</c><c>  PAW_PBE Nb_sv 25May2007               </c></rc>
    <rc><c>   9</c><c>Hf</c><c>    178.49000000</c><c>      4.00000000</c><c>  PAW_PBE Hf 20Jan2003                  </c></rc>
   </set>
  </array>
 </atominfo>
 <structure name="initialpos" >
  <crystal>
   <varray name="basis" >
    <v>       7.05168951       0.02328044       0.01388247 </v>
    <v>       0.03448918      10.26558781       0.00057864 </v>
    <v>       0.01978863       0.00028932      10.34127544 </v>
   </varray>
   <i name="volume">    748.59109443 </i>
   <varray name="rec_basis" >
    <v>       0.14181209      -0.00047643      -0.00027135 </v>
    <v>      -0.00032160       0.09741391      -0.00000211 </v>
    <v>      -0.00019036      -0.00000481       0.09670024 </v>
   </varray>
  </crystal>
  <varray name="positions" >
   <v>       0.51485000       0.33361200       0.34284800 </v>
   <v>       0.99632800       0.32493200       0.67095800 </v>
   <v>       0.50801000       0.01286600       0.65617400 </v>
   <v>       0.27125300       0.48370600       0.15192400 </v>
   <v>       0.98712900       0.34624300       0.32863400 </v>
   <v>       0.49548500       0.66338800       0.33000600 </v>
   <v>       0.21597200       0.15242100       0.48548300 </v>
   <v>       0.00428700       0.67191700       0.00610400 </v>
   <v>       0.77144100       0.52555100       0.52188600 </v>
   <v>       0.75960000       0.82819900       0.51035500 </v>
   <v>       0.25953100       0.49344500       0.83736500 </v>
   <v>       0.25593300       0.16290400       0.16335300 </v>
   <v>       0.73573300       0.83283500       0.15463100 </v>
   <v>       0.96951500       0.99012000       0.30880700 </v>
   <v>       0.25610600       0.84555800       0.17094600 </v>
   <v>       0.78841800       0.15454800       0.48865000 </v>
   <v>       0.49166700       0.67504000       0.01053200 </v>
   <v>       0.46449900       0.66422900       0.66489700 </v>
   <v>       0.23293700       0.51275600       0.51431900 </v>
   <v>       0.03496600       0.68183300       0.68688400 </v>
   <v>       0.72833300       0.50301600       0.15219400 </v>
   <v>       0.23785500       0.83596100       0.49021700 </v>
   <v>       0.74388800       0.16246200       0.16412500 </v>
   <v>       0.72213600       0.16516700       0.84115400 </v>
   <v>       0.27188400       0.83258100       0.84075100 </v>
   <v>       0.53607700       0.32708000       0.00395200 </v>
   <v>       0.50567900       0.99394700       0.00645700 </v>
   <v>       0.28180700       0.17226500       0.84915200 </v>
   <v>       0.99331200       0.99894600       0.99766200 </v>
   <v>       0.99767500       0.00100000       0.69028700 </v>
   <v>       0.00066300       0.66426400       0.31472300 </v>
   <v>       0.52515400       0.00038500       0.33139500 </v>
   <v>       0.50594600       0.32979800       0.65138500 </v>
   <v>       0.97316400       0.32399000       0.99745900 </v>
   <v>       0.72468900       0.82091500       0.83025700 </v>
   <v>       0.73806200       0.51212500       0.83406800 </v>
  </varray>
 </structure>
 <calculation>
  <scstep>
   <time name="dav">    1.03    1.05</time>
   <time name="total">    1.21    1.43</time>
   <energy>
    <i name="alphaZ">   1479.31028062 </i>
    <i name="ewald"> -19592.10729559 </i>
    <i name="hartreedc">  -6379.61389508 </i>
    <i name="XCdc">   -261.81282738 </i>
    <i name="pawpsdc">  21222.44937796 </i>
    <i name="pawaedc"> -19630.83424102 </i>
    <i name="eentropy">      0.00180740 </i>
    <i name="bandstr">   -174.06300327 </i>
    <i name="atom">  25175.14332663 </i>
    <i name="e_fr_energy">   1838.47353025 </i>
    <i name="e_wo_entrp">   1838.47172285 </i>
    <i name="e_0_energy">   1838.47292779 </i>
   </energy>
  </scstep>
  <scstep>
   <time name="dav">    1.02    1.03</time>
   <time name="total">    1.02    1.14</time>
   <energy>
    <i name="e_fr_energy">    -73.38948514 </i>
    <i name="e_wo_entrp">    -73.39283177 </i>
    <i name="e_0_energy">    -73.39060068 </i>
   </energy>
  </scstep>
  <scstep>
   <time name="dav">    1.56    1.71</time>
   <time name="total">    1.57    1.74</time>
   <energy>
    <i name="e_fr_energy">   -337.17559189 </i>
    <i name="e_wo_entrp">   -337.17743663 </i>
    <i name="e_0_energy">   -337.17620680 </i>
   </energy>
  </scstep>
  <scstep>
   <time name="dav">    1.47    1.53</time>
   <time name="total">    1.47    1.56</time>
   <energy>
    <i name="e_fr_energy">   -369.80182782 </i>
    <i name="e_wo_entrp">   -369.80681792 </i>
    <i name="e_0_energy">   -369.80349118 </i>
   </energy>
  </scstep>
  <scstep>
   <time name="dav">    1.27    1.28</time>
   <time name="total">    1.30    1.33</time>
   <energy>
    <i name="e_fr_energy">   -373.05225725 </i>
    <i name="e_wo_entrp">   -373.05624936 </i>
    <i name="e_0_energy">   -373.05358795 </i>
   </energy>
  </scstep>
  <scstep>
   <time name="diag">    0.08    0.08</time>
   <time name="diis">    0.75    0.75</time>
   <time name="orth">    0.01    0.01</time>
   <time name="total">    0.91    0.93</time>
   <energy>
    <i name="e_fr_energy">   -363.34479262 </i>
    <i name="e_wo_entrp">   -363.34596530 </i>
    <i name="e_0_energy">   -363.34518351 </i>
   </energy>
  </scstep>
  <scstep>
   <time name="diag">    0.08    0.08</time>
   <time name="diis">    0.82    0.82</time>
   <time name="orth">    0.01    0.01</time>
   <time name="total">    1.01    1.04</time>
   <energy>
    <i name="e_fr_energy">   -367.64104486 </i>
    <i name="e_wo_entrp">   -367.63691217 </i>
    <i name="e_0_energy">   -367.63966730 </i>
   </energy>
  </scstep>
  <scstep>
   <time name="diag">    0.15    0.15</time>
   <time name="diis">    0.75    0.75</time>
   <time name="orth">    0.01    0.01</time>
   <time name="total">    0.99    1.01</time>
   <energy>
    <i name="e_fr_energy">   -358.29087422 </i>
    <i name="e_wo_entrp">   -358.30672661 </i>
    <i name="e_0_energy">   -358.29615835 </i>
   </energy>
  </scstep>
  <scstep>
   <time name="diag">    0.08    0.08</time>
   <time name="diis">    0.78    0.78</time>
   <time name="orth">    0.01    0.01</time>
   <time name="total">    0.94    0.96</time>
   <energy>
    <i name="e_fr_energy">   -357.74903627 </i>
    <i name="e_wo_entrp">   -357.76357491 </i>
    <i name="e_0_energy">   -357.75388248 </i>
   </energy>
  </scstep>
  <scstep>
   <time name="diag">    0.08    0.08</time>
   <time name="diis">    0.78    0.78</time>
   <time name="orth">    0.01    0.01</time>
   <time name="total">    0.95    0.97</time>
   <energy>
    <i name="e_fr_energy">   -357.75285735 </i>
    <i name="e_wo_entrp">   -357.76953139 </i>
    <i name="e_0_energy">   -357.75841536 </i>
   </energy>
  </scstep>
  <scstep>
   <time name="diag">    0.10    0.10</time>
   <time name="diis">    0.82    0.83</time>
   <time name="orth">    0.01    0.01</time>
   <time name="total">    1.03    1.05</time>
   <energy>
    <i name="e_fr_energy">   -357.73524090 </i>
    <i name="e_wo_entrp">   -357.75204450 </i>
    <i name="e_0_energy">   -357.74084210 </i>
   </energy>
  </scstep>
  <scstep>
   <time name="diag">    0.14    0.15</time>
   <time name="diis">    0.73    0.86</time>
   <time name="orth">    0.01    0.02</time>
   <time name="total">    0.96    1.14</time>
   <energy>
    <i name="e_fr_energy">   -357.73179621 </i>
    <i name="e_wo_entrp">   -357.74938935 </i>
    <i name="e_0_energy">   -357.73766059 </i>
   </energy>
  </scstep>
  <scstep>
   <time name="diag">    0.14    0.14</time>
   <time name="diis">    0.82    0.83</time>
   <time name="orth">    0.01    0.01</time>
   <time name="total">    1.04    1.08</time>
   <energy>
    <i name="e_fr_energy">   -357.73111392 </i>
    <i name="e_wo_entrp">   -357.74907748 </i>
    <i name="e_0_energy">   -357.73710178 </i>
   </energy>
  </scstep>
  <scstep>
   <time name="diag">    0.08    0.08</time>
   <time name="diis">    0.80    0.80</time>
   <time name="orth">    0.01    0.01</time>
   <time name="total">    0.95    0.99</time>
   <energy>
    <i name="e_fr_energy">   -357.73123823 </i>
    <i name="e_wo_entrp">   -357.74890433 </i>
    <i name="e_0_energy">   -357.73712693 </i>
   </energy>
  </scstep>
  <scstep>
   <time name="diag">    0.08    0.08</time>
   <time name="diis">    0.83    0.84</time>
   <time name="orth">    0.01    0.01</time>
   <time name="total">    1.00    1.04</time>
   <energy>
    <i name="e_fr_energy">   -357.73154035 </i>
    <i name="e_wo_entrp">   -357.74917447 </i>
    <i name="e_0_energy">   -357.73741839 </i>
   </energy>
  </scstep>
  <scstep>
   <time name="diag">    0.09    0.09</time>
   <time name="diis">    0.72    0.73</time>
   <time name="orth">    0.01    0.01</time>
   <time name="total">    0.90    0.94</time>
   <energy>
    <i name="e_fr_energy">   -357.73153620 </i>
    <i name="e_wo_entrp">   -357.74929178 </i>
    <i name="e_0_energy">   -357.73745473 </i>
   </energy>
  </scstep>
  <scstep>
   <time name="diag">    0.08    0.08</time>
   <time name="diis">    0.75    0.75</time>
   <time name="orth">    0.01    0.01</time>
   <time name="total">    0.95    0.99</time>
   <energy>
    <i name="e_fr_energy">   -357.73156409 </i>
    <i name="e_wo_entrp">   -357.74932307 </i>
    <i name="e_0_energy">   -357.73748375 </i>
   </energy>
  </scstep>
  <scstep>
   <time name="diag">    0.08    0.08</time>
   <time name="diis">    0.59    0.60</time>
   <time name="orth">    0.01    0.01</time>
   <time name="total">    0.75    0.79</time>
   <energy>
    <i name="e_fr_energy">   -357.73159056 </i>
    <i name="e_wo_entrp">   -357.74936752 </i>
    <i name="e_0_energy">   -357.73751622 </i>
   </energy>
  </scstep>
  <scstep>
   <time name="diag">    0.08    0.08</time>
   <time name="diis">    0.56    0.57</time>
   <time name="orth">    0.01    0.03</time>
   <time name="total">    0.73    0.78</time>
   <energy>
    <i name="e_fr_energy">   -357.73159602 </i>
    <i name="e_wo_entrp">   -357.74937115 </i>
    <i name="e_0_energy">   -357.73752106 </i>
   </energy>
  </scstep>
  <scstep>
   <time name="diag">    0.08    0.09</time>
   <time name="diis">    0.42    0.50</time>
   <time name="orth">    0.01    0.01</time>
   <time name="total">    0.54    0.66</time>
   <energy>
    <i name="alphaZ">   1479.31028062 </i>
    <i name="ewald"> -19592.10729559 </i>
    <i name="hartreedc">  -6135.71734913 </i>
    <i name="XCdc">   -262.33737748 </i>
    <i name="pawpsdc">  33961.59364785 </i>
    <i name="pawaedc"> -32354.34323537 </i>
    <i name="eentropy">      0.01777611 </i>
    <i name="bandstr">  -2629.29137271 </i>
    <i name="atom">  25175.14332663 </i>
    <i name="e_fr_energy">   -357.73159908 </i>
    <i name="e_wo_entrp">   -357.74937519 </i>
    <i name="e_0_energy">   -357.73752445 </i>
   </energy>
  </scstep>
  <structure>
   <crystal>
    <varray name="basis" >
     <v>       7.05168951       0.02328044       0.01388247 </v>
     <v>       0.03448918      10.26558781       0.00057864 </v>
     <v>       0.01978863       0.00028932      10.34127544 </v>
    </varray>
    <i name="volume">    748.59109443 </i>
    <varray name="rec_basis" >
     <v>       0.14181209      -0.00047643      -0.00027135 </v>
     <v>      -0.00032160       0.09741391      -0.00000211 </v>
     <v>      -0.00019036      -0.00000481       0.09670024 </v>
    </varray>
   </crystal>
   <varray name="positions" >
    <v>       0.51485000       0.33361200       0.34284800 </v>
    <v>       0.99632800       0.32493200       0.67095800 </v>
    <v>       0.50801000       0.01286600       0.65617400 </v>
    <v>       0.27125300       0.48370600       0.15192400 </v>
    <v>       0.98712900       0.34624300       0.32863400 </v>
    <v>       0.49548500       0.66338800       0.33000600 </v>
    <v>       0.21597200       0.15242100       0.48548300 </v>
    <v>       0.00428700       0.67191700       0.00610400 </v>
    <v>       0.77144100       0.52555100       0.52188600 </v>
    <v>       0.75960000       0.82819900       0.51035500 </v>
    <v>       0.25953100       0.49344500       0.83736500 </v>
    <v>       0.25593300       0.16290400       0.16335300 </v>
    <v>       0.73573300       0.83283500       0.15463100 </v>
    <v>       0.96951500       0.99012000       0.30880700 </v>
    <v>       0.25610600       0.84555800       0.17094600 </v>
    <v>       0.78841800       0.15454800       0.48865000 </v>
    <v>       0.49166700       0.67504000       0.01053200 </v>
    <v>       0.46449900       0.66422900       0.66489700 </v>
    <v>       0.23293700       0.51275600       0.51431900 </v>
    <v>       0.03496600       0.68183300       0.68688400 </v>
    <v>       0.72833300       0.50301600       0.15219400 </v>
    <v>       0.23785500       0.83596100       0.49021700 </v>
    <v>       0.74388800       0.16246200       0.16412500 </v>
    <v>       0.72213600       0.16516700       0.84115400 </v>
    <v>       0.27188400       0.83258100       0.84075100 </v>
    <v>       0.53607700       0.32708000       0.00395200 </v>
    <v>       0.50567900       0.99394700       0.00645700 </v>
    <v>       0.28180700       0.17226500       0.84915200 </v>
    <v>       0.99331200       0.99894600       0.99766200 </v>
    <v>       0.99767500       0.00100000       0.69028700 </v>
    <v>       0.00066300       0.66426400       0.31472300 </v>
    <v>       0.52515400       0.00038500       0.33139500 </v>
    <v>       0.50594600       0.32979800       0.65138500 </v>
    <v>       0.97316400       0.32399000       0.99745900 </v>
    <v>       0.72468900       0.82091500       0.83025700 </v>
    <v>       0.73806200       0.51212500       0.83406800 </v>
   </varray>
  </structure>
  <varray name="forces" >
   <v>      -0.00618194      -0.00878178       0.00885305 </v>
   <v>      -0.01340741      -0.01429406       0.02005647 </v>
   <v>      -0.25662817      -0.27055745      -0.15806692 </v>
   <v>      -0.00535254      -0.02098296      -0.00128645 </v>
   <v>      -0.00361741       0.00941730      -0.00844641 </v>
   <v>      -0.18512784       0.25996938       0.24342991 </v>
   <v>      -0.03515030      -0.28257112       0.00009614 </v>
   <v>       0.00376668       0.01983324       0.01510554 </v>
   <v>      -0.01732139      -0.09449032       0.01562648 </v>
   <v>       0.08949926      -0.03634694       0.02351510 </v>
   <v>      -0.01696634      -0.01636718      -0.01696614 </v>
   <v>       0.00361388       0.02462647      -0.05632384 </v>
   <v>      -0.01424069       0.01329458      -0.02943617 </v>
   <v>       0.33974700      -0.20623411       0.43043322 </v>
   <v>       0.06387902       0.00715662       0.12351922 </v>
   <v>      -0.03161832       0.10477084      -0.04118635 </v>
   <v>      -0.03658607       0.01310686      -0.00830594 </v>
   <v>      -0.22794853       0.43236925      -0.37722007 </v>
   <v>       0.01685790       0.13392893       0.01508083 </v>
   <v>       0.18802933       0.31426131      -0.50242090 </v>
   <v>      -0.00825926      -0.03433922      -0.03984498 </v>
   <v>       0.01119433      -0.21579159       0.09324635 </v>
   <v>      -0.01878665       0.03290248      -0.03520400 </v>
   <v>       0.00080835       0.02540944       0.04711615 </v>
   <v>       0.01663676      -0.02460888      -0.02476173 </v>
   <v>       0.00096797       0.00488315       0.00084420 </v>
   <v>      -0.01444431      -0.00931025      -0.00918452 </v>
   <v>       0.01839308       0.01722459       0.02567571 </v>
   <v>       0.00011759      -0.01560316       0.02181997 </v>
   <v>       0.19984975      -0.17101668      -0.33874748 </v>
   <v>       0.19200714       0.25298097       0.32508085 </v>
   <v>      -0.30827731      -0.23077878       0.19656588 </v>
   <v>       0.00263476      -0.00529227      -0.01680298 </v>
   <v>       0.02148331       0.01483470       0.00049356 </v>
   <v>       0.01326710      -0.00272356       0.02527444 </v>
   <v>       0.01716124      -0.02087982       0.03237178 </v>
  </varray>
  <varray name="stress" >
   <v>      -7.72435904      -0.31424412      -0.47559175 </v>
   <v>      -0.31424414      -7.82572393       0.72997611 </v>
   <v>      -0.47559172       0.72997611     -10.05249290 </v>
  </varray>
  <energy>
   <i name="e_fr_energy">   -357.73159908 </i>
   <i name="e_wo_entrp">   -357.73752445 </i>
   <i name="e_0_energy">      0.01777611 </i>
  </energy>
  <time name="totalsc">   21.75   23.20</time>
 </calculation>
 <calculation>
  <scstep>
   <time name="dav">    1.14    1.15</time>
   <time name="total">    1.33    1.48</time>
   <energy>
    <i name="alphaZ">   1486.44750135 </i>
    <i name="ewald"> -19627.25450943 </i>
    <i name="hartreedc">  -6142.01515993 </i>
    <i name="XCdc">   -260.94739845 </i>
    <i name="pawpsdc">  33961.48606385 </i>
    <i name="pawaedc"> -32354.23374483 </i>
    <i name="eentropy">      0.01683319 </i>
    <i name="bandstr">  -2596.46521030 </i>
    <i name="atom">  25175.14332663 </i>
    <i name="e_fr_energy">   -357.82229792 </i>
    <i name="e_wo_entrp">   -357.83913112 </i>
    <i name="e_0_energy">   -357.82790899 </i>
   </energy>
  </scstep>
  <scstep>
   <time name="diag">    0.08    0.08</time>
   <time name="diis">    0.76    0.77</time>
   <time name="orth">    0.01    0.01</time>
   <time name="total">    1.07    1.09</time>
   <energy>
    <i name="e_fr_energy">   -357.79623169 </i>
    <i name="e_wo_entrp">   -357.81499997 </i>
    <i name="e_0_energy">   -357.80248779 </i>
   </energy>
  </scstep>
  <scstep>
   <time name="diag">    0.08    0.08</time>
   <time name="diis">    0.78    0.79</time>
   <time name="orth">    0.01    0.01</time>
   <time name="total">    0.94    0.97</time>
   <energy>
    <i name="e_fr_energy">   -357.78461914 </i>
    <i name="e_wo_entrp">   -357.80174052 </i>
    <i name="e_0_energy">   -357.79032627 </i>
   </energy>
  </scstep>
  <scstep>
   <time name="diag">    0.08    0.08</time>
   <time name="diis">    0.78    0.79</time>
   <time name="orth">    0.01    0.01</time>
   <time name="total">    0.94    0.97</time>
   <energy>
    <i name="e_fr_energy">   -357.77527978 </i>
    <i name="e_wo_entrp">   -357.79322874 </i>
    <i name="e_0_energy">   -357.78126277 </i>
   </energy>
  </scstep>
  <scstep>
   <time name="diag">    0.08    0.08</time>
   <time name="diis">    0.78    0.78</time>
   <time name="orth">    0.01    0.01</time>
   <time name="total">    0.94    0.96</time>
   <energy>
    <i name="e_fr_energy">   -357.77458510 </i>
    <i name="e_wo_entrp">   -357.79268332 </i>
    <i name="e_0_energy">   -357.78061784 </i>
   </energy>
  </scstep>
  <scstep>
   <time name="diag">    0.08    0.08</time>
   <time name="diis">    0.87    0.89</time>
   <time name="orth">    0.01    0.01</time>
   <time name="total">    1.04    1.08</time>
   <energy>
    <i name="e_fr_energy">   -357.77484176 </i>
    <i name="e_wo_entrp">   -357.79279867 </i>
    <i name="e_0_energy">   -357.78082740 </i>
   </energy>
  </scstep>
  <scstep>
   <time name="diag">    0.11    0.11</time>
   <time name="diis">    0.76    0.76</time>
   <time name="orth">    0.01    0.01</time>
   <time name="total">    0.94    1.00</time>
   <energy>
    <i name="e_fr_energy">   -357.77496304 </i>
    <i name="e_wo_entrp">   -357.79300105 </i>
    <i name="e_0_energy">   -357.78097571 </i>
   </energy>
  </scstep>
  <scstep>
   <time name="diag">    0.08    0.08</time>
   <time name="diis">    0.68    0.72</time>
   <time name="orth">    0.01    0.01</time>
   <time name="total">    0.84    0.90</time>
   <energy>
    <i name="e_fr_energy">   -357.77504794 </i>
    <i name="e_wo_entrp">   -357.79306215 </i>
    <i name="e_0_energy">   -357.78105268 </i>
   </energy>
  </scstep>
  <scstep>
   <time name="diag">    0.10    0.10</time>
   <time name="diis">    0.60    0.60</time>
   <time name="orth">    0.01    0.01</time>
   <time name="total">    0.78    0.80</time>
   <energy>
    <i name="e_fr_energy">   -357.77511142 </i>
    <i name="e_wo_entrp">   -357.79314068 </i>
    <i name="e_0_energy">   -357.78112118 </i>
   </energy>
  </scstep>
  <scstep>
   <time name="diag">    0.08    0.08</time>
   <time name="diis">    0.61    0.62</time>
   <time name="orth">    0.01    0.01</time>
   <time name="total">    0.77    0.79</time>
   <energy>
    <i name="e_fr_energy">   -357.77517486 </i>
    <i name="e_wo_entrp">   -357.79320323 </i>
    <i name="e_0_energy">   -357.78118431 </i>
   </energy>
  </scstep>
  <scstep>
   <time name="diag">    0.10    0.11</time>
   <time name="diis">    0.49    0.50</time>
   <time name="orth">    0.01    0.01</time>
   <time name="total">    0.68    0.72</time>
   <energy>
    <i name="e_fr_energy">   -357.77518810 </i>
    <i name="e_wo_entrp">   -357.79321938 </i>
    <i name="e_0_energy">   -357.78119852 </i>
   </energy>
  </scstep>
  <scstep>
   <time name="diag">    0.08    0.08</time>
   <time name="diis">    0.36    0.42</time>
   <time name="orth">    0.01    0.02</time>
   <time name="total">    0.48    0.58</time>
   <energy>
    <i name="alphaZ">   1486.44750135 </i>
    <i name="ewald"> -19627.25450943 </i>
    <i name="hartreedc">  -6122.78311041 </i>
    <i name="XCdc">   -261.78749089 </i>
    <i name="pawpsdc">  34179.88934695 </i>
    <i name="pawaedc"> -32572.26981918 </i>
    <i name="eentropy">      0.01803206 </i>
    <i name="bandstr">  -2615.17846676 </i>
    <i name="atom">  25175.14332663 </i>
    <i name="e_fr_energy">   -357.77518969 </i>
    <i name="e_wo_entrp">   -357.79322175 </i>
    <i name="e_0_energy">   -357.78120038 </i>
   </energy>
  </scstep>
  <structure>
   <crystal>
    <varray name="basis" >
     <v>       7.04145539       0.02283188       0.01322949 </v>
     <v>       0.03383313      10.25049574       0.00198206 </v>
     <v>       0.01883607       0.00170570      10.32174687 </v>
    </varray>
    <i name="volume">    744.99671261 </i>
    <varray name="rec_basis" >
     <v>       0.14201810      -0.00046870      -0.00025909 </v>
     <v>      -0.00031630       0.09755730      -0.00001554 </v>
     <v>      -0.00018197      -0.00001813       0.09688316 </v>
    </varray>
   </crystal>
   <varray name="positions" >
    <v>       0.51483734       0.33359965       0.34286041 </v>
    <v>       0.99630050       0.32491191       0.67098611 </v>
    <v>       0.50748578       0.01248575       0.65595351 </v>
    <v>       0.27124216       0.48367644       0.15192222 </v>
    <v>       0.98712154       0.34625629       0.32862219 </v>
    <v>       0.49510229       0.66375537       0.33034718 </v>
    <v>       0.21590180       0.15202278       0.48548325 </v>
    <v>       0.00429453       0.67194494       0.00612513 </v>
    <v>       0.77140604       0.52541786       0.52190792 </v>
    <v>       0.75978385       0.82814734       0.51038767 </v>
    <v>       0.25949636       0.49342200       0.83734130 </v>
    <v>       0.25594047       0.16293870       0.16327416 </v>
    <v>       0.73570380       0.83285381       0.15458984 </v>
    <v>       0.97021203       0.98982765       0.30940848 </v>
    <v>       0.25623657       0.84556779       0.17111869 </v>
    <v>       0.78835255       0.15469586       0.48859244 </v>
    <v>       0.49159185       0.67505865       0.01052048 </v>
    <v>       0.46402965       0.66483965       0.66436967 </v>
    <v>       0.23297062       0.51294474       0.51434005 </v>
    <v>       0.03535172       0.68227520       0.68618031 </v>
    <v>       0.72831644       0.50296763       0.15213826 </v>
    <v>       0.23787910       0.83565671       0.49034748 </v>
    <v>       0.74384935       0.16250848       0.16407578 </v>
    <v>       0.72213730       0.16520282       0.84121994 </v>
    <v>       0.27191841       0.83254623       0.84071630 </v>
    <v>       0.53607895       0.32708688       0.00395318 </v>
    <v>       0.50564945       0.99393394       0.00644419 </v>
    <v>       0.28184453       0.17228920       0.84918788 </v>
    <v>       0.99331226       0.99892400       0.99769254 </v>
    <v>       0.99808768       0.00075797       0.68981238 </v>
    <v>       0.00105406       0.66461976       0.31517741 </v>
    <v>       0.52452211       0.00006106       0.33167096 </v>
    <v>       0.50595151       0.32979053       0.65136148 </v>
    <v>       0.97320799       0.32401081       0.99745963 </v>
    <v>       0.72471615       0.82091110       0.83029234 </v>
    <v>       0.73809724       0.51209548       0.83411326 </v>
   </varray>
  </structure>
  <varray name="forces" >
   <v>      -0.01133999      -0.00909245       0.01358916 </v>
   <v>      -0.00870783      -0.01732874       0.03275981 </v>
   <v>      -0.24165914      -0.25449283      -0.13762731 </v>
   <v>      -0.01329348      -0.01247779       0.01249144 </v>
   <v>       0.00590303       0.01009009      -0.01589426 </v>
   <v>      -0.16009319       0.22399007       0.22640832 </v>
   <v>      -0.02272834      -0.24421271      -0.00115235 </v>
   <v>       0.00737136       0.00962830       0.01845560 </v>
   <v>      -0.02607364      -0.09803280       0.00288834 </v>
   <v>       0.07045121      -0.03726326       0.02371638 </v>
   <v>      -0.02259156      -0.01241430      -0.02172938 </v>
   <v>       0.00070490       0.02187632      -0.03765150 </v>
   <v>      -0.00538900       0.01302530      -0.00805499 </v>
   <v>       0.31802844      -0.18578432       0.39637799 </v>
   <v>       0.05573062       0.00906360       0.10376732 </v>
   <v>      -0.04877437       0.10366611      -0.03292698 </v>
   <v>      -0.03908442      -0.00644846      -0.01469847 </v>
   <v>      -0.17080261       0.40269599      -0.33621809 </v>
   <v>       0.01482193       0.10071822      -0.01207592 </v>
   <v>       0.14232877       0.28296495      -0.46032113 </v>
   <v>       0.00733376      -0.02102645      -0.00970137 </v>
   <v>       0.01700036      -0.17974806       0.09139073 </v>
   <v>      -0.01567640       0.01755653      -0.00472064 </v>
   <v>       0.01257791       0.00637652       0.01519428 </v>
   <v>       0.00591233      -0.00247731      -0.03170001 </v>
   <v>      -0.02513111       0.01481723      -0.00701292 </v>
   <v>      -0.00839955       0.00258214      -0.01301861 </v>
   <v>       0.00327616       0.01377837       0.00896731 </v>
   <v>      -0.00161336      -0.01357632       0.01081386 </v>
   <v>       0.18463276      -0.15791902      -0.30294164 </v>
   <v>       0.17452485       0.22175404       0.30352339 </v>
   <v>      -0.28585858      -0.20655785       0.17739891 </v>
   <v>       0.00071442      -0.01433948      -0.01744284 </v>
   <v>       0.03963508       0.02343671      -0.00459247 </v>
   <v>       0.02612527       0.01311095       0.01584654 </v>
   <v>       0.02014342      -0.01793926       0.01589149 </v>
  </varray>
  <varray name="stress" >
   <v>      -1.68427067      -0.24498353      -0.37114464 </v>
   <v>      -0.24498353      -1.67762264       0.68995003 </v>
   <v>      -0.37114467       0.68995003      -3.86886467 </v>
  </varray>
  <energy>
   <i name="e_fr_energy">   -357.77518969 </i>
   <i name="e_wo_entrp">   -357.78120038 </i>
   <i name="e_0_energy">      0.01803206 </i>
  </energy>
  <time name="totalsc">   12.35   13.07</time>
 </calculation>
 <calculation>
  <scstep>
   <time name="dav">    0.99    0.99</time>
   <time name="total">    1.11    1.27</time>
   <energy>
    <i name="alphaZ">   1501.23273477 </i>
    <i name="ewald"> -19699.37783368 </i>
    <i name="hartreedc">  -6135.99947043 </i>
    <i name="XCdc">   -258.92395100 </i>
    <i name="pawpsdc">  34180.02299311 </i>
    <i name="pawaedc"> -32572.38509104 </i>
    <i name="eentropy">      0.01607127 </i>
    <i name="bandstr">  -2547.73830069 </i>
    <i name="atom">  25175.14332663 </i>
    <i name="e_fr_energy">   -358.00952105 </i>
    <i name="e_wo_entrp">   -358.02559232 </i>
    <i name="e_0_energy">   -358.01487814 </i>
   </energy>
  </scstep>
  <scstep>
   <time name="diag">    0.08    0.08</time>
   <time name="diis">    0.78    0.78</time>
   <time name="orth">    0.01    0.01</time>
   <time name="total">    0.93    0.95</time>
   <energy>
    <i name="e_fr_energy">   -357.89698595 </i>
    <i name="e_wo_entrp">   -357.91664797 </i>
    <i name="e_0_energy">   -357.90353995 </i>
   </energy>
  </scstep>
  <scstep>
   <time name="diag">    0.08    0.08</time>
   <time name="diis">    0.82    0.82</time>
   <time name="orth">    0.01    0.01</time>
   <time name="total">    0.97    1.00</time>
   <energy>
    <i name="e_fr_energy">   -357.84997455 </i>
    <i name="e_wo_entrp">   -357.86656886 </i>
    <i name="e_0_energy">   -357.85550599 </i>
   </energy>
  </scstep>
  <scstep>
   <time name="diag">    0.08    0.08</time>
   <time name="diis">    0.79    0.79</time>
   <time name="orth">    0.01    0.01</time>
   <time name="total">    0.95    0.98</time>
   <energy>
    <i name="e_fr_energy">   -357.81037310 </i>
    <i name="e_wo_entrp">   -357.82857002 </i>
    <i name="e_0_energy">   -357.81643874 </i>
   </energy>
  </scstep>
  <scstep>
   <time name="diag">    0.08    0.08</time>
   <time name="diis">    0.85    0.86</time>
   <time name="orth">    0.01    0.01</time>
   <time name="total">    1.06    1.09</time>
   <energy>
    <i name="e_fr_energy">   -357.80763072 </i>
    <i name="e_wo_entrp">   -357.82608481 </i>
    <i name="e_0_energy">   -357.81378208 </i>
   </energy>
  </scstep>
  <scstep>
   <time name="diag">    0.09    0.10</time>
   <time name="diis">    0.86    0.88</time>
   <time name="orth">    0.01    0.01</time>
   <time name="total">    1.05    1.11</time>
   <energy>
    <i name="e_fr_energy">   -357.80855795 </i>
    <i name="e_wo_entrp">   -357.82674833 </i>
    <i name="e_0_energy">   -357.81462141 </i>
   </energy>
  </scstep>
  <scstep>
   <time name="diag">    0.08    0.09</time>
   <time name="diis">    0.82    0.98</time>
   <time name="orth">    0.01    0.01</time>
   <time name="total">    0.99    1.17</time>
   <energy>
    <i name="e_fr_energy">   -357.80899412 </i>
    <i name="e_wo_entrp">   -357.82732330 </i>
    <i name="e_0_energy">   -357.81510385 </i>
   </energy>
  </scstep>
  <scstep>
   <time name="diag">    0.08    0.08</time>
   <time name="diis">    0.76    0.91</time>
   <time name="orth">    0.01    0.01</time>
   <time name="total">    0.94    1.13</time>
   <energy>
    <i name="e_fr_energy">   -357.80929204 </i>
    <i name="e_wo_entrp">   -357.82759256 </i>
    <i name="e_0_energy">   -357.81539221 </i>
   </energy>
  </scstep>
  <scstep>
   <time name="diag">    0.08    0.08</time>
   <time name="diis">    0.76    0.76</time>
   <time name="orth">    0.01    0.01</time>
   <time name="total">    0.92    0.94</time>
   <energy>
    <i name="e_fr_energy">   -357.80952929 </i>
    <i name="e_wo_entrp">   -357.82785758 </i>
    <i name="e_0_energy">   -357.81563872 </i>
   </energy>
  </scstep>
  <scstep>
   <time name="diag">    0.13    0.13</time>
   <time name="diis">    0.74    0.75</time>
   <time name="orth">    0.01    0.01</time>
   <time name="total">    0.96    1.00</time>
   <energy>
    <i name="e_fr_energy">   -357.80973897 </i>
    <i name="e_wo_entrp">   -357.82805885 </i>
    <i name="e_0_energy">   -357.81584559 </i>
   </energy>
  </scstep>
  <scstep>
   <time name="diag">    0.08    0.08</time>
   <time name="diis">    0.64    0.64</time>
   <time name="orth">    0.01    0.01</time>
   <time name="total">    0.81    0.84</time>
   <energy>
    <i name="e_fr_energy">   -357.80978008 </i>
    <i name="e_wo_entrp">   -357.82811032 </i>
    <i name="e_0_energy">   -357.81589016 </i>
   </energy>
  </scstep>
  <scstep>
   <time name="diag">    0.08    0.08</time>
   <time name="diis">    0.52    0.52</time>
   <time name="orth">    0.01    0.01</time>
   <time name="total">    0.66    0.70</time>
   <energy>
    <i name="alphaZ">   1501.23273477 </i>
    <i name="ewald"> -19699.37783368 </i>
    <i name="hartreedc">  -6096.61729994 </i>
    <i name="XCdc">   -260.64534368 </i>
    <i name="pawpsdc">  34642.98810373 </i>
    <i name="pawaedc"> -33034.49849124 </i>
    <i name="eentropy">      0.01832923 </i>
    <i name="bandstr">  -2586.05331347 </i>
    <i name="atom">  25175.14332663 </i>
    <i name="e_fr_energy">   -357.80978764 </i>
    <i name="e_wo_entrp">   -357.82811688 </i>
    <i name="e_0_energy">   -357.81589739 </i>
   </energy>
  </scstep>
  <structure>
   <crystal>
    <varray name="basis" >
     <v>       7.02046290       0.02191179       0.01189008 </v>
     <v>       0.03248745      10.21953852       0.00486079 </v>
     <v>       0.01688215       0.00461100      10.28168939 </v>
    </varray>
    <i name="volume">    737.65944235 </i>
    <varray name="rec_basis" >
     <v>       0.14244256      -0.00045271      -0.00023368 </v>
     <v>      -0.00030534       0.09785277      -0.00004338 </v>
     <v>      -0.00016458      -0.00004574       0.09726057 </v>
    </varray>
   </crystal>
   <varray name="positions" >
    <v>       0.51481133       0.33357427       0.34288591 </v>
    <v>       0.99624402       0.32487063       0.67104387 </v>
    <v>       0.50640879       0.01170465       0.65550041 </v>
    <v>       0.27121990       0.48361572       0.15191856 </v>
    <v>       0.98710623       0.34628361       0.32859791 </v>
    <v>       0.49431629       0.66450992       0.33104818 </v>
    <v>       0.21575754       0.15120473       0.48548387 </v>
    <v>       0.00431002       0.67200234       0.00616854 </v>
    <v>       0.77133421       0.52514436       0.52195301 </v>
    <v>       0.76016151       0.82804122       0.51045484 </v>
    <v>       0.25942518       0.49337477       0.83729261 </v>
    <v>       0.25595580       0.16301002       0.16311213 </v>
    <v>       0.73564380       0.83289246       0.15450525 </v>
    <v>       0.97164400       0.98922697       0.31064475 </v>
    <v>       0.25650484       0.84558786       0.17147360 </v>
    <v>       0.78821810       0.15499961       0.48847409 </v>
    <v>       0.49143748       0.67509696       0.01049678 </v>
    <v>       0.46306549       0.66609418       0.66328572 </v>
    <v>       0.23303971       0.51333246       0.51438326 </v>
    <v>       0.03614396       0.68318383       0.68473408 </v>
    <v>       0.72828240       0.50286827       0.15202372 </v>
    <v>       0.23792858       0.83503159       0.49061573 </v>
    <v>       0.74376996       0.16260396       0.16397461 </v>
    <v>       0.72213999       0.16527638       0.84135543 </v>
    <v>       0.27198909       0.83247481       0.84064501 </v>
    <v>       0.53608296       0.32710101       0.00395560 </v>
    <v>       0.50558876       0.99390712       0.00641785 </v>
    <v>       0.28192164       0.17233890       0.84926162 </v>
    <v>       0.99331281       0.99887880       0.99775530 </v>
    <v>       0.99893525       0.00026096       0.68883709 </v>
    <v>       0.00185756       0.66535049       0.31611122 </v>
    <v>       0.52322408      -0.00060451       0.33223811 </v>
    <v>       0.50596282       0.32977518       0.65131314 </v>
    <v>       0.97329835       0.32405358       0.99746093 </v>
    <v>       0.72477193       0.82090307       0.83036496 </v>
    <v>       0.73816963       0.51203483       0.83420628 </v>
   </varray>
  </structure>
  <varray name="forces" >
   <v>      -0.02256634      -0.00928372       0.02240278 </v>
   <v>       0.00014067      -0.02431996       0.05974847 </v>
   <v>      -0.20894181      -0.21717695      -0.09217805 </v>
   <v>      -0.02935698       0.00515800       0.04038682 </v>
   <v>       0.02503723       0.01158658      -0.03181900 </v>
   <v>      -0.10438715       0.14703448       0.18681972 </v>
   <v>       0.00380537      -0.16056842      -0.00314962 </v>
   <v>       0.01466401      -0.01162834       0.02516930 </v>
   <v>      -0.04528882      -0.10478258      -0.02262336 </v>
   <v>       0.02826805      -0.03676758       0.02337720 </v>
   <v>      -0.03398278      -0.00269208      -0.03094909 </v>
   <v>      -0.00504324       0.01601842       0.00064668 </v>
   <v>       0.01272567       0.01263232       0.03655047 </v>
   <v>       0.27348205      -0.14314698       0.32402360 </v>
   <v>       0.03832303       0.01254457       0.05852286 </v>
   <v>      -0.08529404       0.10203639      -0.01518923 </v>
   <v>      -0.04468187      -0.04757703      -0.02754648 </v>
   <v>      -0.04378854       0.33622886      -0.24657380 </v>
   <v>       0.01179934       0.02655943      -0.06922889 </v>
   <v>       0.04088225       0.21422035      -0.36740101 </v>
   <v>       0.04024778       0.00651698       0.05268161 </v>
   <v>       0.02982380      -0.09793682       0.08413992 </v>
   <v>      -0.00954925      -0.01454131       0.05666274 </v>
   <v>       0.03653908      -0.03321657      -0.04900787 </v>
   <v>      -0.01821977       0.04292430      -0.04297253 </v>
   <v>      -0.07798286       0.03435785      -0.02256168 </v>
   <v>       0.00476461       0.02652359      -0.02018944 </v>
   <v>      -0.02756124       0.00693898      -0.02670161 </v>
   <v>      -0.00398375      -0.00913532      -0.01292894 </v>
   <v>       0.15246797      -0.12923247      -0.22744105 </v>
   <v>       0.13418495       0.15372937       0.25666863 </v>
   <v>      -0.23885127      -0.15388310       0.13717348 </v>
   <v>      -0.00452373      -0.03202319      -0.01819570 </v>
   <v>       0.07656758       0.04049372      -0.01613693 </v>
   <v>       0.05301080       0.04421362      -0.00280985 </v>
   <v>       0.02726921      -0.01180537      -0.01937018 </v>
  </varray>
  <varray name="stress" >
   <v>      11.21480154      -0.09969287      -0.14203222 </v>
   <v>      -0.09969285      11.44020906       0.58626538 </v>
   <v>      -0.14203220       0.58626542       9.32996056 </v>
  </varray>
  <energy>
   <i name="e_fr_energy">   -357.80978764 </i>
   <i name="e_wo_entrp">   -357.81589739 </i>
   <i name="e_0_energy">      0.01832923 </i>
  </energy>
  <time name="totalsc">   13.03   13.97</time>
 </calculation>
 <calculation>
  <scstep>
   <time name="dav">    1.09    1.11</time>
   <time name="total">    1.24    1.44</time>
   <energy>
    <i name="alphaZ">   1499.29370991 </i>
    <i name="ewald"> -19696.11894336 </i>
    <i name="hartreedc">  -6089.00303516 </i>
    <i name="XCdc">   -261.02705299 </i>
    <i name="pawpsdc">  34643.60212879 </i>
    <i name="pawaedc"> -33035.06817986 </i>
    <i name="eentropy">      0.01742792 </i>
    <i name="bandstr">  -2594.68622671 </i>
    <i name="atom">  25175.14332663 </i>
    <i name="e_fr_energy">   -357.84684485 </i>
    <i name="e_wo_entrp">   -357.86427276 </i>
    <i name="e_0_energy">   -357.85265415 </i>
   </energy>
  </scstep>
  <scstep>
   <time name="diag">    0.08    0.08</time>
   <time name="diis">    0.75    0.76</time>
   <time name="orth">    0.01    0.01</time>
   <time name="total">    0.92    0.94</time>
   <energy>
    <i name="e_fr_energy">   -357.84977805 </i>
    <i name="e_wo_entrp">   -357.86894264 </i>
    <i name="e_0_energy">   -357.85616625 </i>
   </energy>
  </scstep>
  <scstep>
   <time name="diag">    0.08    0.08</time>
   <time name="diis">    0.77    0.78</time>
   <time name="orth">    0.01    0.01</time>
   <time name="total">    0.92    0.97</time>
   <energy>
    <i name="e_fr_energy">   -357.84523846 </i>
    <i name="e_wo_entrp">   -357.86322124 </i>
    <i name="e_0_energy">   -357.85123272 </i>
   </energy>
  </scstep>
  <scstep>
   <time name="diag">    0.11    0.11</time>
   <time name="diis">    0.81    0.82</time>
   <time name="orth">    0.02    0.02</time>
   <time name="total">    1.04    1.08</time>
   <energy>
    <i name="e_fr_energy">   -357.84450969 </i>
    <i name="e_wo_entrp">   -357.86255783 </i>
    <i name="e_0_energy">   -357.85052574 </i>
   </energy>
  </scstep>
  <scstep>
   <time name="diag">    0.09    0.09</time>
   <time name="diis">    0.78    0.79</time>
   <time name="orth">    0.01    0.01</time>
   <time name="total">    0.95    0.98</time>
   <energy>
    <i name="e_fr_energy">   -357.84430322 </i>
    <i name="e_wo_entrp">   -357.86250428 </i>
    <i name="e_0_energy">   -357.85037024 </i>
   </energy>
  </scstep>
  <scstep>
   <time name="diag">    0.08    0.08</time>
   <time name="diis">    0.77    0.77</time>
   <time name="orth">    0.01    0.01</time>
   <time name="total">    0.93    0.95</time>
   <energy>
    <i name="e_fr_energy">   -357.84428333 </i>
    <i name="e_wo_entrp">   -357.86243617 </i>
    <i name="e_0_energy">   -357.85033428 </i>
   </energy>
  </scstep>
  <scstep>
   <time name="diag">    0.08    0.08</time>
   <time name="diis">    0.69    0.69</time>
   <time name="orth">    0.01    0.01</time>
   <time name="total">    0.84    0.87</time>
   <energy>
    <i name="e_fr_energy">   -357.84427860 </i>
    <i name="e_wo_entrp">   -357.86242099 </i>
    <i name="e_0_energy">   -357.85032606 </i>
   </energy>
  </scstep>
  <scstep>
   <time name="diag">    0.08    0.08</time>
   <time name="diis">    0.54    0.54</time>
   <time name="orth">    0.01    0.01</time>
   <time name="total">    0.67    0.69</time>
   <energy>
    <i name="alphaZ">   1499.29370991 </i>
    <i name="ewald"> -19696.11894336 </i>
    <i name="hartreedc">  -6094.06480652 </i>
    <i name="XCdc">   -260.79562415 </i>
    <i name="pawpsdc">  34581.28855438 </i>
    <i name="pawaedc"> -32972.62283246 </i>
    <i name="eentropy">      0.01815311 </i>
    <i name="bandstr">  -2589.98581181 </i>
    <i name="atom">  25175.14332663 </i>
    <i name="e_fr_energy">   -357.84427428 </i>
    <i name="e_wo_entrp">   -357.86242739 </i>
    <i name="e_0_energy">   -357.85032532 </i>
   </energy>
  </scstep>
  <structure>
   <crystal>
    <varray name="basis" >
     <v>       7.02490732       0.02150246       0.01125939 </v>
     <v>       0.03188748      10.22621992       0.00686198 </v>
     <v>       0.01596251       0.00662928      10.28174661 </v>
    </varray>
    <i name="volume">    738.61345155 </i>
    <varray name="rec_basis" >
     <v>       0.14235234      -0.00044374      -0.00022072 </v>
     <v>      -0.00029922       0.09778882      -0.00006259 </v>
     <v>      -0.00015569      -0.00006478       0.09726002 </v>
    </varray>
   </crystal>
   <varray name="positions" >
    <v>       0.51476250       0.33355379       0.34292200 </v>
    <v>       0.99622309       0.32482620       0.67113618 </v>
    <v>       0.50564525       0.01115478       0.65522226 </v>
    <v>       0.27116058       0.48359922       0.15196501 </v>
    <v>       0.98714388       0.34630754       0.32855113 </v>
    <v>       0.49384013       0.66496743       0.33153169 </v>
    <v>       0.21571098       0.15070753       0.48548054 </v>
    <v>       0.00434122       0.67200992       0.00621454 </v>
    <v>       0.77122952       0.52491751       0.52194332 </v>
    <v>       0.76035194       0.82795765       0.51050763 </v>
    <v>       0.25933979       0.49335403       0.83723784 </v>
    <v>       0.25595270       0.16305580       0.16305220 </v>
    <v>       0.73564320       0.83292190       0.15451675 </v>
    <v>       0.97265347       0.98883058       0.31149066 </v>
    <v>       0.25667141       0.84561009       0.17167568 </v>
    <v>       0.78801955       0.15523502       0.48841188 </v>
    <v>       0.49130267       0.67505487       0.01045543 </v>
    <v>       0.46262766       0.66696409       0.66258784 </v>
    <v>       0.23308608       0.51350915       0.51431751 </v>
    <v>       0.03651102       0.68377896       0.68375764 </v>
    <v>       0.72833917       0.50283867       0.15204304 </v>
    <v>       0.23799903       0.83468094       0.49081577 </v>
    <v>       0.74372363       0.16262241       0.16400374 </v>
    <v>       0.72220462       0.16526427       0.84134817 </v>
    <v>       0.27198386       0.83249925       0.84056751 </v>
    <v>       0.53594927       0.32714748       0.00392996 </v>
    <v>       0.50557420       0.99392863       0.00638409 </v>
    <v>       0.28190281       0.17236587       0.84925772 </v>
    <v>       0.99330620       0.99885103       0.99776354 </v>
    <v>       0.99951772      -0.00007912       0.68820268 </v>
    <v>       0.00238921       0.66580615       0.31676413 </v>
    <v>       0.52232513      -0.00103596       0.33261333 </v>
    <v>       0.50595944       0.32973137       0.65127354 </v>
    <v>       0.97346460       0.32411748       0.99744215 </v>
    <v>       0.72488438       0.82095247       0.83038871 </v>
    <v>       0.73824408       0.51199799       0.83421818 </v>
   </varray>
  </structure>
  <varray name="forces" >
   <v>      -0.01678200      -0.01220717       0.02033899 </v>
   <v>      -0.00013731      -0.03860933       0.06503168 </v>
   <v>      -0.17689522      -0.18214507      -0.06274096 </v>
   <v>      -0.01237446       0.01718803       0.04362709 </v>
   <v>       0.02054249       0.01133930      -0.03476587 </v>
   <v>      -0.07316687       0.10257479       0.14519118 </v>
   <v>      -0.00417131      -0.11482812      -0.00849088 </v>
   <v>       0.01565542      -0.01142026       0.03665362 </v>
   <v>      -0.04658711      -0.09771185      -0.02191719 </v>
   <v>       0.01130571      -0.03289499       0.02549643 </v>
   <v>      -0.02642971       0.01893619      -0.04677870 </v>
   <v>      -0.00163630       0.00019818       0.01006022 </v>
   <v>       0.01120579       0.02364055       0.04732179 </v>
   <v>       0.21795223      -0.11731293       0.26323826 </v>
   <v>       0.03381838       0.02270005       0.02486122 </v>
   <v>      -0.08069605       0.07993635      -0.02150447 </v>
   <v>      -0.03650019      -0.04622271      -0.01750624 </v>
   <v>      -0.01319351       0.28228730      -0.18899765 </v>
   <v>       0.00805223       0.01471352      -0.06589183 </v>
   <v>       0.02007140       0.17433277      -0.30856123 </v>
   <v>       0.02885655       0.01796807       0.05573381 </v>
   <v>       0.02781674      -0.05882723       0.07615775 </v>
   <v>      -0.01003193      -0.03967429       0.07863844 </v>
   <v>       0.02357725      -0.04566070      -0.05702705 </v>
   <v>      -0.01964109       0.04047943      -0.04961594 </v>
   <v>      -0.06336126       0.03388110      -0.02351204 </v>
   <v>       0.01952527       0.02769190      -0.01246532 </v>
   <v>      -0.01864060       0.00244433      -0.03168468 </v>
   <v>      -0.01113944      -0.00599073      -0.01256515 </v>
   <v>       0.12331672      -0.10875601      -0.17822932 </v>
   <v>       0.10778953       0.11917372       0.21605605 </v>
   <v>      -0.18283460      -0.12080742       0.10117280 </v>
   <v>      -0.00490609      -0.04446641      -0.01644913 </v>
   <v>       0.05571434       0.03892653      -0.01640000 </v>
   <v>       0.05320476       0.04881257      -0.00565229 </v>
   <v>       0.02072024       0.00031059      -0.02882337 </v>
  </varray>
  <varray name="stress" >
   <v>       9.43655578      -0.01590604      -0.05356819 </v>
   <v>      -0.01590606       9.91213201       0.41981753 </v>
   <v>      -0.05356822       0.41981755       7.90742250 </v>
  </varray>
  <energy>
   <i name="e_fr_energy">   -357.84427428 </i>
   <i name="e_wo_entrp">   -357.85032532 </i>
   <i name="e_0_energy">      0.01815311 </i>
  </energy>
  <time name="totalsc">    9.20    9.71</time>
 </calculation>
 <calculation>
  <scstep>
   <time name="dav">    0.92    0.94</time>
   <time name="total">    1.06    1.21</time>
   <energy>
    <i name="alphaZ">   1493.49995881 </i>
    <i name="ewald"> -19685.17417629 </i>
    <i name="hartreedc">  -6072.10961795 </i>
    <i name="XCdc">   -261.94201089 </i>
    <i name="pawpsdc">  34581.92185176 </i>
    <i name="pawaedc"> -32973.30111209 </i>
    <i name="eentropy">      0.01636839 </i>
    <i name="bandstr">  -2615.98056183 </i>
    <i name="atom">  25175.14332663 </i>
    <i name="e_fr_energy">   -357.92597347 </i>
    <i name="e_wo_entrp">   -357.94234186 </i>
    <i name="e_0_energy">   -357.93142960 </i>
   </energy>
  </scstep>
  <scstep>
   <time name="diag">    0.08    0.08</time>
   <time name="diis">    0.78    0.78</time>
   <time name="orth">    0.01    0.01</time>
   <time name="total">    0.94    0.97</time>
   <energy>
    <i name="e_fr_energy">   -357.95138477 </i>
    <i name="e_wo_entrp">   -357.97201824 </i>
    <i name="e_0_energy">   -357.95826259 </i>
   </energy>
  </scstep>
  <scstep>
   <time name="diag">    0.09    0.09</time>
   <time name="diis">    0.80    0.80</time>
   <time name="orth">    0.01    0.01</time>
   <time name="total">    0.98    1.01</time>
   <energy>
    <i name="e_fr_energy">   -357.91219535 </i>
    <i name="e_wo_entrp">   -357.92973412 </i>
    <i name="e_0_energy">   -357.91804161 </i>
   </energy>
  </scstep>
  <scstep>
   <time name="diag">    0.16    0.16</time>
   <time name="diis">    0.79    0.80</time>
   <time name="orth">    0.01    0.01</time>
   <time name="total">    1.03    1.06</time>
   <energy>
    <i name="e_fr_energy">   -357.90543573 </i>
    <i name="e_wo_entrp">   -357.92317539 </i>
    <i name="e_0_energy">   -357.91134895 </i>
   </energy>
  </scstep>
  <scstep>
   <time name="diag">    0.08    0.08</time>
   <time name="diis">    0.71    0.85</time>
   <time name="orth">    0.01    0.01</time>
   <time name="total">    0.86    1.04</time>
   <energy>
    <i name="e_fr_energy">   -357.90355612 </i>
    <i name="e_wo_entrp">   -357.92163413 </i>
    <i name="e_0_energy">   -357.90958212 </i>
   </energy>
  </scstep>
  <scstep>
   <time name="diag">    0.08    0.08</time>
   <time name="diis">    0.80    0.81</time>
   <time name="orth">    0.01    0.01</time>
   <time name="total">    0.96    0.99</time>
   <energy>
    <i name="e_fr_energy">   -357.90344352 </i>
    <i name="e_wo_entrp">   -357.92145563 </i>
    <i name="e_0_energy">   -357.90944755 </i>
   </energy>
  </scstep>
  <scstep>
   <time name="diag">    0.08    0.08</time>
   <time name="diis">    0.84    0.85</time>
   <time name="orth">    0.01    0.01</time>
   <time name="total">    1.00    1.02</time>
   <energy>
    <i name="e_fr_energy">   -357.90347165 </i>
    <i name="e_wo_entrp">   -357.92140954 </i>
    <i name="e_0_energy">   -357.90945094 </i>
   </energy>
  </scstep>
  <scstep>
   <time name="diag">    0.08    0.08</time>
   <time name="diis">    0.74    0.75</time>
   <time name="orth">    0.01    0.01</time>
   <time name="total">    0.90    0.93</time>
   <energy>
    <i name="e_fr_energy">   -357.90349670 </i>
    <i name="e_wo_entrp">   -357.92148829 </i>
    <i name="e_0_energy">   -357.90949390 </i>
   </energy>
  </scstep>
  <scstep>
   <time name="diag">    0.08    0.08</time>
   <time name="diis">    0.69    0.72</time>
   <time name="orth">    0.01    0.01</time>
   <time name="total">    0.88    0.97</time>
   <energy>
    <i name="e_fr_energy">   -357.90350175 </i>
    <i name="e_wo_entrp">   -357.92149984 </i>
    <i name="e_0_energy">   -357.90950111 </i>
   </energy>
  </scstep>
  <scstep>
   <time name="diag">    0.15    0.15</time>
   <time name="diis">    0.62    0.64</time>
   <time name="orth">    0.01    0.01</time>
   <time name="total">    0.85    0.90</time>
   <energy>
    <i name="e_fr_energy">   -357.90350547 </i>
    <i name="e_wo_entrp">   -357.92149503 </i>
    <i name="e_0_energy">   -357.90950199 </i>
   </energy>
  </scstep>
  <scstep>
   <time name="diag">    0.08    0.08</time>
   <time name="diis">    0.55    0.55</time>
   <time name="orth">    0.01    0.01</time>
   <time name="total">    0.67    0.70</time>
   <energy>
    <i name="alphaZ">   1493.49995881 </i>
    <i name="ewald"> -19685.17417629 </i>
    <i name="hartreedc">  -6086.77712622 </i>
    <i name="XCdc">   -261.27009257 </i>
    <i name="pawpsdc">  34398.12468990 </i>
    <i name="pawaedc"> -32789.91503345 </i>
    <i name="eentropy">      0.01799570 </i>
    <i name="bandstr">  -2601.55304579 </i>
    <i name="atom">  25175.14332663 </i>
    <i name="e_fr_energy">   -357.90350327 </i>
    <i name="e_wo_entrp">   -357.92149897 </i>
    <i name="e_0_energy">   -357.90950184 </i>
   </energy>
  </scstep>
  <structure>
   <crystal>
    <varray name="basis" >
     <v>       7.03824057       0.02027447       0.00936733 </v>
     <v>       0.03008759      10.24626413       0.01286555 </v>
     <v>       0.01320359       0.01268413      10.28191826 </v>
    </varray>
    <i name="volume">    741.47876297 </i>
    <varray name="rec_basis" >
     <v>       0.14208241      -0.00041699      -0.00018194 </v>
     <v>      -0.00028098       0.09759752      -0.00012004 </v>
     <v>      -0.00012909      -0.00012174       0.09725843 </v>
    </varray>
   </crystal>
   <varray name="positions" >
    <v>       0.51461612       0.33349238       0.34303029 </v>
    <v>       0.99616038       0.32469296       0.67141312 </v>
    <v>       0.50335580       0.00950632       0.65438799 </v>
    <v>       0.27098273       0.48354972       0.15210435 </v>
    <v>       0.98725676       0.34637932       0.32841078 </v>
    <v>       0.49241289       0.66633871       0.33298185 </v>
    <v>       0.21557125       0.14921689       0.48547082 </v>
    <v>       0.00443476       0.67203260       0.00635253 </v>
    <v>       0.77091558       0.52423740       0.52191437 </v>
    <v>       0.76092285       0.82770709       0.51066611 </v>
    <v>       0.25908374       0.49329189       0.83707353 </v>
    <v>       0.25594339       0.16319310       0.16287238 </v>
    <v>       0.73564144       0.83301014       0.15455122 </v>
    <v>       0.97568022       0.98764183       0.31402878 </v>
    <v>       0.25717088       0.84567665       0.17228191 </v>
    <v>       0.78742434       0.15594079       0.48822506 </v>
    <v>       0.49089846       0.67492869       0.01033139 </v>
    <v>       0.46131494       0.66957247       0.66049364 </v>
    <v>       0.23322514       0.51403892       0.51412014 </v>
    <v>       0.03761129       0.68556384       0.68082805 </v>
    <v>       0.72850935       0.50274994       0.15210103 </v>
    <v>       0.23821025       0.83362957       0.49141610 </v>
    <v>       0.74358473       0.16267769       0.16409109 </v>
    <v>       0.72239838       0.16522796       0.84132640 </v>
    <v>       0.27196815       0.83257258       0.84033500 </v>
    <v>       0.53554848       0.32728679       0.00385300 </v>
    <v>       0.50553055       0.99399314       0.00628279 </v>
    <v>       0.28184637       0.17244671       0.84924598 </v>
    <v>       0.99328640       0.99876777       0.99778827 </v>
    <v>       0.00126369      -0.00109823       0.68629977 </v>
    <v>       0.00398355       0.66717192       0.31872268 </v>
    <v>       0.51963000      -0.00232982       0.33373907 </v>
    <v>       0.50594928       0.32960005       0.65115478 </v>
    <v>       0.97396305       0.32430911       0.99738583 </v>
    <v>       0.72522155       0.82110057       0.83045996 </v>
    <v>       0.73846727       0.51188754       0.83425392 </v>
   </varray>
  </structure>
  <varray name="forces" >
   <v>      -0.00053339      -0.01979022       0.01491497 </v>
   <v>      -0.00143968      -0.08130301       0.08329080 </v>
   <v>      -0.07828317      -0.07379878       0.02696606 </v>
   <v>       0.03658648       0.05252201       0.05140885 </v>
   <v>       0.00524875       0.01196498      -0.04605142 </v>
   <v>       0.02166763      -0.03055703       0.01722995 </v>
   <v>      -0.02361921       0.02963063      -0.02234464 </v>
   <v>       0.01453913      -0.01289034       0.06923949 </v>
   <v>      -0.05379768      -0.07613199      -0.01954546 </v>
   <v>      -0.04233288      -0.01207278       0.02808650 </v>
   <v>      -0.00340602       0.08133058      -0.09037263 </v>
   <v>       0.00609295      -0.04725014       0.03799580 </v>
   <v>       0.00593971       0.04922917       0.07765804 </v>
   <v>       0.06765530      -0.05009853       0.08413223 </v>
   <v>       0.02002059       0.05103415      -0.07949409 </v>
   <v>      -0.06598235       0.01471822      -0.03713449 </v>
   <v>      -0.01068592      -0.04621031       0.01329185 </v>
   <v>       0.09175554       0.11146884      -0.01577288 </v>
   <v>       0.00307181      -0.02117510      -0.05595384 </v>
   <v>      -0.05480867       0.04193532      -0.13214076 </v>
   <v>      -0.00127908       0.04837916       0.06001277 </v>
   <v>       0.02088605       0.07180023       0.04597122 </v>
   <v>      -0.01107980      -0.10479753       0.13586694 </v>
   <v>      -0.01627595      -0.07767453      -0.07524454 </v>
   <v>      -0.02333699       0.03352111      -0.06372419 </v>
   <v>      -0.02077102       0.03717866      -0.02738287 </v>
   <v>       0.06475515       0.02766230       0.01144568 </v>
   <v>       0.00403179      -0.00932567      -0.04951707 </v>
   <v>      -0.03243949       0.00365540      -0.01279587 </v>
   <v>       0.03500384      -0.04768143      -0.03441714 </v>
   <v>       0.02471400       0.01503843       0.09661102 </v>
   <v>      -0.02886501      -0.02543149      -0.00071345 </v>
   <v>      -0.00634814      -0.07645059      -0.01106366 </v>
   <v>      -0.00327997       0.03963251      -0.01478702 </v>
   <v>       0.05586482       0.05842805      -0.01358812 </v>
   <v>       0.00073086       0.03350974      -0.05207802 </v>
  </varray>
  <varray name="stress" >
   <v>       3.38023504       0.24355558       0.22552644 </v>
   <v>       0.24355559       4.60124420      -0.12270859 </v>
   <v>       0.22552646      -0.12270858       2.95981838 </v>
  </varray>
  <energy>
   <i name="e_fr_energy">   -357.90350327 </i>
   <i name="e_wo_entrp">   -357.90950184 </i>
   <i name="e_0_energy">      0.01799570 </i>
  </energy>
  <time name="totalsc">   11.71   12.48</time>
 </calculation>
 <calculation>
  <scstep>
   <time name="dav">    0.93    0.94</time>
   <time name="total">    1.63    1.75</time>
   <energy>
    <i name="alphaZ">   1491.24621375 </i>
    <i name="ewald"> -19680.41734731 </i>
    <i name="hartreedc">  -6078.57533475 </i>
    <i name="XCdc">   -261.71669659 </i>
    <i name="pawpsdc">  34397.37753191 </i>
    <i name="pawaedc"> -32789.21517076 </i>
    <i name="eentropy">      0.01755062 </i>
    <i name="bandstr">  -2611.77259756 </i>
    <i name="atom">  25175.14332663 </i>
    <i name="e_fr_energy">   -357.91252408 </i>
    <i name="e_wo_entrp">   -357.93007470 </i>
    <i name="e_0_energy">   -357.91837428 </i>
   </energy>
  </scstep>
  <scstep>
   <time name="diag">    0.09    0.09</time>
   <time name="diis">    0.68    0.83</time>
   <time name="orth">    0.01    0.01</time>
   <time name="total">    0.86    1.05</time>
   <energy>
    <i name="e_fr_energy">   -357.91619539 </i>
    <i name="e_wo_entrp">   -357.93529117 </i>
    <i name="e_0_energy">   -357.92256065 </i>
   </energy>
  </scstep>
  <scstep>
   <time name="diag">    0.08    0.08</time>
   <time name="diis">    0.77    0.77</time>
   <time name="orth">    0.01    0.01</time>
   <time name="total">    0.92    0.96</time>
   <energy>
    <i name="e_fr_energy">   -357.91002020 </i>
    <i name="e_wo_entrp">   -357.92798801 </i>
    <i name="e_0_energy">   -357.91600947 </i>
   </energy>
  </scstep>
  <scstep>
   <time name="diag">    0.08    0.08</time>
   <time name="diis">    0.81    0.82</time>
   <time name="orth">    0.01    0.01</time>
   <time name="total">    0.97    1.00</time>
   <energy>
    <i name="e_fr_energy">   -357.90904866 </i>
    <i name="e_wo_entrp">   -357.92709123 </i>
    <i name="e_0_energy">   -357.91506285 </i>
   </energy>
  </scstep>
  <scstep>
   <time name="diag">    0.09    0.09</time>
   <time name="diis">    0.81    0.81</time>
   <time name="orth">    0.01    0.01</time>
   <time name="total">    0.98    1.02</time>
   <energy>
    <i name="e_fr_energy">   -357.90876922 </i>
    <i name="e_wo_entrp">   -357.92691611 </i>
    <i name="e_0_energy">   -357.91481819 </i>
   </energy>
  </scstep>
  <scstep>
   <time name="diag">    0.08    0.08</time>
   <time name="diis">    0.85    0.86</time>
   <time name="orth">    0.01    0.01</time>
   <time name="total">    1.05    1.11</time>
   <energy>
    <i name="e_fr_energy">   -357.90875862 </i>
    <i name="e_wo_entrp">   -357.92689995 </i>
    <i name="e_0_energy">   -357.91480573 </i>
   </energy>
  </scstep>
  <scstep>
   <time name="diag">    0.11    0.12</time>
   <time name="diis">    0.71    0.72</time>
   <time name="orth">    0.01    0.01</time>
   <time name="total">    0.93    0.96</time>
   <energy>
    <i name="e_fr_energy">   -357.90875788 </i>
    <i name="e_wo_entrp">   -357.92686021 </i>
    <i name="e_0_energy">   -357.91479199 </i>
   </energy>
  </scstep>
  <scstep>
   <time name="diag">    0.12    0.12</time>
   <time name="diis">    0.65    0.66</time>
   <time name="orth">    0.01    0.01</time>
   <time name="total">    0.88    0.91</time>
   <energy>
    <i name="e_fr_energy">   -357.90875476 </i>
    <i name="e_wo_entrp">   -357.92688071 </i>
    <i name="e_0_energy">   -357.91479674 </i>
   </energy>
  </scstep>
  <scstep>
   <time name="diag">    0.08    0.09</time>
   <time name="diis">    0.53    0.53</time>
   <time name="orth">    0.01    0.01</time>
   <time name="total">    0.66    0.73</time>
   <energy>
    <i name="alphaZ">   1491.24621375 </i>
    <i name="ewald"> -19680.41734731 </i>
    <i name="hartreedc">  -6084.38616734 </i>
    <i name="XCdc">   -261.45288461 </i>
    <i name="pawpsdc">  34331.43213843 </i>
[...]
    <v>       0.00587085       0.67107690       0.00935482 </v>
    <v>       0.76557066       0.51976536       0.52134304 </v>
    <v>       0.75928500       0.82916635       0.50965579 </v>
    <v>       0.25767720       0.49611264       0.83361927 </v>
    <v>       0.25559454       0.16207251       0.16266235 </v>
    <v>       0.73772683       0.83441872       0.15732415 </v>
    <v>       0.98300942       0.98574034       0.31682259 </v>
    <v>       0.25981269       0.84675176       0.16660593 </v>
    <v>       0.78460218       0.15486683       0.48704048 </v>
    <v>       0.49179018       0.67580460       0.00819060 </v>
    <v>       0.46473181       0.67339142       0.66021989 </v>
    <v>       0.23599416       0.51315845       0.51408806 </v>
    <v>       0.03293795       0.68405169       0.67443689 </v>
    <v>       0.72640685       0.50468501       0.15337880 </v>
    <v>       0.23862877       0.83262137       0.49674259 </v>
    <v>       0.74686909       0.15915910       0.16807219 </v>
    <v>       0.72068493       0.16218760       0.84137381 </v>
    <v>       0.26871976       0.83116574       0.83719372 </v>
    <v>       0.53745673       0.32793648       0.00334500 </v>
    <v>       0.51050267       0.99440295       0.00669718 </v>
    <v>       0.28218260       0.17372067       0.85043352 </v>
    <v>       0.99293670       0.99867916       0.99722857 </v>
    <v>       0.00456192      -0.00116554       0.68402922 </v>
    <v>       0.00582934       0.66803423       0.32287085 </v>
    <v>       0.51332044      -0.00376648       0.33418941 </v>
    <v>       0.50568562       0.32627880       0.65112096 </v>
    <v>       0.97291826       0.32681702       0.99821985 </v>
    <v>       0.73094135       0.82318298       0.83100850 </v>
    <v>       0.73936570       0.51406216       0.83170760 </v>
   </varray>
  </structure>
  <varray name="forces" >
   <v>       0.00263162      -0.00391918       0.00244193 </v>
   <v>       0.00401606       0.00228702       0.00079207 </v>
   <v>      -0.00136409      -0.00011767       0.00124694 </v>
   <v>      -0.00364024      -0.00117615       0.00741370 </v>
   <v>      -0.00542412       0.00202520       0.00009665 </v>
   <v>       0.00157753       0.00105642       0.00044617 </v>
   <v>       0.00094024       0.00558269      -0.00120832 </v>
   <v>       0.00078587      -0.00078226      -0.00043275 </v>
   <v>      -0.00528311      -0.00289728       0.00297862 </v>
   <v>      -0.00122558      -0.00293137      -0.00129614 </v>
   <v>       0.00240808       0.00620347      -0.00771060 </v>
   <v>       0.00046361       0.00031593      -0.00032689 </v>
   <v>       0.00207967      -0.00407146       0.00110084 </v>
   <v>       0.00653581      -0.00109617       0.00091305 </v>
   <v>      -0.00088921      -0.00085400      -0.00737083 </v>
   <v>      -0.00215682      -0.00147867       0.00257391 </v>
   <v>      -0.00108864       0.00049117       0.00096388 </v>
   <v>      -0.00819238       0.00476547      -0.00126475 </v>
   <v>       0.00814329       0.00159017      -0.00597321 </v>
   <v>       0.00962298      -0.00216969       0.00063338 </v>
   <v>       0.00108523      -0.00214296       0.00245598 </v>
   <v>      -0.00399506       0.00746753      -0.00266362 </v>
   <v>      -0.00764759      -0.01113184       0.00664528 </v>
   <v>      -0.00003465      -0.00494631      -0.00306964 </v>
   <v>       0.00850037      -0.00001795       0.00358837 </v>
   <v>      -0.00291278       0.00702118      -0.00339534 </v>
   <v>       0.00100747       0.00828701      -0.00240039 </v>
   <v>       0.00040970      -0.00694138      -0.00428817 </v>
   <v>      -0.00301486       0.00414784      -0.00280404 </v>
   <v>       0.00494184      -0.00098515      -0.00040608 </v>
   <v>      -0.00156365       0.00274052       0.00528214 </v>
   <v>      -0.00440609       0.00402735       0.00087331 </v>
   <v>       0.00428045      -0.01247579      -0.00361645 </v>
   <v>      -0.00068471       0.00086618      -0.00144162 </v>
   <v>      -0.00336527      -0.00098051       0.00518532 </v>
   <v>      -0.00254097       0.00224061       0.00403728 </v>
  </varray>
  <varray name="stress" >
   <v>      -0.14778475      -0.00876915      -0.05254737 </v>
   <v>      -0.00876911      -0.11468424       0.01997138 </v>
   <v>      -0.05254737       0.01997139      -0.14666802 </v>
  </varray>
  <energy>
   <i name="e_fr_energy">   -357.95786992 </i>
   <i name="e_wo_entrp">   -357.96555268 </i>
   <i name="e_0_energy">      0.02304829 </i>
  </energy>
  <time name="totalsc">    2.86    3.11</time>
 </calculation>
 <calculation>
  <scstep>
   <time name="dav">    0.58    0.59</time>
   <time name="total">    0.76    0.87</time>
   <energy>
    <i name="alphaZ">   1490.14491543 </i>
    <i name="ewald"> -19690.85083523 </i>
    <i name="hartreedc">  -6069.80636464 </i>
    <i name="XCdc">   -261.62429571 </i>
    <i name="pawpsdc">  34280.17234412 </i>
    <i name="pawaedc"> -32672.30997875 </i>
    <i name="eentropy">      0.02304824 </i>
    <i name="bandstr">  -2608.85003001 </i>
    <i name="atom">  25175.14332663 </i>
    <i name="e_fr_energy">   -357.95786992 </i>
    <i name="e_wo_entrp">   -357.98091816 </i>
    <i name="e_0_energy">   -357.96555267 </i>
   </energy>
  </scstep>
  <scstep>
   <time name="diag">    0.08    0.08</time>
   <time name="diis">    0.23    0.23</time>
   <time name="orth">    0.01    0.01</time>
   <time name="total">    0.35    0.38</time>
   <energy>
    <i name="alphaZ">   1490.14491543 </i>
    <i name="ewald"> -19690.85083523 </i>
    <i name="hartreedc">  -6069.80613308 </i>
    <i name="XCdc">   -261.62430428 </i>
    <i name="pawpsdc">  34280.15801326 </i>
    <i name="pawaedc"> -32672.29594930 </i>
    <i name="eentropy">      0.02304825 </i>
    <i name="bandstr">  -2608.84995159 </i>
    <i name="atom">  25175.14332663 </i>
    <i name="e_fr_energy">   -357.95786991 </i>
    <i name="e_wo_entrp">   -357.98091816 </i>
    <i name="e_0_energy">   -357.96555266 </i>
   </energy>
  </scstep>
  <structure>
   <crystal>
    <varray name="basis" >
     <v>       7.03932279       0.01783906       0.00905080 </v>
     <v>       0.02643224      10.27643506       0.01471315 </v>
     <v>       0.01274581       0.01456642      10.27321709 </v>
    </varray>
    <i name="volume">    743.14819351 </i>
    <varray name="rec_basis" >
     <v>       0.14206027      -0.00036514      -0.00017573 </v>
     <v>      -0.00024643       0.09731084      -0.00013767 </v>
     <v>      -0.00012480      -0.00013905       0.09734084 </v>
    </varray>
   </crystal>
   <varray name="positions" >
    <v>       0.51463175       0.33269765       0.34331781 </v>
    <v>       0.99208483       0.32150392       0.67550740 </v>
    <v>       0.49530861       0.00688171       0.65529619 </v>
    <v>       0.27574359       0.48417419       0.15277970 </v>
    <v>       0.98578138       0.34770379       0.32633789 </v>
    <v>       0.49179096       0.66749458       0.33385163 </v>
    <v>       0.21302867       0.15517033       0.48392775 </v>
    <v>       0.00587085       0.67107690       0.00935482 </v>
    <v>       0.76557066       0.51976536       0.52134304 </v>
    <v>       0.75928500       0.82916635       0.50965579 </v>
    <v>       0.25767720       0.49611264       0.83361927 </v>
    <v>       0.25559454       0.16207251       0.16266235 </v>
    <v>       0.73772683       0.83441872       0.15732415 </v>
    <v>       0.98300942       0.98574034       0.31682259 </v>
    <v>       0.25981269       0.84675176       0.16660593 </v>
    <v>       0.78460218       0.15486683       0.48704048 </v>
    <v>       0.49179018       0.67580460       0.00819060 </v>
    <v>       0.46473181       0.67339142       0.66021989 </v>
    <v>       0.23599416       0.51315845       0.51408806 </v>
    <v>       0.03293795       0.68405169       0.67443689 </v>
    <v>       0.72640685       0.50468501       0.15337880 </v>
    <v>       0.23862876       0.83262137       0.49674259 </v>
    <v>       0.74686909       0.15915910       0.16807219 </v>
    <v>       0.72068493       0.16218760       0.84137381 </v>
    <v>       0.26871976       0.83116574       0.83719372 </v>
    <v>       0.53745673       0.32793648       0.00334500 </v>
    <v>       0.51050267       0.99440295       0.00669718 </v>
    <v>       0.28218260       0.17372067       0.85043352 </v>
    <v>       0.99293670       0.99867916       0.99722857 </v>
    <v>       0.00456193      -0.00116554       0.68402922 </v>
    <v>       0.00582934       0.66803423       0.32287085 </v>
    <v>       0.51332044      -0.00376648       0.33418941 </v>
    <v>       0.50568562       0.32627880       0.65112096 </v>
    <v>       0.97291826       0.32681702       0.99821985 </v>
    <v>       0.73094135       0.82318298       0.83100850 </v>
    <v>       0.73936570       0.51406216       0.83170760 </v>
   </varray>
  </structure>
  <varray name="forces" >
   <v>       0.00263618      -0.00391916       0.00244178 </v>
   <v>       0.00400797       0.00229950       0.00079962 </v>
   <v>      -0.00138358      -0.00012823       0.00125089 </v>
   <v>      -0.00363627      -0.00117360       0.00742052 </v>
   <v>      -0.00543757       0.00203598       0.00009318 </v>
   <v>       0.00157453       0.00107037       0.00045018 </v>
   <v>       0.00094483       0.00561845      -0.00120940 </v>
   <v>       0.00078863      -0.00079079      -0.00044089 </v>
   <v>      -0.00530474      -0.00289471       0.00298236 </v>
   <v>      -0.00121931      -0.00292812      -0.00130099 </v>
   <v>       0.00240992       0.00620716      -0.00771833 </v>
   <v>       0.00046000       0.00031818      -0.00032974 </v>
   <v>       0.00208276      -0.00407888       0.00110838 </v>
   <v>       0.00655446      -0.00109410       0.00091434 </v>
   <v>      -0.00088836      -0.00085778      -0.00738228 </v>
   <v>      -0.00216299      -0.00148530       0.00257760 </v>
   <v>      -0.00109210       0.00049469       0.00096107 </v>
   <v>      -0.00819621       0.00477251      -0.00126665 </v>
   <v>       0.00815356       0.00158377      -0.00598006 </v>
   <v>       0.00962320      -0.00218132       0.00062928 </v>
   <v>       0.00108466      -0.00214490       0.00246110 </v>
   <v>      -0.00399976       0.00746489      -0.00265570 </v>
   <v>      -0.00766002      -0.01116924       0.00666603 </v>
   <v>      -0.00001707      -0.00497187      -0.00307460 </v>
   <v>       0.00850046      -0.00002479       0.00359512 </v>
   <v>      -0.00290755       0.00703134      -0.00339711 </v>
   <v>       0.00102690       0.00831141      -0.00241663 </v>
   <v>       0.00040754      -0.00694564      -0.00429013 </v>
   <v>      -0.00301495       0.00415024      -0.00280519 </v>
   <v>       0.00494910      -0.00098605      -0.00041050 </v>
   <v>      -0.00156248       0.00274130       0.00528997 </v>
   <v>      -0.00441720       0.00402860       0.00087351 </v>
   <v>       0.00428524      -0.01248310      -0.00361852 </v>
   <v>      -0.00068425       0.00086829      -0.00143718 </v>
   <v>      -0.00336429      -0.00097872       0.00518423 </v>
   <v>      -0.00254123       0.00223963       0.00403474 </v>
  </varray>
  <varray name="stress" >
   <v>      -0.14754013      -0.00879737      -0.05264292 </v>
   <v>      -0.00879737      -0.11438199       0.01999268 </v>
   <v>      -0.05264291       0.01999269      -0.14643527 </v>
  </varray>
  <energy>
   <i name="e_fr_energy">   -357.95786991 </i>
   <i name="e_wo_entrp">   -357.96555266 </i>
   <i name="e_0_energy">      0.02304825 </i>
  </energy>
  <time name="totalsc">    2.84    3.06</time>
 </calculation>
 <calculation>
  <scstep>
   <time name="dav">    1.01    1.02</time>
   <time name="total">    1.17    1.29</time>
   <energy>
    <i name="alphaZ">   1491.11565157 </i>
    <i name="ewald"> -19695.01555008 </i>
    <i name="hartreedc">  -6071.22339732 </i>
    <i name="XCdc">   -261.43509659 </i>
    <i name="pawpsdc">  34280.14786494 </i>
    <i name="pawaedc"> -32672.28601435 </i>
    <i name="eentropy">      0.02303251 </i>
    <i name="bandstr">  -2604.42835976 </i>
    <i name="atom">  25175.14332663 </i>
    <i name="e_fr_energy">   -357.95854246 </i>
    <i name="e_wo_entrp">   -357.98157497 </i>
    <i name="e_0_energy">   -357.96621996 </i>
   </energy>
  </scstep>
  <scstep>
   <time name="diag">    0.08    0.08</time>
   <time name="diis">    0.73    0.77</time>
   <time name="orth">    0.01    0.01</time>
   <time name="total">    0.89    0.95</time>
   <energy>
    <i name="e_fr_energy">   -357.95795228 </i>
    <i name="e_wo_entrp">   -357.98089759 </i>
    <i name="e_0_energy">   -357.96560072 </i>
   </energy>
  </scstep>
  <scstep>
   <time name="diag">    0.08    0.08</time>
   <time name="diis">    0.81    0.81</time>
   <time name="orth">    0.01    0.01</time>
   <time name="total">    0.96    1.00</time>
   <energy>
    <i name="e_fr_energy">   -357.95782952 </i>
    <i name="e_wo_entrp">   -357.98084198 </i>
    <i name="e_0_energy">   -357.96550034 </i>
   </energy>
  </scstep>
  <scstep>
   <time name="diag">    0.13    0.13</time>
   <time name="diis">    0.76    0.77</time>
   <time name="orth">    0.01    0.01</time>
   <time name="total">    0.97    1.01</time>
   <energy>
    <i name="e_fr_energy">   -357.95770182 </i>
    <i name="e_wo_entrp">   -357.98074930 </i>
    <i name="e_0_energy">   -357.96538431 </i>
   </energy>
  </scstep>
  <scstep>
   <time name="diag">    0.08    0.08</time>
   <time name="diis">    0.72    0.73</time>
   <time name="orth">    0.01    0.01</time>
   <time name="total">    0.85    0.87</time>
   <energy>
    <i name="alphaZ">   1491.11565157 </i>
    <i name="ewald"> -19695.01555008 </i>
    <i name="hartreedc">  -6068.47018353 </i>
    <i name="XCdc">   -261.55654292 </i>
    <i name="pawpsdc">  34316.19535855 </i>
    <i name="pawaedc"> -32708.44743916 </i>
    <i name="eentropy">      0.02301288 </i>
    <i name="bandstr">  -2606.94532626 </i>
    <i name="atom">  25175.14332663 </i>
    <i name="e_fr_energy">   -357.95769232 </i>
    <i name="e_wo_entrp">   -357.98070520 </i>
    <i name="e_0_energy">   -357.96536328 </i>
   </energy>
  </scstep>
  <structure>
   <crystal>
    <varray name="basis" >
     <v>       7.03775696       0.01800729       0.00929244 </v>
     <v>       0.02667807      10.27422662       0.01469029 </v>
     <v>       0.01309885       0.01454297      10.27102271 </v>
    </varray>
    <i name="volume">    742.66439414 </i>
    <varray name="rec_basis" >
     <v>       0.14209191      -0.00036870      -0.00018069 </v>
     <v>      -0.00024886       0.09733177      -0.00013750 </v>
     <v>      -0.00012820      -0.00013888       0.09736165 </v>
    </varray>
   </crystal>
   <varray name="positions" >
    <v>       0.51462710       0.33270246       0.34330562 </v>
    <v>       0.99210420       0.32148619       0.67549989 </v>
    <v>       0.49536273       0.00688634       0.65529759 </v>
    <v>       0.27573285       0.48417227       0.15276030 </v>
    <v>       0.98581427       0.34768650       0.32633832 </v>
    <v>       0.49180146       0.66746706       0.33384052 </v>
    <v>       0.21302136       0.15510878       0.48393656 </v>
    <v>       0.00586317       0.67109434       0.00936808 </v>
    <v>       0.76563526       0.51976345       0.52134246 </v>
    <v>       0.75927025       0.82915103       0.50967373 </v>
    <v>       0.25767769       0.49611264       0.83363426 </v>
    <v>       0.25560184       0.16206905       0.16265847 </v>
    <v>       0.73771359       0.83443166       0.15730337 </v>
    <v>       0.98292846       0.98574641       0.31682447 </v>
    <v>       0.25980631       0.84676304       0.16664381 </v>
    <v>       0.78461818       0.15489262       0.48703183 </v>
    <v>       0.49179722       0.67580182       0.00820722 </v>
    <v>       0.46474149       0.67337018       0.66021767 </v>
    <v>       0.23594582       0.51317437       0.51410452 </v>
    <v>       0.03294092       0.68409055       0.67443996 </v>
    <v>       0.72641408       0.50467864       0.15336704 </v>
    <v>       0.23865871       0.83262868       0.49671704 </v>
    <v>       0.74688615       0.15919622       0.16805040 </v>
    <v>       0.72066178       0.16221221       0.84138262 </v>
    <v>       0.26870393       0.83116991       0.83720478 </v>
    <v>       0.53746337       0.32792782       0.00334387 </v>
    <v>       0.51048755       0.99437553       0.00671020 </v>
    <v>       0.28219049       0.17373059       0.85043697 </v>
    <v>       0.99292770       0.99867522       0.99724234 </v>
    <v>       0.00450989      -0.00116955       0.68402933 </v>
    <v>       0.00582015       0.66802748       0.32285029 </v>
    <v>       0.51339247      -0.00376716       0.33418342 </v>
    <v>       0.50565264       0.32631931       0.65112242 </v>
    <v>       0.97290785       0.32679510       0.99821031 </v>
    <v>       0.73093100       0.82317435       0.83100532 </v>
    <v>       0.73937206       0.51405987       0.83170901 </v>
   </varray>
  </structure>
  <varray name="forces" >
   <v>       0.00113890      -0.00410106       0.00317970 </v>
   <v>       0.00534203       0.00349084       0.00196664 </v>
   <v>      -0.00289492       0.00054247       0.00174763 </v>
   <v>      -0.00646392      -0.00139084       0.00876754 </v>
   <v>      -0.00424687       0.00282772      -0.00079590 </v>
   <v>       0.00216174       0.00128270       0.00148031 </v>
   <v>       0.00424434       0.00690934      -0.00091213 </v>
   <v>       0.00045973      -0.00178664      -0.00208154 </v>
   <v>      -0.00603240      -0.00433646       0.00104666 </v>
   <v>      -0.00245356      -0.00281284      -0.00220501 </v>
   <v>       0.00135852       0.00536176      -0.00798404 </v>
   <v>      -0.00072434       0.00087936       0.00075250 </v>
   <v>       0.00298916      -0.00813433       0.00318228 </v>
   <v>       0.00927386      -0.00040112       0.00080057 </v>
   <v>      -0.00152183      -0.00290969      -0.00707616 </v>
   <v>      -0.00513451      -0.00058519       0.00500733 </v>
   <v>      -0.00262137      -0.00033810      -0.00166464 </v>
   <v>      -0.00485887       0.00495376       0.00007151 </v>
   <v>       0.00870640      -0.00054050      -0.00912798 </v>
   <v>       0.00716742      -0.00395996       0.00275438 </v>
   <v>       0.00424170      -0.00285651       0.00570862 </v>
   <v>      -0.00372978       0.00875343      -0.00335865 </v>
   <v>      -0.00804929      -0.01197646       0.00909309 </v>
   <v>       0.00363146      -0.00686159      -0.00641690 </v>
   <v>       0.00746334       0.00190148       0.00371328 </v>
   <v>      -0.00749404       0.00983797      -0.00394442 </v>
   <v>      -0.00095122       0.01206996      -0.00493925 </v>
   <v>      -0.00143021      -0.00931893      -0.00522172 </v>
   <v>      -0.00141326       0.00524142      -0.00574075 </v>
   <v>       0.00695187      -0.00045665       0.00134650 </v>
   <v>      -0.00178940       0.00192318       0.00640272 </v>
   <v>      -0.00625186       0.00567565       0.00214218 </v>
   <v>       0.00405657      -0.01314989      -0.00437880 </v>
   <v>       0.00319205       0.00252246      -0.00206821 </v>
   <v>      -0.00228729      -0.00008572       0.00518110 </v>
   <v>      -0.00203018       0.00182898       0.00357157 </v>
  </varray>
  <varray name="stress" >
   <v>       0.51875156      -0.00871198      -0.07152287 </v>
   <v>      -0.00871201       0.54700752       0.01959602 </v>
   <v>      -0.07152291       0.01959595       0.50845913 </v>
  </varray>
  <energy>
   <i name="e_fr_energy">   -357.95769232 </i>
   <i name="e_wo_entrp">   -357.96536328 </i>
   <i name="e_0_energy">      0.02301288 </i>
  </energy>
