<?xml version="1.0" encoding="ISO-8859-1"?>
<modeling>
 <generator>
  <i name="program" type="string">vasp </i>
  <i name="version" type="string">5.4.1  </i>
  <i name="subversion" type="string">05Feb16 (build Jan 29 2020 16:04:39) complex                          parallel </i>
  <i name="platform" type="string">IFC91_ompi </i>
  <i name="date" type="string">2020 06 15 </i>
  <i name="time" type="string">12:52:28 </i>
 </generator>
 <incar>
  <i type="string" name="SYSTEM"> automatically generated by mexm</i>
  <i type="int" name="ISTART">     0</i>
  <i type="string" name="PREC">accurate               ! avoid wrap aro</i>
  <i type="string" name="ALGO"> Fast                   ! blocked Davids</i>
  <i type="int" name="ISPIN">     1</i>
  <i type="int" name="ICHARG">     2</i>
  <i type="int" name="NELM">    70</i>
  <i type="int" name="IBRION">     2</i>
  <i name="EDIFF">      0.00001000</i>
  <i name="EDIFFG">     -0.01000000</i>
  <i type="int" name="NSW">   300</i>
  <i type="int" name="ISIF">     3</i>
  <i type="int" name="ISYM">     1</i>
  <i name="ENCUT">    300.00000000</i>
  <i name="POTIM">      0.15000000</i>
  <i type="string" name="LREAL"> Auto                  ! unpublished met</i>
  <i type="int" name="ISMEAR">     1</i>
  <i name="SIGMA">      0.15000000</i>
  <i type="logical" name="LWAVE"> F  </i>
  <i type="logical" name="LCHARG"> F  </i>
  <i type="logical" name="LVTOT"> F  </i>
  <v type="int" name="KPOINT_BSE">    -1     0     0     0</v>
  <i type="int" name="NELM">    70</i>
 </incar>
 <kpoints>
  <generation param="Gamma">
   <v type="int" name="divisions">       3        3        3 </v>
   <v name="usershift">      0.00000000       0.00000000       0.00000000 </v>
   <v name="genvec1">      0.33333333      -0.00000000       0.00000000 </v>
   <v name="genvec2">      0.00000000       0.33333333       0.00000000 </v>
   <v name="genvec3">      0.00000000       0.00000000       0.33333333 </v>
   <v name="shift">      0.00000000       0.00000000       0.00000000 </v>
  </generation>
  <varray name="kpointlist" >
   <v>       0.00000000       0.00000000       0.00000000 </v>
   <v>       0.33333333       0.00000000       0.00000000 </v>
   <v>       0.00000000       0.33333333       0.00000000 </v>
   <v>       0.33333333       0.33333333       0.00000000 </v>
   <v>      -0.33333333       0.33333333      -0.00000000 </v>
   <v>      -0.00000000      -0.00000000       0.33333333 </v>
   <v>       0.33333333       0.00000000       0.33333333 </v>
   <v>      -0.33333333       0.00000000       0.33333333 </v>
   <v>      -0.00000000       0.33333333       0.33333333 </v>
   <v>       0.33333333       0.33333333       0.33333333 </v>
   <v>      -0.33333333       0.33333333       0.33333333 </v>
   <v>      -0.00000000      -0.33333333       0.33333333 </v>
   <v>       0.33333333      -0.33333333       0.33333333 </v>
   <v>      -0.33333333      -0.33333333       0.33333333 </v>
  </varray>
  <varray name="weights" >
   <v>       0.03703704 </v>
   <v>       0.07407407 </v>
   <v>       0.07407407 </v>
   <v>       0.07407407 </v>
   <v>       0.07407407 </v>
   <v>       0.07407407 </v>
   <v>       0.07407407 </v>
   <v>       0.07407407 </v>
   <v>       0.07407407 </v>
   <v>       0.07407407 </v>
   <v>       0.07407407 </v>
   <v>       0.07407407 </v>
   <v>       0.07407407 </v>
   <v>       0.07407407 </v>
  </varray>
 </kpoints>
 <parameters>
  <separator name="general" >
   <i type="string" name="SYSTEM">automatically generated by mexm</i>
   <i type="logical" name="LCOMPAT"> F  </i>
  </separator>
  <separator name="electronic" >
   <i type="string" name="PREC">accura</i>
   <i name="ENMAX">    300.00000000</i>
   <i name="ENAUG">    461.25700000</i>
   <i name="EDIFF">      0.00001000</i>
   <i type="int" name="IALGO">    68</i>
   <i type="int" name="IWAVPR">    11</i>
   <i type="int" name="NBANDS">   188</i>
   <i name="NELECT">    309.00000000</i>
   <i type="int" name="TURBO">     0</i>
   <i type="int" name="IRESTART">     0</i>
   <i type="int" name="NREBOOT">     0</i>
   <i type="int" name="NMIN">     0</i>
   <i name="EREF">      0.00000000</i>
   <separator name="electronic smearing" >
    <i type="int" name="ISMEAR">     1</i>
    <i name="SIGMA">      0.15000000</i>
    <i name="KSPACING">      0.50000000</i>
    <i type="logical" name="KGAMMA"> T  </i>
   </separator>
   <separator name="electronic projectors" >
    <i type="logical" name="LREAL"> T  </i>
    <v name="ROPT">     -0.00025000     -0.00025000     -0.00025000     -0.00025000</v>
    <i type="int" name="LMAXPAW">  -100</i>
    <i type="int" name="LMAXMIX">     2</i>
    <i type="logical" name="NLSPLINE"> F  </i>
   </separator>
   <separator name="electronic startup" >
    <i type="int" name="ISTART">     0</i>
    <i type="int" name="ICHARG">     2</i>
    <i type="int" name="INIWAV">     1</i>
   </separator>
   <separator name="electronic spin" >
    <i type="int" name="ISPIN">     1</i>
    <i type="logical" name="LNONCOLLINEAR"> F  </i>
    <v name="MAGMOM">      1.00000000      1.00000000      1.00000000      1.00000000      1.00000000      1.00000000      1.00000000      1.00000000      1.00000000      1.00000000      1.00000000      1.00000000      1.00000000      1.00000000      1.00000000      1.00000000      1.00000000      1.00000000      1.00000000      1.00000000
      1.00000000      1.00000000      1.00000000      1.00000000      1.00000000      1.00000000      1.00000000      1.00000000      1.00000000      1.00000000      1.00000000      1.00000000      1.00000000      1.00000000      1.00000000      1.00000000</v>
    <i name="NUPDOWN">     -1.00000000</i>
    <i type="logical" name="LSORBIT"> F  </i>
    <v name="SAXIS">      0.00000000      0.00000000      1.00000000</v>
    <i type="logical" name="LSPIRAL"> F  </i>
    <v name="QSPIRAL">      0.00000000      0.00000000      0.00000000</v>
    <i type="logical" name="LZEROZ"> F  </i>
   </separator>
   <separator name="electronic exchange-correlation" >
    <i type="logical" name="LASPH"> F  </i>
    <i type="logical" name="LMETAGGA"> F  </i>
   </separator>
   <separator name="electronic convergence" >
    <i type="int" name="NELM">    70</i>
    <i type="int" name="NELMDL">    -5</i>
    <i type="int" name="NELMIN">     2</i>
    <i name="ENINI">    300.00000000</i>
    <separator name="electronic convergence detail" >
     <i type="logical" name="LDIAG"> T  </i>
     <i type="logical" name="LSUBROT"> F  </i>
     <i name="WEIMIN">      0.00100000</i>
     <i name="EBREAK">      0.00000001</i>
     <i name="DEPER">      0.30000000</i>
     <i type="int" name="NRMM">     4</i>
     <i name="TIME">      0.40000000</i>
    </separator>
   </separator>
   <separator name="electronic mixer" >
    <i name="AMIX">      0.40000000</i>
    <i name="BMIX">      1.00000000</i>
    <i name="AMIN">      0.10000000</i>
    <i name="AMIX_MAG">      1.60000000</i>
    <i name="BMIX_MAG">      1.00000000</i>
    <separator name="electronic mixer details" >
     <i type="int" name="IMIX">     4</i>
     <i type="logical" name="MIXFIRST"> F  </i>
     <i type="int" name="MAXMIX">   -45</i>
     <i name="WC">    100.00000000</i>
     <i type="int" name="INIMIX">     1</i>
     <i type="int" name="MIXPRE">     1</i>
     <i type="int" name="MREMOVE">     5</i>
    </separator>
   </separator>
   <separator name="electronic dipolcorrection" >
    <i type="logical" name="LDIPOL"> F  </i>
    <i type="logical" name="LMONO"> F  </i>
    <i type="int" name="IDIPOL">     0</i>
    <i name="EPSILON">      1.00000000</i>
    <v name="DIPOL">   -100.00000000   -100.00000000   -100.00000000</v>
    <i name="EFIELD">      0.00000000</i>
   </separator>
  </separator>
  <separator name="grids" >
   <i type="int" name="NGX">    40</i>
   <i type="int" name="NGY">    60</i>
   <i type="int" name="NGZ">    60</i>
   <i type="int" name="NGXF">    80</i>
   <i type="int" name="NGYF">   120</i>
   <i type="int" name="NGZF">   120</i>
   <i type="logical" name="ADDGRID"> F  </i>
  </separator>
  <separator name="ionic" >
   <i type="int" name="NSW">   300</i>
   <i type="int" name="IBRION">     2</i>
   <i type="int" name="ISIF">     3</i>
   <i name="PSTRESS">      0.00000000</i>
   <i name="EDIFFG">     -0.01000000</i>
   <i type="int" name="NFREE">     1</i>
   <i name="POTIM">      0.15000000</i>
   <i name="SMASS">     -3.00000000</i>
   <i name="SCALEE">      1.00000000</i>
  </separator>
  <separator name="ionic md" >
   <i name="TEBEG">      0.00010000</i>
   <i name="TEEND">      0.00010000</i>
   <i type="int" name="NBLOCK">     1</i>
   <i type="int" name="KBLOCK">   300</i>
   <i type="int" name="NPACO">   256</i>
   <i name="APACO">     16.00000000</i>
  </separator>
  <separator name="symmetry" >
   <i type="int" name="ISYM">     1</i>
   <i name="SYMPREC">      0.00001000</i>
  </separator>
  <separator name="dos" >
   <i type="logical" name="LORBIT"> F  </i>
   <v name="RWIGS">     -1.00000000     -1.00000000     -1.00000000     -1.00000000</v>
   <i type="int" name="NEDOS">   301</i>
   <i name="EMIN">     10.00000000</i>
   <i name="EMAX">    -10.00000000</i>
   <i name="EFERMI">      0.00000000</i>
  </separator>
  <separator name="writing" >
   <i type="int" name="NWRITE">     2</i>
   <i type="logical" name="LWAVE"> F  </i>
   <i type="logical" name="LCHARG"> F  </i>
   <i type="logical" name="LPARD"> F  </i>
   <i type="logical" name="LVTOT"> F  </i>
   <i type="logical" name="LVHAR"> F  </i>
   <i type="logical" name="LELF"> F  </i>
   <i type="logical" name="LOPTICS"> F  </i>
   <v name="STM">      0.00000000      0.00000000      0.00000000      0.00000000      0.00000000      0.00000000      0.00000000</v>
  </separator>
  <separator name="performance" >
   <i type="int" name="NPAR">     4</i>
   <i type="int" name="NSIM">     4</i>
   <i type="int" name="NBLK">    -1</i>
   <i type="logical" name="LPLANE"> T  </i>
   <i type="logical" name="LSCALAPACK"> T  </i>
   <i type="logical" name="LSCAAWARE"> F  </i>
   <i type="logical" name="LSCALU"> F  </i>
   <i type="logical" name="LASYNC"> F  </i>
   <i type="logical" name="LORBITALREAL"> F  </i>
  </separator>
  <separator name="miscellaneous" >
   <i type="int" name="IDIOT">     3</i>
   <i type="logical" name="LMUSIC"> F  </i>
   <v name="POMASS">    178.49000000     92.91000000    180.94800000     91.22400000</v>
   <v name="DARWINR">      0.00000000      0.00000000      0.00000000      0.00000000</v>
   <v name="DARWINV">      1.00000000      1.00000000      1.00000000      1.00000000</v>
   <i type="logical" name="LCORR"> T  </i>
  </separator>
  <i type="logical" name="GGA_COMPAT"> T  </i>
  <i type="logical" name="LBERRY"> F  </i>
  <i type="int" name="ICORELEVEL">     0</i>
  <i type="logical" name="LDAU"> F  </i>
  <i type="int" name="I_CONSTRAINED_M">     0</i>
  <separator name="electronic exchange-correlation" >
   <i type="string" name="GGA">--</i>
   <i type="int" name="VOSKOWN">     0</i>
   <i type="logical" name="LHFCALC"> F  </i>
   <i type="string" name="PRECFOCK"></i>
   <i type="logical" name="LSYMGRAD"> F  </i>
   <i type="logical" name="LHFONE"> F  </i>
   <i type="logical" name="LRHFCALC"> F  </i>
   <i type="logical" name="LTHOMAS"> F  </i>
   <i type="logical" name="LMODELHF"> F  </i>
   <i name="ENCUT4O">     -1.00000000</i>
   <i type="int" name="EXXOEP">     0</i>
   <i type="int" name="FOURORBIT">     0</i>
   <i name="AEXX">      0.00000000</i>
   <i name="HFALPHA">      0.00000000</i>
   <i name="MCALPHA">      0.00000000</i>
   <i name="ALDAX">      1.00000000</i>
   <i name="AGGAX">      1.00000000</i>
   <i name="ALDAC">      1.00000000</i>
   <i name="AGGAC">      1.00000000</i>
   <i type="int" name="NKREDX">     1</i>
   <i type="int" name="NKREDY">     1</i>
   <i type="int" name="NKREDZ">     1</i>
   <i type="logical" name="SHIFTRED"> F  </i>
   <i type="logical" name="ODDONLY"> F  </i>
   <i type="logical" name="EVENONLY"> F  </i>
   <i type="int" name="LMAXFOCK">     0</i>
   <i type="int" name="NMAXFOCKAE">     0</i>
   <i type="logical" name="LFOCKAEDFT"> F  </i>
   <i name="HFSCREEN">      0.00000000</i>
   <i name="HFSCREENC">      0.00000000</i>
   <i type="int" name="NBANDSGWLOW">     0</i>
  </separator>
  <separator name="vdW DFT" >
   <i type="logical" name="LUSE_VDW"> F  </i>
   <i name="Zab_VDW">     -0.84910000</i>
   <i name="PARAM1">      0.12340000</i>
   <i name="PARAM2">      1.00000000</i>
   <i name="PARAM3">      0.00000000</i>
  </separator>
  <separator name="model GW" >
   <i type="int" name="MODEL_GW">     0</i>
   <i name="MODEL_EPS0">     11.82672963</i>
   <i name="MODEL_ALPHA">      1.00000000</i>
  </separator>
  <separator name="linear response parameters" >
   <i type="logical" name="LEPSILON"> F  </i>
   <i type="logical" name="LRPA"> F  </i>
   <i type="logical" name="LNABLA"> F  </i>
   <i type="logical" name="LVEL"> F  </i>
   <i type="int" name="KINTER">     0</i>
   <i name="CSHIFT">      0.10000000</i>
   <i name="OMEGAMAX">     -1.00000000</i>
   <i name="DEG_THRESHOLD">      0.00200000</i>
  </separator>
  <separator name="orbital magnetization" >
   <i type="logical" name="NUCIND"> F  </i>
   <v name="MAGPOS">      0.00000000      0.00000000      0.00000000</v>
   <i type="logical" name="LNICSALL"> T  </i>
   <i type="logical" name="ORBITALMAG"> F  </i>
   <i type="logical" name="LMAGBLOCH"> F  </i>
   <i type="logical" name="LCHIMAG"> F  </i>
   <i type="logical" name="LGAUGE"> T  </i>
   <i type="int" name="MAGATOM">     0</i>
   <v name="MAGDIPOL">      0.00000000      0.00000000      0.00000000</v>
   <v name="AVECCONST">      0.00000000      0.00000000      0.00000000</v>
  </separator>
  <separator name="response functions" >
   <i type="logical" name="LADDER"> F  </i>
   <i type="logical" name="LFXC"> F  </i>
   <i type="logical" name="LHARTREE"> T  </i>
   <i type="int" name="IBSE">     0</i>
   <v type="int" name="KPOINT">    -1     0     0     0</v>
   <i type="logical" name="LTCTE"> F  </i>
   <i type="logical" name="LTETE"> F  </i>
   <i type="logical" name="LTRIPLET"> F  </i>
   <i type="logical" name="LFXCEPS"> F  </i>
   <i type="logical" name="LFXHEG"> F  </i>
   <i type="int" name="NATURALO">     0</i>
   <i type="logical" name="L2ORDER"> F  </i>
   <i type="logical" name="LUSEW"> F  </i>
   <i name="ENCUTGW">     -2.00000000</i>
   <i name="ENCUTGWSOFT">     -2.00000000</i>
   <i name="ENCUTLF">     -1.00000000</i>
   <i type="int" name="LMAXMP2">    -1</i>
   <i name="SCISSOR">      0.00000000</i>
   <i type="int" name="NOMEGA">     0</i>
   <i type="int" name="NOMEGAR">     0</i>
   <i type="int" name="NBANDSGW">    -1</i>
   <i type="int" name="NBANDSO">    -1</i>
   <i type="int" name="NBANDSV">    -1</i>
   <i type="int" name="NELM">    70</i>
   <i type="int" name="NELMHF">     1</i>
   <i type="int" name="DIM">     3</i>
   <i type="int" name="ANTIRES">     0</i>
   <i name="OMEGAMAX">    -30.00000000</i>
   <i name="OMEGAMIN">    -30.00000000</i>
   <i name="OMEGATL">   -200.00000000</i>
   <i type="int" name="OMEGAGRID">     0</i>
   <i name="CSHIFT">     -0.10000000</i>
   <i type="logical" name="SELFENERGY"> F  </i>
   <i type="logical" name="LSPECTRAL"> F  </i>
   <i type="logical" name="LSPECTRALGW"> F  </i>
   <i type="logical" name="LSINGLES"> F  </i>
   <i type="logical" name="LFERMIGW"> F  </i>
   <i type="logical" name="ODDONLYGW"> F  </i>
   <i type="logical" name="EVENONLYGW"> F  </i>
   <i type="int" name="NKREDLFX">     1</i>
   <i type="int" name="NKREDLFY">     1</i>
   <i type="int" name="NKREDLFZ">     1</i>
   <i type="int" name="MAXMEM">  1800</i>
   <i type="int" name="TELESCOPE">     0</i>
   <i type="int" name="TAUPAR">     1</i>
   <i type="int" name="OMEGAPAR">    -1</i>
   <i name="LAMBDA">      1.00000000</i>
  </separator>
  <separator name="External order field" >
   <i name="OFIELD_KAPPA">      0.00000000</i>
   <v name="OFIELD_K">      0.00000000      0.00000000      0.00000000</v>
   <i name="OFIELD_Q6_NEAR">      0.00000000</i>
   <i name="OFIELD_Q6_FAR">      0.00000000</i>
   <i name="OFIELD_A">      0.00000000</i>
  </separator>
 </parameters>
 <atominfo>
  <atoms>      36 </atoms>
  <types>       4 </types>
  <array name="atoms" >
   <dimension dim="1">ion</dimension>
   <field type="string">element</field>
   <field type="int">atomtype</field>
   <set>
    <rc><c>Hf</c><c>   1</c></rc>
    <rc><c>Hf</c><c>   1</c></rc>
    <rc><c>Hf</c><c>   1</c></rc>
    <rc><c>Hf</c><c>   1</c></rc>
    <rc><c>Hf</c><c>   1</c></rc>
    <rc><c>Hf</c><c>   1</c></rc>
    <rc><c>Nb</c><c>   2</c></rc>
    <rc><c>Nb</c><c>   2</c></rc>
    <rc><c>Nb</c><c>   2</c></rc>
    <rc><c>Nb</c><c>   2</c></rc>
    <rc><c>Nb</c><c>   2</c></rc>
    <rc><c>Nb</c><c>   2</c></rc>
    <rc><c>Nb</c><c>   2</c></rc>
    <rc><c>Nb</c><c>   2</c></rc>
    <rc><c>Nb</c><c>   2</c></rc>
    <rc><c>Ta</c><c>   3</c></rc>
    <rc><c>Ta</c><c>   3</c></rc>
    <rc><c>Ta</c><c>   3</c></rc>
    <rc><c>Ta</c><c>   3</c></rc>
    <rc><c>Ta</c><c>   3</c></rc>
    <rc><c>Ta</c><c>   3</c></rc>
    <rc><c>Ta</c><c>   3</c></rc>
    <rc><c>Ta</c><c>   3</c></rc>
    <rc><c>Ta</c><c>   3</c></rc>
    <rc><c>Ta</c><c>   3</c></rc>
    <rc><c>Ta</c><c>   3</c></rc>
    <rc><c>Ta</c><c>   3</c></rc>
    <rc><c>Zr</c><c>   4</c></rc>
    <rc><c>Zr</c><c>   4</c></rc>
    <rc><c>Zr</c><c>   4</c></rc>
    <rc><c>Zr</c><c>   4</c></rc>
    <rc><c>Zr</c><c>   4</c></rc>
    <rc><c>Zr</c><c>   4</c></rc>
    <rc><c>Zr</c><c>   4</c></rc>
    <rc><c>Zr</c><c>   4</c></rc>
    <rc><c>Zr</c><c>   4</c></rc>
   </set>
  </array>
  <array name="atomtypes" >
   <dimension dim="1">type</dimension>
   <field type="int">atomspertype</field>
   <field type="string">element</field>
   <field>mass</field>
   <field>valence</field>
   <field type="string">pseudopotential</field>
   <set>
    <rc><c>   6</c><c>Hf</c><c>    178.49000000</c><c>      4.00000000</c><c>  PAW_PBE Hf 20Jan2003                  </c></rc>
    <rc><c>   9</c><c>Nb</c><c>     92.91000000</c><c>     13.00000000</c><c>  PAW_PBE Nb_sv 25May2007               </c></rc>
    <rc><c>  12</c><c>Ta</c><c>    180.94800000</c><c>      5.00000000</c><c>  PAW_PBE Ta 17Jan2003                  </c></rc>
    <rc><c>   9</c><c>Zr</c><c>     91.22400000</c><c>     12.00000000</c><c>  PAW_PBE Zr_sv 04Jan2005               </c></rc>
   </set>
  </array>
 </atominfo>
 <structure name="initialpos" >
  <crystal>
   <varray name="basis" >
    <v>       6.83119125      -0.00272362      -0.00359657 </v>
    <v>      -0.00292814      10.18270205       0.01540889 </v>
    <v>      -0.00518784       0.01511458      10.20134835 </v>
   </varray>
   <i name="volume">    709.60377770 </i>
   <varray name="rec_basis" >
    <v>       0.14638741       0.00004198       0.00007438 </v>
    <v>       0.00003908       0.09820599      -0.00014548 </v>
    <v>       0.00005155      -0.00014832       0.09802650 </v>
   </varray>
  </crystal>
  <varray name="positions" >
   <v>       0.24727700       0.83650100       0.16662200 </v>
   <v>       0.00938300       0.32972700       0.66421800 </v>
   <v>       0.72138400       0.16313800       0.81933000 </v>
   <v>       0.49632600       0.67062800       0.66021500 </v>
   <v>       0.00817200       0.00736900       0.65419700 </v>
   <v>       0.00166600       0.33391500       0.34694100 </v>
   <v>       0.01265500       0.64603600       0.99504900 </v>
   <v>       0.49670900       0.66299600       0.34579700 </v>
   <v>       0.25593200       0.49286500       0.49885200 </v>
   <v>       0.50792800       0.00286300       0.33566400 </v>
   <v>       0.99441700       0.00045900       0.34367900 </v>
   <v>       0.00078700       0.65971400       0.65903200 </v>
   <v>       0.23747300       0.50599900       0.82645700 </v>
   <v>       0.48746800       0.33988000       0.66226600 </v>
   <v>       0.74842800       0.16265000       0.17689800 </v>
   <v>       0.50929200       0.00843100       0.00667200 </v>
   <v>       0.26264900       0.84275200       0.48776000 </v>
   <v>       0.74058000       0.84162600       0.49361900 </v>
   <v>       0.24726700       0.49837700       0.17834700 </v>
   <v>       0.74358100       0.49012300       0.50420700 </v>
   <v>       0.99015700       0.02672500       0.99845500 </v>
   <v>       0.75800400       0.50392300       0.81806400 </v>
   <v>       0.26425300       0.16699200       0.49225700 </v>
   <v>       0.27429200       0.15371800       0.83068300 </v>
   <v>       0.49290900       0.99042600       0.65434900 </v>
   <v>       0.50009600       0.33455300       0.33953700 </v>
   <v>       0.73746700       0.16855700       0.49871800 </v>
   <v>       0.76275100       0.83037900       0.83856100 </v>
   <v>       0.75613400       0.83640900       0.16577400 </v>
   <v>       0.49591900       0.33808200       0.00020800 </v>
   <v>       0.00588100       0.66669200       0.35184500 </v>
   <v>       0.23746500       0.83991100       0.84365800 </v>
   <v>       0.75484600       0.50130300       0.17867700 </v>
   <v>       0.00043600       0.33012600       0.99370300 </v>
   <v>       0.49072800       0.65140000       0.99347800 </v>
   <v>       0.24928500       0.16476700       0.17621000 </v>
  </varray>
 </structure>
 <calculation>
  <scstep>
   <time name="dav">    1.16    1.18</time>
   <time name="total">    1.43    1.70</time>
   <energy>
    <i name="alphaZ">   1678.49160449 </i>
    <i name="ewald"> -21445.95503142 </i>
    <i name="hartreedc">  -7116.68161023 </i>
    <i name="XCdc">   -156.36128918 </i>
    <i name="pawpsdc">  23153.31961253 </i>
    <i name="pawaedc"> -21569.01725749 </i>
    <i name="eentropy">      0.00060451 </i>
    <i name="bandstr">    -71.58013066 </i>
    <i name="atom">  27576.72066277 </i>
    <i name="e_fr_energy">   2048.93716531 </i>
    <i name="e_wo_entrp">   2048.93656080 </i>
    <i name="e_0_energy">   2048.93696381 </i>
   </energy>
  </scstep>
  <scstep>
   <time name="dav">    1.09    1.09</time>
   <time name="total">    1.09    1.20</time>
   <energy>
    <i name="e_fr_energy">    -78.21498070 </i>
    <i name="e_wo_entrp">    -78.20978934 </i>
    <i name="e_0_energy">    -78.21325025 </i>
   </energy>
  </scstep>
  <scstep>
   <time name="dav">    1.52    1.53</time>
   <time name="total">    1.52    1.56</time>
   <energy>
    <i name="e_fr_energy">   -348.02339236 </i>
    <i name="e_wo_entrp">   -348.03299680 </i>
    <i name="e_0_energy">   -348.02659384 </i>
   </energy>
  </scstep>
  <scstep>
   <time name="dav">    1.43    1.43</time>
   <time name="total">    1.43    1.46</time>
   <energy>
    <i name="e_fr_energy">   -378.87743373 </i>
    <i name="e_wo_entrp">   -378.89515968 </i>
    <i name="e_0_energy">   -378.88334238 </i>
   </energy>
  </scstep>
  <scstep>
   <time name="dav">    1.44    1.44</time>
   <time name="total">    1.47    1.50</time>
   <energy>
    <i name="e_fr_energy">   -381.96068869 </i>
    <i name="e_wo_entrp">   -381.98147951 </i>
    <i name="e_0_energy">   -381.96761896 </i>
   </energy>
  </scstep>
  <scstep>
   <time name="diag">    0.08    0.08</time>
   <time name="diis">    0.83    0.83</time>
   <time name="orth">    0.03    0.03</time>
   <time name="total">    1.06    1.10</time>
   <energy>
    <i name="e_fr_energy">   -371.71170587 </i>
    <i name="e_wo_entrp">   -371.72760977 </i>
    <i name="e_0_energy">   -371.71700717 </i>
   </energy>
  </scstep>
  <scstep>
   <time name="diag">    0.12    0.12</time>
   <time name="diis">    0.91    0.92</time>
   <time name="orth">    0.04    0.04</time>
   <time name="total">    1.24    1.26</time>
   <energy>
    <i name="e_fr_energy">   -376.65762411 </i>
    <i name="e_wo_entrp">   -376.66495150 </i>
    <i name="e_0_energy">   -376.66006658 </i>
   </energy>
  </scstep>
  <scstep>
   <time name="diag">    0.15    0.15</time>
   <time name="diis">    0.79    0.84</time>
   <time name="orth">    0.01    0.01</time>
   <time name="total">    1.03    1.14</time>
   <energy>
    <i name="e_fr_energy">   -367.36363193 </i>
    <i name="e_wo_entrp">   -367.37338862 </i>
    <i name="e_0_energy">   -367.36688416 </i>
   </energy>
  </scstep>
  <scstep>
   <time name="diag">    0.08    0.14</time>
   <time name="diis">    0.84    0.85</time>
   <time name="orth">    0.01    0.01</time>
   <time name="total">    1.02    1.11</time>
   <energy>
    <i name="e_fr_energy">   -366.94854008 </i>
    <i name="e_wo_entrp">   -366.95540461 </i>
    <i name="e_0_energy">   -366.95082826 </i>
   </energy>
  </scstep>
  <scstep>
   <time name="diag">    0.08    0.08</time>
   <time name="diis">    0.82    0.88</time>
   <time name="orth">    0.01    0.01</time>
   <time name="total">    1.03    1.14</time>
   <energy>
    <i name="e_fr_energy">   -366.93865848 </i>
    <i name="e_wo_entrp">   -366.94774387 </i>
    <i name="e_0_energy">   -366.94168694 </i>
   </energy>
  </scstep>
  <scstep>
   <time name="diag">    0.11    0.12</time>
   <time name="diis">    0.85    0.85</time>
   <time name="orth">    0.01    0.01</time>
   <time name="total">    1.07    1.12</time>
   <energy>
    <i name="e_fr_energy">   -366.90213644 </i>
    <i name="e_wo_entrp">   -366.90892335 </i>
    <i name="e_0_energy">   -366.90439875 </i>
   </energy>
  </scstep>
  <scstep>
   <time name="diag">    0.09    0.09</time>
   <time name="diis">    0.85    0.86</time>
   <time name="orth">    0.01    0.01</time>
   <time name="total">    1.05    1.10</time>
   <energy>
    <i name="e_fr_energy">   -366.88907290 </i>
    <i name="e_wo_entrp">   -366.89858466 </i>
    <i name="e_0_energy">   -366.89224349 </i>
   </energy>
  </scstep>
  <scstep>
   <time name="diag">    0.08    0.08</time>
   <time name="diis">    0.83    0.84</time>
   <time name="orth">    0.01    0.01</time>
   <time name="total">    1.00    1.03</time>
   <energy>
    <i name="e_fr_energy">   -366.88597564 </i>
    <i name="e_wo_entrp">   -366.89433259 </i>
    <i name="e_0_energy">   -366.88876129 </i>
   </energy>
  </scstep>
  <scstep>
   <time name="diag">    0.09    0.09</time>
   <time name="diis">    0.86    0.87</time>
   <time name="orth">    0.01    0.01</time>
   <time name="total">    1.03    1.05</time>
   <energy>
    <i name="e_fr_energy">   -366.88582904 </i>
    <i name="e_wo_entrp">   -366.89474602 </i>
    <i name="e_0_energy">   -366.88880137 </i>
   </energy>
  </scstep>
  <scstep>
   <time name="diag">    0.09    0.09</time>
   <time name="diis">    0.87    0.87</time>
   <time name="orth">    0.01    0.01</time>
   <time name="total">    1.07    1.10</time>
   <energy>
    <i name="e_fr_energy">   -366.88570839 </i>
    <i name="e_wo_entrp">   -366.89445274 </i>
    <i name="e_0_energy">   -366.88862317 </i>
   </energy>
  </scstep>
  <scstep>
   <time name="diag">    0.12    0.12</time>
   <time name="diis">    0.93    0.93</time>
   <time name="orth">    0.01    0.01</time>
   <time name="total">    1.13    1.16</time>
   <energy>
    <i name="e_fr_energy">   -366.88574510 </i>
    <i name="e_wo_entrp">   -366.89434373 </i>
    <i name="e_0_energy">   -366.88861131 </i>
   </energy>
  </scstep>
  <scstep>
   <time name="diag">    0.09    0.09</time>
   <time name="diis">    0.75    0.75</time>
   <time name="orth">    0.01    0.01</time>
   <time name="total">    0.91    0.95</time>
   <energy>
    <i name="e_fr_energy">   -366.88573713 </i>
    <i name="e_wo_entrp">   -366.89444325 </i>
    <i name="e_0_energy">   -366.88863917 </i>
   </energy>
  </scstep>
  <scstep>
   <time name="diag">    0.08    0.08</time>
   <time name="diis">    0.64    0.65</time>
   <time name="orth">    0.01    0.01</time>
   <time name="total">    0.97    1.01</time>
   <energy>
    <i name="e_fr_energy">   -366.88573371 </i>
    <i name="e_wo_entrp">   -366.89445026 </i>
    <i name="e_0_energy">   -366.88863922 </i>
   </energy>
  </scstep>
  <scstep>
   <time name="diag">    0.08    0.08</time>
   <time name="diis">    0.56    0.56</time>
   <time name="orth">    0.01    0.01</time>
   <time name="total">    0.72    0.74</time>
   <energy>
    <i name="e_fr_energy">   -366.88573843 </i>
    <i name="e_wo_entrp">   -366.89444281 </i>
    <i name="e_0_energy">   -366.88863989 </i>
   </energy>
  </scstep>
  <scstep>
   <time name="diag">    0.08    0.08</time>
   <time name="diis">    0.45    0.45</time>
   <time name="orth">    0.01    0.01</time>
   <time name="total">    0.57    0.60</time>
   <energy>
    <i name="alphaZ">   1678.49160449 </i>
    <i name="ewald"> -21445.95503142 </i>
    <i name="hartreedc">  -6856.23767339 </i>
    <i name="XCdc">   -158.36985252 </i>
    <i name="pawpsdc">  36534.23840527 </i>
    <i name="pawaedc"> -34928.09589761 </i>
    <i name="eentropy">      0.00870867 </i>
    <i name="bandstr">  -2767.68666518 </i>
    <i name="atom">  27576.72066277 </i>
    <i name="e_fr_energy">   -366.88573893 </i>
    <i name="e_wo_entrp">   -366.89444760 </i>
    <i name="e_0_energy">   -366.88864182 </i>
   </energy>
  </scstep>
  <structure>
   <crystal>
    <varray name="basis" >
     <v>       6.83119125      -0.00272362      -0.00359657 </v>
     <v>      -0.00292814      10.18270205       0.01540889 </v>
     <v>      -0.00518784       0.01511458      10.20134835 </v>
    </varray>
    <i name="volume">    709.60377770 </i>
    <varray name="rec_basis" >
     <v>       0.14638741       0.00004198       0.00007438 </v>
     <v>       0.00003908       0.09820599      -0.00014548 </v>
     <v>       0.00005155      -0.00014832       0.09802650 </v>
    </varray>
   </crystal>
   <varray name="positions" >
    <v>       0.24727700       0.83650100       0.16662200 </v>
    <v>       0.00938300       0.32972700       0.66421800 </v>
    <v>       0.72138400       0.16313800       0.81933000 </v>
    <v>       0.49632600       0.67062800       0.66021500 </v>
    <v>       0.00817200       0.00736900       0.65419700 </v>
    <v>       0.00166600       0.33391500       0.34694100 </v>
    <v>       0.01265500       0.64603600       0.99504900 </v>
    <v>       0.49670900       0.66299600       0.34579700 </v>
    <v>       0.25593200       0.49286500       0.49885200 </v>
    <v>       0.50792800       0.00286300       0.33566400 </v>
    <v>       0.99441700       0.00045900       0.34367900 </v>
    <v>       0.00078700       0.65971400       0.65903200 </v>
    <v>       0.23747300       0.50599900       0.82645700 </v>
    <v>       0.48746800       0.33988000       0.66226600 </v>
    <v>       0.74842800       0.16265000       0.17689800 </v>
    <v>       0.50929200       0.00843100       0.00667200 </v>
    <v>       0.26264900       0.84275200       0.48776000 </v>
    <v>       0.74058000       0.84162600       0.49361900 </v>
    <v>       0.24726700       0.49837700       0.17834700 </v>
    <v>       0.74358100       0.49012300       0.50420700 </v>
    <v>       0.99015700       0.02672500       0.99845500 </v>
    <v>       0.75800400       0.50392300       0.81806400 </v>
    <v>       0.26425300       0.16699200       0.49225700 </v>
    <v>       0.27429200       0.15371800       0.83068300 </v>
    <v>       0.49290900       0.99042600       0.65434900 </v>
    <v>       0.50009600       0.33455300       0.33953700 </v>
    <v>       0.73746700       0.16855700       0.49871800 </v>
    <v>       0.76275100       0.83037900       0.83856100 </v>
    <v>       0.75613400       0.83640900       0.16577400 </v>
    <v>       0.49591900       0.33808200       0.00020800 </v>
    <v>       0.00588100       0.66669200       0.35184500 </v>
    <v>       0.23746500       0.83991100       0.84365800 </v>
    <v>       0.75484600       0.50130300       0.17867700 </v>
    <v>       0.00043600       0.33012600       0.99370300 </v>
    <v>       0.49072800       0.65140000       0.99347800 </v>
    <v>       0.24928500       0.16476700       0.17621000 </v>
   </varray>
  </structure>
  <varray name="forces" >
   <v>       0.02136973      -0.01648622       0.01007227 </v>
   <v>      -0.04416977      -0.01880073      -0.13579828 </v>
   <v>      -0.00196765       0.00918404       0.00930962 </v>
   <v>       0.01193050       0.00714604       0.01131394 </v>
   <v>      -0.00650061       0.01813366      -0.00842065 </v>
   <v>      -0.06932643      -0.12043913       0.00611354 </v>
   <v>      -0.01448095       0.01358515      -0.00293907 </v>
   <v>       0.00298926       0.02141895      -0.02219545 </v>
   <v>       0.41058921       0.22448095       0.27141465 </v>
   <v>      -0.00691957       0.02849302      -0.01966869 </v>
   <v>      -0.00140781       0.12561399      -0.00998462 </v>
   <v>      -0.01407490       0.05293904       0.02578966 </v>
   <v>       0.01507431      -0.01637205      -0.02162375 </v>
   <v>       0.01365120       0.02803312      -0.02396658 </v>
   <v>      -0.29048086      -0.27476604      -0.25154485 </v>
   <v>       0.02786918       0.03487957       0.03153261 </v>
   <v>       0.05534893      -0.02259801       0.03806963 </v>
   <v>      -0.03369553      -0.02246529       0.02454782 </v>
   <v>       0.32097777       0.34306528      -0.31517372 </v>
   <v>      -0.39087568       0.19314652       0.30490926 </v>
   <v>       0.01959108      -0.00105494       0.00200324 </v>
   <v>      -0.02257854      -0.02590169      -0.00949780 </v>
   <v>       0.44095786      -0.33288738       0.20367382 </v>
   <v>       0.00715215       0.01363295       0.01520406 </v>
   <v>      -0.00123787       0.01440595       0.00251045 </v>
   <v>      -0.01080644       0.01215381       0.01641101 </v>
   <v>      -0.37981764      -0.22407030       0.24947103 </v>
   <v>       0.01858108       0.01810917      -0.00715021 </v>
   <v>      -0.00542038      -0.04616195      -0.00115232 </v>
   <v>      -0.01538820      -0.00427582      -0.00583491 </v>
   <v>      -0.01385396      -0.07898115      -0.03288669 </v>
   <v>      -0.02097790      -0.01347577      -0.00043023 </v>
   <v>      -0.28041774       0.32910935      -0.21973869 </v>
   <v>       0.00864003      -0.00026891       0.02954385 </v>
   <v>      -0.01665160      -0.00043207       0.02789739 </v>
   <v>       0.26632774      -0.26809313      -0.19178132 </v>
  </varray>
  <varray name="stress" >
   <v>       9.70694118      -0.46102078      -0.25488002 </v>
   <v>      -0.46102075       6.89024033      -0.54238763 </v>
   <v>      -0.25488003      -0.54238767       7.30439931 </v>
  </varray>
  <energy>
   <i name="e_fr_energy">   -366.88573893 </i>
   <i name="e_wo_entrp">   -366.88864182 </i>
   <i name="e_0_energy">      0.00870867 </i>
  </energy>
  <time name="totalsc">   23.52   24.75</time>
 </calculation>
 <calculation>
  <scstep>
   <time name="dav">    1.11    1.11</time>
   <time name="total">    1.29    1.40</time>
   <energy>
    <i name="alphaZ">   1671.36864013 </i>
    <i name="ewald"> -21413.47921773 </i>
    <i name="hartreedc">  -6848.54001130 </i>
    <i name="XCdc">   -159.69581133 </i>
    <i name="pawpsdc">  36534.47743309 </i>
    <i name="pawaedc"> -34928.33043801 </i>
    <i name="eentropy">      0.00896690 </i>
    <i name="bandstr">  -2799.49354594 </i>
    <i name="atom">  27576.72066277 </i>
    <i name="e_fr_energy">   -366.96332142 </i>
    <i name="e_wo_entrp">   -366.97228832 </i>
    <i name="e_0_energy">   -366.96631039 </i>
   </energy>
  </scstep>
  <scstep>
   <time name="diag">    0.08    0.08</time>
   <time name="diis">    0.80    0.80</time>
   <time name="orth">    0.01    0.01</time>
   <time name="total">    0.97    0.99</time>
   <energy>
    <i name="e_fr_energy">   -366.94562087 </i>
    <i name="e_wo_entrp">   -366.95420263 </i>
    <i name="e_0_energy">   -366.94848146 </i>
   </energy>
  </scstep>
  <scstep>
   <time name="diag">    0.08    0.08</time>
   <time name="diis">    0.84    0.84</time>
   <time name="orth">    0.03    0.03</time>
   <time name="total">    1.02    1.04</time>
   <energy>
    <i name="e_fr_energy">   -366.93395206 </i>
    <i name="e_wo_entrp">   -366.94409568 </i>
    <i name="e_0_energy">   -366.93733327 </i>
   </energy>
  </scstep>
  <scstep>
   <time name="diag">    0.08    0.08</time>
   <time name="diis">    0.92    0.93</time>
   <time name="orth">    0.03    0.03</time>
   <time name="total">    1.14    1.17</time>
   <energy>
    <i name="e_fr_energy">   -366.92707043 </i>
    <i name="e_wo_entrp">   -366.93622032 </i>
    <i name="e_0_energy">   -366.93012039 </i>
   </energy>
  </scstep>
  <scstep>
   <time name="diag">    0.14    0.14</time>
   <time name="diis">    0.90    0.91</time>
   <time name="orth">    0.02    0.02</time>
   <time name="total">    1.21    1.25</time>
   <energy>
    <i name="e_fr_energy">   -366.92568254 </i>
    <i name="e_wo_entrp">   -366.93520168 </i>
    <i name="e_0_energy">   -366.92885559 </i>
   </energy>
  </scstep>
  <scstep>
   <time name="diag">    0.08    0.08</time>
   <time name="diis">    0.85    0.86</time>
   <time name="orth">    0.01    0.01</time>
   <time name="total">    1.01    1.04</time>
   <energy>
    <i name="e_fr_energy">   -366.92575455 </i>
    <i name="e_wo_entrp">   -366.93515168 </i>
    <i name="e_0_energy">   -366.92888693 </i>
   </energy>
  </scstep>
  <scstep>
   <time name="diag">    0.08    0.08</time>
   <time name="diis">    0.83    0.83</time>
   <time name="orth">    0.01    0.01</time>
   <time name="total">    0.99    1.01</time>
   <energy>
    <i name="e_fr_energy">   -366.92573113 </i>
    <i name="e_wo_entrp">   -366.93523469 </i>
    <i name="e_0_energy">   -366.92889899 </i>
   </energy>
  </scstep>
  <scstep>
   <time name="diag">    0.08    0.08</time>
   <time name="diis">    0.76    0.76</time>
   <time name="orth">    0.01    0.01</time>
   <time name="total">    0.92    0.94</time>
   <energy>
    <i name="e_fr_energy">   -366.92575955 </i>
    <i name="e_wo_entrp">   -366.93516536 </i>
    <i name="e_0_energy">   -366.92889482 </i>
   </energy>
  </scstep>
  <scstep>
   <time name="diag">    0.08    0.08</time>
   <time name="diis">    0.73    0.73</time>
   <time name="orth">    0.01    0.01</time>
   <time name="total">    0.89    0.91</time>
   <energy>
    <i name="e_fr_energy">   -366.92578187 </i>
    <i name="e_wo_entrp">   -366.93522593 </i>
    <i name="e_0_energy">   -366.92892989 </i>
   </energy>
  </scstep>
  <scstep>
   <time name="diag">    0.12    0.12</time>
   <time name="diis">    0.57    0.58</time>
   <time name="orth">    0.01    0.02</time>
   <time name="total">    0.78    0.80</time>
   <energy>
    <i name="e_fr_energy">   -366.92579622 </i>
    <i name="e_wo_entrp">   -366.93523010 </i>
    <i name="e_0_energy">   -366.92894085 </i>
   </energy>
  </scstep>
  <scstep>
   <time name="diag">    0.08    0.08</time>
   <time name="diis">    0.51    0.51</time>
   <time name="orth">    0.01    0.01</time>
   <time name="total">    0.63    0.66</time>
   <energy>
    <i name="alphaZ">   1671.36864013 </i>
    <i name="ewald"> -21413.47921773 </i>
    <i name="hartreedc">  -6867.33848047 </i>
    <i name="XCdc">   -158.87093859 </i>
    <i name="pawpsdc">  36333.51079420 </i>
    <i name="pawaedc"> -34727.62087592 </i>
    <i name="eentropy">      0.00944675 </i>
    <i name="bandstr">  -2781.22582566 </i>
    <i name="atom">  27576.72066277 </i>
    <i name="e_fr_energy">   -366.92579453 </i>
    <i name="e_wo_entrp">   -366.93524128 </i>
    <i name="e_0_energy">   -366.92894345 </i>
   </energy>
  </scstep>
  <structure>
   <crystal>
    <varray name="basis" >
     <v>       6.84299849      -0.00328737      -0.00391100 </v>
     <v>      -0.00376977      10.19519340       0.01444567 </v>
     <v>      -0.00566102       0.01414835      10.21461488 </v>
    </varray>
    <i name="volume">    712.62793545 </i>
    <varray name="rec_basis" >
     <v>       0.14613484       0.00005392       0.00008091 </v>
     <v>       0.00004704       0.09808565      -0.00013583 </v>
     <v>       0.00005589      -0.00013869       0.09789917 </v>
    </varray>
   </crystal>
   <varray name="positions" >
    <v>       0.24732228       0.83647756       0.16663634 </v>
    <v>       0.00928926       0.32970054       0.66402535 </v>
    <v>       0.72137985       0.16315103       0.81934319 </v>
    <v>       0.49635129       0.67063814       0.66023104 </v>
    <v>       0.00815823       0.00739479       0.65418501 </v>
    <v>       0.00151906       0.33374377       0.34694988 </v>
    <v>       0.01262433       0.64605531       0.99504479 </v>
    <v>       0.49671532       0.66302649       0.34576547 </v>
    <v>       0.25680232       0.49318372       0.49923689 </v>
    <v>       0.50791334       0.00290354       0.33563603 </v>
    <v>       0.99441408       0.00063756       0.34366456 </v>
    <v>       0.00075724       0.65978918       0.65906846 </v>
    <v>       0.23750490       0.50597578       0.82642637 </v>
    <v>       0.48749691       0.33991990       0.66223195 </v>
    <v>       0.74781214       0.16225984       0.17654150 </v>
    <v>       0.50935110       0.00848052       0.00671668 </v>
    <v>       0.26276629       0.84271983       0.48781410 </v>
    <v>       0.74050862       0.84159400       0.49365385 </v>
    <v>       0.24794690       0.49886545       0.17789936 </v>
    <v>       0.74275332       0.49039666       0.50463887 </v>
    <v>       0.99019851       0.02672351       0.99845786 </v>
    <v>       0.75795614       0.50388619       0.81805056 </v>
    <v>       0.26518725       0.16651868       0.49254700 </v>
    <v>       0.27430718       0.15373735       0.83070455 </v>
    <v>       0.49290639       0.99044647       0.65435253 </v>
    <v>       0.50007313       0.33457023       0.33956025 </v>
    <v>       0.73666244       0.16823779       0.49907213 </v>
    <v>       0.76279037       0.83040476       0.83855083 </v>
    <v>       0.75612249       0.83634339       0.16577246 </v>
    <v>       0.49588639       0.33807593       0.00019972 </v>
    <v>       0.00585157       0.66657980       0.35179850 </v>
    <v>       0.23742055       0.83989184       0.84365740 </v>
    <v>       0.75425186       0.50177107       0.17836434 </v>
    <v>       0.00045434       0.33012556       0.99374492 </v>
    <v>       0.49069275       0.65139932       0.99351757 </v>
    <v>       0.24984888       0.16438651       0.17593869 </v>
   </varray>
  </structure>
  <varray name="forces" >
   <v>       0.01277356      -0.01419042       0.02098594 </v>
   <v>      -0.03517688      -0.01287948      -0.13393251 </v>
   <v>      -0.00564529       0.01039228       0.01058226 </v>
   <v>       0.01351248       0.01716582       0.02275958 </v>
   <v>      -0.00248918       0.02305002      -0.01582789 </v>
   <v>      -0.05612922      -0.10369005       0.01511367 </v>
   <v>      -0.00215962       0.00390852      -0.01303409 </v>
   <v>      -0.00439902       0.02321720      -0.00942115 </v>
   <v>       0.35860676       0.18084348       0.22813033 </v>
   <v>       0.00188073       0.01263580      -0.00635664 </v>
   <v>      -0.00486456       0.10940031       0.00760354 </v>
   <v>      -0.01630580       0.04228895       0.02383594 </v>
   <v>      -0.00587021      -0.01535934      -0.02051305 </v>
   <v>       0.01012839       0.02344218      -0.01177456 </v>
   <v>      -0.25398120      -0.24600085      -0.22022489 </v>
   <v>       0.02738905       0.03113640       0.01599053 </v>
   <v>       0.05037345      -0.01048429       0.02010784 </v>
   <v>      -0.03208366      -0.00957585       0.00733978 </v>
   <v>       0.28395096       0.30836495      -0.26355852 </v>
   <v>      -0.33780270       0.16182800       0.26913485 </v>
   <v>       0.01351248       0.00974480      -0.00443295 </v>
   <v>      -0.00391012      -0.03057283      -0.01865242 </v>
   <v>       0.39878376      -0.28270781       0.16621459 </v>
   <v>       0.00884707       0.00666241       0.01476661 </v>
   <v>      -0.00655514      -0.00031391       0.00343975 </v>
   <v>      -0.01056225       0.01126285       0.01731393 </v>
   <v>      -0.35260068      -0.20171961       0.21826365 </v>
   <v>       0.03041464       0.01842531      -0.00456171 </v>
   <v>       0.00057638      -0.03459682       0.00974855 </v>
   <v>      -0.01982370      -0.00526106      -0.01640229 </v>
   <v>      -0.00271592      -0.08218712      -0.01406639 </v>
   <v>      -0.02856187      -0.00467191      -0.00020698 </v>
   <v>      -0.25630218       0.30457857      -0.18687623 </v>
   <v>       0.01328466       0.00162768       0.02763606 </v>
   <v>      -0.02315233       0.00261242       0.00501674 </v>
   <v>       0.23705716      -0.24837660      -0.16414186 </v>
  </varray>
  <varray name="stress" >
   <v>       3.52428836      -0.40320110      -0.24104492 </v>
   <v>      -0.40320103       0.77841990      -0.43467979 </v>
   <v>      -0.24104496      -0.43467979       1.24797716 </v>
  </varray>
  <energy>
   <i name="e_fr_energy">   -366.92579453 </i>
   <i name="e_wo_entrp">   -366.92894345 </i>
   <i name="e_0_energy">      0.00944675 </i>
  </energy>
  <time name="totalsc">   12.50   12.96</time>
 </calculation>
 <calculation>
  <scstep>
   <time name="dav">    1.19    1.20</time>
   <time name="total">    1.38    1.49</time>
   <energy>
    <i name="alphaZ">   1656.53127558 </i>
    <i name="ewald"> -21345.09671413 </i>
    <i name="hartreedc">  -6851.51441122 </i>
    <i name="XCdc">   -161.64838697 </i>
    <i name="pawpsdc">  36333.78104883 </i>
    <i name="pawaedc"> -34727.93700506 </i>
    <i name="eentropy">      0.00984505 </i>
    <i name="bandstr">  -2847.97434693 </i>
    <i name="atom">  27576.72066277 </i>
    <i name="e_fr_energy">   -367.12803209 </i>
    <i name="e_wo_entrp">   -367.13787714 </i>
    <i name="e_0_energy">   -367.13131377 </i>
   </energy>
  </scstep>
  <scstep>
   <time name="diag">    0.17    0.17</time>
   <time name="diis">    0.83    0.83</time>
   <time name="orth">    0.01    0.01</time>
   <time name="total">    1.09    1.11</time>
   <energy>
    <i name="e_fr_energy">   -367.04994650 </i>
    <i name="e_wo_entrp">   -367.05873431 </i>
    <i name="e_0_energy">   -367.05287577 </i>
   </energy>
  </scstep>
  <scstep>
   <time name="diag">    0.09    0.09</time>
   <time name="diis">    0.84    0.85</time>
   <time name="orth">    0.01    0.01</time>
   <time name="total">    1.03    1.08</time>
   <energy>
    <i name="e_fr_energy">   -366.99440768 </i>
    <i name="e_wo_entrp">   -367.00690888 </i>
    <i name="e_0_energy">   -366.99857475 </i>
   </energy>
  </scstep>
  <scstep>
   <time name="diag">    0.08    0.08</time>
   <time name="diis">    0.85    0.85</time>
   <time name="orth">    0.01    0.01</time>
   <time name="total">    1.09    1.12</time>
   <energy>
    <i name="e_fr_energy">   -366.96557860 </i>
    <i name="e_wo_entrp">   -366.97578809 </i>
    <i name="e_0_energy">   -366.96898177 </i>
   </energy>
  </scstep>
  <scstep>
   <time name="diag">    0.09    0.10</time>
   <time name="diis">    0.85    0.88</time>
   <time name="orth">    0.01    0.01</time>
   <time name="total">    1.02    1.10</time>
   <energy>
    <i name="e_fr_energy">   -366.95910022 </i>
    <i name="e_wo_entrp">   -366.97025610 </i>
    <i name="e_0_energy">   -366.96281885 </i>
   </energy>
  </scstep>
  <scstep>
   <time name="diag">    0.10    0.10</time>
   <time name="diis">    0.86    0.87</time>
   <time name="orth">    0.01    0.01</time>
   <time name="total">    1.06    1.10</time>
   <energy>
    <i name="e_fr_energy">   -366.95949452 </i>
    <i name="e_wo_entrp">   -366.97034681 </i>
    <i name="e_0_energy">   -366.96311195 </i>
   </energy>
  </scstep>
  <scstep>
   <time name="diag">    0.09    0.09</time>
   <time name="diis">    0.86    0.87</time>
   <time name="orth">    0.01    0.01</time>
   <time name="total">    1.05    1.10</time>
   <energy>
    <i name="e_fr_energy">   -366.95954823 </i>
    <i name="e_wo_entrp">   -366.97061599 </i>
    <i name="e_0_energy">   -366.96323749 </i>
   </energy>
  </scstep>
  <scstep>
   <time name="diag">    0.08    0.08</time>
   <time name="diis">    0.90    0.91</time>
   <time name="orth">    0.02    0.02</time>
   <time name="total">    1.07    1.10</time>
   <energy>
    <i name="e_fr_energy">   -366.95973569 </i>
    <i name="e_wo_entrp">   -366.97062707 </i>
    <i name="e_0_energy">   -366.96336615 </i>
   </energy>
  </scstep>
  <scstep>
   <time name="diag">    0.08    0.11</time>
   <time name="diis">    0.81    0.82</time>
   <time name="orth">    0.02    0.02</time>
   <time name="total">    0.97    1.05</time>
   <energy>
    <i name="e_fr_energy">   -366.95986836 </i>
    <i name="e_wo_entrp">   -366.97082546 </i>
    <i name="e_0_energy">   -366.96352073 </i>
   </energy>
  </scstep>
  <scstep>
   <time name="diag">    0.08    0.08</time>
   <time name="diis">    0.85    0.86</time>
   <time name="orth">    0.01    0.01</time>
   <time name="total">    1.02    1.05</time>
   <energy>
    <i name="e_fr_energy">   -366.95998086 </i>
    <i name="e_wo_entrp">   -366.97091760 </i>
    <i name="e_0_energy">   -366.96362644 </i>
   </energy>
  </scstep>
  <scstep>
   <time name="diag">    0.08    0.08</time>
   <time name="diis">    0.77    0.78</time>
   <time name="orth">    0.02    0.02</time>
   <time name="total">    0.97    1.00</time>
   <energy>
    <i name="e_fr_energy">   -366.96000949 </i>
    <i name="e_wo_entrp">   -366.97097263 </i>
    <i name="e_0_energy">   -366.96366387 </i>
   </energy>
  </scstep>
  <scstep>
   <time name="diag">    0.08    0.10</time>
   <time name="diis">    0.65    0.66</time>
   <time name="orth">    0.01    0.01</time>
   <time name="total">    0.81    0.89</time>
   <energy>
    <i name="e_fr_energy">   -366.96000845 </i>
    <i name="e_wo_entrp">   -366.97097058 </i>
    <i name="e_0_energy">   -366.96366249 </i>
   </energy>
  </scstep>
  <scstep>
   <time name="diag">    0.08    0.08</time>
   <time name="diis">    0.49    0.50</time>
   <time name="orth">    0.01    0.01</time>
   <time name="total">    0.63    0.65</time>
   <energy>
    <i name="alphaZ">   1656.53127558 </i>
    <i name="ewald"> -21345.09671413 </i>
    <i name="hartreedc">  -6890.66889415 </i>
    <i name="XCdc">   -159.93086988 </i>
    <i name="pawpsdc">  35921.98915517 </i>
    <i name="pawaedc"> -34316.96955041 </i>
    <i name="eentropy">      0.01095595 </i>
    <i name="bandstr">  -2809.54602867 </i>
    <i name="atom">  27576.72066277 </i>
    <i name="e_fr_energy">   -366.96000777 </i>
    <i name="e_wo_entrp">   -366.97096372 </i>
    <i name="e_0_energy">   -366.96365976 </i>
   </energy>
  </scstep>
  <structure>
   <crystal>
    <varray name="basis" >
     <v>       6.86781182      -0.00447210      -0.00457180 </v>
     <v>      -0.00553848      10.22144441       0.01242142 </v>
     <v>      -0.00665540       0.01211779      10.24249497 </v>
    </varray>
    <i name="volume">    719.01086381 </i>
    <varray name="rec_basis" >
     <v>       0.14560690       0.00007878       0.00009452 </v>
     <v>       0.00006363       0.09783371      -0.00011570 </v>
     <v>       0.00006492      -0.00011861       0.09763264 </v>
    </varray>
   </crystal>
   <varray name="positions" >
    <v>       0.24741726       0.83642836       0.16666644 </v>
    <v>       0.00909258       0.32964495       0.66362100 </v>
    <v>       0.72137114       0.16317839       0.81937086 </v>
    <v>       0.49640436       0.67065943       0.66026472 </v>
    <v>       0.00812935       0.00744891       0.65415985 </v>
    <v>       0.00121074       0.33338434       0.34696847 </v>
    <v>       0.01255998       0.64609583       0.99503596 </v>
    <v>       0.49672859       0.66309049       0.34569929 </v>
    <v>       0.25862830       0.49385288       0.50004480 </v>
    <v>       0.50788258       0.00298861       0.33557733 </v>
    <v>       0.99440801       0.00101234       0.34363430 </v>
    <v>       0.00069483       0.65994699       0.65914501 </v>
    <v>       0.23757182       0.50592705       0.82636208 </v>
    <v>       0.48755758       0.34000365       0.66216049 </v>
    <v>       0.74651997       0.16144075       0.17579316 </v>
    <v>       0.50947510       0.00858449       0.00681047 </v>
    <v>       0.26301236       0.84265234       0.48792765 </v>
    <v>       0.74035888       0.84152683       0.49372698 </v>
    <v>       0.24937334       0.49989067       0.17695999 </v>
    <v>       0.74101706       0.49097105       0.50554530 </v>
    <v>       0.99028559       0.02672038       0.99846386 </v>
    <v>       0.75785572       0.50380893       0.81802235 </v>
    <v>       0.26714713       0.16552537       0.49315561 </v>
    <v>       0.27433903       0.15377797       0.83074977 </v>
    <v>       0.49290092       0.99048943       0.65435994 </v>
    <v>       0.50002516       0.33460641       0.33960904 </v>
    <v>       0.73497451       0.16756775       0.49981525 </v>
    <v>       0.76287297       0.83045885       0.83852950 </v>
    <v>       0.75609832       0.83620567       0.16576921 </v>
    <v>       0.49581797       0.33806317       0.00018234 </v>
    <v>       0.00578978       0.66634430       0.35170089 </v>
    <v>       0.23732728       0.83985161       0.84365614 </v>
    <v>       0.75300549       0.50275341       0.17770818 </v>
    <v>       0.00049281       0.33012465       0.99383291 </v>
    <v>       0.49061881       0.65139789       0.99360061 </v>
    <v>       0.25103172       0.16358788       0.17536922 </v>
   </varray>
  </structure>
  <varray name="forces" >
   <v>      -0.00513786      -0.00981312       0.04307690 </v>
   <v>      -0.01796168       0.00136665      -0.12754955 </v>
   <v>      -0.01243205       0.01394844       0.01395133 </v>
   <v>       0.01546082       0.03798899       0.04775975 </v>
   <v>       0.00673772       0.03350396      -0.03006342 </v>
   <v>      -0.03006018      -0.07353638       0.03228189 </v>
   <v>       0.02343222      -0.01632467      -0.03451130 </v>
   <v>      -0.02106312       0.02643223       0.01627202 </v>
   <v>       0.25986401       0.09513098       0.14473300 </v>
   <v>       0.01859604      -0.01828268       0.01996165 </v>
   <v>      -0.01063944       0.07947271       0.03895714 </v>
   <v>      -0.02053808       0.01769914       0.02070954 </v>
   <v>      -0.04979196      -0.01372118      -0.01720239 </v>
   <v>       0.00314571       0.01580524       0.01126228 </v>
   <v>      -0.18136440      -0.18928727      -0.15662761 </v>
   <v>       0.02401332       0.02277506      -0.01733343 </v>
   <v>       0.04056785       0.01393758      -0.01781751 </v>
   <v>      -0.03005961       0.01534686      -0.02828142 </v>
   <v>       0.21062152       0.24017876      -0.15998123 </v>
   <v>      -0.22973757       0.09786381       0.19837715 </v>
   <v>       0.00198168       0.03050741      -0.01726825 </v>
   <v>       0.03414060      -0.04070698      -0.03828258 </v>
   <v>       0.31347855      -0.18239670       0.09109248 </v>
   <v>       0.01123184      -0.00744910       0.01518134 </v>
   <v>      -0.01737414      -0.02906865       0.00751747 </v>
   <v>      -0.01076953       0.01027832       0.01821170 </v>
   <v>      -0.29663621      -0.15641013       0.15573141 </v>
   <v>       0.05435395       0.01837992       0.00060481 </v>
   <v>       0.01345908      -0.01101193       0.03416748 </v>
   <v>      -0.02928611      -0.00692335      -0.03689178 </v>
   <v>       0.02008251      -0.08914414       0.02287100 </v>
   <v>      -0.04374825       0.01250284      -0.00038695 </v>
   <v>      -0.20753969       0.25480551      -0.12133472 </v>
   <v>       0.02342801       0.00522512       0.02302621 </v>
   <v>      -0.03640717       0.00963946      -0.04483002 </v>
   <v>       0.17595163      -0.20871275      -0.10738441 </v>
  </varray>
  <varray name="stress" >
   <v>      -9.29802685      -0.26508184      -0.21363371 </v>
   <v>      -0.26508176     -11.86095297      -0.20013791 </v>
   <v>      -0.21363373      -0.20013794     -11.23727071 </v>
  </varray>
  <energy>
   <i name="e_fr_energy">   -366.96000777 </i>
   <i name="e_wo_entrp">   -366.96365976 </i>
   <i name="e_0_energy">      0.01095595 </i>
  </energy>
  <time name="totalsc">   14.84   15.57</time>
 </calculation>
 <calculation>
  <scstep>
   <time name="dav">    0.99    0.99</time>
   <time name="total">    1.15    1.28</time>
   <energy>
    <i name="alphaZ">   1659.36329026 </i>
    <i name="ewald"> -21354.41833562 </i>
    <i name="hartreedc">  -6897.19458780 </i>
    <i name="XCdc">   -159.37635107 </i>
    <i name="pawpsdc">  35921.50745468 </i>
    <i name="pawaedc"> -34316.52403359 </i>
    <i name="eentropy">      0.01084324 </i>
    <i name="bandstr">  -2797.08096542 </i>
    <i name="atom">  27576.72066277 </i>
    <i name="e_fr_energy">   -366.99202256 </i>
    <i name="e_wo_entrp">   -367.00286580 </i>
    <i name="e_0_energy">   -366.99563698 </i>
   </energy>
  </scstep>
  <scstep>
   <time name="diag">    0.10    0.10</time>
   <time name="diis">    0.80    0.80</time>
   <time name="orth">    0.01    0.01</time>
   <time name="total">    0.97    1.01</time>
   <energy>
    <i name="e_fr_energy">   -366.99755802 </i>
    <i name="e_wo_entrp">   -367.00908308 </i>
    <i name="e_0_energy">   -367.00139970 </i>
   </energy>
  </scstep>
  <scstep>
   <time name="diag">    0.08    0.08</time>
   <time name="diis">    0.81    0.82</time>
   <time name="orth">    0.01    0.01</time>
   <time name="total">    0.97    1.00</time>
   <energy>
    <i name="e_fr_energy">   -366.99365835 </i>
    <i name="e_wo_entrp">   -367.00432955 </i>
    <i name="e_0_energy">   -366.99721542 </i>
   </energy>
  </scstep>
  <scstep>
   <time name="diag">    0.08    0.08</time>
   <time name="diis">    0.83    0.84</time>
   <time name="orth">    0.01    0.01</time>
   <time name="total">    0.99    1.02</time>
   <energy>
    <i name="e_fr_energy">   -366.99239360 </i>
    <i name="e_wo_entrp">   -367.00348637 </i>
    <i name="e_0_energy">   -366.99609119 </i>
   </energy>
  </scstep>
  <scstep>
   <time name="diag">    0.08    0.08</time>
   <time name="diis">    0.94    0.95</time>
   <time name="orth">    0.01    0.01</time>
   <time name="total">    1.10    1.13</time>
   <energy>
    <i name="e_fr_energy">   -366.99208875 </i>
    <i name="e_wo_entrp">   -367.00305712 </i>
    <i name="e_0_energy">   -366.99574487 </i>
   </energy>
  </scstep>
  <scstep>
   <time name="diag">    0.08    0.08</time>
   <time name="diis">    0.93    0.94</time>
   <time name="orth">    0.01    0.01</time>
   <time name="total">    1.09    1.12</time>
   <energy>
    <i name="e_fr_energy">   -366.99208369 </i>
    <i name="e_wo_entrp">   -367.00307003 </i>
    <i name="e_0_energy">   -366.99574580 </i>
   </energy>
  </scstep>
  <scstep>
   <time name="diag">    0.08    0.11</time>
   <time name="diis">    0.78    0.81</time>
   <time name="orth">    0.01    0.01</time>
   <time name="total">    0.94    1.04</time>
   <energy>
    <i name="e_fr_energy">   -366.99210039 </i>
    <i name="e_wo_entrp">   -367.00309974 </i>
    <i name="e_0_energy">   -366.99576684 </i>
   </energy>
  </scstep>
  <scstep>
   <time name="diag">    0.08    0.08</time>
   <time name="diis">    0.67    0.67</time>
   <time name="orth">    0.01    0.01</time>
   <time name="total">    0.83    0.86</time>
   <energy>
    <i name="e_fr_energy">   -366.99212444 </i>
    <i name="e_wo_entrp">   -367.00313728 </i>
    <i name="e_0_energy">   -366.99579539 </i>
   </energy>
  </scstep>
  <scstep>
   <time name="diag">    0.08    0.08</time>
   <time name="diis">    0.49    0.49</time>
   <time name="orth">    0.01    0.01</time>
   <time name="total">    0.65    0.68</time>
   <energy>
    <i name="e_fr_energy">   -366.99213566 </i>
    <i name="e_wo_entrp">   -367.00312141 </i>
    <i name="e_0_energy">   -366.99579758 </i>
   </energy>
  </scstep>
  <scstep>
   <time name="diag">    0.08    0.08</time>
   <time name="diis">    0.46    0.46</time>
   <time name="orth">    0.01    0.01</time>
   <time name="total">    0.58    0.61</time>
   <energy>
    <i name="alphaZ">   1659.36329026 </i>
    <i name="ewald"> -21354.41833562 </i>
    <i name="hartreedc">  -6890.05704766 </i>
    <i name="XCdc">   -159.68995330 </i>
    <i name="pawpsdc">  36001.95616072 </i>
    <i name="pawaedc"> -34397.00142742 </i>
    <i name="eentropy">      0.01100634 </i>
    <i name="bandstr">  -2803.87649832 </i>
    <i name="atom">  27576.72066277 </i>
    <i name="e_fr_energy">   -366.99214224 </i>
    <i name="e_wo_entrp">   -367.00314857 </i>
    <i name="e_0_energy">   -366.99581101 </i>
   </energy>
  </scstep>
  <structure>
   <crystal>
    <varray name="basis" >
     <v>       6.86702132      -0.00515743      -0.00501838 </v>
     <v>      -0.00656513      10.21254977       0.01137632 </v>
     <v>      -0.00732747       0.01106928      10.23509769 </v>
    </varray>
    <i name="volume">    717.78373691 </i>
    <varray name="rec_basis" >
     <v>       0.14562369       0.00009350       0.00010415 </v>
     <v>       0.00007346       0.09791890      -0.00010585 </v>
     <v>       0.00007132      -0.00010879       0.09770319 </v>
    </varray>
   </crystal>
   <varray name="positions" >
    <v>       0.24744160       0.83639950       0.16672756 </v>
    <v>       0.00899201       0.32962717       0.66332939 </v>
    <v>       0.72134636       0.16320437       0.81939692 </v>
    <v>       0.49645012       0.67071153       0.66033255 </v>
    <v>       0.00813101       0.00750735       0.65411570 </v>
    <v>       0.00104996       0.33317163       0.34701293 </v>
    <v>       0.01257838       0.64609091       0.99499240 </v>
    <v>       0.49669642       0.66314399       0.34569512 </v>
    <v>       0.25972368       0.49419973       0.50049833 </v>
    <v>       0.50790435       0.00299695       0.33558021 </v>
    <v>       0.99438741       0.00123727       0.34366931 </v>
    <v>       0.00063706       0.66002314       0.65919614 </v>
    <v>       0.23750810       0.50589380       0.82631930 </v>
    <v>       0.48758438       0.34005162       0.66214862 </v>
    <v>       0.74574902       0.16093065       0.17534679 </v>
    <v>       0.50956063       0.00864782       0.00682304 </v>
    <v>       0.26316963       0.84264511       0.48794659 </v>
    <v>       0.74025375       0.84152132       0.49371940 </v>
    <v>       0.25024219       0.50053332       0.17644253 </v>
    <v>       0.74000664       0.49128728       0.50609587 </v>
    <v>       0.99031960       0.02675519       0.99844566 </v>
    <v>       0.75788018       0.50373401       0.81796760 </v>
    <v>       0.26838281       0.16496249       0.49347657 </v>
    <v>       0.27436987       0.15378345       0.83078348 </v>
    <v>       0.49286857       0.99047030       0.65437140 </v>
    <v>       0.49998953       0.33463116       0.33964752 </v>
    <v>       0.73386352       0.16714818       0.50025870 </v>
    <v>       0.76299709       0.83049948       0.83852274 </v>
    <v>       0.75611342       0.83614435       0.16580819 </v>
    <v>       0.49574267       0.33805058       0.00013293 </v>
    <v>       0.00580318       0.66615678       0.35169360 </v>
    <v>       0.23721802       0.83985215       0.84365519 </v>
    <v>       0.75220541       0.50339774       0.17733504 </v>
    <v>       0.00054734       0.33013047       0.99389082 </v>
    <v>       0.49052912       0.65140876       0.99357709 </v>
    <v>       0.25175397       0.16306243       0.17504377 </v>
   </varray>
  </structure>
  <varray name="forces" >
   <v>      -0.01521621      -0.01584069       0.04959870 </v>
   <v>      -0.01402288       0.00073548      -0.11143814 </v>
   <v>       0.00740670       0.02696355       0.01935665 </v>
   <v>       0.01344409       0.05670364       0.07400120 </v>
   <v>       0.00258844       0.02904661      -0.02000491 </v>
   <v>      -0.02142238      -0.06269703       0.01788051 </v>
   <v>       0.01910459      -0.00334464      -0.03281326 </v>
   <v>      -0.01942820       0.03031065       0.00403700 </v>
   <v>       0.18602356       0.05868473       0.09889193 </v>
   <v>       0.02000689      -0.04162213       0.00652409 </v>
   <v>      -0.00686133       0.06577273       0.02861084 </v>
   <v>      -0.01638003       0.02793544       0.01722461 </v>
   <v>      -0.05577804      -0.02629792      -0.01152359 </v>
   <v>       0.00097605       0.00737175       0.03745209 </v>
   <v>      -0.13195236      -0.13218757      -0.12159687 </v>
   <v>       0.01649991      -0.00670134      -0.03876513 </v>
   <v>       0.01253643       0.01036723      -0.02487469 </v>
   <v>      -0.00784367       0.00898109      -0.03189037 </v>
   <v>       0.16779097       0.20131431      -0.11093859 </v>
   <v>      -0.15783196       0.07144430       0.15677378 </v>
   <v>       0.00279870       0.02020183      -0.01904394 </v>
   <v>       0.03731939      -0.05786312      -0.03356642 </v>
   <v>       0.24483925      -0.12542500       0.06461983 </v>
   <v>      -0.00999100       0.00512295       0.01117192 </v>
   <v>      -0.01056272      -0.04682823       0.03993925 </v>
   <v>      -0.00525593       0.01384982      -0.00645442 </v>
   <v>      -0.24239568      -0.12512264       0.12693975 </v>
   <v>       0.05809961       0.01790297       0.00163813 </v>
   <v>       0.02046952      -0.01341261       0.04188391 </v>
   <v>      -0.02754279      -0.00794429      -0.03880493 </v>
   <v>       0.02448799      -0.09051872       0.02541922 </v>
   <v>      -0.04684320       0.01455040      -0.00255410 </v>
   <v>      -0.17780883       0.22529352      -0.09669002 </v>
   <v>       0.02317031       0.00650832       0.02725539 </v>
   <v>      -0.02706222       0.03316494      -0.06514088 </v>
   <v>       0.13663706      -0.17642031      -0.08311855 </v>
  </varray>
  <varray name="stress" >
   <v>      -6.93616883      -0.18247933      -0.21338029 </v>
   <v>      -0.18247939      -9.29355989      -0.05771264 </v>
   <v>      -0.21338029      -0.05771264      -8.67856776 </v>
  </varray>
  <energy>
   <i name="e_fr_energy">   -366.99214224 </i>
   <i name="e_wo_entrp">   -366.99581101 </i>
   <i name="e_0_energy">      0.01100634 </i>
  </energy>
  <time name="totalsc">   11.00   11.55</time>
 </calculation>
 <calculation>
  <scstep>
   <time name="dav">    0.97    0.98</time>
   <time name="total">    1.14    1.25</time>
   <energy>
    <i name="alphaZ">   1667.90187699 </i>
    <i name="ewald"> -21381.22832222 </i>
    <i name="hartreedc">  -6910.92116331 </i>
    <i name="XCdc">   -158.00982605 </i>
    <i name="pawpsdc">  36002.73709201 </i>
    <i name="pawaedc"> -34397.72150805 </i>
    <i name="eentropy">      0.01060516 </i>
    <i name="bandstr">  -2766.52897095 </i>
    <i name="atom">  27576.72066277 </i>
    <i name="e_fr_energy">   -367.03955366 </i>
    <i name="e_wo_entrp">   -367.05015882 </i>
    <i name="e_0_energy">   -367.04308871 </i>
   </energy>
  </scstep>
  <scstep>
   <time name="diag">    0.08    0.08</time>
   <time name="diis">    0.77    0.78</time>
   <time name="orth">    0.01    0.01</time>
   <time name="total">    0.94    0.96</time>
   <energy>
    <i name="e_fr_energy">   -367.09043595 </i>
    <i name="e_wo_entrp">   -367.10252481 </i>
    <i name="e_0_energy">   -367.09446557 </i>
   </energy>
  </scstep>
  <scstep>
   <time name="diag">    0.08    0.08</time>
   <time name="diis">    0.84    0.86</time>
   <time name="orth">    0.01    0.01</time>
   <time name="total">    1.01    1.05</time>
   <energy>
    <i name="e_fr_energy">   -367.05254033 </i>
    <i name="e_wo_entrp">   -367.06262008 </i>
    <i name="e_0_energy">   -367.05590025 </i>
   </energy>
  </scstep>
  <scstep>
   <time name="diag">    0.09    0.09</time>
   <time name="diis">    0.92    0.92</time>
   <time name="orth">    0.01    0.01</time>
   <time name="total">    1.08    1.11</time>
   <energy>
    <i name="e_fr_energy">   -367.04162451 </i>
    <i name="e_wo_entrp">   -367.05260318 </i>
    <i name="e_0_energy">   -367.04528407 </i>
   </energy>
  </scstep>
  <scstep>
   <time name="diag">    0.16    0.16</time>
   <time name="diis">    0.92    0.93</time>
   <time name="orth">    0.01    0.01</time>
   <time name="total">    1.16    1.20</time>
   <energy>
    <i name="e_fr_energy">   -367.03898542 </i>
    <i name="e_wo_entrp">   -367.04970135 </i>
    <i name="e_0_energy">   -367.04255740 </i>
   </energy>
  </scstep>
  <scstep>
   <time name="diag">    0.09    0.09</time>
   <time name="diis">    0.87    0.88</time>
   <time name="orth">    0.01    0.01</time>
   <time name="total">    1.06    1.11</time>
   <energy>
    <i name="e_fr_energy">   -367.03896316 </i>
    <i name="e_wo_entrp">   -367.04969182 </i>
    <i name="e_0_energy">   -367.04253938 </i>
   </energy>
  </scstep>
  <scstep>
   <time name="diag">    0.09    0.09</time>
   <time name="diis">    0.95    0.97</time>
   <time name="orth">    0.01    0.01</time>
   <time name="total">    1.12    1.17</time>
   <energy>
    <i name="e_fr_energy">   -367.03906467 </i>
    <i name="e_wo_entrp">   -367.04984658 </i>
    <i name="e_0_energy">   -367.04265864 </i>
   </energy>
  </scstep>
  <scstep>
   <time name="diag">    0.08    0.09</time>
   <time name="diis">    0.86    0.94</time>
   <time name="orth">    0.01    0.01</time>
   <time name="total">    1.03    1.14</time>
   <energy>
    <i name="e_fr_energy">   -367.03924106 </i>
    <i name="e_wo_entrp">   -367.05003099 </i>
    <i name="e_0_energy">   -367.04283771 </i>
   </energy>
  </scstep>
  <scstep>
   <time name="diag">    0.09    0.09</time>
   <time name="diis">    0.79    0.80</time>
   <time name="orth">    0.01    0.01</time>
   <time name="total">    0.98    1.01</time>
   <energy>
    <i name="e_fr_energy">   -367.03930390 </i>
    <i name="e_wo_entrp">   -367.05004400 </i>
    <i name="e_0_energy">   -367.04288393 </i>
   </energy>
  </scstep>
  <scstep>
   <time name="diag">    0.09    0.09</time>
   <time name="diis">    0.70    0.70</time>
   <time name="orth">    0.01    0.01</time>
   <time name="total">    0.88    0.92</time>
   <energy>
    <i name="e_fr_energy">   -367.03934826 </i>
    <i name="e_wo_entrp">   -367.05013979 </i>
    <i name="e_0_energy">   -367.04294544 </i>
   </energy>
  </scstep>
  <scstep>
   <time name="diag">    0.08    0.08</time>
   <time name="diis">    0.61    0.61</time>
   <time name="orth">    0.01    0.01</time>
   <time name="total">    0.77    0.80</time>
   <energy>
    <i name="e_fr_energy">   -367.03936899 </i>
    <i name="e_wo_entrp">   -367.05012827 </i>
    <i name="e_0_energy">   -367.04295542 </i>
   </energy>
  </scstep>
  <scstep>
   <time name="diag">    0.09    0.09</time>
   <time name="diis">    0.51    0.52</time>
   <time name="orth">    0.01    0.01</time>
   <time name="total">    0.65    0.68</time>
   <energy>
    <i name="alphaZ">   1667.90187699 </i>
    <i name="ewald"> -21381.22832222 </i>
    <i name="hartreedc">  -6890.18047071 </i>
    <i name="XCdc">   -158.92509877 </i>
    <i name="pawpsdc">  36264.46912254 </i>
    <i name="pawaedc"> -34658.87945854 </i>
    <i name="eentropy">      0.01077302 </i>
    <i name="bandstr">  -2786.92846075 </i>
    <i name="atom">  27576.72066277 </i>
    <i name="e_fr_energy">   -367.03937567 </i>
    <i name="e_wo_entrp">   -367.05014869 </i>
    <i name="e_0_energy">   -367.04296667 </i>
   </energy>
  </scstep>
  <structure>
   <crystal>
    <varray name="basis" >
     <v>       6.86464981      -0.00721342      -0.00635811 </v>
     <v>      -0.00964506      10.18586584       0.00824099 </v>
     <v>      -0.00934368       0.00792375      10.21290585 </v>
    </varray>
    <i name="volume">    714.10914504 </i>
    <varray name="rec_basis" >
     <v>       0.14567412       0.00013783       0.00013317 </v>
     <v>       0.00010309       0.09817542      -0.00007608 </v>
     <v>       0.00009061      -0.00007913       0.09791547 </v>
    </varray>
   </crystal>
   <varray name="positions" >
    <v>       0.24751464       0.83631286       0.16691107 </v>
    <v>       0.00869019       0.32957369       0.66245391 </v>
    <v>       0.72127203       0.16328237       0.81947516 </v>
    <v>       0.49658746       0.67086799       0.66053621 </v>
    <v>       0.00813603       0.00768281       0.65398317 </v>
    <v>       0.00056750       0.33253293       0.34714633 </v>
    <v>       0.01263357       0.64607615       0.99486163 </v>
    <v>       0.49659992       0.66330463       0.34568260 </v>
    <v>       0.26301050       0.49524157       0.50186013 </v>
    <v>       0.50796969       0.00302199       0.33558884 </v>
    <v>       0.99432571       0.00191267       0.34377447 </v>
    <v>       0.00046378       0.66025182       0.65934967 </v>
    <v>       0.23731686       0.50579392       0.82619088 </v>
    <v>       0.48766483       0.34019564       0.66211300 </v>
    <v>       0.74343557       0.15939872       0.17400643 </v>
    <v>       0.50981726       0.00883798       0.00686080 </v>
    <v>       0.26364149       0.84262346       0.48800349 </v>
    <v>       0.73993831       0.84150475       0.49369662 </v>
    <v>       0.25284917       0.50246297       0.17488932 </v>
    <v>       0.73697532       0.49223675       0.50774876 </v>
    <v>       0.99042164       0.02685971       0.99839104 </v>
    <v>       0.75795351       0.50350905       0.81780321 </v>
    <v>       0.27209013       0.16327270       0.49444012 </v>
    <v>       0.27446241       0.15379995       0.83088469 </v>
    <v>       0.49277153       0.99041286       0.65440577 </v>
    <v>       0.49988264       0.33470549       0.33976303 </v>
    <v>       0.73053014       0.16588831       0.50158973 </v>
    <v>       0.76336949       0.83062153       0.83850249 </v>
    <v>       0.75615870       0.83596023       0.16592519 </v>
    <v>       0.49551674       0.33801274      -0.00001543 </v>
    <v>       0.00584331       0.66559374       0.35167167 </v>
    <v>       0.23689019       0.83985377       0.84365231 </v>
    <v>       0.74980509       0.50533216       0.17621490 </v>
    <v>       0.00071097       0.33014797       0.99406468 </v>
    <v>       0.49026003       0.65144138       0.99350648 </v>
    <v>       0.25392063       0.16148475       0.17406663 </v>
   </varray>
  </structure>
  <varray name="forces" >
   <v>      -0.04912277      -0.03414324       0.06944395 </v>
   <v>      -0.00101386       0.00159327      -0.05952080 </v>
   <v>       0.06788218       0.06428801       0.03824344 </v>
   <v>       0.00612150       0.11771511       0.15885318 </v>
   <v>      -0.01001216       0.01408719       0.01265159 </v>
   <v>       0.00328447      -0.03666604      -0.02715740 </v>
   <v>       0.00479632       0.03588594      -0.02681813 </v>
   <v>      -0.01558320       0.04633360      -0.03357424 </v>
   <v>      -0.03669588      -0.04634524      -0.03926259 </v>
   <v>       0.02308198      -0.11704109      -0.03713061 </v>
   <v>       0.00610439       0.02994828      -0.00847524 </v>
   <v>      -0.00492990       0.05744029       0.00663035 </v>
   <v>      -0.07432598      -0.06439419       0.00715963 </v>
   <v>      -0.00668802      -0.01844924       0.12301484 </v>
   <v>       0.02086248       0.04437619      -0.01483695 </v>
   <v>      -0.00954706      -0.10510481      -0.11247159 </v>
   <v>      -0.07458179      -0.00294118      -0.04753728 </v>
   <v>       0.06060447      -0.01341849      -0.04343858 </v>
   <v>       0.03537790       0.08154650       0.03988839 </v>
   <v>       0.06467433      -0.00796900       0.02978101 </v>
   <v>       0.00711034      -0.01593071      -0.02453090 </v>
   <v>       0.04961783      -0.10918582      -0.01720415 </v>
   <v>       0.02573539       0.04902346      -0.01777410 </v>
   <v>      -0.07559042       0.04203739       0.00087427 </v>
   <v>       0.01117890      -0.10553267       0.14859537 </v>
   <v>       0.00983363       0.02502048      -0.08368685 </v>
   <v>      -0.06393367      -0.02494086       0.03522678 </v>
   <v>       0.06633571       0.01633775       0.00441030 </v>
   <v>       0.04321210      -0.02006304       0.06558953 </v>
   <v>      -0.02107604      -0.01050636      -0.04127410 </v>
   <v>       0.03752646      -0.09391126       0.02826213 </v>
   <v>      -0.05367529       0.02202250      -0.01079572 </v>
   <v>      -0.08142779       0.13336541      -0.02292188 </v>
   <v>       0.02234939       0.00939400       0.03988127 </v>
   <v>       0.00398761       0.11041279      -0.13419715 </v>
   <v>       0.00852642      -0.07428493      -0.00589774 </v>
  </varray>
  <varray name="stress" >
   <v>       1.05526698       0.06532676      -0.22156147 </v>
   <v>       0.06532680      -0.75664460       0.35006942 </v>
   <v>      -0.22156148       0.35006940      -0.18267707 </v>
  </varray>
  <energy>
   <i name="e_fr_energy">   -367.03937567 </i>
   <i name="e_wo_entrp">   -367.04296667 </i>
   <i name="e_0_energy">      0.01077302 </i>
  </energy>
  <time name="totalsc">   13.61   14.27</time>
 </calculation>
 <calculation>
  <scstep>
   <time name="dav">    1.15    1.16</time>
   <time name="total">    1.32    1.44</time>
   <energy>
    <i name="alphaZ">   1668.95748779 </i>
    <i name="ewald"> -21384.40765668 </i>
    <i name="hartreedc">  -6892.90093427 </i>
    <i name="XCdc">   -158.71584438 </i>
    <i name="pawpsdc">  36264.86942846 </i>
    <i name="pawaedc"> -34659.25126955 </i>
    <i name="eentropy">      0.01067250 </i>
    <i name="bandstr">  -2782.32243824 </i>
    <i name="atom">  27576.72066277 </i>
    <i name="e_fr_energy">   -367.03989160 </i>
    <i name="e_wo_entrp">   -367.05056410 </i>
    <i name="e_0_energy">   -367.04344910 </i>
   </energy>
  </scstep>
  <scstep>
   <time name="diag">    0.08    0.08</time>
   <time name="diis">    0.77    0.77</time>
   <time name="orth">    0.01    0.01</time>
   <time name="total">    0.93    0.96</time>
   <energy>
    <i name="e_fr_energy">   -367.04064610 </i>
    <i name="e_wo_entrp">   -367.05149096 </i>
    <i name="e_0_energy">   -367.04426105 </i>
   </energy>
  </scstep>
  <scstep>
   <time name="diag">    0.09    0.09</time>
   <time name="diis">    0.81    0.81</time>
   <time name="orth">    0.01    0.01</time>
   <time name="total">    0.98    1.01</time>
   <energy>
    <i name="e_fr_energy">   -367.04012516 </i>
    <i name="e_wo_entrp">   -367.05073119 </i>
    <i name="e_0_energy">   -367.04366050 </i>
   </energy>
  </scstep>
  <scstep>
   <time name="diag">    0.08    0.08</time>
   <time name="diis">    0.83    0.83</time>
   <time name="orth">    0.01    0.01</time>
   <time name="total">    0.99    1.02</time>
   <energy>
    <i name="e_fr_energy">   -367.03996157 </i>
    <i name="e_wo_entrp">   -367.05067942 </i>
    <i name="e_0_energy">   -367.04353419 </i>
   </energy>
  </scstep>
  <scstep>
   <time name="diag">    0.08    0.08</time>
   <time name="diis">    0.80    0.80</time>
   <time name="orth">    0.01    0.01</time>
   <time name="total">    0.96    0.99</time>
   <energy>
    <i name="e_fr_energy">   -367.03992853 </i>
    <i name="e_wo_entrp">   -367.05061810 </i>
    <i name="e_0_energy">   -367.04349172 </i>
   </energy>
  </scstep>
  <scstep>
   <time name="diag">    0.08    0.08</time>
   <time name="diis">    0.69    0.69</time>
   <time name="orth">    0.01    0.01</time>
   <time name="total">    0.85    0.88</time>
   <energy>
    <i name="e_fr_energy">   -367.03993455 </i>
    <i name="e_wo_entrp">   -367.05062316 </i>
    <i name="e_0_energy">   -367.04349742 </i>
   </energy>
  </scstep>
  <scstep>
[...]
       <r>    7.2315    1.0000 </r>
       <r>    7.2964    1.0000 </r>
       <r>    7.3315    1.0000 </r>
       <r>    7.3787    1.0001 </r>
       <r>    7.4059    1.0003 </r>
       <r>    7.4311    1.0007 </r>
       <r>    7.4678    1.0020 </r>
       <r>    7.4944    1.0041 </r>
       <r>    7.5491    1.0133 </r>
       <r>    7.5845    1.0234 </r>
       <r>    7.6127    1.0316 </r>
       <r>    7.6457    1.0352 </r>
       <r>    7.6695    1.0277 </r>
       <r>    7.6972    1.0000 </r>
       <r>    7.7495    0.8663 </r>
       <r>    7.7670    0.7952 </r>
       <r>    7.8043    0.6077 </r>
       <r>    7.8278    0.4760 </r>
       <r>    7.8517    0.3443 </r>
       <r>    7.8956    0.1407 </r>
       <r>    7.9342    0.0275 </r>
       <r>    7.9962   -0.0345 </r>
       <r>    8.0159   -0.0350 </r>
       <r>    8.0574   -0.0250 </r>
       <r>    8.1071   -0.0112 </r>
       <r>    8.1182   -0.0090 </r>
       <r>    8.1682   -0.0027 </r>
       <r>    8.2142   -0.0007 </r>
       <r>    8.2315   -0.0004 </r>
       <r>    8.2869   -0.0001 </r>
       <r>    8.3152   -0.0000 </r>
       <r>    8.3628   -0.0000 </r>
       <r>    8.3957   -0.0000 </r>
       <r>    8.4569   -0.0000 </r>
       <r>    8.4964   -0.0000 </r>
       <r>    8.6536   -0.0000 </r>
       <r>    8.7264   -0.0000 </r>
       <r>    8.9000   -0.0000 </r>
       <r>    8.9955   -0.0000 </r>
       <r>    9.1092   -0.0000 </r>
       <r>    9.6480   -0.0000 </r>
       <r>    9.7390   -0.0000 </r>
       <r>    9.7663   -0.0000 </r>
       <r>    9.8574   -0.0000 </r>
       <r>    9.9201   -0.0000 </r>
       <r>    9.9765   -0.0000 </r>
       <r>   10.0077   -0.0000 </r>
       <r>   10.1317   -0.0000 </r>
       <r>   10.2019   -0.0000 </r>
      </set>
     </set>
    </set>
   </array>
  </eigenvalues>
  <separator name="orbital magnetization" >
   <v name="MAGDIPOLOUT">      0.00000000      0.00000000      0.00000000</v>
  </separator>
  <dos>
   <i name="efermi">      7.82352895 </i>
   <total>
    <array>
     <dimension dim="1">gridpoints</dimension>
     <dimension dim="2">spin</dimension>
     <field>energy</field>
     <field>total</field>
     <field>integrated</field>
     <set>
      <set comment="spin 1">
       <r>   -49.3223     0.0000     0.0000 </r>
       <r>   -49.1143     0.0000     0.0000 </r>
       <r>   -48.9063     0.0000     0.0000 </r>
       <r>   -48.6983     0.0000     0.0000 </r>
       <r>   -48.4903     0.0000     0.0000 </r>
       <r>   -48.2823     0.0000     0.0000 </r>
       <r>   -48.0743     0.0000     0.0000 </r>
       <r>   -47.8663    -0.0000    -0.0000 </r>
       <r>   -47.6583    -0.0000    -0.0000 </r>
       <r>   -47.4503    -0.0000    -0.0000 </r>
       <r>   -47.2423    -0.0000    -0.0000 </r>
       <r>   -47.0343    -0.0000    -0.0000 </r>
       <r>   -46.8263    -0.0335    -0.0070 </r>
       <r>   -46.6183    -0.7825    -0.1697 </r>
       <r>   -46.4103    17.5176     3.4740 </r>
       <r>   -46.2023    59.2841    15.8053 </r>
       <r>   -45.9943    11.4398    18.1849 </r>
       <r>   -45.7863    -0.8844    18.0009 </r>
       <r>   -45.5783    -0.0044    18.0000 </r>
       <r>   -45.3703    -0.0000    18.0000 </r>
       <r>   -45.1623    -0.0000    18.0000 </r>
       <r>   -44.9543     0.0000    18.0000 </r>
       <r>   -44.7463     0.0000    18.0000 </r>
       <r>   -44.5382     0.0000    18.0000 </r>
       <r>   -44.3302     0.0000    18.0000 </r>
       <r>   -44.1222     0.0000    18.0000 </r>
       <r>   -43.9142     0.0000    18.0000 </r>
       <r>   -43.7062     0.0000    18.0000 </r>
       <r>   -43.4982     0.0000    18.0000 </r>
       <r>   -43.2902     0.0000    18.0000 </r>
       <r>   -43.0822     0.0000    18.0000 </r>
       <r>   -42.8742     0.0000    18.0000 </r>
       <r>   -42.6662     0.0000    18.0000 </r>
       <r>   -42.4582     0.0000    18.0000 </r>
       <r>   -42.2502     0.0000    18.0000 </r>
       <r>   -42.0422     0.0000    18.0000 </r>
       <r>   -41.8342     0.0000    18.0000 </r>
       <r>   -41.6262    -0.0000    18.0000 </r>
       <r>   -41.4182    -0.0000    18.0000 </r>
       <r>   -41.2102    -0.0000    18.0000 </r>
       <r>   -41.0022    -0.0000    18.0000 </r>
       <r>   -40.7942    -0.0100    17.9979 </r>
       <r>   -40.5862    -1.0828    17.7727 </r>
       <r>   -40.3782    15.7867    21.0564 </r>
       <r>   -40.1702    58.3801    33.1997 </r>
       <r>   -39.9622    14.4650    36.2085 </r>
       <r>   -39.7542    -0.9913    36.0023 </r>
       <r>   -39.5461    -0.0109    36.0000 </r>
       <r>   -39.3381    -0.0000    36.0000 </r>
       <r>   -39.1301    -0.0000    36.0000 </r>
       <r>   -38.9221     0.0000    36.0000 </r>
       <r>   -38.7141     0.0000    36.0000 </r>
       <r>   -38.5061     0.0000    36.0000 </r>
       <r>   -38.2981     0.0000    36.0000 </r>
       <r>   -38.0901     0.0000    36.0000 </r>
       <r>   -37.8821     0.0000    36.0000 </r>
       <r>   -37.6741     0.0000    36.0000 </r>
       <r>   -37.4661     0.0000    36.0000 </r>
       <r>   -37.2581     0.0000    36.0000 </r>
       <r>   -37.0501     0.0000    36.0000 </r>
       <r>   -36.8421     0.0000    36.0000 </r>
       <r>   -36.6341     0.0000    36.0000 </r>
       <r>   -36.4261     0.0000    36.0000 </r>
       <r>   -36.2181     0.0000    36.0000 </r>
       <r>   -36.0101     0.0000    36.0000 </r>
       <r>   -35.8021     0.0000    36.0000 </r>
       <r>   -35.5941     0.0000    36.0000 </r>
       <r>   -35.3861     0.0000    36.0000 </r>
       <r>   -35.1781     0.0000    36.0000 </r>
       <r>   -34.9701     0.0000    36.0000 </r>
       <r>   -34.7621     0.0000    36.0000 </r>
       <r>   -34.5540     0.0000    36.0000 </r>
       <r>   -34.3460     0.0000    36.0000 </r>
       <r>   -34.1380     0.0000    36.0000 </r>
       <r>   -33.9300     0.0000    36.0000 </r>
       <r>   -33.7220     0.0000    36.0000 </r>
       <r>   -33.5140     0.0000    36.0000 </r>
       <r>   -33.3060     0.0000    36.0000 </r>
       <r>   -33.0980     0.0000    36.0000 </r>
       <r>   -32.8900     0.0000    36.0000 </r>
       <r>   -32.6820     0.0000    36.0000 </r>
       <r>   -32.4740     0.0000    36.0000 </r>
       <r>   -32.2660     0.0000    36.0000 </r>
       <r>   -32.0580     0.0000    36.0000 </r>
       <r>   -31.8500     0.0000    36.0000 </r>
       <r>   -31.6420     0.0000    36.0000 </r>
       <r>   -31.4340     0.0000    36.0000 </r>
       <r>   -31.2260     0.0000    36.0000 </r>
       <r>   -31.0180     0.0000    36.0000 </r>
       <r>   -30.8100     0.0000    36.0000 </r>
       <r>   -30.6020     0.0000    36.0000 </r>
       <r>   -30.3940     0.0000    36.0000 </r>
       <r>   -30.1860     0.0000    36.0000 </r>
       <r>   -29.9780     0.0000    36.0000 </r>
       <r>   -29.7699     0.0000    36.0000 </r>
       <r>   -29.5619     0.0000    36.0000 </r>
       <r>   -29.3539     0.0000    36.0000 </r>
       <r>   -29.1459     0.0000    36.0000 </r>
       <r>   -28.9379     0.0000    36.0000 </r>
       <r>   -28.7299     0.0000    36.0000 </r>
       <r>   -28.5219     0.0000    36.0000 </r>
       <r>   -28.3139     0.0000    36.0000 </r>
       <r>   -28.1059     0.0000    36.0000 </r>
       <r>   -27.8979     0.0000    36.0000 </r>
       <r>   -27.6899     0.0000    36.0000 </r>
       <r>   -27.4819     0.0000    36.0000 </r>
       <r>   -27.2739     0.0000    36.0000 </r>
       <r>   -27.0659     0.0000    36.0000 </r>
       <r>   -26.8579     0.0000    36.0000 </r>
       <r>   -26.6499     0.0000    36.0000 </r>
       <r>   -26.4419     0.0000    36.0000 </r>
       <r>   -26.2339     0.0000    36.0000 </r>
       <r>   -26.0259     0.0000    36.0000 </r>
       <r>   -25.8179     0.0000    36.0000 </r>
       <r>   -25.6099     0.0000    36.0000 </r>
       <r>   -25.4019     0.0000    36.0000 </r>
       <r>   -25.1939     0.0000    36.0000 </r>
       <r>   -24.9859     0.0000    36.0000 </r>
       <r>   -24.7778     0.0000    36.0000 </r>
       <r>   -24.5698     0.0000    36.0000 </r>
       <r>   -24.3618     0.0000    36.0000 </r>
       <r>   -24.1538    -0.0000    36.0000 </r>
       <r>   -23.9458    -0.0000    36.0000 </r>
       <r>   -23.7378    -0.0000    36.0000 </r>
       <r>   -23.5298    -0.0000    36.0000 </r>
       <r>   -23.3218    -0.0007    35.9999 </r>
       <r>   -23.1138    -0.2727    35.9431 </r>
       <r>   -22.9058     2.0400    36.3675 </r>
       <r>   -22.6978    36.3797    43.9346 </r>
       <r>   -22.4898    70.9273    58.6878 </r>
       <r>   -22.2818    97.7547    79.0212 </r>
       <r>   -22.0738    42.5631    87.8745 </r>
       <r>   -21.8658    10.9533    90.1528 </r>
       <r>   -21.6578    -0.7239    90.0022 </r>
       <r>   -21.4498    -0.0108    90.0000 </r>
       <r>   -21.2418    -0.0000    90.0000 </r>
       <r>   -21.0338    -0.0000    90.0000 </r>
       <r>   -20.8258     0.0000    90.0000 </r>
       <r>   -20.6178     0.0000    90.0000 </r>
       <r>   -20.4098     0.0000    90.0000 </r>
       <r>   -20.2018    -0.0000    90.0000 </r>
       <r>   -19.9938    -0.0000    90.0000 </r>
       <r>   -19.7857    -0.0000    90.0000 </r>
       <r>   -19.5777    -0.0000    90.0000 </r>
       <r>   -19.3697    -0.0000    90.0000 </r>
       <r>   -19.1617    -0.0322    89.9933 </r>
       <r>   -18.9537    -0.5684    89.8751 </r>
       <r>   -18.7457    13.8476    92.7554 </r>
       <r>   -18.5377    51.2730   103.4205 </r>
       <r>   -18.3297    91.1735   122.3849 </r>
       <r>   -18.1217    78.3945   138.6913 </r>
       <r>   -17.9137    26.1373   144.1280 </r>
       <r>   -17.7057    -0.5298   144.0178 </r>
       <r>   -17.4977    -0.0854   144.0000 </r>
       <r>   -17.2897    -0.0001   144.0000 </r>
       <r>   -17.0817    -0.0000   144.0000 </r>
       <r>   -16.8737     0.0000   144.0000 </r>
       <r>   -16.6657     0.0000   144.0000 </r>
       <r>   -16.4577     0.0000   144.0000 </r>
       <r>   -16.2497     0.0000   144.0000 </r>
       <r>   -16.0417     0.0000   144.0000 </r>
       <r>   -15.8337     0.0000   144.0000 </r>
       <r>   -15.6257     0.0000   144.0000 </r>
       <r>   -15.4177     0.0000   144.0000 </r>
       <r>   -15.2097     0.0000   144.0000 </r>
       <r>   -15.0016     0.0000   144.0000 </r>
       <r>   -14.7936     0.0000   144.0000 </r>
       <r>   -14.5856     0.0000   144.0000 </r>
       <r>   -14.3776     0.0000   144.0000 </r>
       <r>   -14.1696     0.0000   144.0000 </r>
       <r>   -13.9616     0.0000   144.0000 </r>
       <r>   -13.7536     0.0000   144.0000 </r>
       <r>   -13.5456     0.0000   144.0000 </r>
       <r>   -13.3376     0.0000   144.0000 </r>
       <r>   -13.1296     0.0000   144.0000 </r>
       <r>   -12.9216     0.0000   144.0000 </r>
       <r>   -12.7136     0.0000   144.0000 </r>
       <r>   -12.5056     0.0000   144.0000 </r>
       <r>   -12.2976     0.0000   144.0000 </r>
       <r>   -12.0896     0.0000   144.0000 </r>
       <r>   -11.8816     0.0000   144.0000 </r>
       <r>   -11.6736     0.0000   144.0000 </r>
       <r>   -11.4656     0.0000   144.0000 </r>
       <r>   -11.2576     0.0000   144.0000 </r>
       <r>   -11.0496     0.0000   144.0000 </r>
       <r>   -10.8416     0.0000   144.0000 </r>
       <r>   -10.6336     0.0000   144.0000 </r>
       <r>   -10.4256     0.0000   144.0000 </r>
       <r>   -10.2176     0.0000   144.0000 </r>
       <r>   -10.0095     0.0000   144.0000 </r>
       <r>    -9.8015     0.0000   144.0000 </r>
       <r>    -9.5935     0.0000   144.0000 </r>
       <r>    -9.3855     0.0000   144.0000 </r>
       <r>    -9.1775     0.0000   144.0000 </r>
       <r>    -8.9695     0.0000   144.0000 </r>
       <r>    -8.7615     0.0000   144.0000 </r>
       <r>    -8.5535     0.0000   144.0000 </r>
       <r>    -8.3455     0.0000   144.0000 </r>
       <r>    -8.1375     0.0000   144.0000 </r>
       <r>    -7.9295     0.0000   144.0000 </r>
       <r>    -7.7215     0.0000   144.0000 </r>
       <r>    -7.5135     0.0000   144.0000 </r>
       <r>    -7.3055     0.0000   144.0000 </r>
       <r>    -7.0975     0.0000   144.0000 </r>
       <r>    -6.8895     0.0000   144.0000 </r>
       <r>    -6.6815     0.0000   144.0000 </r>
       <r>    -6.4735     0.0000   144.0000 </r>
       <r>    -6.2655     0.0000   144.0000 </r>
       <r>    -6.0575     0.0000   144.0000 </r>
       <r>    -5.8495     0.0000   144.0000 </r>
       <r>    -5.6415     0.0000   144.0000 </r>
       <r>    -5.4335     0.0000   144.0000 </r>
       <r>    -5.2255     0.0000   144.0000 </r>
       <r>    -5.0174     0.0000   144.0000 </r>
       <r>    -4.8094     0.0000   144.0000 </r>
       <r>    -4.6014     0.0000   144.0000 </r>
       <r>    -4.3934     0.0000   144.0000 </r>
       <r>    -4.1854     0.0000   144.0000 </r>
       <r>    -3.9774     0.0000   144.0000 </r>
       <r>    -3.7694     0.0000   144.0000 </r>
       <r>    -3.5614     0.0000   144.0000 </r>
       <r>    -3.3534     0.0000   144.0000 </r>
       <r>    -3.1454     0.0000   144.0000 </r>
       <r>    -2.9374     0.0000   144.0000 </r>
       <r>    -2.7294     0.0000   144.0000 </r>
       <r>    -2.5214     0.0000   144.0000 </r>
       <r>    -2.3134     0.0000   144.0000 </r>
       <r>    -2.1054     0.0000   144.0000 </r>
       <r>    -1.8974     0.0000   144.0000 </r>
       <r>    -1.6894     0.0000   144.0000 </r>
       <r>    -1.4814     0.0000   144.0000 </r>
       <r>    -1.2734     0.0000   144.0000 </r>
       <r>    -1.0654     0.0000   144.0000 </r>
       <r>    -0.8574     0.0000   144.0000 </r>
       <r>    -0.6494     0.0000   144.0000 </r>
       <r>    -0.4414     0.0000   144.0000 </r>
       <r>    -0.2334    -0.0000   144.0000 </r>
       <r>    -0.0253    -0.0000   144.0000 </r>
       <r>     0.1827    -0.0000   144.0000 </r>
       <r>     0.3907    -0.0000   144.0000 </r>
       <r>     0.5987    -0.0001   144.0000 </r>
       <r>     0.8067    -0.0125   143.9974 </r>
       <r>     1.0147     0.1538   144.0294 </r>
       <r>     1.2227     0.9719   144.2315 </r>
       <r>     1.4307     1.6652   144.5779 </r>
       <r>     1.6387     1.5693   144.9043 </r>
       <r>     1.8467     3.3496   145.6011 </r>
       <r>     2.0547     2.9793   146.2208 </r>
       <r>     2.2627     2.1963   146.6776 </r>
       <r>     2.4707     2.9546   147.2922 </r>
       <r>     2.6787     4.6655   148.2626 </r>
       <r>     2.8867     4.0052   149.0957 </r>
       <r>     3.0947     7.0474   150.5616 </r>
       <r>     3.3027     7.0674   152.0316 </r>
       <r>     3.5107     8.1414   153.7251 </r>
       <r>     3.7187     7.2526   155.2337 </r>
       <r>     3.9267     9.9345   157.3001 </r>
       <r>     4.1347    15.4975   160.5236 </r>
       <r>     4.3427    20.6686   164.8228 </r>
       <r>     4.5507    22.2157   169.4437 </r>
       <r>     4.7588    27.5051   175.1649 </r>
       <r>     4.9668    32.5809   181.9419 </r>
       <r>     5.1748    38.3300   189.9147 </r>
       <r>     5.3828    38.7535   197.9756 </r>
       <r>     5.5908    40.8990   206.4827 </r>
       <r>     5.7988    33.5732   213.4661 </r>
       <r>     6.0068    34.5263   220.6477 </r>
       <r>     6.2148    18.4211   224.4794 </r>
       <r>     6.4228    29.1152   230.5355 </r>
       <r>     6.6308    63.9534   243.8381 </r>
       <r>     6.8388    61.9149   256.7166 </r>
       <r>     7.0468    55.9363   268.3516 </r>
       <r>     7.2548    48.9449   278.5324 </r>
       <r>     7.4628    54.0294   289.7707 </r>
       <r>     7.6708    55.8931   301.3967 </r>
       <r>     7.8788    49.2774   311.6466 </r>
       <r>     8.0868    49.2428   321.8893 </r>
       <r>     8.2948    49.8249   332.2531 </r>
       <r>     8.5028    36.9834   339.9458 </r>
       <r>     8.7108    28.5452   345.8833 </r>
       <r>     8.9188    20.8727   350.2249 </r>
       <r>     9.1268    17.7647   353.9201 </r>
       <r>     9.3348    10.8193   356.1705 </r>
       <r>     9.5428    19.8210   360.2934 </r>
       <r>     9.7509    29.6478   366.4603 </r>
       <r>     9.9589    25.6407   371.7936 </r>
       <r>    10.1669    16.7321   375.2740 </r>
       <r>    10.3749     3.7320   376.0502 </r>
       <r>    10.5829    -0.2370   376.0009 </r>
       <r>    10.7909    -0.0045   376.0000 </r>
       <r>    10.9989    -0.0000   376.0000 </r>
       <r>    11.2069    -0.0000   376.0000 </r>
       <r>    11.4149     0.0000   376.0000 </r>
       <r>    11.6229     0.0000   376.0000 </r>
       <r>    11.8309     0.0000   376.0000 </r>
       <r>    12.0389     0.0000   376.0000 </r>
       <r>    12.2469     0.0000   376.0000 </r>
       <r>    12.4549     0.0000   376.0000 </r>
       <r>    12.6629     0.0000   376.0000 </r>
       <r>    12.8709     0.0000   376.0000 </r>
       <r>    13.0789     0.0000   376.0000 </r>
      </set>
     </set>
    </array>
   </total>
  </dos>
 </calculation>
 <structure name="finalpos" >
  <crystal>
   <varray name="basis" >
    <v>       6.88034543      -0.01290742      -0.00921761 </v>
    <v>      -0.01807121      10.17459862       0.01623923 </v>
    <v>      -0.01365113       0.01598531      10.19496187 </v>
   </varray>
   <i name="volume">    713.69034979 </i>
   <varray name="rec_basis" >
    <v>       0.14534228       0.00025783       0.00019421 </v>
    <v>       0.00018417       0.09828455      -0.00015386 </v>
    <v>       0.00013112      -0.00015632       0.09808809 </v>
   </varray>
  </crystal>
  <varray name="positions" >
   <v>       0.24744809       0.83421646       0.16953672 </v>
   <v>       0.00978999       0.32868589       0.65963311 </v>
   <v>       0.72511860       0.16695541       0.82234988 </v>
   <v>       0.49621962       0.67248746       0.66424657 </v>
   <v>       0.00622507       0.01036406       0.65214661 </v>
   <v>      -0.00189078       0.33194740       0.34378770 </v>
   <v>       0.01284834       0.64575747       0.99489758 </v>
   <v>       0.49612026       0.66443019       0.34735999 </v>
   <v>       0.26395980       0.49380917       0.50077405 </v>
   <v>       0.50926882       0.00012350       0.33627669 </v>
   <v>       0.99521407       0.00328176       0.34460585 </v>
   <v>      -0.00051681       0.65976627       0.65939912 </v>
   <v>       0.23441832       0.50427025       0.82611837 </v>
   <v>       0.48588162       0.33877573       0.66332083 </v>
   <v>       0.74287222       0.15878369       0.17209751 </v>
   <v>       0.50920113       0.00466547       0.00263880 </v>
   <v>       0.26088987       0.84187830       0.48916823 </v>
   <v>       0.74207258       0.84023353       0.49466887 </v>
   <v>       0.25914334       0.50754599       0.17508395 </v>
   <v>       0.73714512       0.49232182       0.51038397 </v>
   <v>       0.99106408       0.02732846       0.00118439 </v>
   <v>       0.75722918       0.49752012       0.81704773 </v>
   <v>       0.27648585       0.16376790       0.49292614 </v>
   <v>       0.27029578       0.15364990       0.83161349 </v>
   <v>       0.49396510       0.98901742       0.65814571 </v>
   <v>       0.50357817       0.33555696       0.33604208 </v>
   <v>       0.72568568       0.16507302       0.50121914 </v>
   <v>       0.76830269       0.83314968       0.83852235 </v>
   <v>       0.75840123       0.83540907       0.16817198 </v>
   <v>       0.49239597       0.33834988       0.00063523 </v>
   <v>       0.00777307       0.66118376       0.35262840 </v>
   <v>       0.22979542       0.84182856       0.84264878 </v>
   <v>       0.74404713       0.51204993       0.17243324 </v>
   <v>       0.00225408       0.33087583       0.99743639 </v>
   <v>       0.48977887       0.65794517       0.98664035 </v>
   <v>       0.25751544       0.15700652       0.17420920 </v>
  </varray>
 </structure>
</modeling>
