<?xml version="1.0" encoding="ISO-8859-1"?>
<modeling>
 <generator>
  <i name="program" type="string">vasp </i>
  <i name="version" type="string">5.4.1  </i>
  <i name="subversion" type="string">05Feb16 (build Jan 29 2020 16:04:39) complex                          parallel </i>
  <i name="platform" type="string">IFC91_ompi </i>
  <i name="date" type="string">2020 06 15 </i>
  <i name="time" type="string">07:50:10 </i>
 </generator>
 <incar>
  <i type="string" name="SYSTEM"> automatically generated by mexm</i>
  <i type="int" name="ISTART">     0</i>
  <i type="string" name="PREC">accurate               ! avoid wrap aro</i>
  <i type="string" name="ALGO"> Fast                   ! blocked Davids</i>
  <i type="int" name="ISPIN">     1</i>
  <i type="int" name="ICHARG">     2</i>
  <i type="int" name="NELM">    70</i>
  <i type="int" name="IBRION">     2</i>
  <i name="EDIFF">      0.00001000</i>
  <i name="EDIFFG">     -0.01000000</i>
  <i type="int" name="NSW">   300</i>
  <i type="int" name="ISIF">     3</i>
  <i type="int" name="ISYM">     1</i>
  <i name="ENCUT">    300.00000000</i>
  <i name="POTIM">      0.15000000</i>
  <i type="string" name="LREAL"> Auto                  ! unpublished met</i>
  <i type="int" name="ISMEAR">     1</i>
  <i name="SIGMA">      0.15000000</i>
  <i type="logical" name="LWAVE"> F  </i>
  <i type="logical" name="LCHARG"> F  </i>
  <i type="logical" name="LVTOT"> F  </i>
  <v type="int" name="KPOINT_BSE">    -1     0     0     0</v>
  <i type="int" name="NELM">    70</i>
 </incar>
 <kpoints>
  <generation param="Gamma">
   <v type="int" name="divisions">       3        3        3 </v>
   <v name="usershift">      0.00000000       0.00000000       0.00000000 </v>
   <v name="genvec1">      0.33333333       0.00000000       0.00000000 </v>
   <v name="genvec2">      0.00000000       0.33333333      -0.00000000 </v>
   <v name="genvec3">      0.00000000      -0.00000000       0.33333333 </v>
   <v name="shift">      0.00000000       0.00000000       0.00000000 </v>
  </generation>
  <varray name="kpointlist" >
   <v>       0.00000000       0.00000000       0.00000000 </v>
   <v>       0.33333333       0.00000000      -0.00000000 </v>
   <v>      -0.00000000       0.33333333      -0.00000000 </v>
   <v>       0.33333333       0.33333333      -0.00000000 </v>
   <v>      -0.33333333       0.33333333       0.00000000 </v>
   <v>       0.00000000       0.00000000       0.33333333 </v>
   <v>       0.33333333       0.00000000       0.33333333 </v>
   <v>      -0.33333333       0.00000000       0.33333333 </v>
   <v>       0.00000000       0.33333333       0.33333333 </v>
   <v>       0.33333333       0.33333333       0.33333333 </v>
   <v>      -0.33333333       0.33333333       0.33333333 </v>
   <v>       0.00000000      -0.33333333       0.33333333 </v>
   <v>       0.33333333      -0.33333333       0.33333333 </v>
   <v>      -0.33333333      -0.33333333       0.33333333 </v>
  </varray>
  <varray name="weights" >
   <v>       0.03703704 </v>
   <v>       0.07407407 </v>
   <v>       0.07407407 </v>
   <v>       0.07407407 </v>
   <v>       0.07407407 </v>
   <v>       0.07407407 </v>
   <v>       0.07407407 </v>
   <v>       0.07407407 </v>
   <v>       0.07407407 </v>
   <v>       0.07407407 </v>
   <v>       0.07407407 </v>
   <v>       0.07407407 </v>
   <v>       0.07407407 </v>
   <v>       0.07407407 </v>
  </varray>
 </kpoints>
 <parameters>
  <separator name="general" >
   <i type="string" name="SYSTEM">automatically generated by mexm</i>
   <i type="logical" name="LCOMPAT"> F  </i>
  </separator>
  <separator name="electronic" >
   <i type="string" name="PREC">accura</i>
   <i name="ENMAX">    300.00000000</i>
   <i name="ENAUG">    461.25700000</i>
   <i name="EDIFF">      0.00001000</i>
   <i type="int" name="IALGO">    68</i>
   <i type="int" name="IWAVPR">    11</i>
   <i type="int" name="NBANDS">   172</i>
   <i name="NELECT">    285.00000000</i>
   <i type="int" name="TURBO">     0</i>
   <i type="int" name="IRESTART">     0</i>
   <i type="int" name="NREBOOT">     0</i>
   <i type="int" name="NMIN">     0</i>
   <i name="EREF">      0.00000000</i>
   <separator name="electronic smearing" >
    <i type="int" name="ISMEAR">     1</i>
    <i name="SIGMA">      0.15000000</i>
    <i name="KSPACING">      0.50000000</i>
    <i type="logical" name="KGAMMA"> T  </i>
   </separator>
   <separator name="electronic projectors" >
    <i type="logical" name="LREAL"> T  </i>
    <v name="ROPT">     -0.00025000     -0.00025000     -0.00025000     -0.00025000</v>
    <i type="int" name="LMAXPAW">  -100</i>
    <i type="int" name="LMAXMIX">     2</i>
    <i type="logical" name="NLSPLINE"> F  </i>
   </separator>
   <separator name="electronic startup" >
    <i type="int" name="ISTART">     0</i>
    <i type="int" name="ICHARG">     2</i>
    <i type="int" name="INIWAV">     1</i>
   </separator>
   <separator name="electronic spin" >
    <i type="int" name="ISPIN">     1</i>
    <i type="logical" name="LNONCOLLINEAR"> F  </i>
    <v name="MAGMOM">      1.00000000      1.00000000      1.00000000      1.00000000      1.00000000      1.00000000      1.00000000      1.00000000      1.00000000      1.00000000      1.00000000      1.00000000      1.00000000      1.00000000      1.00000000      1.00000000      1.00000000      1.00000000      1.00000000      1.00000000
      1.00000000      1.00000000      1.00000000      1.00000000      1.00000000      1.00000000      1.00000000      1.00000000      1.00000000      1.00000000      1.00000000      1.00000000      1.00000000      1.00000000      1.00000000      1.00000000</v>
    <i name="NUPDOWN">     -1.00000000</i>
    <i type="logical" name="LSORBIT"> F  </i>
    <v name="SAXIS">      0.00000000      0.00000000      1.00000000</v>
    <i type="logical" name="LSPIRAL"> F  </i>
    <v name="QSPIRAL">      0.00000000      0.00000000      0.00000000</v>
    <i type="logical" name="LZEROZ"> F  </i>
   </separator>
   <separator name="electronic exchange-correlation" >
    <i type="logical" name="LASPH"> F  </i>
    <i type="logical" name="LMETAGGA"> F  </i>
   </separator>
   <separator name="electronic convergence" >
    <i type="int" name="NELM">    70</i>
    <i type="int" name="NELMDL">    -5</i>
    <i type="int" name="NELMIN">     2</i>
    <i name="ENINI">    300.00000000</i>
    <separator name="electronic convergence detail" >
     <i type="logical" name="LDIAG"> T  </i>
     <i type="logical" name="LSUBROT"> F  </i>
     <i name="WEIMIN">      0.00100000</i>
     <i name="EBREAK">      0.00000001</i>
     <i name="DEPER">      0.30000000</i>
     <i type="int" name="NRMM">     4</i>
     <i name="TIME">      0.40000000</i>
    </separator>
   </separator>
   <separator name="electronic mixer" >
    <i name="AMIX">      0.40000000</i>
    <i name="BMIX">      1.00000000</i>
    <i name="AMIN">      0.10000000</i>
    <i name="AMIX_MAG">      1.60000000</i>
    <i name="BMIX_MAG">      1.00000000</i>
    <separator name="electronic mixer details" >
     <i type="int" name="IMIX">     4</i>
     <i type="logical" name="MIXFIRST"> F  </i>
     <i type="int" name="MAXMIX">   -45</i>
     <i name="WC">    100.00000000</i>
     <i type="int" name="INIMIX">     1</i>
     <i type="int" name="MIXPRE">     1</i>
     <i type="int" name="MREMOVE">     5</i>
    </separator>
   </separator>
   <separator name="electronic dipolcorrection" >
    <i type="logical" name="LDIPOL"> F  </i>
    <i type="logical" name="LMONO"> F  </i>
    <i type="int" name="IDIPOL">     0</i>
    <i name="EPSILON">      1.00000000</i>
    <v name="DIPOL">   -100.00000000   -100.00000000   -100.00000000</v>
    <i name="EFIELD">      0.00000000</i>
   </separator>
  </separator>
  <separator name="grids" >
   <i type="int" name="NGX">    40</i>
   <i type="int" name="NGY">    60</i>
   <i type="int" name="NGZ">    60</i>
   <i type="int" name="NGXF">    80</i>
   <i type="int" name="NGYF">   120</i>
   <i type="int" name="NGZF">   120</i>
   <i type="logical" name="ADDGRID"> F  </i>
  </separator>
  <separator name="ionic" >
   <i type="int" name="NSW">   300</i>
   <i type="int" name="IBRION">     2</i>
   <i type="int" name="ISIF">     3</i>
   <i name="PSTRESS">      0.00000000</i>
   <i name="EDIFFG">     -0.01000000</i>
   <i type="int" name="NFREE">     1</i>
   <i name="POTIM">      0.15000000</i>
   <i name="SMASS">     -3.00000000</i>
   <i name="SCALEE">      1.00000000</i>
  </separator>
  <separator name="ionic md" >
   <i name="TEBEG">      0.00010000</i>
   <i name="TEEND">      0.00010000</i>
   <i type="int" name="NBLOCK">     1</i>
   <i type="int" name="KBLOCK">   300</i>
   <i type="int" name="NPACO">   256</i>
   <i name="APACO">     16.00000000</i>
  </separator>
  <separator name="symmetry" >
   <i type="int" name="ISYM">     1</i>
   <i name="SYMPREC">      0.00001000</i>
  </separator>
  <separator name="dos" >
   <i type="logical" name="LORBIT"> F  </i>
   <v name="RWIGS">     -1.00000000     -1.00000000     -1.00000000     -1.00000000</v>
   <i type="int" name="NEDOS">   301</i>
   <i name="EMIN">     10.00000000</i>
   <i name="EMAX">    -10.00000000</i>
   <i name="EFERMI">      0.00000000</i>
  </separator>
  <separator name="writing" >
   <i type="int" name="NWRITE">     2</i>
   <i type="logical" name="LWAVE"> F  </i>
   <i type="logical" name="LCHARG"> F  </i>
   <i type="logical" name="LPARD"> F  </i>
   <i type="logical" name="LVTOT"> F  </i>
   <i type="logical" name="LVHAR"> F  </i>
   <i type="logical" name="LELF"> F  </i>
   <i type="logical" name="LOPTICS"> F  </i>
   <v name="STM">      0.00000000      0.00000000      0.00000000      0.00000000      0.00000000      0.00000000      0.00000000</v>
  </separator>
  <separator name="performance" >
   <i type="int" name="NPAR">     4</i>
   <i type="int" name="NSIM">     4</i>
   <i type="int" name="NBLK">    -1</i>
   <i type="logical" name="LPLANE"> T  </i>
   <i type="logical" name="LSCALAPACK"> T  </i>
   <i type="logical" name="LSCAAWARE"> F  </i>
   <i type="logical" name="LSCALU"> F  </i>
   <i type="logical" name="LASYNC"> F  </i>
   <i type="logical" name="LORBITALREAL"> F  </i>
  </separator>
  <separator name="miscellaneous" >
   <i type="int" name="IDIOT">     3</i>
   <i type="logical" name="LMUSIC"> F  </i>
   <v name="POMASS">     92.91000000    178.49000000     91.22400000    180.94800000</v>
   <v name="DARWINR">      0.00000000      0.00000000      0.00000000      0.00000000</v>
   <v name="DARWINV">      1.00000000      1.00000000      1.00000000      1.00000000</v>
   <i type="logical" name="LCORR"> T  </i>
  </separator>
  <i type="logical" name="GGA_COMPAT"> T  </i>
  <i type="logical" name="LBERRY"> F  </i>
  <i type="int" name="ICORELEVEL">     0</i>
  <i type="logical" name="LDAU"> F  </i>
  <i type="int" name="I_CONSTRAINED_M">     0</i>
  <separator name="electronic exchange-correlation" >
   <i type="string" name="GGA">--</i>
   <i type="int" name="VOSKOWN">     0</i>
   <i type="logical" name="LHFCALC"> F  </i>
   <i type="string" name="PRECFOCK"></i>
   <i type="logical" name="LSYMGRAD"> F  </i>
   <i type="logical" name="LHFONE"> F  </i>
   <i type="logical" name="LRHFCALC"> F  </i>
   <i type="logical" name="LTHOMAS"> F  </i>
   <i type="logical" name="LMODELHF"> F  </i>
   <i name="ENCUT4O">     -1.00000000</i>
   <i type="int" name="EXXOEP">     0</i>
   <i type="int" name="FOURORBIT">     0</i>
   <i name="AEXX">      0.00000000</i>
   <i name="HFALPHA">      0.00000000</i>
   <i name="MCALPHA">      0.00000000</i>
   <i name="ALDAX">      1.00000000</i>
   <i name="AGGAX">      1.00000000</i>
   <i name="ALDAC">      1.00000000</i>
   <i name="AGGAC">      1.00000000</i>
   <i type="int" name="NKREDX">     1</i>
   <i type="int" name="NKREDY">     1</i>
   <i type="int" name="NKREDZ">     1</i>
   <i type="logical" name="SHIFTRED"> F  </i>
   <i type="logical" name="ODDONLY"> F  </i>
   <i type="logical" name="EVENONLY"> F  </i>
   <i type="int" name="LMAXFOCK">     0</i>
   <i type="int" name="NMAXFOCKAE">     0</i>
   <i type="logical" name="LFOCKAEDFT"> F  </i>
   <i name="HFSCREEN">      0.00000000</i>
   <i name="HFSCREENC">      0.00000000</i>
   <i type="int" name="NBANDSGWLOW">     0</i>
  </separator>
  <separator name="vdW DFT" >
   <i type="logical" name="LUSE_VDW"> F  </i>
   <i name="Zab_VDW">     -0.84910000</i>
   <i name="PARAM1">      0.12340000</i>
   <i name="PARAM2">      1.00000000</i>
   <i name="PARAM3">      0.00000000</i>
  </separator>
  <separator name="model GW" >
   <i type="int" name="MODEL_GW">     0</i>
   <i name="MODEL_EPS0">     11.95518569</i>
   <i name="MODEL_ALPHA">      1.00000000</i>
  </separator>
  <separator name="linear response parameters" >
   <i type="logical" name="LEPSILON"> F  </i>
   <i type="logical" name="LRPA"> F  </i>
   <i type="logical" name="LNABLA"> F  </i>
   <i type="logical" name="LVEL"> F  </i>
   <i type="int" name="KINTER">     0</i>
   <i name="CSHIFT">      0.10000000</i>
   <i name="OMEGAMAX">     -1.00000000</i>
   <i name="DEG_THRESHOLD">      0.00200000</i>
  </separator>
  <separator name="orbital magnetization" >
   <i type="logical" name="NUCIND"> F  </i>
   <v name="MAGPOS">      0.00000000      0.00000000      0.00000000</v>
   <i type="logical" name="LNICSALL"> T  </i>
   <i type="logical" name="ORBITALMAG"> F  </i>
   <i type="logical" name="LMAGBLOCH"> F  </i>
   <i type="logical" name="LCHIMAG"> F  </i>
   <i type="logical" name="LGAUGE"> T  </i>
   <i type="int" name="MAGATOM">     0</i>
   <v name="MAGDIPOL">      0.00000000      0.00000000      0.00000000</v>
   <v name="AVECCONST">      0.00000000      0.00000000      0.00000000</v>
  </separator>
  <separator name="response functions" >
   <i type="logical" name="LADDER"> F  </i>
   <i type="logical" name="LFXC"> F  </i>
   <i type="logical" name="LHARTREE"> T  </i>
   <i type="int" name="IBSE">     0</i>
   <v type="int" name="KPOINT">    -1     0     0     0</v>
   <i type="logical" name="LTCTE"> F  </i>
   <i type="logical" name="LTETE"> F  </i>
   <i type="logical" name="LTRIPLET"> F  </i>
   <i type="logical" name="LFXCEPS"> F  </i>
   <i type="logical" name="LFXHEG"> F  </i>
   <i type="int" name="NATURALO">     0</i>
   <i type="logical" name="L2ORDER"> F  </i>
   <i type="logical" name="LUSEW"> F  </i>
   <i name="ENCUTGW">     -2.00000000</i>
   <i name="ENCUTGWSOFT">     -2.00000000</i>
   <i name="ENCUTLF">     -1.00000000</i>
   <i type="int" name="LMAXMP2">    -1</i>
   <i name="SCISSOR">      0.00000000</i>
   <i type="int" name="NOMEGA">     0</i>
   <i type="int" name="NOMEGAR">     0</i>
   <i type="int" name="NBANDSGW">    -1</i>
   <i type="int" name="NBANDSO">    -1</i>
   <i type="int" name="NBANDSV">    -1</i>
   <i type="int" name="NELM">    70</i>
   <i type="int" name="NELMHF">     1</i>
   <i type="int" name="DIM">     3</i>
   <i type="int" name="ANTIRES">     0</i>
   <i name="OMEGAMAX">    -30.00000000</i>
   <i name="OMEGAMIN">    -30.00000000</i>
   <i name="OMEGATL">   -200.00000000</i>
   <i type="int" name="OMEGAGRID">     0</i>
   <i name="CSHIFT">     -0.10000000</i>
   <i type="logical" name="SELFENERGY"> F  </i>
   <i type="logical" name="LSPECTRAL"> F  </i>
   <i type="logical" name="LSPECTRALGW"> F  </i>
   <i type="logical" name="LSINGLES"> F  </i>
   <i type="logical" name="LFERMIGW"> F  </i>
   <i type="logical" name="ODDONLYGW"> F  </i>
   <i type="logical" name="EVENONLYGW"> F  </i>
   <i type="int" name="NKREDLFX">     1</i>
   <i type="int" name="NKREDLFY">     1</i>
   <i type="int" name="NKREDLFZ">     1</i>
   <i type="int" name="MAXMEM">  1800</i>
   <i type="int" name="TELESCOPE">     0</i>
   <i type="int" name="TAUPAR">     1</i>
   <i type="int" name="OMEGAPAR">    -1</i>
   <i name="LAMBDA">      1.00000000</i>
  </separator>
  <separator name="External order field" >
   <i name="OFIELD_KAPPA">      0.00000000</i>
   <v name="OFIELD_K">      0.00000000      0.00000000      0.00000000</v>
   <i name="OFIELD_Q6_NEAR">      0.00000000</i>
   <i name="OFIELD_Q6_FAR">      0.00000000</i>
   <i name="OFIELD_A">      0.00000000</i>
  </separator>
 </parameters>
 <atominfo>
  <atoms>      36 </atoms>
  <types>       4 </types>
  <array name="atoms" >
   <dimension dim="1">ion</dimension>
   <field type="string">element</field>
   <field type="int">atomtype</field>
   <set>
    <rc><c>Nb</c><c>   1</c></rc>
    <rc><c>Nb</c><c>   1</c></rc>
    <rc><c>Nb</c><c>   1</c></rc>
    <rc><c>Nb</c><c>   1</c></rc>
    <rc><c>Nb</c><c>   1</c></rc>
    <rc><c>Nb</c><c>   1</c></rc>
    <rc><c>Nb</c><c>   1</c></rc>
    <rc><c>Nb</c><c>   1</c></rc>
    <rc><c>Hf</c><c>   2</c></rc>
    <rc><c>Hf</c><c>   2</c></rc>
    <rc><c>Hf</c><c>   2</c></rc>
    <rc><c>Hf</c><c>   2</c></rc>
    <rc><c>Hf</c><c>   2</c></rc>
    <rc><c>Hf</c><c>   2</c></rc>
    <rc><c>Hf</c><c>   2</c></rc>
    <rc><c>Hf</c><c>   2</c></rc>
    <rc><c>Zr</c><c>   3</c></rc>
    <rc><c>Zr</c><c>   3</c></rc>
    <rc><c>Zr</c><c>   3</c></rc>
    <rc><c>Zr</c><c>   3</c></rc>
    <rc><c>Zr</c><c>   3</c></rc>
    <rc><c>Zr</c><c>   3</c></rc>
    <rc><c>Zr</c><c>   3</c></rc>
    <rc><c>Ta</c><c>   4</c></rc>
    <rc><c>Ta</c><c>   4</c></rc>
    <rc><c>Ta</c><c>   4</c></rc>
    <rc><c>Ta</c><c>   4</c></rc>
    <rc><c>Ta</c><c>   4</c></rc>
    <rc><c>Ta</c><c>   4</c></rc>
    <rc><c>Ta</c><c>   4</c></rc>
    <rc><c>Ta</c><c>   4</c></rc>
    <rc><c>Ta</c><c>   4</c></rc>
    <rc><c>Ta</c><c>   4</c></rc>
    <rc><c>Ta</c><c>   4</c></rc>
    <rc><c>Ta</c><c>   4</c></rc>
    <rc><c>Ta</c><c>   4</c></rc>
   </set>
  </array>
  <array name="atomtypes" >
   <dimension dim="1">type</dimension>
   <field type="int">atomspertype</field>
   <field type="string">element</field>
   <field>mass</field>
   <field>valence</field>
   <field type="string">pseudopotential</field>
   <set>
    <rc><c>   8</c><c>Nb</c><c>     92.91000000</c><c>     13.00000000</c><c>  PAW_PBE Nb_sv 25May2007               </c></rc>
    <rc><c>   8</c><c>Hf</c><c>    178.49000000</c><c>      4.00000000</c><c>  PAW_PBE Hf 20Jan2003                  </c></rc>
    <rc><c>   7</c><c>Zr</c><c>     91.22400000</c><c>     12.00000000</c><c>  PAW_PBE Zr_sv 04Jan2005               </c></rc>
    <rc><c>  13</c><c>Ta</c><c>    180.94800000</c><c>      5.00000000</c><c>  PAW_PBE Ta 17Jan2003                  </c></rc>
   </set>
  </array>
 </atominfo>
 <structure name="initialpos" >
  <crystal>
   <varray name="basis" >
    <v>       6.90161621      -0.00187560       0.00224474 </v>
    <v>      -0.00231956      10.16617079       0.00135183 </v>
    <v>       0.00337709       0.00121715      10.22349645 </v>
   </varray>
   <i name="volume">    717.31114154 </i>
   <varray name="rec_basis" >
    <v>       0.14489362       0.00003307      -0.00004787 </v>
    <v>       0.00002674       0.09836546      -0.00001172 </v>
    <v>      -0.00003182      -0.00001301       0.09781391 </v>
   </varray>
  </crystal>
  <varray name="positions" >
   <v>       0.76244800       0.83456400       0.82585200 </v>
   <v>       0.23676900       0.50373100       0.49528200 </v>
   <v>       0.50439600       0.98465000       0.32881400 </v>
   <v>       0.99538900       0.99166000       0.33042800 </v>
   <v>       0.00654600       0.01537600       0.65981600 </v>
   <v>       0.99004000       0.65676800       0.65882800 </v>
   <v>       0.01896400       0.34138300       0.34687700 </v>
   <v>       0.23138200       0.52248300       0.82931000 </v>
   <v>       0.49410900       0.33579800       0.66808700 </v>
   <v>       0.48945900       0.98833100       0.00941800 </v>
   <v>       0.74400700       0.16572700       0.49092400 </v>
   <v>       0.25353200       0.16934100       0.18029700 </v>
   <v>       0.00695900       0.33301800       0.66785600 </v>
   <v>       0.23856300       0.84108400       0.50154900 </v>
   <v>       0.75991100       0.15068900       0.83693000 </v>
   <v>       0.50843300       0.65868800       0.65942300 </v>
   <v>       0.75119300       0.16544300       0.17095100 </v>
   <v>       0.24026400       0.83436500       0.82289700 </v>
   <v>       0.75600500       0.48890100       0.17167200 </v>
   <v>       0.50189700       0.66760700       0.33511100 </v>
   <v>       0.01982000       0.33827700       0.98531800 </v>
   <v>       0.49643100       0.66742000       0.00289500 </v>
   <v>       0.48419100       0.34124600       0.98401400 </v>
   <v>       0.76119000       0.84283800       0.50200700 </v>
   <v>       0.23845200       0.49620000       0.17503000 </v>
   <v>       0.99998800       0.66593900       0.00761600 </v>
   <v>       0.22555000       0.83452100       0.17626000 </v>
   <v>       0.75982000       0.49149000       0.49261300 </v>
   <v>       0.77260400       0.83355900       0.17071100 </v>
   <v>       0.01420700       0.99293400       0.01007300 </v>
   <v>       0.76525300       0.51704900       0.83304100 </v>
   <v>       0.99386300       0.66711900       0.33309900 </v>
   <v>       0.25691000       0.15898600       0.49513700 </v>
   <v>       0.24486100       0.14737200       0.82650800 </v>
   <v>       0.49684100       0.00812000       0.66395400 </v>
   <v>       0.47975300       0.34733300       0.35139600 </v>
  </varray>
 </structure>
 <calculation>
  <scstep>
   <time name="dav">    1.11    1.12</time>
   <time name="total">    1.32    1.50</time>
   <energy>
    <i name="alphaZ">   1507.60277299 </i>
    <i name="ewald"> -18729.62158956 </i>
    <i name="hartreedc">  -6045.53846601 </i>
    <i name="XCdc">   -487.60276971 </i>
    <i name="pawpsdc">  20347.80458923 </i>
    <i name="pawaedc"> -18629.37954554 </i>
    <i name="eentropy">     -0.00744122 </i>
    <i name="bandstr">      1.87503409 </i>
    <i name="atom">  23735.67433589 </i>
    <i name="e_fr_energy">   1700.80692017 </i>
    <i name="e_wo_entrp">   1700.81436139 </i>
    <i name="e_0_energy">   1700.80940058 </i>
   </energy>
  </scstep>
  <scstep>
   <time name="dav">    1.15    1.15</time>
   <time name="total">    1.15    1.22</time>
   <energy>
    <i name="e_fr_energy">   -117.20815172 </i>
    <i name="e_wo_entrp">   -117.20387847 </i>
    <i name="e_0_energy">   -117.20672730 </i>
   </energy>
  </scstep>
  <scstep>
   <time name="dav">    1.61    1.63</time>
   <time name="total">    1.66    1.69</time>
   <energy>
    <i name="e_fr_energy">   -356.32300728 </i>
    <i name="e_wo_entrp">   -356.32985976 </i>
    <i name="e_0_energy">   -356.32529144 </i>
   </energy>
  </scstep>
  <scstep>
   <time name="dav">    1.34    1.44</time>
   <time name="total">    1.35    1.47</time>
   <energy>
    <i name="e_fr_energy">   -384.57428456 </i>
    <i name="e_wo_entrp">   -384.59434411 </i>
    <i name="e_0_energy">   -384.58097108 </i>
   </energy>
  </scstep>
  <scstep>
   <time name="dav">    1.31    1.32</time>
   <time name="total">    1.35    1.37</time>
   <energy>
    <i name="e_fr_energy">   -387.33045730 </i>
    <i name="e_wo_entrp">   -387.35300304 </i>
    <i name="e_0_energy">   -387.33797255 </i>
   </energy>
  </scstep>
  <scstep>
   <time name="diag">    0.07    0.07</time>
   <time name="diis">    0.79    0.79</time>
   <time name="orth">    0.02    0.02</time>
   <time name="total">    0.97    0.99</time>
   <energy>
    <i name="e_fr_energy">   -376.86407643 </i>
    <i name="e_wo_entrp">   -376.87766216 </i>
    <i name="e_0_energy">   -376.86860501 </i>
   </energy>
  </scstep>
  <scstep>
   <time name="diag">    0.09    0.09</time>
   <time name="diis">    0.76    0.76</time>
   <time name="orth">    0.01    0.01</time>
   <time name="total">    1.00    1.03</time>
   <energy>
    <i name="e_fr_energy">   -378.97839821 </i>
    <i name="e_wo_entrp">   -378.98787378 </i>
    <i name="e_0_energy">   -378.98155674 </i>
   </energy>
  </scstep>
  <scstep>
   <time name="diag">    0.13    0.13</time>
   <time name="diis">    0.76    0.76</time>
   <time name="orth">    0.01    0.01</time>
   <time name="total">    0.98    0.99</time>
   <energy>
    <i name="e_fr_energy">   -372.03901094 </i>
    <i name="e_wo_entrp">   -372.06250179 </i>
    <i name="e_0_energy">   -372.04684123 </i>
   </energy>
  </scstep>
  <scstep>
   <time name="diag">    0.08    0.08</time>
   <time name="diis">    0.79    0.80</time>
   <time name="orth">    0.01    0.01</time>
   <time name="total">    0.98    1.00</time>
   <energy>
    <i name="e_fr_energy">   -371.81499899 </i>
    <i name="e_wo_entrp">   -371.83737910 </i>
    <i name="e_0_energy">   -371.82245903 </i>
   </energy>
  </scstep>
  <scstep>
   <time name="diag">    0.09    0.09</time>
   <time name="diis">    0.82    0.82</time>
   <time name="orth">    0.01    0.01</time>
   <time name="total">    1.00    1.02</time>
   <energy>
    <i name="e_fr_energy">   -371.76084257 </i>
    <i name="e_wo_entrp">   -371.78592642 </i>
    <i name="e_0_energy">   -371.76920385 </i>
   </energy>
  </scstep>
  <scstep>
   <time name="diag">    0.14    0.14</time>
   <time name="diis">    0.87    0.87</time>
   <time name="orth">    0.01    0.01</time>
   <time name="total">    1.10    1.13</time>
   <energy>
    <i name="e_fr_energy">   -371.72265773 </i>
    <i name="e_wo_entrp">   -371.74798561 </i>
    <i name="e_0_energy">   -371.73110036 </i>
   </energy>
  </scstep>
  <scstep>
   <time name="diag">    0.07    0.08</time>
   <time name="diis">    0.72    0.80</time>
   <time name="orth">    0.01    0.01</time>
   <time name="total">    0.87    0.98</time>
   <energy>
    <i name="e_fr_energy">   -371.71784534 </i>
    <i name="e_wo_entrp">   -371.74311924 </i>
    <i name="e_0_energy">   -371.72626997 </i>
   </energy>
  </scstep>
  <scstep>
   <time name="diag">    0.08    0.08</time>
   <time name="diis">    0.78    0.78</time>
   <time name="orth">    0.01    0.01</time>
   <time name="total">    0.93    0.95</time>
   <energy>
    <i name="e_fr_energy">   -371.71730117 </i>
    <i name="e_wo_entrp">   -371.74270804 </i>
    <i name="e_0_energy">   -371.72577013 </i>
   </energy>
  </scstep>
  <scstep>
   <time name="diag">    0.08    0.08</time>
   <time name="diis">    0.79    0.79</time>
   <time name="orth">    0.01    0.01</time>
   <time name="total">    0.94    0.97</time>
   <energy>
    <i name="e_fr_energy">   -371.71725727 </i>
    <i name="e_wo_entrp">   -371.74269929 </i>
    <i name="e_0_energy">   -371.72573795 </i>
   </energy>
  </scstep>
  <scstep>
   <time name="diag">    0.07    0.07</time>
   <time name="diis">    0.79    0.79</time>
   <time name="orth">    0.01    0.01</time>
   <time name="total">    0.96    0.97</time>
   <energy>
    <i name="e_fr_energy">   -371.71749684 </i>
    <i name="e_wo_entrp">   -371.74284426 </i>
    <i name="e_0_energy">   -371.72594598 </i>
   </energy>
  </scstep>
  <scstep>
   <time name="diag">    0.09    0.09</time>
   <time name="diis">    0.83    0.83</time>
   <time name="orth">    0.01    0.01</time>
   <time name="total">    1.02    1.05</time>
   <energy>
    <i name="e_fr_energy">   -371.71751067 </i>
    <i name="e_wo_entrp">   -371.74290046 </i>
    <i name="e_0_energy">   -371.72597393 </i>
   </energy>
  </scstep>
  <scstep>
   <time name="diag">    0.08    0.08</time>
   <time name="diis">    0.64    0.65</time>
   <time name="orth">    0.01    0.01</time>
   <time name="total">    0.86    0.91</time>
   <energy>
    <i name="e_fr_energy">   -371.71752390 </i>
    <i name="e_wo_entrp">   -371.74298091 </i>
    <i name="e_0_energy">   -371.72600957 </i>
   </energy>
  </scstep>
  <scstep>
   <time name="diag">    0.13    0.13</time>
   <time name="diis">    0.63    0.63</time>
   <time name="orth">    0.01    0.01</time>
   <time name="total">    0.84    0.86</time>
   <energy>
    <i name="e_fr_energy">   -371.71753985 </i>
    <i name="e_wo_entrp">   -371.74299054 </i>
    <i name="e_0_energy">   -371.72602341 </i>
   </energy>
  </scstep>
  <scstep>
   <time name="diag">    0.07    0.07</time>
   <time name="diis">    0.46    0.46</time>
   <time name="orth">    0.01    0.01</time>
   <time name="total">    0.58    0.60</time>
   <energy>
    <i name="alphaZ">   1507.60277299 </i>
    <i name="ewald"> -18729.62158956 </i>
    <i name="hartreedc">  -5822.15208677 </i>
    <i name="XCdc">   -485.37856755 </i>
    <i name="pawpsdc">  32687.93351889 </i>
    <i name="pawaedc"> -30955.24188764 </i>
    <i name="eentropy">      0.02545401 </i>
    <i name="bandstr">  -2310.55949403 </i>
    <i name="atom">  23735.67433589 </i>
    <i name="e_fr_energy">   -371.71754377 </i>
    <i name="e_wo_entrp">   -371.74299778 </i>
    <i name="e_0_energy">   -371.72602844 </i>
   </energy>
  </scstep>
  <structure>
   <crystal>
    <varray name="basis" >
     <v>       6.90161621      -0.00187560       0.00224474 </v>
     <v>      -0.00231956      10.16617079       0.00135183 </v>
     <v>       0.00337709       0.00121715      10.22349645 </v>
    </varray>
    <i name="volume">    717.31114154 </i>
    <varray name="rec_basis" >
     <v>       0.14489362       0.00003307      -0.00004787 </v>
     <v>       0.00002674       0.09836546      -0.00001172 </v>
     <v>      -0.00003182      -0.00001301       0.09781391 </v>
    </varray>
   </crystal>
   <varray name="positions" >
    <v>       0.76244800       0.83456400       0.82585200 </v>
    <v>       0.23676900       0.50373100       0.49528200 </v>
    <v>       0.50439600       0.98465000       0.32881400 </v>
    <v>       0.99538900       0.99166000       0.33042800 </v>
    <v>       0.00654600       0.01537600       0.65981600 </v>
    <v>       0.99004000       0.65676800       0.65882800 </v>
    <v>       0.01896400       0.34138300       0.34687700 </v>
    <v>       0.23138200       0.52248300       0.82931000 </v>
    <v>       0.49410900       0.33579800       0.66808700 </v>
    <v>       0.48945900       0.98833100       0.00941800 </v>
    <v>       0.74400700       0.16572700       0.49092400 </v>
    <v>       0.25353200       0.16934100       0.18029700 </v>
    <v>       0.00695900       0.33301800       0.66785600 </v>
    <v>       0.23856300       0.84108400       0.50154900 </v>
    <v>       0.75991100       0.15068900       0.83693000 </v>
    <v>       0.50843300       0.65868800       0.65942300 </v>
    <v>       0.75119300       0.16544300       0.17095100 </v>
    <v>       0.24026400       0.83436500       0.82289700 </v>
    <v>       0.75600500       0.48890100       0.17167200 </v>
    <v>       0.50189700       0.66760700       0.33511100 </v>
    <v>       0.01982000       0.33827700       0.98531800 </v>
    <v>       0.49643100       0.66742000       0.00289500 </v>
    <v>       0.48419100       0.34124600       0.98401400 </v>
    <v>       0.76119000       0.84283800       0.50200700 </v>
    <v>       0.23845200       0.49620000       0.17503000 </v>
    <v>       0.99998800       0.66593900       0.00761600 </v>
    <v>       0.22555000       0.83452100       0.17626000 </v>
    <v>       0.75982000       0.49149000       0.49261300 </v>
    <v>       0.77260400       0.83355900       0.17071100 </v>
    <v>       0.01420700       0.99293400       0.01007300 </v>
    <v>       0.76525300       0.51704900       0.83304100 </v>
    <v>       0.99386300       0.66711900       0.33309900 </v>
    <v>       0.25691000       0.15898600       0.49513700 </v>
    <v>       0.24486100       0.14737200       0.82650800 </v>
    <v>       0.49684100       0.00812000       0.66395400 </v>
    <v>       0.47975300       0.34733300       0.35139600 </v>
   </varray>
  </structure>
  <varray name="forces" >
   <v>      -0.13312908      -0.01805529       0.04200135 </v>
   <v>      -0.00664565      -0.03102475      -0.01493040 </v>
   <v>       0.02961334      -0.00159776       0.01264785 </v>
   <v>      -0.03667641       0.00225796       0.00153717 </v>
   <v>      -0.22887827      -0.34177837       0.23680356 </v>
   <v>      -0.14078771       0.36756998       0.30986841 </v>
   <v>       0.01193106       0.00727307       0.01017529 </v>
   <v>      -0.02233312      -0.01401841       0.00071416 </v>
   <v>       0.00583006       0.01618460      -0.00886475 </v>
   <v>       0.30916292      -0.12983532      -0.24122571 </v>
   <v>       0.00217926      -0.00347180       0.01812524 </v>
   <v>      -0.00885380      -0.00611188       0.04177747 </v>
   <v>       0.01640513       0.00984270      -0.02106423 </v>
   <v>       0.01016182       0.03246602       0.01290697 </v>
   <v>       0.00278219      -0.09429312       0.02531775 </v>
   <v>       0.16402645       0.26494348       0.20202028 </v>
   <v>      -0.00455454       0.00174306       0.01104697 </v>
   <v>      -0.01408665      -0.02630037      -0.03389042 </v>
   <v>      -0.01467693      -0.00231317       0.00158896 </v>
   <v>       0.03310859      -0.00587637       0.01155995 </v>
   <v>       0.01724986      -0.02446314       0.00062860 </v>
   <v>       0.21106597       0.20523063      -0.19708230 </v>
   <v>       0.00620876      -0.01703549      -0.00226860 </v>
   <v>       0.01640573       0.02737914      -0.10312058 </v>
   <v>       0.00233587      -0.00710509       0.00247067 </v>
   <v>      -0.20551301       0.25207792      -0.28766262 </v>
   <v>       0.02086767      -0.01964729      -0.02961522 </v>
   <v>       0.00303732      -0.00204537       0.02687935 </v>
   <v>       0.00131598       0.01554060       0.12993775 </v>
   <v>      -0.29281569      -0.17495010      -0.32167887 </v>
   <v>       0.01464564      -0.07557812       0.00259704 </v>
   <v>      -0.01232469      -0.01042004       0.01896044 </v>
   <v>      -0.00320280       0.01484781      -0.03756307 </v>
   <v>      -0.00560469       0.04175706      -0.02020972 </v>
   <v>       0.25772130      -0.27726770       0.19551207 </v>
   <v>      -0.00597188       0.02407492       0.00409918 </v>
  </varray>
  <varray name="stress" >
   <v>      -7.89475889       0.10397062      -0.55869048 </v>
   <v>       0.10397062      -7.40489899       0.03561915 </v>
   <v>      -0.55869049       0.03561913      -7.75877800 </v>
  </varray>
  <energy>
   <i name="e_fr_energy">   -371.71754377 </i>
   <i name="e_wo_entrp">   -371.72602844 </i>
   <i name="e_0_energy">      0.02545401 </i>
  </energy>
  <time name="totalsc">   21.50   22.40</time>
 </calculation>
 <calculation>
  <scstep>
   <time name="dav">    1.04    1.05</time>
   <time name="total">    1.19    1.28</time>
   <energy>
    <i name="alphaZ">   1513.87710898 </i>
    <i name="ewald"> -18753.60082684 </i>
    <i name="hartreedc">  -5832.13232040 </i>
    <i name="XCdc">   -484.26511552 </i>
    <i name="pawpsdc">  32688.04733429 </i>
    <i name="pawaedc"> -30955.35082066 </i>
    <i name="eentropy">      0.02554132 </i>
    <i name="bandstr">  -2284.05277573 </i>
    <i name="atom">  23735.67433589 </i>
    <i name="e_fr_energy">   -371.77753868 </i>
    <i name="e_wo_entrp">   -371.80307999 </i>
    <i name="e_0_energy">   -371.78605245 </i>
   </energy>
  </scstep>
  <scstep>
   <time name="diag">    0.08    0.08</time>
   <time name="diis">    0.74    0.75</time>
   <time name="orth">    0.01    0.01</time>
   <time name="total">    1.05    1.08</time>
   <energy>
    <i name="e_fr_energy">   -371.76115999 </i>
    <i name="e_wo_entrp">   -371.78692607 </i>
    <i name="e_0_energy">   -371.76974868 </i>
   </energy>
  </scstep>
  <scstep>
   <time name="diag">    0.10    0.10</time>
   <time name="diis">    0.77    0.77</time>
   <time name="orth">    0.01    0.01</time>
   <time name="total">    0.95    0.97</time>
   <energy>
    <i name="e_fr_energy">   -371.75272872 </i>
    <i name="e_wo_entrp">   -371.77815222 </i>
    <i name="e_0_energy">   -371.76120322 </i>
   </energy>
  </scstep>
  <scstep>
   <time name="diag">    0.08    0.08</time>
   <time name="diis">    0.78    0.79</time>
   <time name="orth">    0.01    0.01</time>
   <time name="total">    0.94    0.96</time>
   <energy>
    <i name="e_fr_energy">   -371.74875281 </i>
    <i name="e_wo_entrp">   -371.77420036 </i>
    <i name="e_0_energy">   -371.75723533 </i>
   </energy>
  </scstep>
  <scstep>
   <time name="diag">    0.07    0.07</time>
   <time name="diis">    0.77    0.78</time>
   <time name="orth">    0.01    0.01</time>
   <time name="total">    0.93    0.94</time>
   <energy>
    <i name="e_fr_energy">   -371.74807104 </i>
    <i name="e_wo_entrp">   -371.77360144 </i>
    <i name="e_0_energy">   -371.75658117 </i>
   </energy>
  </scstep>
  <scstep>
   <time name="diag">    0.07    0.07</time>
   <time name="diis">    0.90    0.90</time>
   <time name="orth">    0.01    0.01</time>
   <time name="total">    1.05    1.07</time>
   <energy>
    <i name="e_fr_energy">   -371.74818133 </i>
    <i name="e_wo_entrp">   -371.77380235 </i>
    <i name="e_0_energy">   -371.75672167 </i>
   </energy>
  </scstep>
  <scstep>
   <time name="diag">    0.07    0.08</time>
   <time name="diis">    0.84    0.84</time>
   <time name="orth">    0.01    0.01</time>
   <time name="total">    0.99    1.01</time>
   <energy>
    <i name="e_fr_energy">   -371.74827105 </i>
    <i name="e_wo_entrp">   -371.77375023 </i>
    <i name="e_0_energy">   -371.75676411 </i>
   </energy>
  </scstep>
  <scstep>
   <time name="diag">    0.07    0.07</time>
   <time name="diis">    0.75    0.75</time>
   <time name="orth">    0.01    0.01</time>
   <time name="total">    0.91    0.93</time>
   <energy>
    <i name="e_fr_energy">   -371.74833972 </i>
    <i name="e_wo_entrp">   -371.77389431 </i>
    <i name="e_0_energy">   -371.75685791 </i>
   </energy>
  </scstep>
  <scstep>
   <time name="diag">    0.08    0.08</time>
   <time name="diis">    0.64    0.64</time>
   <time name="orth">    0.01    0.01</time>
   <time name="total">    0.80    0.81</time>
   <energy>
    <i name="e_fr_energy">   -371.74838245 </i>
    <i name="e_wo_entrp">   -371.77393916 </i>
    <i name="e_0_energy">   -371.75690136 </i>
   </energy>
  </scstep>
  <scstep>
   <time name="diag">    0.10    0.10</time>
   <time name="diis">    0.57    0.58</time>
   <time name="orth">    0.01    0.01</time>
   <time name="total">    0.76    0.78</time>
   <energy>
    <i name="e_fr_energy">   -371.74842351 </i>
    <i name="e_wo_entrp">   -371.77396640 </i>
    <i name="e_0_energy">   -371.75693781 </i>
   </energy>
  </scstep>
  <scstep>
   <time name="diag">    0.08    0.08</time>
   <time name="diis">    0.50    0.51</time>
   <time name="orth">    0.01    0.01</time>
   <time name="total">    0.68    0.70</time>
   <energy>
    <i name="e_fr_energy">   -371.74844172 </i>
    <i name="e_wo_entrp">   -371.77398376 </i>
    <i name="e_0_energy">   -371.75695573 </i>
   </energy>
  </scstep>
  <scstep>
   <time name="diag">    0.11    0.12</time>
   <time name="diis">    0.39    0.42</time>
   <time name="orth">    0.01    0.01</time>
   <time name="total">    0.56    0.62</time>
   <energy>
    <i name="alphaZ">   1513.87710898 </i>
    <i name="ewald"> -18753.60082684 </i>
    <i name="hartreedc">  -5816.96890482 </i>
    <i name="XCdc">   -484.89971879 </i>
    <i name="pawpsdc">  32868.11820921 </i>
    <i name="pawaedc"> -31135.17126848 </i>
    <i name="eentropy">      0.02554141 </i>
    <i name="bandstr">  -2298.80292388 </i>
    <i name="atom">  23735.67433589 </i>
    <i name="e_fr_energy">   -371.74844733 </i>
    <i name="e_wo_entrp">   -371.77398874 </i>
    <i name="e_0_energy">   -371.75696114 </i>
   </energy>
  </scstep>
  <structure>
   <crystal>
    <varray name="basis" >
     <v>       6.89180894      -0.00174394       0.00154758 </v>
     <v>      -0.00212616      10.15262125       0.00141535 </v>
     <v>       0.00234425       0.00128113      10.20921903 </v>
    </varray>
    <i name="volume">    714.33821126 </i>
    <varray name="rec_basis" >
     <v>       0.14509980       0.00003039      -0.00003332 </v>
     <v>       0.00002493       0.09849674      -0.00001237 </v>
     <v>      -0.00002200      -0.00001366       0.09795069 </v>
    </varray>
   </crystal>
   <varray name="positions" >
    <v>       0.76216879       0.83453824       0.82591152 </v>
    <v>       0.23675506       0.50368683       0.49526087 </v>
    <v>       0.50445809       0.98464773       0.32883189 </v>
    <v>       0.99531209       0.99166320       0.33043019 </v>
    <v>       0.00606571       0.01488931       0.66015140 </v>
    <v>       0.98974473       0.65729117       0.65926666 </v>
    <v>       0.01898902       0.34139336       0.34689140 </v>
    <v>       0.23133516       0.52246303       0.82931102 </v>
    <v>       0.49412124       0.33582104       0.66807444 </v>
    <v>       0.49010742       0.98814632       0.00907639 </v>
    <v>       0.74401156       0.16572206       0.49094966 </v>
    <v>       0.25351340       0.16933229       0.18035615 </v>
    <v>       0.00699342       0.33303202       0.66782617 </v>
    <v>       0.23858432       0.84113022       0.50156726 </v>
    <v>       0.75991677       0.15055476       0.83696586 </v>
    <v>       0.50877695       0.65906521       0.65970886 </v>
    <v>       0.75118344       0.16544548       0.17096664 </v>
    <v>       0.24023447       0.83432756       0.82284903 </v>
    <v>       0.75597422       0.48889770       0.17167426 </v>
    <v>       0.50196642       0.66759865       0.33512735 </v>
    <v>       0.01985616       0.33824218       0.98531889 </v>
    <v>       0.49687384       0.66771229       0.00261587 </v>
    <v>       0.48420401       0.34122175       0.98401079 </v>
    <v>       0.76122449       0.84287700       0.50186101 </v>
    <v>       0.23845689       0.49618989       0.17503350 </v>
    <v>       0.99955736       0.66629783       0.00720882 </v>
    <v>       0.22559377       0.83449304       0.17621807 </v>
    <v>       0.75982635       0.49148708       0.49265105 </v>
    <v>       0.77260668       0.83358110       0.17089494 </v>
    <v>       0.01359310       0.99268488       0.00961779 </v>
    <v>       0.76528367       0.51694141       0.83304468 </v>
    <v>       0.99383714       0.66710416       0.33312585 </v>
    <v>       0.25690332       0.15900714       0.49508382 </v>
    <v>       0.24484928       0.14743145       0.82647939 </v>
    <v>       0.49738118       0.00772534       0.66423071 </v>
    <v>       0.47974049       0.34736727       0.35140180 </v>
   </varray>
  </structure>
  <varray name="forces" >
   <v>      -0.12303973      -0.00226233       0.04241630 </v>
   <v>       0.00042830      -0.01242143       0.00561138 </v>
   <v>       0.01892612       0.00984292       0.01162817 </v>
   <v>      -0.02122308       0.02436878       0.00294755 </v>
   <v>      -0.21736022      -0.32516186       0.21671601 </v>
   <v>      -0.12723423       0.34061809       0.27825592 </v>
   <v>      -0.00830538      -0.00691455       0.00082573 </v>
   <v>      -0.00930662      -0.01395000      -0.00011760 </v>
   <v>       0.00424875       0.01974444      -0.00185591 </v>
   <v>       0.29128023      -0.11381595      -0.22315774 </v>
   <v>       0.00391661      -0.00617339       0.02277479 </v>
   <v>      -0.00779208      -0.01443014       0.01978194 </v>
   <v>       0.01691804       0.00629138      -0.02043766 </v>
   <v>       0.01283497       0.02331385       0.01734172 </v>
   <v>      -0.00145138      -0.06682338       0.02484966 </v>
   <v>       0.14475113       0.24964437       0.18069497 </v>
   <v>      -0.00403659       0.01190349       0.00392566 </v>
   <v>      -0.00493924      -0.02420154      -0.03142808 </v>
   <v>      -0.01885036      -0.00351344      -0.00899819 </v>
   <v>       0.02395509      -0.01158742       0.01079715 </v>
   <v>       0.01420544      -0.03264253       0.00824557 </v>
   <v>       0.18951912       0.18576730      -0.17244225 </v>
   <v>       0.00674620      -0.02258382       0.00189629 </v>
   <v>       0.01328109       0.01898851      -0.09066451 </v>
   <v>       0.01226898       0.00713665      -0.01518098 </v>
   <v>      -0.18787724       0.22603226      -0.25874313 </v>
   <v>       0.03598833      -0.01915733      -0.04154091 </v>
   <v>      -0.00104119       0.01181509       0.04051009 </v>
   <v>      -0.02011339       0.01295578       0.10959696 </v>
   <v>      -0.27928686      -0.15260825      -0.29127015 </v>
   <v>       0.00154591      -0.08706358       0.00611424 </v>
   <v>      -0.00288549      -0.02018346       0.01972800 </v>
   <v>      -0.00405675       0.00463110      -0.02491553 </v>
   <v>      -0.00217408       0.03979908      -0.01149116 </v>
   <v>       0.23707732      -0.26662112       0.17755155 </v>
   <v>       0.01308227       0.00926242      -0.00996586 </v>
  </varray>
  <varray name="stress" >
   <v>      -2.03359336       0.05308390      -0.45327874 </v>
   <v>       0.05308390      -1.61230189       0.05220866 </v>
   <v>      -0.45327878       0.05220869      -1.89238597 </v>
  </varray>
  <energy>
   <i name="e_fr_energy">   -371.74844733 </i>
   <i name="e_wo_entrp">   -371.75696114 </i>
   <i name="e_0_energy">      0.02554141 </i>
  </energy>
  <time name="totalsc">   12.38   12.85</time>
 </calculation>
 <calculation>
  <scstep>
   <time name="dav">    0.98    0.99</time>
   <time name="total">    1.14    1.22</time>
   <energy>
    <i name="alphaZ">   1526.00488240 </i>
    <i name="ewald"> -18799.44393421 </i>
    <i name="hartreedc">  -5836.44857554 </i>
    <i name="XCdc">   -482.75537854 </i>
    <i name="pawpsdc">  32868.20475051 </i>
    <i name="pawaedc"> -31135.23834515 </i>
    <i name="eentropy">      0.02562003 </i>
    <i name="bandstr">  -2247.90231749 </i>
    <i name="atom">  23735.67433589 </i>
    <i name="e_fr_energy">   -371.87896209 </i>
    <i name="e_wo_entrp">   -371.90458212 </i>
    <i name="e_0_energy">   -371.88750210 </i>
   </energy>
  </scstep>
  <scstep>
   <time name="diag">    0.08    0.08</time>
   <time name="diis">    0.74    0.74</time>
   <time name="orth">    0.01    0.01</time>
   <time name="total">    0.89    0.91</time>
   <energy>
    <i name="e_fr_energy">   -371.81762105 </i>
    <i name="e_wo_entrp">   -371.84347331 </i>
    <i name="e_0_energy">   -371.82623847 </i>
   </energy>
  </scstep>
  <scstep>
   <time name="diag">    0.08    0.08</time>
   <time name="diis">    0.87    0.87</time>
   <time name="orth">    0.01    0.01</time>
   <time name="total">    1.02    1.04</time>
   <energy>
    <i name="e_fr_energy">   -371.78725299 </i>
    <i name="e_wo_entrp">   -371.81258809 </i>
    <i name="e_0_energy">   -371.79569802 </i>
   </energy>
  </scstep>
  <scstep>
   <time name="diag">    0.07    0.07</time>
   <time name="diis">    0.92    0.92</time>
   <time name="orth">    0.01    0.01</time>
   <time name="total">    1.07    1.09</time>
   <energy>
    <i name="e_fr_energy">   -371.77236443 </i>
    <i name="e_wo_entrp">   -371.79778553 </i>
    <i name="e_0_energy">   -371.78083813 </i>
   </energy>
  </scstep>
  <scstep>
   <time name="diag">    0.08    0.08</time>
   <time name="diis">    0.79    0.80</time>
   <time name="orth">    0.01    0.01</time>
   <time name="total">    0.95    0.97</time>
   <energy>
    <i name="e_fr_energy">   -371.77004271 </i>
    <i name="e_wo_entrp">   -371.79562856 </i>
    <i name="e_0_energy">   -371.77857133 </i>
   </energy>
  </scstep>
  <scstep>
   <time name="diag">    0.07    0.08</time>
   <time name="diis">    0.89    0.89</time>
   <time name="orth">    0.01    0.01</time>
   <time name="total">    1.04    1.06</time>
   <energy>
    <i name="e_fr_energy">   -371.77037952 </i>
    <i name="e_wo_entrp">   -371.79612138 </i>
    <i name="e_0_energy">   -371.77896014 </i>
   </energy>
  </scstep>
  <scstep>
   <time name="diag">    0.07    0.07</time>
   <time name="diis">    0.93    0.94</time>
   <time name="orth">    0.01    0.01</time>
   <time name="total">    1.09    1.11</time>
   <energy>
    <i name="e_fr_energy">   -371.77067687 </i>
    <i name="e_wo_entrp">   -371.79617403 </i>
    <i name="e_0_energy">   -371.77917592 </i>
   </energy>
  </scstep>
  <scstep>
   <time name="diag">    0.07    0.07</time>
   <time name="diis">    0.81    0.82</time>
   <time name="orth">    0.01    0.01</time>
   <time name="total">    0.97    1.00</time>
   <energy>
    <i name="e_fr_energy">   -371.77089714 </i>
    <i name="e_wo_entrp">   -371.79652468 </i>
    <i name="e_0_energy">   -371.77943965 </i>
   </energy>
  </scstep>
  <scstep>
   <time name="diag">    0.07    0.07</time>
   <time name="diis">    0.72    0.72</time>
   <time name="orth">    0.01    0.01</time>
   <time name="total">    0.87    0.89</time>
   <energy>
    <i name="e_fr_energy">   -371.77103382 </i>
    <i name="e_wo_entrp">   -371.79666916 </i>
    <i name="e_0_energy">   -371.77957894 </i>
   </energy>
  </scstep>
  <scstep>
   <time name="diag">    0.07    0.07</time>
   <time name="diis">    0.66    0.66</time>
   <time name="orth">    0.01    0.01</time>
   <time name="total">    0.81    0.84</time>
   <energy>
    <i name="e_fr_energy">   -371.77115537 </i>
    <i name="e_wo_entrp">   -371.79675950 </i>
    <i name="e_0_energy">   -371.77969008 </i>
   </energy>
  </scstep>
  <scstep>
   <time name="diag">    0.08    0.08</time>
   <time name="diis">    0.56    0.57</time>
   <time name="orth">    0.01    0.01</time>
   <time name="total">    0.72    0.74</time>
   <energy>
    <i name="e_fr_energy">   -371.77120707 </i>
    <i name="e_wo_entrp">   -371.79681248 </i>
    <i name="e_0_energy">   -371.77974220 </i>
   </energy>
  </scstep>
  <scstep>
   <time name="diag">    0.07    0.07</time>
   <time name="diis">    0.54    0.55</time>
   <time name="orth">    0.01    0.01</time>
   <time name="total">    0.70    0.72</time>
   <energy>
    <i name="e_fr_energy">   -371.77122490 </i>
    <i name="e_wo_entrp">   -371.79683159 </i>
    <i name="e_0_energy">   -371.77976046 </i>
   </energy>
  </scstep>
  <scstep>
   <time name="diag">    0.08    0.08</time>
   <time name="diis">    0.42    0.42</time>
   <time name="orth">    0.01    0.01</time>
   <time name="total">    0.54    0.55</time>
   <energy>
    <i name="alphaZ">   1526.00488240 </i>
    <i name="ewald"> -18799.44393421 </i>
    <i name="hartreedc">  -5807.51584704 </i>
    <i name="XCdc">   -483.96542087 </i>
    <i name="pawpsdc">  33223.70933848 </i>
    <i name="pawaedc"> -31490.13121921 </i>
    <i name="eentropy">      0.02560767 </i>
    <i name="bandstr">  -2276.12897112 </i>
    <i name="atom">  23735.67433589 </i>
    <i name="e_fr_energy">   -371.77122801 </i>
    <i name="e_wo_entrp">   -371.79683568 </i>
    <i name="e_0_energy">   -371.77976390 </i>
   </energy>
  </scstep>
  <structure>
   <crystal>
    <varray name="basis" >
     <v>       6.87300520      -0.00149149       0.00021089 </v>
     <v>      -0.00175534      10.12664236       0.00153714 </v>
     <v>       0.00036397       0.00140381      10.18184455 </v>
    </varray>
    <i name="volume">    708.66107872 </i>
    <varray name="rec_basis" >
     <v>       0.14549677       0.00002522      -0.00000520 </v>
     <v>       0.00002143       0.09874942      -0.00001362 </v>
     <v>      -0.00000302      -0.00001491       0.09821403 </v>
    </varray>
   </crystal>
   <varray name="positions" >
    <v>       0.76163271       0.83448878       0.82602577 </v>
    <v>       0.23672829       0.50360204       0.49522031 </v>
    <v>       0.50457731       0.98464338       0.32886625 </v>
    <v>       0.99516442       0.99166935       0.33043439 </v>
    <v>       0.00514365       0.01395492       0.66079531 </v>
    <v>       0.98917789       0.65829561       0.66010884 </v>
    <v>       0.01903705       0.34141324       0.34691904 </v>
    <v>       0.23124523       0.52242470       0.82931298 </v>
    <v>       0.49414474       0.33586529       0.66805034 </v>
    <v>       0.49135235       0.98779176       0.00842059 </v>
    <v>       0.74402031       0.16571256       0.49099892 </v>
    <v>       0.25347771       0.16931556       0.18046971 </v>
    <v>       0.00705950       0.33305894       0.66776890 </v>
    <v>       0.23862525       0.84121896       0.50160232 </v>
    <v>       0.75992787       0.15029703       0.83703471 </v>
    <v>       0.50943742       0.65978939       0.66025776 </v>
    <v>       0.75116510       0.16545024       0.17099667 </v>
    <v>       0.24017776       0.83425568       0.82275694 </v>
    <v>       0.75591512       0.48889137       0.17167859 </v>
    <v>       0.50209971       0.66758260       0.33515875 </v>
    <v>       0.01992559       0.33817533       0.98532059 </v>
    <v>       0.49772403       0.66827343       0.00207998 </v>
    <v>       0.48422900       0.34117519       0.98400463 </v>
    <v>       0.76129066       0.84295188       0.50158070 </v>
    <v>       0.23846629       0.49617047       0.17504021 </v>
    <v>       0.99873036       0.66698677       0.00642697 </v>
    <v>       0.22567780       0.83443937       0.17613757 </v>
    <v>       0.75983855       0.49148149       0.49272411 </v>
    <v>       0.77261187       0.83362353       0.17124811 </v>
    <v>       0.01241426       0.99220661       0.00874369 </v>
    <v>       0.76534258       0.51673485       0.83305176 </v>
    <v>       0.99378749       0.66707566       0.33317740 </v>
    <v>       0.25689047       0.15904774       0.49498172 </v>
    <v>       0.24482677       0.14754558       0.82642444 </v>
    <v>       0.49841845       0.00696763       0.66476207 </v>
    <v>       0.47971646       0.34743307       0.35141294 </v>
   </varray>
  </structure>
  <varray name="forces" >
   <v>      -0.10402689       0.02665430       0.04442330 </v>
   <v>       0.01455882       0.02518842       0.04716430 </v>
   <v>      -0.00309502       0.03338053       0.00923161 </v>
   <v>       0.01025422       0.06768306       0.00733603 </v>
   <v>      -0.19401770      -0.29176834       0.17517088 </v>
   <v>      -0.10096087       0.28531196       0.21362017 </v>
   <v>      -0.04782932      -0.03563407      -0.01545782 </v>
   <v>       0.01500497      -0.01267065      -0.00207505 </v>
   <v>       0.00119834       0.02549955       0.01095270 </v>
   <v>       0.25431941      -0.08173804      -0.18660030 </v>
   <v>       0.00814049      -0.01069027       0.03190513 </v>
   <v>      -0.00597092      -0.03170122      -0.02186725 </v>
   <v>       0.01651415      -0.00109427      -0.02100361 </v>
   <v>       0.01850443       0.00538277       0.02609471 </v>
   <v>      -0.00914266      -0.01184417       0.02373199 </v>
   <v>       0.10530251       0.21864830       0.13592994 </v>
   <v>      -0.00199362       0.03015215      -0.00859289 </v>
   <v>       0.01403218      -0.01965285      -0.02568958 </v>
   <v>      -0.02570456      -0.00459538      -0.02989488 </v>
   <v>       0.00456760      -0.02290609       0.01052598 </v>
   <v>       0.00928935      -0.04828766       0.02204186 </v>
   <v>       0.14527961       0.14477962      -0.12276023 </v>
   <v>       0.00721503      -0.03207486       0.00904323 </v>
   <v>       0.00705804       0.00304538      -0.06813216 </v>
   <v>       0.03084131       0.03525978      -0.04973135 </v>
   <v>      -0.15282225       0.17449881      -0.20030956 </v>
   <v>       0.06703697      -0.01719072      -0.06447513 </v>
   <v>      -0.00892577       0.03925052       0.06704363 </v>
   <v>      -0.06256721       0.00817296       0.07029491 </v>
   <v>      -0.25082797      -0.10844186      -0.23133440 </v>
   <v>      -0.02265547      -0.10950845       0.01267912 </v>
   <v>       0.01618901      -0.03886049       0.02174367 </v>
   <v>      -0.00553720      -0.01430451      -0.00060494 </v>
   <v>       0.00480130       0.03568901       0.00502966 </v>
   <v>       0.19549428      -0.24548563       0.14122053 </v>
   <v>       0.05047540      -0.02014757      -0.03665420 </v>
  </varray>
  <varray name="stress" >
   <v>       9.57077088      -0.05533171      -0.23351539 </v>
   <v>      -0.05533165       9.87366365       0.06821626 </v>
   <v>      -0.23351538       0.06821627       9.74063749 </v>
  </varray>
  <energy>
   <i name="e_fr_energy">   -371.77122801 </i>
   <i name="e_wo_entrp">   -371.77976390 </i>
   <i name="e_0_energy">      0.02560767 </i>
  </energy>
  <time name="totalsc">   13.56   13.95</time>
 </calculation>
 <calculation>
  <scstep>
   <time name="dav">    1.00    1.01</time>
   <time name="total">    1.17    1.28</time>
   <energy>
    <i name="alphaZ">   1524.82614153 </i>
    <i name="ewald"> -18792.14734871 </i>
    <i name="hartreedc">  -5808.43456392 </i>
    <i name="XCdc">   -484.16549484 </i>
    <i name="pawpsdc">  33224.02714700 </i>
    <i name="pawaedc"> -31490.42937448 </i>
    <i name="eentropy">      0.02532667 </i>
    <i name="bandstr">  -2281.16832003 </i>
    <i name="atom">  23735.67433589 </i>
    <i name="e_fr_energy">   -371.79215090 </i>
    <i name="e_wo_entrp">   -371.81747757 </i>
    <i name="e_0_energy">   -371.80059313 </i>
   </energy>
  </scstep>
  <scstep>
   <time name="diag">    0.11    0.11</time>
   <time name="diis">    0.80    0.81</time>
   <time name="orth">    0.01    0.01</time>
   <time name="total">    1.02    1.03</time>
   <energy>
    <i name="e_fr_energy">   -371.79849273 </i>
    <i name="e_wo_entrp">   -371.82434265 </i>
    <i name="e_0_energy">   -371.80710937 </i>
   </energy>
  </scstep>
  <scstep>
   <time name="diag">    0.07    0.08</time>
   <time name="diis">    0.76    0.76</time>
   <time name="orth">    0.01    0.01</time>
   <time name="total">    0.91    0.93</time>
   <energy>
    <i name="e_fr_energy">   -371.79526201 </i>
    <i name="e_wo_entrp">   -371.82074169 </i>
    <i name="e_0_energy">   -371.80375524 </i>
   </energy>
  </scstep>
  <scstep>
   <time name="diag">    0.07    0.07</time>
   <time name="diis">    0.78    0.79</time>
   <time name="orth">    0.01    0.01</time>
   <time name="total">    0.93    0.95</time>
   <energy>
    <i name="e_fr_energy">   -371.79500602 </i>
    <i name="e_wo_entrp">   -371.82060126 </i>
    <i name="e_0_energy">   -371.80353777 </i>
   </energy>
  </scstep>
  <scstep>
   <time name="diag">    0.08    0.08</time>
   <time name="diis">    0.78    0.78</time>
   <time name="orth">    0.01    0.01</time>
   <time name="total">    0.93    0.95</time>
   <energy>
    <i name="e_fr_energy">   -371.79491925 </i>
    <i name="e_wo_entrp">   -371.82049467 </i>
    <i name="e_0_energy">   -371.80344439 </i>
   </energy>
  </scstep>
  <scstep>
   <time name="diag">    0.08    0.08</time>
   <time name="diis">    0.78    0.78</time>
   <time name="orth">    0.01    0.01</time>
   <time name="total">    0.93    0.95</time>
   <energy>
    <i name="e_fr_energy">   -371.79489026 </i>
    <i name="e_wo_entrp">   -371.82045625 </i>
    <i name="e_0_energy">   -371.80341225 </i>
   </energy>
  </scstep>
  <scstep>
   <time name="diag">    0.07    0.07</time>
   <time name="diis">    0.69    0.69</time>
   <time name="orth">    0.01    0.01</time>
   <time name="total">    0.84    0.86</time>
   <energy>
    <i name="e_fr_energy">   -371.79488324 </i>
    <i name="e_wo_entrp">   -371.82045722 </i>
    <i name="e_0_energy">   -371.80340790 </i>
   </energy>
  </scstep>
  <scstep>
   <time name="diag">    0.07    0.07</time>
   <time name="diis">    0.41    0.41</time>
   <time name="orth">    0.01    0.01</time>
   <time name="total">    0.53    0.56</time>
   <energy>
    <i name="alphaZ">   1524.82614153 </i>
    <i name="ewald"> -18792.14734871 </i>
    <i name="hartreedc">  -5811.72816246 </i>
    <i name="XCdc">   -484.03500369 </i>
    <i name="pawpsdc">  33189.59613406 </i>
    <i name="pawaedc"> -31455.85780502 </i>
    <i name="eentropy">      0.02556981 </i>
    <i name="bandstr">  -2278.14874133 </i>
    <i name="atom">  23735.67433589 </i>
    <i name="e_fr_energy">   -371.79487991 </i>
    <i name="e_wo_entrp">   -371.82044972 </i>
    <i name="e_0_energy">   -371.80340318 </i>
   </energy>
  </scstep>
  <structure>
   <crystal>
    <varray name="basis" >
     <v>       6.87445322      -0.00144886      -0.00048719 </v>
     <v>      -0.00169238      10.12980489       0.00167235 </v>
     <v>      -0.00067014       0.00153963      10.18438860 </v>
    </varray>
    <i name="volume">    709.20889709 </i>
    <varray name="rec_basis" >
     <v>       0.14546612       0.00002430       0.00000957 </v>
     <v>       0.00002080       0.09871859      -0.00001492 </v>
     <v>       0.00000696      -0.00001621       0.09818950 </v>
    </varray>
   </crystal>
   <varray name="positions" >
    <v>       0.76127525       0.83449771       0.82611377 </v>
    <v>       0.23674036       0.50359630       0.49525339 </v>
    <v>       0.50461710       0.98467607       0.32888850 </v>
    <v>       0.99512489       0.99174121       0.33044344 </v>
    <v>       0.00450594       0.01330654       0.66121453 </v>
    <v>       0.98881372       0.65896336       0.66064122 </v>
    <v>       0.01898252       0.34138402       0.34691356 </v>
    <v>       0.23123441       0.52239739       0.82931159 </v>
    <v>       0.49415532       0.33590799       0.66805255 </v>
    <v>       0.49220172       0.98757560       0.00798533 </v>
    <v>       0.74403591       0.16569803       0.49104991 </v>
    <v>       0.25345536       0.16927674       0.18048971 </v>
    <v>       0.00710915       0.33306786       0.66772608 </v>
    <v>       0.23866854       0.84125758       0.50164208 </v>
    <v>       0.75991817       0.15018875       0.83708465 </v>
    <v>       0.50984331       0.66028417       0.66060141 </v>
    <v>       0.75115524       0.16548300       0.17099908 </v>
    <v>       0.24017785       0.83420868       0.82269633 </v>
    <v>       0.75585415       0.48888428       0.17164964 </v>
    <v>       0.50215634       0.66755307       0.33518123 </v>
    <v>       0.01996555       0.33810077       0.98534377 </v>
    <v>       0.49826110       0.66863154       0.00175465 </v>
    <v>       0.48424924       0.34112487       0.98401158 </v>
    <v>       0.76132600       0.84298294       0.50140652 </v>
    <v>       0.23851652       0.49619948       0.17499187 </v>
    <v>       0.99819045       0.66742303       0.00593056 </v>
    <v>       0.22581066       0.83440171       0.17604164 </v>
    <v>       0.75982960       0.49151973       0.49281989 </v>
    <v>       0.77251908       0.83364773       0.17145168 </v>
    <v>       0.01159465       0.99191680       0.00818120 </v>
    <v>       0.76533021       0.51654526       0.83306739 </v>
    <v>       0.99379348       0.66702509       0.33321885 </v>
    <v>       0.25687728       0.15904817       0.49494303 </v>
    <v>       0.24482564       0.14762482       0.82640909 </v>
    <v>       0.49910136       0.00643277       0.66510468 </v>
    <v>       0.47978394       0.34743691       0.35137962 </v>
   </varray>
  </structure>
  <varray name="forces" >
   <v>      -0.08208225       0.04089245       0.04083049 </v>
   <v>       0.00915829       0.03410603       0.04661206 </v>
   <v>      -0.01250953       0.03471505       0.00565128 </v>
   <v>       0.02402051       0.06427703       0.00214866 </v>
   <v>      -0.16458407      -0.24930941       0.14542184 </v>
   <v>      -0.09296482       0.22717600       0.17309802 </v>
   <v>      -0.04438298      -0.02830452      -0.00859885 </v>
   <v>       0.00559506       0.00297665      -0.00543100 </v>
   <v>      -0.00749230       0.02948318       0.00768490 </v>
   <v>       0.22016369      -0.06484313      -0.15572783 </v>
   <v>       0.00606743      -0.01789928       0.03531414 </v>
   <v>      -0.00656914      -0.04318081      -0.03214749 </v>
   <v>       0.02365224      -0.00197148      -0.02299438 </v>
   <v>       0.00977732       0.00649837       0.02518282 </v>
   <v>      -0.00461852       0.00762661       0.01510731 </v>
   <v>       0.08982831       0.18703186       0.10886547 </v>
   <v>       0.00176117       0.02626745      -0.00749590 </v>
   <v>       0.01466534      -0.00969772      -0.02075859 </v>
   <v>      -0.01876013       0.00080413      -0.03003948 </v>
   <v>      -0.00546443      -0.03028216       0.01444570 </v>
   <v>       0.01846023      -0.04263460       0.02118542 </v>
   <v>       0.11685243       0.11497369      -0.09428614 </v>
   <v>      -0.00495051      -0.02920499       0.00664176 </v>
   <v>       0.01446066       0.00600738      -0.06456627 </v>
   <v>       0.02734816       0.03995944      -0.04985570 </v>
   <v>      -0.12768310       0.13664586      -0.15705130 </v>
   <v>       0.04764094      -0.00399861      -0.06882023 </v>
   <v>      -0.00080236       0.04543585       0.06699163 </v>
   <v>      -0.04944301       0.01216433       0.05857913 </v>
   <v>      -0.22111633      -0.09540154      -0.18046686 </v>
   <v>      -0.01406330      -0.10232901       0.01216784 </v>
   <v>       0.02734930      -0.04213825       0.01390119 </v>
   <v>      -0.00223990      -0.02980194       0.01009630 </v>
   <v>      -0.00151583       0.00975366       0.00102895 </v>
   <v>       0.15763285      -0.21921081       0.11663544 </v>
   <v>       0.04680857      -0.01658676      -0.02935032 </v>
  </varray>
  <varray name="stress" >
   <v>       8.29038285      -0.12526048      -0.10897450 </v>
   <v>      -0.12526054       8.45903781       0.05270548 </v>
   <v>      -0.10897450       0.05270537       8.51292047 </v>
  </varray>
  <energy>
   <i name="e_fr_energy">   -371.79487991 </i>
   <i name="e_wo_entrp">   -371.80340318 </i>
   <i name="e_0_energy">      0.02556981 </i>
  </energy>
  <time name="totalsc">    8.94    9.26</time>
 </calculation>
 <calculation>
  <scstep>
   <time name="dav">    1.01    1.02</time>
   <time name="total">    1.17    1.25</time>
   <energy>
    <i name="alphaZ">   1521.29743452 </i>
    <i name="ewald"> -18769.23902187 </i>
    <i name="hartreedc">  -5815.35125585 </i>
    <i name="XCdc">   -484.63271082 </i>
    <i name="pawpsdc">  33189.78215211 </i>
    <i name="pawaedc"> -31456.06773618 </i>
    <i name="eentropy">      0.02420975 </i>
    <i name="bandstr">  -2293.30187365 </i>
    <i name="atom">  23735.67433589 </i>
    <i name="e_fr_energy">   -371.81446608 </i>
    <i name="e_wo_entrp">   -371.83867584 </i>
    <i name="e_0_energy">   -371.82253600 </i>
   </energy>
  </scstep>
  <scstep>
   <time name="diag">    0.07    0.07</time>
   <time name="diis">    0.76    0.76</time>
   <time name="orth">    0.01    0.01</time>
   <time name="total">    0.91    0.93</time>
   <energy>
    <i name="e_fr_energy">   -371.86882835 </i>
    <i name="e_wo_entrp">   -371.89433007 </i>
    <i name="e_0_energy">   -371.87732893 </i>
   </energy>
  </scstep>
  <scstep>
   <time name="diag">    0.08    0.08</time>
   <time name="diis">    0.84    0.84</time>
   <time name="orth">    0.01    0.01</time>
   <time name="total">    1.01    1.02</time>
   <energy>
    <i name="e_fr_energy">   -371.84447052 </i>
    <i name="e_wo_entrp">   -371.86936249 </i>
    <i name="e_0_energy">   -371.85276785 </i>
   </energy>
  </scstep>
  <scstep>
   <time name="diag">    0.07    0.07</time>
   <time name="diis">    0.88    0.89</time>
   <time name="orth">    0.01    0.01</time>
   <time name="total">    1.12    1.13</time>
   <energy>
    <i name="e_fr_energy">   -371.84193091 </i>
    <i name="e_wo_entrp">   -371.86708926 </i>
    <i name="e_0_energy">   -371.85031702 </i>
   </energy>
  </scstep>
  <scstep>
   <time name="diag">    0.11    0.11</time>
   <time name="diis">    0.82    0.83</time>
   <time name="orth">    0.01    0.01</time>
   <time name="total">    1.00    1.03</time>
   <energy>
    <i name="e_fr_energy">   -371.84124405 </i>
    <i name="e_wo_entrp">   -371.86638481 </i>
    <i name="e_0_energy">   -371.84962430 </i>
   </energy>
  </scstep>
  <scstep>
   <time name="diag">    0.08    0.08</time>
   <time name="diis">    0.78    0.80</time>
   <time name="orth">    0.01    0.01</time>
   <time name="total">    0.93    0.96</time>
   <energy>
    <i name="e_fr_energy">   -371.84100908 </i>
    <i name="e_wo_entrp">   -371.86611253 </i>
    <i name="e_0_energy">   -371.84937690 </i>
   </energy>
  </scstep>
  <scstep>
   <time name="diag">    0.07    0.07</time>
   <time name="diis">    0.83    0.84</time>
   <time name="orth">    0.01    0.01</time>
   <time name="total">    0.98    1.00</time>
   <energy>
    <i name="e_fr_energy">   -371.84097826 </i>
    <i name="e_wo_entrp">   -371.86610347 </i>
    <i name="e_0_energy">   -371.84935333 </i>
   </energy>
  </scstep>
  <scstep>
   <time name="diag">    0.07    0.07</time>
   <time name="diis">    0.71    0.72</time>
   <time name="orth">    0.01    0.01</time>
   <time name="total">    0.86    0.88</time>
   <energy>
    <i name="e_fr_energy">   -371.84098423 </i>
    <i name="e_wo_entrp">   -371.86610223 </i>
    <i name="e_0_energy">   -371.84935690 </i>
   </energy>
  </scstep>
  <scstep>
   <time name="diag">    0.07    0.07</time>
   <time name="diis">    0.67    0.67</time>
   <time name="orth">    0.01    0.01</time>
   <time name="total">    0.83    0.84</time>
   <energy>
    <i name="e_fr_energy">   -371.84098723 </i>
    <i name="e_wo_entrp">   -371.86609110 </i>
    <i name="e_0_energy">   -371.84935518 </i>
   </energy>
  </scstep>
  <scstep>
   <time name="diag">    0.08    0.08</time>
   <time name="diis">    0.50    0.67</time>
   <time name="orth">    0.01    0.01</time>
   <time name="total">    0.63    0.82</time>
   <energy>
    <i name="alphaZ">   1521.29743452 </i>
    <i name="ewald"> -18769.23902187 </i>
    <i name="hartreedc">  -5824.84753520 </i>
    <i name="XCdc">   -484.25869490 </i>
    <i name="pawpsdc">  33086.54681697 </i>
    <i name="pawaedc"> -31352.89089249 </i>
    <i name="eentropy">      0.02511248 </i>
    <i name="bandstr">  -2284.14854122 </i>
    <i name="atom">  23735.67433589 </i>
    <i name="e_fr_energy">   -371.84098582 </i>
    <i name="e_wo_entrp">   -371.86609830 </i>
    <i name="e_0_energy">   -371.84935664 </i>
   </energy>
  </scstep>
  <structure>
   <crystal>
    <varray name="basis" >
     <v>       6.87879727      -0.00132100      -0.00258142 </v>
     <v>      -0.00150352      10.13929248       0.00207796 </v>
     <v>      -0.00377248       0.00194708      10.19202077 </v>
    </varray>
    <i name="volume">    710.85393398 </i>
    <varray name="rec_basis" >
     <v>       0.14537428       0.00002155       0.00005380 </v>
     <v>       0.00001893       0.09862622      -0.00001883 </v>
     <v>       0.00003682      -0.00002010       0.09811599 </v>
    </varray>
   </crystal>
   <varray name="positions" >
    <v>       0.76020314       0.83452450       0.82637761 </v>
    <v>       0.23677656       0.50357911       0.49535262 </v>
    <v>       0.50473645       0.98477409       0.32895525 </v>
    <v>       0.99500634       0.99195673       0.33047057 </v>
    <v>       0.00259343       0.01136200       0.66247177 </v>
    <v>       0.98772166       0.66096596       0.66223787 </v>
    <v>       0.01881898       0.34129638       0.34689711 </v>
    <v>       0.23120196       0.52231548       0.82930741 </v>
    <v>       0.49418705       0.33603607       0.66805916 </v>
    <v>       0.49474910       0.98692735       0.00668006 </v>
    <v>       0.74408270       0.16565445       0.49120285 </v>
    <v>       0.25338834       0.16916032       0.18054968 </v>
    <v>       0.00725805       0.33309461       0.66759764 </v>
    <v>       0.23879840       0.84137341       0.50176131 </v>
    <v>       0.75988911       0.14986400       0.83723443 </v>
    <v>       0.51106087       0.66176801       0.66163218 </v>
    <v>       0.75112570       0.16558127       0.17100630 </v>
    <v>       0.24017809       0.83406774       0.82251455 </v>
    <v>       0.75567128       0.48886303       0.17156280 </v>
    <v>       0.50232619       0.66746452       0.33524868 </v>
    <v>       0.02008539       0.33787715       0.98541331 </v>
    <v>       0.49987182       0.66970551       0.00077899 </v>
    <v>       0.48430994       0.34097393       0.98403244 </v>
    <v>       0.76143193       0.84307611       0.50088410 </v>
    <v>       0.23866714       0.49628650       0.17484689 </v>
    <v>       0.99657083       0.66873142       0.00444155 </v>
    <v>       0.22620910       0.83428876       0.17575395 </v>
    <v>       0.75980279       0.49163443       0.49310715 </v>
    <v>       0.77224088       0.83372029       0.17206222 </v>
    <v>       0.00913609       0.99104768       0.00649397 </v>
    <v>       0.76529313       0.51597666       0.83311425 </v>
    <v>       0.99381149       0.66687344       0.33334319 </v>
    <v>       0.25683769       0.15904947       0.49482697 </v>
    <v>       0.24482227       0.14786248       0.82636303 </v>
    <v>       0.50114984       0.00482869       0.66613243 </v>
    <v>       0.47998631       0.34744843       0.35127970 </v>
   </varray>
  </structure>
  <varray name="forces" >
   <v>      -0.01370371       0.07966641       0.03114775 </v>
   <v>      -0.00246695       0.05651177       0.04111563 </v>
   <v>      -0.04096133       0.03935104      -0.00575451 </v>
   <v>       0.06578092       0.05481918      -0.01396552 </v>
   <v>      -0.08405091      -0.12978070       0.06142762 </v>
   <v>      -0.07098495       0.05760774       0.05552023 </v>
   <v>      -0.03536693      -0.00716129       0.01176612 </v>
   <v>      -0.02095445       0.04856998      -0.01108858 </v>
   <v>      -0.03301967       0.04223673      -0.00393014 </v>
   <v>       0.11475733      -0.01272673      -0.06277815 </v>
   <v>      -0.00045569      -0.03662581       0.04429687 </v>
   <v>      -0.00739621      -0.07438600      -0.05811355 </v>
   <v>       0.04419057      -0.00402123      -0.03185186 </v>
   <v>      -0.01461329       0.00878164       0.02216658 </v>
   <v>       0.00648268       0.07099838      -0.01194924 </v>
   <v>       0.04516530       0.09627795       0.02710639 </v>
   <v>       0.01308837       0.01468760      -0.00532421 </v>
   <v>       0.01756150       0.02064824      -0.00148103 </v>
   <v>       0.00171780       0.01697753      -0.03220262 </v>
   <v>      -0.03595592      -0.05221259       0.02357541 </v>
   <v>       0.04741281      -0.02500148       0.01923742 </v>
   <v>       0.03170876       0.02446860      -0.00931542 </v>
   <v>      -0.04191466      -0.01958970      -0.00005468 </v>
   <v>       0.03293005       0.01377769      -0.05442816 </v>
   <v>       0.01817101       0.05051307      -0.04612691 </v>
   <v>      -0.05370677       0.02382895      -0.02752900 </v>
   <v>      -0.00809088       0.03363377      -0.07899544 </v>
   <v>       0.02057871       0.06270188       0.06627674 </v>
   <v>      -0.01007690       0.02265143       0.02342945 </v>
   <v>      -0.13170375      -0.05723368      -0.02852979 </v>
   <v>       0.01082408      -0.07970862       0.00917993 </v>
   <v>       0.06156451      -0.05144859      -0.00920236 </v>
   <v>       0.00869156      -0.06439398       0.03358797 </v>
   <v>      -0.01889357      -0.06616348      -0.01057999 </v>
   <v>       0.04726164      -0.14851771       0.04240921 </v>
   <v>       0.03642892      -0.00973800      -0.00904215 </v>
  </varray>
  <varray name="stress" >
   <v>       4.24617733      -0.33653276       0.25996398 </v>
   <v>      -0.33653275       4.10483718       0.03244761 </v>
   <v>       0.25996402       0.03244757       4.70308249 </v>
  </varray>
  <energy>
   <i name="e_fr_energy">   -371.84098582 </i>
   <i name="e_wo_entrp">   -371.84935664 </i>
   <i name="e_0_energy">      0.02511248 </i>
  </energy>
  <time name="totalsc">   11.12   11.64</time>
 </calculation>
 <calculation>
  <scstep>
   <time name="dav">    0.98    1.01</time>
   <time name="total">    1.15    1.26</time>
   <energy>
    <i name="alphaZ">   1514.27368737 </i>
    <i name="ewald"> -18718.80560097 </i>
    <i name="hartreedc">  -5836.29333691 </i>
    <i name="XCdc">   -485.43051158 </i>
    <i name="pawpsdc">  33085.75531938 </i>
    <i name="pawaedc"> -31352.13868206 </i>
    <i name="eentropy">      0.01987892 </i>
    <i name="bandstr">  -2314.75903489 </i>
    <i name="atom">  23735.67433589 </i>
    <i name="e_fr_energy">   -371.70394485 </i>
    <i name="e_wo_entrp">   -371.72382376 </i>
    <i name="e_0_energy">   -371.71057115 </i>
   </energy>
  </scstep>
  <scstep>
   <time name="diag">    0.08    0.08</time>
   <time name="diis">    0.75    0.75</time>
   <time name="orth">    0.03    0.03</time>
   <time name="total">    0.92    0.94</time>
   <energy>
    <i name="e_fr_energy">   -371.90289700 </i>
    <i name="e_wo_entrp">   -371.92463605 </i>
    <i name="e_0_energy">   -371.91014335 </i>
   </energy>
  </scstep>
  <scstep>
   <time name="diag">    0.08    0.08</time>
   <time name="diis">    0.75    0.78</time>
   <time name="orth">    0.01    0.01</time>
   <time name="total">    0.91    0.97</time>
   <energy>
    <i name="e_fr_energy">   -371.83838120 </i>
    <i name="e_wo_entrp">   -371.86040506 </i>
    <i name="e_0_energy">   -371.84572248 </i>
   </energy>
  </scstep>
  <scstep>
   <time name="diag">    0.08    0.08</time>
   <time name="diis">    0.80    0.80</time>
   <time name="orth">    0.01    0.01</time>
   <time name="total">    0.98    1.01</time>
   <energy>
    <i name="e_fr_energy">   -371.82673461 </i>
    <i name="e_wo_entrp">   -371.84887566 </i>
    <i name="e_0_energy">   -371.83411496 </i>
   </energy>
  </scstep>
  <scstep>
   <time name="diag">    0.07    0.07</time>
   <time name="diis">    0.78    0.78</time>
   <time name="orth">    0.01    0.01</time>
   <time name="total">    0.93    0.94</time>
   <energy>
    <i name="e_fr_energy">   -371.82412005 </i>
    <i name="e_wo_entrp">   -371.84637741 </i>
    <i name="e_0_energy">   -371.83153917 </i>
   </energy>
  </scstep>
  <scstep>
   <time name="diag">    0.07    0.07</time>
   <time name="diis">    0.78    0.79</time>
   <time name="orth">    0.01    0.01</time>
   <time name="total">    0.93    0.95</time>
   <energy>
    <i name="e_fr_energy">   -371.82302011 </i>
    <i name="e_wo_entrp">   -371.84515562 </i>
    <i name="e_0_energy">   -371.83039861 </i>
   </energy>
  </scstep>
  <scstep>
   <time name="diag">    0.07    0.07</time>
   <time name="diis">    0.86    0.86</time>
   <time name="orth">    0.01    0.01</time>
   <time name="total">    1.01    1.03</time>
   <energy>
    <i name="e_fr_energy">   -371.82294731 </i>
    <i name="e_wo_entrp">   -371.84510953 </i>
    <i name="e_0_energy">   -371.83033472 </i>
   </energy>
  </scstep>
  <scstep>
   <time name="diag">    0.07    0.07</time>
   <time name="diis">    0.77    0.92</time>
   <time name="orth">    0.01    0.02</time>
   <time name="total">    0.92    1.10</time>
   <energy>
    <i name="e_fr_energy">   -371.82297153 </i>
    <i name="e_wo_entrp">   -371.84515476 </i>
    <i name="e_0_energy">   -371.83036594 </i>
   </energy>
  </scstep>
  <scstep>
   <time name="diag">    0.08    0.08</time>
   <time name="diis">    0.82    0.83</time>
   <time name="orth">    0.01    0.01</time>
   <time name="total">    1.01    1.04</time>
   <energy>
    <i name="e_fr_energy">   -371.82299303 </i>
    <i name="e_wo_entrp">   -371.84512717 </i>
    <i name="e_0_energy">   -371.83037108 </i>
   </energy>
  </scstep>
  <scstep>
   <time name="diag">    0.09    0.09</time>
   <time name="diis">    0.70    0.70</time>
   <time name="orth">    0.01    0.01</time>
   <time name="total">    0.88    0.92</time>
   <energy>
    <i name="e_fr_energy">   -371.82300875 </i>
    <i name="e_wo_entrp">   -371.84517984 </i>
    <i name="e_0_energy">   -371.83039912 </i>
   </energy>
  </scstep>
  <scstep>
[...]
       <r>    6.6729    1.0000 </r>
       <r>    6.7121    1.0000 </r>
       <r>    6.7586    1.0000 </r>
       <r>    6.8113    1.0000 </r>
       <r>    6.8371    1.0000 </r>
       <r>    6.8770    1.0000 </r>
       <r>    6.9252    1.0000 </r>
       <r>    6.9757    1.0001 </r>
       <r>    7.0063    1.0002 </r>
       <r>    7.0686    1.0013 </r>
       <r>    7.0834    1.0019 </r>
       <r>    7.1285    1.0061 </r>
       <r>    7.1428    1.0084 </r>
       <r>    7.1893    1.0197 </r>
       <r>    7.2339    1.0326 </r>
       <r>    7.2747    1.0328 </r>
       <r>    7.3077    1.0087 </r>
       <r>    7.3360    0.9586 </r>
       <r>    7.3539    0.9094 </r>
       <r>    7.3862    0.7848 </r>
       <r>    7.4386    0.5104 </r>
       <r>    7.4703    0.3352 </r>
       <r>    7.5153    0.1302 </r>
       <r>    7.5534    0.0230 </r>
       <r>    7.5659    0.0012 </r>
       <r>    7.5874   -0.0229 </r>
       <r>    7.6263   -0.0354 </r>
       <r>    7.6515   -0.0315 </r>
       <r>    7.6986   -0.0176 </r>
       <r>    7.7289   -0.0102 </r>
       <r>    7.7527   -0.0061 </r>
       <r>    7.7790   -0.0032 </r>
       <r>    7.8492   -0.0004 </r>
       <r>    7.8856   -0.0001 </r>
       <r>    7.9166   -0.0000 </r>
       <r>    7.9385   -0.0000 </r>
       <r>    8.0469   -0.0000 </r>
       <r>    8.1064   -0.0000 </r>
       <r>    8.1277   -0.0000 </r>
       <r>    8.2271   -0.0000 </r>
       <r>    8.2899   -0.0000 </r>
       <r>    8.5324   -0.0000 </r>
       <r>    8.6604   -0.0000 </r>
       <r>    8.7184   -0.0000 </r>
       <r>    9.3540   -0.0000 </r>
       <r>    9.3851   -0.0000 </r>
       <r>    9.4849   -0.0000 </r>
       <r>    9.5280   -0.0000 </r>
       <r>    9.5471   -0.0000 </r>
      </set>
     </set>
    </set>
   </array>
  </eigenvalues>
  <separator name="orbital magnetization" >
   <v name="MAGDIPOLOUT">      0.00000000      0.00000000      0.00000000</v>
  </separator>
  <dos>
   <i name="efermi">      7.44042402 </i>
   <total>
    <array>
     <dimension dim="1">gridpoints</dimension>
     <dimension dim="2">spin</dimension>
     <field>energy</field>
     <field>total</field>
     <field>integrated</field>
     <set>
      <set comment="spin 1">
       <r>   -49.5988     0.0000     0.0000 </r>
       <r>   -49.3922     0.0000     0.0000 </r>
       <r>   -49.1857     0.0000     0.0000 </r>
       <r>   -48.9792     0.0000     0.0000 </r>
       <r>   -48.7726     0.0000     0.0000 </r>
       <r>   -48.5661     0.0000     0.0000 </r>
       <r>   -48.3595     0.0000     0.0000 </r>
       <r>   -48.1530    -0.0000    -0.0000 </r>
       <r>   -47.9465    -0.0000    -0.0000 </r>
       <r>   -47.7399    -0.0000    -0.0000 </r>
       <r>   -47.5334    -0.0000    -0.0000 </r>
       <r>   -47.3268    -0.0000    -0.0000 </r>
       <r>   -47.1203    -0.0696    -0.0144 </r>
       <r>   -46.9137    -1.1992    -0.2621 </r>
       <r>   -46.7072    32.8206     6.5167 </r>
       <r>   -46.5007    44.1492    15.6353 </r>
       <r>   -46.2941     2.0638    16.0616 </r>
       <r>   -46.0876    -0.2978    16.0001 </r>
       <r>   -45.8810    -0.0005    16.0000 </r>
       <r>   -45.6745    -0.0000    16.0000 </r>
       <r>   -45.4680    -0.0000    16.0000 </r>
       <r>   -45.2614     0.0000    16.0000 </r>
       <r>   -45.0549     0.0000    16.0000 </r>
       <r>   -44.8483     0.0000    16.0000 </r>
       <r>   -44.6418     0.0000    16.0000 </r>
       <r>   -44.4353     0.0000    16.0000 </r>
       <r>   -44.2287     0.0000    16.0000 </r>
       <r>   -44.0222     0.0000    16.0000 </r>
       <r>   -43.8156     0.0000    16.0000 </r>
       <r>   -43.6091     0.0000    16.0000 </r>
       <r>   -43.4025     0.0000    16.0000 </r>
       <r>   -43.1960     0.0000    16.0000 </r>
       <r>   -42.9895     0.0000    16.0000 </r>
       <r>   -42.7829     0.0000    16.0000 </r>
       <r>   -42.5764     0.0000    16.0000 </r>
       <r>   -42.3698     0.0000    16.0000 </r>
       <r>   -42.1633    -0.0000    16.0000 </r>
       <r>   -41.9568    -0.0000    16.0000 </r>
       <r>   -41.7502    -0.0000    16.0000 </r>
       <r>   -41.5437    -0.0000    16.0000 </r>
       <r>   -41.3371    -0.0000    16.0000 </r>
       <r>   -41.1306    -0.0485    15.9900 </r>
       <r>   -40.9241    -1.2859    15.7244 </r>
       <r>   -40.7175    29.1081    21.7364 </r>
       <r>   -40.5110    39.4797    29.8906 </r>
       <r>   -40.3044     0.7321    30.0418 </r>
       <r>   -40.0979    -0.2021    30.0001 </r>
       <r>   -39.8914    -0.0003    30.0000 </r>
       <r>   -39.6848    -0.0000    30.0000 </r>
       <r>   -39.4783    -0.0000    30.0000 </r>
       <r>   -39.2717     0.0000    30.0000 </r>
       <r>   -39.0652     0.0000    30.0000 </r>
       <r>   -38.8586     0.0000    30.0000 </r>
       <r>   -38.6521     0.0000    30.0000 </r>
       <r>   -38.4456     0.0000    30.0000 </r>
       <r>   -38.2390     0.0000    30.0000 </r>
       <r>   -38.0325     0.0000    30.0000 </r>
       <r>   -37.8259     0.0000    30.0000 </r>
       <r>   -37.6194     0.0000    30.0000 </r>
       <r>   -37.4129     0.0000    30.0000 </r>
       <r>   -37.2063     0.0000    30.0000 </r>
       <r>   -36.9998     0.0000    30.0000 </r>
       <r>   -36.7932     0.0000    30.0000 </r>
       <r>   -36.5867     0.0000    30.0000 </r>
       <r>   -36.3802     0.0000    30.0000 </r>
       <r>   -36.1736     0.0000    30.0000 </r>
       <r>   -35.9671     0.0000    30.0000 </r>
       <r>   -35.7605     0.0000    30.0000 </r>
       <r>   -35.5540     0.0000    30.0000 </r>
       <r>   -35.3474     0.0000    30.0000 </r>
       <r>   -35.1409     0.0000    30.0000 </r>
       <r>   -34.9344     0.0000    30.0000 </r>
       <r>   -34.7278     0.0000    30.0000 </r>
       <r>   -34.5213     0.0000    30.0000 </r>
       <r>   -34.3147     0.0000    30.0000 </r>
       <r>   -34.1082     0.0000    30.0000 </r>
       <r>   -33.9017     0.0000    30.0000 </r>
       <r>   -33.6951     0.0000    30.0000 </r>
       <r>   -33.4886     0.0000    30.0000 </r>
       <r>   -33.2820     0.0000    30.0000 </r>
       <r>   -33.0755     0.0000    30.0000 </r>
       <r>   -32.8690     0.0000    30.0000 </r>
       <r>   -32.6624     0.0000    30.0000 </r>
       <r>   -32.4559     0.0000    30.0000 </r>
       <r>   -32.2493     0.0000    30.0000 </r>
       <r>   -32.0428     0.0000    30.0000 </r>
       <r>   -31.8363     0.0000    30.0000 </r>
       <r>   -31.6297     0.0000    30.0000 </r>
       <r>   -31.4232     0.0000    30.0000 </r>
       <r>   -31.2166     0.0000    30.0000 </r>
       <r>   -31.0101     0.0000    30.0000 </r>
       <r>   -30.8035     0.0000    30.0000 </r>
       <r>   -30.5970     0.0000    30.0000 </r>
       <r>   -30.3905     0.0000    30.0000 </r>
       <r>   -30.1839     0.0000    30.0000 </r>
       <r>   -29.9774     0.0000    30.0000 </r>
       <r>   -29.7708     0.0000    30.0000 </r>
       <r>   -29.5643     0.0000    30.0000 </r>
       <r>   -29.3578     0.0000    30.0000 </r>
       <r>   -29.1512     0.0000    30.0000 </r>
       <r>   -28.9447     0.0000    30.0000 </r>
       <r>   -28.7381     0.0000    30.0000 </r>
       <r>   -28.5316     0.0000    30.0000 </r>
       <r>   -28.3251     0.0000    30.0000 </r>
       <r>   -28.1185     0.0000    30.0000 </r>
       <r>   -27.9120     0.0000    30.0000 </r>
       <r>   -27.7054     0.0000    30.0000 </r>
       <r>   -27.4989     0.0000    30.0000 </r>
       <r>   -27.2923     0.0000    30.0000 </r>
       <r>   -27.0858     0.0000    30.0000 </r>
       <r>   -26.8793     0.0000    30.0000 </r>
       <r>   -26.6727     0.0000    30.0000 </r>
       <r>   -26.4662     0.0000    30.0000 </r>
       <r>   -26.2596     0.0000    30.0000 </r>
       <r>   -26.0531     0.0000    30.0000 </r>
       <r>   -25.8466     0.0000    30.0000 </r>
       <r>   -25.6400     0.0000    30.0000 </r>
       <r>   -25.4335     0.0000    30.0000 </r>
       <r>   -25.2269     0.0000    30.0000 </r>
       <r>   -25.0204     0.0000    30.0000 </r>
       <r>   -24.8139     0.0000    30.0000 </r>
       <r>   -24.6073    -0.0000    30.0000 </r>
       <r>   -24.4008    -0.0000    30.0000 </r>
       <r>   -24.1942    -0.0000    30.0000 </r>
       <r>   -23.9877    -0.0000    30.0000 </r>
       <r>   -23.7812    -0.0000    30.0000 </r>
       <r>   -23.5746    -0.0364    29.9925 </r>
       <r>   -23.3681    -0.5545    29.8779 </r>
       <r>   -23.1615    15.0803    32.9926 </r>
       <r>   -22.9550    33.1635    39.8423 </r>
       <r>   -22.7484   105.9262    61.7204 </r>
       <r>   -22.5419    59.9978    74.1124 </r>
       <r>   -22.3354    19.1854    78.0750 </r>
       <r>   -22.1288    -0.2897    78.0151 </r>
       <r>   -21.9223    -0.0732    78.0000 </r>
       <r>   -21.7157    -0.0001    78.0000 </r>
       <r>   -21.5092    -0.0000    78.0000 </r>
       <r>   -21.3027     0.0000    78.0000 </r>
       <r>   -21.0961     0.0000    78.0000 </r>
       <r>   -20.8896     0.0000    78.0000 </r>
       <r>   -20.6830     0.0000    78.0000 </r>
       <r>   -20.4765    -0.0000    78.0000 </r>
       <r>   -20.2700    -0.0000    78.0000 </r>
       <r>   -20.0634    -0.0000    78.0000 </r>
       <r>   -19.8569    -0.0000    78.0000 </r>
       <r>   -19.6503    -0.0016    77.9997 </r>
       <r>   -19.4438    -0.3131    77.9350 </r>
       <r>   -19.2372     3.7035    78.6999 </r>
       <r>   -19.0307    20.9593    83.0289 </r>
       <r>   -18.8242    57.2994    94.8635 </r>
       <r>   -18.6176    94.9602   114.4767 </r>
       <r>   -18.4111    27.2339   120.1016 </r>
       <r>   -18.2045    -0.3874   120.0216 </r>
       <r>   -17.9980    -0.1046   120.0000 </r>
       <r>   -17.7915    -0.0001   120.0000 </r>
       <r>   -17.5849    -0.0000   120.0000 </r>
       <r>   -17.3784     0.0000   120.0000 </r>
       <r>   -17.1718     0.0000   120.0000 </r>
       <r>   -16.9653     0.0000   120.0000 </r>
       <r>   -16.7588     0.0000   120.0000 </r>
       <r>   -16.5522     0.0000   120.0000 </r>
       <r>   -16.3457     0.0000   120.0000 </r>
       <r>   -16.1391     0.0000   120.0000 </r>
       <r>   -15.9326     0.0000   120.0000 </r>
       <r>   -15.7261     0.0000   120.0000 </r>
       <r>   -15.5195     0.0000   120.0000 </r>
       <r>   -15.3130     0.0000   120.0000 </r>
       <r>   -15.1064     0.0000   120.0000 </r>
       <r>   -14.8999     0.0000   120.0000 </r>
       <r>   -14.6933     0.0000   120.0000 </r>
       <r>   -14.4868     0.0000   120.0000 </r>
       <r>   -14.2803     0.0000   120.0000 </r>
       <r>   -14.0737     0.0000   120.0000 </r>
       <r>   -13.8672     0.0000   120.0000 </r>
       <r>   -13.6606     0.0000   120.0000 </r>
       <r>   -13.4541     0.0000   120.0000 </r>
       <r>   -13.2476     0.0000   120.0000 </r>
       <r>   -13.0410     0.0000   120.0000 </r>
       <r>   -12.8345     0.0000   120.0000 </r>
       <r>   -12.6279     0.0000   120.0000 </r>
       <r>   -12.4214     0.0000   120.0000 </r>
       <r>   -12.2149     0.0000   120.0000 </r>
       <r>   -12.0083     0.0000   120.0000 </r>
       <r>   -11.8018     0.0000   120.0000 </r>
       <r>   -11.5952     0.0000   120.0000 </r>
       <r>   -11.3887     0.0000   120.0000 </r>
       <r>   -11.1821     0.0000   120.0000 </r>
       <r>   -10.9756     0.0000   120.0000 </r>
       <r>   -10.7691     0.0000   120.0000 </r>
       <r>   -10.5625     0.0000   120.0000 </r>
       <r>   -10.3560     0.0000   120.0000 </r>
       <r>   -10.1494     0.0000   120.0000 </r>
       <r>    -9.9429     0.0000   120.0000 </r>
       <r>    -9.7364     0.0000   120.0000 </r>
       <r>    -9.5298     0.0000   120.0000 </r>
       <r>    -9.3233     0.0000   120.0000 </r>
       <r>    -9.1167     0.0000   120.0000 </r>
       <r>    -8.9102     0.0000   120.0000 </r>
       <r>    -8.7037     0.0000   120.0000 </r>
       <r>    -8.4971     0.0000   120.0000 </r>
       <r>    -8.2906     0.0000   120.0000 </r>
       <r>    -8.0840     0.0000   120.0000 </r>
       <r>    -7.8775     0.0000   120.0000 </r>
       <r>    -7.6709     0.0000   120.0000 </r>
       <r>    -7.4644     0.0000   120.0000 </r>
       <r>    -7.2579     0.0000   120.0000 </r>
       <r>    -7.0513     0.0000   120.0000 </r>
       <r>    -6.8448     0.0000   120.0000 </r>
       <r>    -6.6382     0.0000   120.0000 </r>
       <r>    -6.4317     0.0000   120.0000 </r>
       <r>    -6.2252     0.0000   120.0000 </r>
       <r>    -6.0186     0.0000   120.0000 </r>
       <r>    -5.8121     0.0000   120.0000 </r>
       <r>    -5.6055     0.0000   120.0000 </r>
       <r>    -5.3990     0.0000   120.0000 </r>
       <r>    -5.1925     0.0000   120.0000 </r>
       <r>    -4.9859     0.0000   120.0000 </r>
       <r>    -4.7794     0.0000   120.0000 </r>
       <r>    -4.5728     0.0000   120.0000 </r>
       <r>    -4.3663     0.0000   120.0000 </r>
       <r>    -4.1598     0.0000   120.0000 </r>
       <r>    -3.9532     0.0000   120.0000 </r>
       <r>    -3.7467     0.0000   120.0000 </r>
       <r>    -3.5401     0.0000   120.0000 </r>
       <r>    -3.3336     0.0000   120.0000 </r>
       <r>    -3.1270     0.0000   120.0000 </r>
       <r>    -2.9205     0.0000   120.0000 </r>
       <r>    -2.7140     0.0000   120.0000 </r>
       <r>    -2.5074     0.0000   120.0000 </r>
       <r>    -2.3009     0.0000   120.0000 </r>
       <r>    -2.0943     0.0000   120.0000 </r>
       <r>    -1.8878     0.0000   120.0000 </r>
       <r>    -1.6813     0.0000   120.0000 </r>
       <r>    -1.4747     0.0000   120.0000 </r>
       <r>    -1.2682     0.0000   120.0000 </r>
       <r>    -1.0616     0.0000   120.0000 </r>
       <r>    -0.8551    -0.0000   120.0000 </r>
       <r>    -0.6486    -0.0000   120.0000 </r>
       <r>    -0.4420    -0.0000   120.0000 </r>
       <r>    -0.2355    -0.0000   120.0000 </r>
       <r>    -0.0289    -0.0000   120.0000 </r>
       <r>     0.1776    -0.0008   119.9998 </r>
       <r>     0.3842    -0.0085   119.9981 </r>
       <r>     0.5907     0.2492   120.0496 </r>
       <r>     0.7972     1.0048   120.2571 </r>
       <r>     1.0038     1.5135   120.5697 </r>
       <r>     1.2103     1.8239   120.9464 </r>
       <r>     1.4169     3.4019   121.6490 </r>
       <r>     1.6234     4.3335   122.5441 </r>
       <r>     1.8299     2.1847   122.9953 </r>
       <r>     2.0365     4.9006   124.0075 </r>
       <r>     2.2430     3.0071   124.6286 </r>
       <r>     2.4496     3.2671   125.3034 </r>
       <r>     2.6561     7.0695   126.7635 </r>
       <r>     2.8626     7.1438   128.2390 </r>
       <r>     3.0692     9.4882   130.1987 </r>
       <r>     3.2757     7.8564   131.8214 </r>
       <r>     3.4823     8.5047   133.5779 </r>
       <r>     3.6888    15.0181   136.6798 </r>
       <r>     3.8953    21.0153   141.0203 </r>
       <r>     4.1019    23.7509   145.9258 </r>
       <r>     4.3084    26.3883   151.3761 </r>
       <r>     4.5150    30.9320   157.7648 </r>
       <r>     4.7215    35.3646   165.0691 </r>
       <r>     4.9281    39.3200   173.1903 </r>
       <r>     5.1346    38.0677   181.0528 </r>
       <r>     5.3411    34.3253   188.1424 </r>
       <r>     5.5477    33.5369   195.0692 </r>
       <r>     5.7542    24.2413   200.0760 </r>
       <r>     5.9608    15.0224   203.1787 </r>
       <r>     6.1673    55.5386   214.6497 </r>
       <r>     6.3738    65.0711   228.0896 </r>
       <r>     6.5804    57.3645   239.9377 </r>
       <r>     6.7869    52.1482   250.7084 </r>
       <r>     6.9935    52.7230   261.5979 </r>
       <r>     7.2000    57.3537   273.4438 </r>
       <r>     7.4065    48.3821   283.4367 </r>
       <r>     7.6131    48.7809   293.5119 </r>
       <r>     7.8196    52.0133   304.2548 </r>
       <r>     8.0262    43.3000   313.1980 </r>
       <r>     8.2327    28.5185   319.0883 </r>
       <r>     8.4393    23.6377   323.9705 </r>
       <r>     8.6458    20.3607   328.1758 </r>
       <r>     8.8523    14.1795   331.1044 </r>
       <r>     9.0589    12.0670   333.5968 </r>
       <r>     9.2654    22.2301   338.1882 </r>
       <r>     9.4720    20.5352   342.4296 </r>
       <r>     9.6785     7.9888   344.0796 </r>
       <r>     9.8850    -0.3703   344.0031 </r>
       <r>    10.0916    -0.0149   344.0000 </r>
       <r>    10.2981    -0.0000   344.0000 </r>
       <r>    10.5047    -0.0000   344.0000 </r>
       <r>    10.7112     0.0000   344.0000 </r>
       <r>    10.9177     0.0000   344.0000 </r>
       <r>    11.1243     0.0000   344.0000 </r>
       <r>    11.3308     0.0000   344.0000 </r>
       <r>    11.5374     0.0000   344.0000 </r>
       <r>    11.7439     0.0000   344.0000 </r>
       <r>    11.9504     0.0000   344.0000 </r>
       <r>    12.1570     0.0000   344.0000 </r>
       <r>    12.3635     0.0000   344.0000 </r>
      </set>
     </set>
    </array>
   </total>
  </dos>
 </calculation>
 <structure name="finalpos" >
  <crystal>
   <varray name="basis" >
    <v>       6.89223806      -0.01133449      -0.00431952 </v>
    <v>      -0.01628119      10.12293242      -0.00266559 </v>
    <v>      -0.00635247      -0.00282687      10.21391246 </v>
   </varray>
   <i name="volume">    712.61898556 </i>
   <varray name="rec_basis" >
    <v>       0.14509119       0.00023338       0.00009030 </v>
    <v>       0.00016247       0.09878587       0.00002744 </v>
    <v>       0.00006140       0.00002588       0.09790572 </v>
   </varray>
  </crystal>
  <varray name="positions" >
   <v>       0.75993624       0.83614380       0.82777337 </v>
   <v>       0.23615933       0.50599524       0.49502067 </v>
   <v>       0.50372226       0.98673231       0.32788074 </v>
   <v>       0.99786735       0.99404435       0.33036082 </v>
   <v>      -0.00309312       0.00720877       0.66472471 </v>
   <v>       0.98189957       0.66197804       0.66345920 </v>
   <v>       0.01806052       0.34116535       0.34771077 </v>
   <v>       0.22821980       0.52857021       0.82848566 </v>
   <v>       0.48861293       0.33982972       0.66653278 </v>
   <v>       0.50313977       0.98892963       0.00445668 </v>
   <v>       0.74360350       0.16406868       0.49510750 </v>
   <v>       0.25231616       0.16607759       0.18026892 </v>
   <v>       0.01563562       0.33246249       0.66542514 </v>
   <v>       0.23731285       0.84095611       0.50069846 </v>
   <v>       0.75743233       0.16062070       0.83339772 </v>
   <v>       0.51578512       0.66681980       0.66276367 </v>
   <v>       0.75179630       0.16779059       0.17277575 </v>
   <v>       0.24004464       0.83376280       0.82597402 </v>
   <v>       0.75522140       0.48782891       0.17095461 </v>
   <v>       0.50170614       0.66663983       0.33534658 </v>
   <v>       0.02720446       0.33682713       0.98632919 </v>
   <v>       0.50166196       0.66957395       0.00104753 </v>
   <v>       0.47710339       0.34022805       0.98368591 </v>
   <v>       0.76504548       0.84216240       0.49900704 </v>
   <v>       0.23859386       0.49802827       0.17539749 </v>
   <v>       0.99269737       0.66913034       0.00503473 </v>
   <v>       0.22703081       0.83648510       0.17399096 </v>
   <v>       0.76169220       0.49387645       0.49485407 </v>
   <v>       0.77222125       0.83478588       0.17237640 </v>
   <v>      -0.00145698       0.99167180       0.00443795 </v>
   <v>       0.76395842       0.50454139       0.83308970 </v>
   <v>       0.99617424       0.66563419       0.33159506 </v>
   <v>       0.25963658       0.15634147       0.49413279 </v>
   <v>       0.24364629       0.14225729       0.82541234 </v>
   <v>       0.50696914      -0.00545511       0.66795131 </v>
   <v>       0.48244284       0.34629646       0.35253376 </v>
  </varray>
 </structure>
</modeling>
