<?xml version="1.0" encoding="ISO-8859-1"?>
<modeling>
 <generator>
  <i name="program" type="string">vasp </i>
  <i name="version" type="string">5.4.1  </i>
  <i name="subversion" type="string">05Feb16 (build Jan 29 2020 16:04:39) complex                          parallel </i>
  <i name="platform" type="string">IFC91_ompi </i>
  <i name="date" type="string">2020 06 08 </i>
  <i name="time" type="string">00:38:23 </i>
 </generator>
 <incar>
  <i type="string" name="SYSTEM"> automatically generated by mexm</i>
  <i type="int" name="ISTART">     0</i>
  <i type="string" name="PREC">accurate               ! avoid wrap aro</i>
  <i type="string" name="ALGO"> Fast                   ! blocked Davids</i>
  <i type="int" name="ISPIN">     1</i>
  <i type="int" name="ICHARG">     2</i>
  <i type="int" name="NELM">    70</i>
  <i type="int" name="IBRION">     2</i>
  <i name="EDIFF">      0.00001000</i>
  <i name="EDIFFG">     -0.01000000</i>
  <i type="int" name="NSW">   300</i>
  <i type="int" name="ISIF">     3</i>
  <i type="int" name="ISYM">     1</i>
  <i name="ENCUT">    300.00000000</i>
  <i name="POTIM">      0.15000000</i>
  <i type="string" name="LREAL"> Auto                  ! unpublished met</i>
  <i type="int" name="ISMEAR">     1</i>
  <i name="SIGMA">      0.15000000</i>
  <i type="logical" name="LWAVE"> F  </i>
  <i type="logical" name="LCHARG"> F  </i>
  <i type="logical" name="LVTOT"> F  </i>
  <v type="int" name="KPOINT_BSE">    -1     0     0     0</v>
  <i type="int" name="NELM">    70</i>
 </incar>
 <kpoints>
  <generation param="Gamma">
   <v type="int" name="divisions">       3        3        3 </v>
   <v name="usershift">      0.00000000       0.00000000       0.00000000 </v>
   <v name="genvec1">      0.33333333      -0.00000000      -0.00000000 </v>
   <v name="genvec2">      0.00000000       0.33333333       0.00000000 </v>
   <v name="genvec3">      0.00000000       0.00000000       0.33333333 </v>
   <v name="shift">      0.00000000       0.00000000       0.00000000 </v>
  </generation>
  <varray name="kpointlist" >
   <v>       0.00000000       0.00000000       0.00000000 </v>
   <v>       0.33333333      -0.00000000      -0.00000000 </v>
   <v>      -0.00000000       0.33333333       0.00000000 </v>
   <v>       0.33333333       0.33333333      -0.00000000 </v>
   <v>      -0.33333333       0.33333333       0.00000000 </v>
   <v>       0.00000000       0.00000000       0.33333333 </v>
   <v>       0.33333333      -0.00000000       0.33333333 </v>
   <v>      -0.33333333      -0.00000000       0.33333333 </v>
   <v>       0.00000000       0.33333333       0.33333333 </v>
   <v>       0.33333333       0.33333333       0.33333333 </v>
   <v>      -0.33333333       0.33333333       0.33333333 </v>
   <v>       0.00000000      -0.33333333       0.33333333 </v>
   <v>       0.33333333      -0.33333333       0.33333333 </v>
   <v>      -0.33333333      -0.33333333       0.33333333 </v>
  </varray>
  <varray name="weights" >
   <v>       0.03703704 </v>
   <v>       0.07407407 </v>
   <v>       0.07407407 </v>
   <v>       0.07407407 </v>
   <v>       0.07407407 </v>
   <v>       0.07407407 </v>
   <v>       0.07407407 </v>
   <v>       0.07407407 </v>
   <v>       0.07407407 </v>
   <v>       0.07407407 </v>
   <v>       0.07407407 </v>
   <v>       0.07407407 </v>
   <v>       0.07407407 </v>
   <v>       0.07407407 </v>
  </varray>
 </kpoints>
 <parameters>
  <separator name="general" >
   <i type="string" name="SYSTEM">automatically generated by mexm</i>
   <i type="logical" name="LCOMPAT"> F  </i>
  </separator>
  <separator name="electronic" >
   <i type="string" name="PREC">accura</i>
   <i name="ENMAX">    300.00000000</i>
   <i name="ENAUG">    461.25700000</i>
   <i name="EDIFF">      0.00001000</i>
   <i type="int" name="IALGO">    68</i>
   <i type="int" name="IWAVPR">    11</i>
   <i type="int" name="NBANDS">   184</i>
   <i name="NELECT">    306.00000000</i>
   <i type="int" name="TURBO">     0</i>
   <i type="int" name="IRESTART">     0</i>
   <i type="int" name="NREBOOT">     0</i>
   <i type="int" name="NMIN">     0</i>
   <i name="EREF">      0.00000000</i>
   <separator name="electronic smearing" >
    <i type="int" name="ISMEAR">     1</i>
    <i name="SIGMA">      0.15000000</i>
    <i name="KSPACING">      0.50000000</i>
    <i type="logical" name="KGAMMA"> T  </i>
   </separator>
   <separator name="electronic projectors" >
    <i type="logical" name="LREAL"> T  </i>
    <v name="ROPT">     -0.00025000     -0.00025000     -0.00025000     -0.00025000</v>
    <i type="int" name="LMAXPAW">  -100</i>
    <i type="int" name="LMAXMIX">     2</i>
    <i type="logical" name="NLSPLINE"> F  </i>
   </separator>
   <separator name="electronic startup" >
    <i type="int" name="ISTART">     0</i>
    <i type="int" name="ICHARG">     2</i>
    <i type="int" name="INIWAV">     1</i>
   </separator>
   <separator name="electronic spin" >
    <i type="int" name="ISPIN">     1</i>
    <i type="logical" name="LNONCOLLINEAR"> F  </i>
    <v name="MAGMOM">      1.00000000      1.00000000      1.00000000      1.00000000      1.00000000      1.00000000      1.00000000      1.00000000      1.00000000      1.00000000      1.00000000      1.00000000      1.00000000      1.00000000      1.00000000      1.00000000      1.00000000      1.00000000      1.00000000      1.00000000
      1.00000000      1.00000000      1.00000000      1.00000000      1.00000000      1.00000000      1.00000000      1.00000000      1.00000000      1.00000000      1.00000000      1.00000000      1.00000000      1.00000000      1.00000000      1.00000000</v>
    <i name="NUPDOWN">     -1.00000000</i>
    <i type="logical" name="LSORBIT"> F  </i>
    <v name="SAXIS">      0.00000000      0.00000000      1.00000000</v>
    <i type="logical" name="LSPIRAL"> F  </i>
    <v name="QSPIRAL">      0.00000000      0.00000000      0.00000000</v>
    <i type="logical" name="LZEROZ"> F  </i>
   </separator>
   <separator name="electronic exchange-correlation" >
    <i type="logical" name="LASPH"> F  </i>
    <i type="logical" name="LMETAGGA"> F  </i>
   </separator>
   <separator name="electronic convergence" >
    <i type="int" name="NELM">    70</i>
    <i type="int" name="NELMDL">    -5</i>
    <i type="int" name="NELMIN">     2</i>
    <i name="ENINI">    300.00000000</i>
    <separator name="electronic convergence detail" >
     <i type="logical" name="LDIAG"> T  </i>
     <i type="logical" name="LSUBROT"> F  </i>
     <i name="WEIMIN">      0.00100000</i>
     <i name="EBREAK">      0.00000001</i>
     <i name="DEPER">      0.30000000</i>
     <i type="int" name="NRMM">     4</i>
     <i name="TIME">      0.40000000</i>
    </separator>
   </separator>
   <separator name="electronic mixer" >
    <i name="AMIX">      0.40000000</i>
    <i name="BMIX">      1.00000000</i>
    <i name="AMIN">      0.10000000</i>
    <i name="AMIX_MAG">      1.60000000</i>
    <i name="BMIX_MAG">      1.00000000</i>
    <separator name="electronic mixer details" >
     <i type="int" name="IMIX">     4</i>
     <i type="logical" name="MIXFIRST"> F  </i>
     <i type="int" name="MAXMIX">   -45</i>
     <i name="WC">    100.00000000</i>
     <i type="int" name="INIMIX">     1</i>
     <i type="int" name="MIXPRE">     1</i>
     <i type="int" name="MREMOVE">     5</i>
    </separator>
   </separator>
   <separator name="electronic dipolcorrection" >
    <i type="logical" name="LDIPOL"> F  </i>
    <i type="logical" name="LMONO"> F  </i>
    <i type="int" name="IDIPOL">     0</i>
    <i name="EPSILON">      1.00000000</i>
    <v name="DIPOL">   -100.00000000   -100.00000000   -100.00000000</v>
    <i name="EFIELD">      0.00000000</i>
   </separator>
  </separator>
  <separator name="grids" >
   <i type="int" name="NGX">    40</i>
   <i type="int" name="NGY">    60</i>
   <i type="int" name="NGZ">    60</i>
   <i type="int" name="NGXF">    80</i>
   <i type="int" name="NGYF">   120</i>
   <i type="int" name="NGZF">   120</i>
   <i type="logical" name="ADDGRID"> F  </i>
  </separator>
  <separator name="ionic" >
   <i type="int" name="NSW">   300</i>
   <i type="int" name="IBRION">     2</i>
   <i type="int" name="ISIF">     3</i>
   <i name="PSTRESS">      0.00000000</i>
   <i name="EDIFFG">     -0.01000000</i>
   <i type="int" name="NFREE">     1</i>
   <i name="POTIM">      0.15000000</i>
   <i name="SMASS">     -3.00000000</i>
   <i name="SCALEE">      1.00000000</i>
  </separator>
  <separator name="ionic md" >
   <i name="TEBEG">      0.00010000</i>
   <i name="TEEND">      0.00010000</i>
   <i type="int" name="NBLOCK">     1</i>
   <i type="int" name="KBLOCK">   300</i>
   <i type="int" name="NPACO">   256</i>
   <i name="APACO">     16.00000000</i>
  </separator>
  <separator name="symmetry" >
   <i type="int" name="ISYM">     1</i>
   <i name="SYMPREC">      0.00001000</i>
  </separator>
  <separator name="dos" >
   <i type="logical" name="LORBIT"> F  </i>
   <v name="RWIGS">     -1.00000000     -1.00000000     -1.00000000     -1.00000000</v>
   <i type="int" name="NEDOS">   301</i>
   <i name="EMIN">     10.00000000</i>
   <i name="EMAX">    -10.00000000</i>
   <i name="EFERMI">      0.00000000</i>
  </separator>
  <separator name="writing" >
   <i type="int" name="NWRITE">     2</i>
   <i type="logical" name="LWAVE"> F  </i>
   <i type="logical" name="LCHARG"> F  </i>
   <i type="logical" name="LPARD"> F  </i>
   <i type="logical" name="LVTOT"> F  </i>
   <i type="logical" name="LVHAR"> F  </i>
   <i type="logical" name="LELF"> F  </i>
   <i type="logical" name="LOPTICS"> F  </i>
   <v name="STM">      0.00000000      0.00000000      0.00000000      0.00000000      0.00000000      0.00000000      0.00000000</v>
  </separator>
  <separator name="performance" >
   <i type="int" name="NPAR">     4</i>
   <i type="int" name="NSIM">     4</i>
   <i type="int" name="NBLK">    -1</i>
   <i type="logical" name="LPLANE"> T  </i>
   <i type="logical" name="LSCALAPACK"> T  </i>
   <i type="logical" name="LSCAAWARE"> F  </i>
   <i type="logical" name="LSCALU"> F  </i>
   <i type="logical" name="LASYNC"> F  </i>
   <i type="logical" name="LORBITALREAL"> F  </i>
  </separator>
  <separator name="miscellaneous" >
   <i type="int" name="IDIOT">     3</i>
   <i type="logical" name="LMUSIC"> F  </i>
   <v name="POMASS">    178.49000000     92.91000000    180.94800000     91.22400000</v>
   <v name="DARWINR">      0.00000000      0.00000000      0.00000000      0.00000000</v>
   <v name="DARWINV">      1.00000000      1.00000000      1.00000000      1.00000000</v>
   <i type="logical" name="LCORR"> T  </i>
  </separator>
  <i type="logical" name="GGA_COMPAT"> T  </i>
  <i type="logical" name="LBERRY"> F  </i>
  <i type="int" name="ICORELEVEL">     0</i>
  <i type="logical" name="LDAU"> F  </i>
  <i type="int" name="I_CONSTRAINED_M">     0</i>
  <separator name="electronic exchange-correlation" >
   <i type="string" name="GGA">--</i>
   <i type="int" name="VOSKOWN">     0</i>
   <i type="logical" name="LHFCALC"> F  </i>
   <i type="string" name="PRECFOCK"></i>
   <i type="logical" name="LSYMGRAD"> F  </i>
   <i type="logical" name="LHFONE"> F  </i>
   <i type="logical" name="LRHFCALC"> F  </i>
   <i type="logical" name="LTHOMAS"> F  </i>
   <i type="logical" name="LMODELHF"> F  </i>
   <i name="ENCUT4O">     -1.00000000</i>
   <i type="int" name="EXXOEP">     0</i>
   <i type="int" name="FOURORBIT">     0</i>
   <i name="AEXX">      0.00000000</i>
   <i name="HFALPHA">      0.00000000</i>
   <i name="MCALPHA">      0.00000000</i>
   <i name="ALDAX">      1.00000000</i>
   <i name="AGGAX">      1.00000000</i>
   <i name="ALDAC">      1.00000000</i>
   <i name="AGGAC">      1.00000000</i>
   <i type="int" name="NKREDX">     1</i>
   <i type="int" name="NKREDY">     1</i>
   <i type="int" name="NKREDZ">     1</i>
   <i type="logical" name="SHIFTRED"> F  </i>
   <i type="logical" name="ODDONLY"> F  </i>
   <i type="logical" name="EVENONLY"> F  </i>
   <i type="int" name="LMAXFOCK">     0</i>
   <i type="int" name="NMAXFOCKAE">     0</i>
   <i type="logical" name="LFOCKAEDFT"> F  </i>
   <i name="HFSCREEN">      0.00000000</i>
   <i name="HFSCREENC">      0.00000000</i>
   <i type="int" name="NBANDSGWLOW">     0</i>
  </separator>
  <separator name="vdW DFT" >
   <i type="logical" name="LUSE_VDW"> F  </i>
   <i name="Zab_VDW">     -0.84910000</i>
   <i name="PARAM1">      0.12340000</i>
   <i name="PARAM2">      1.00000000</i>
   <i name="PARAM3">      0.00000000</i>
  </separator>
  <separator name="model GW" >
   <i type="int" name="MODEL_GW">     0</i>
   <i name="MODEL_EPS0">     12.14111960</i>
   <i name="MODEL_ALPHA">      1.00000000</i>
  </separator>
  <separator name="linear response parameters" >
   <i type="logical" name="LEPSILON"> F  </i>
   <i type="logical" name="LRPA"> F  </i>
   <i type="logical" name="LNABLA"> F  </i>
   <i type="logical" name="LVEL"> F  </i>
   <i type="int" name="KINTER">     0</i>
   <i name="CSHIFT">      0.10000000</i>
   <i name="OMEGAMAX">     -1.00000000</i>
   <i name="DEG_THRESHOLD">      0.00200000</i>
  </separator>
  <separator name="orbital magnetization" >
   <i type="logical" name="NUCIND"> F  </i>
   <v name="MAGPOS">      0.00000000      0.00000000      0.00000000</v>
   <i type="logical" name="LNICSALL"> T  </i>
   <i type="logical" name="ORBITALMAG"> F  </i>
   <i type="logical" name="LMAGBLOCH"> F  </i>
   <i type="logical" name="LCHIMAG"> F  </i>
   <i type="logical" name="LGAUGE"> T  </i>
   <i type="int" name="MAGATOM">     0</i>
   <v name="MAGDIPOL">      0.00000000      0.00000000      0.00000000</v>
   <v name="AVECCONST">      0.00000000      0.00000000      0.00000000</v>
  </separator>
  <separator name="response functions" >
   <i type="logical" name="LADDER"> F  </i>
   <i type="logical" name="LFXC"> F  </i>
   <i type="logical" name="LHARTREE"> T  </i>
   <i type="int" name="IBSE">     0</i>
   <v type="int" name="KPOINT">    -1     0     0     0</v>
   <i type="logical" name="LTCTE"> F  </i>
   <i type="logical" name="LTETE"> F  </i>
   <i type="logical" name="LTRIPLET"> F  </i>
   <i type="logical" name="LFXCEPS"> F  </i>
   <i type="logical" name="LFXHEG"> F  </i>
   <i type="int" name="NATURALO">     0</i>
   <i type="logical" name="L2ORDER"> F  </i>
   <i type="logical" name="LUSEW"> F  </i>
   <i name="ENCUTGW">     -2.00000000</i>
   <i name="ENCUTGWSOFT">     -2.00000000</i>
   <i name="ENCUTLF">     -1.00000000</i>
   <i type="int" name="LMAXMP2">    -1</i>
   <i name="SCISSOR">      0.00000000</i>
   <i type="int" name="NOMEGA">     0</i>
   <i type="int" name="NOMEGAR">     0</i>
   <i type="int" name="NBANDSGW">    -1</i>
   <i type="int" name="NBANDSO">    -1</i>
   <i type="int" name="NBANDSV">    -1</i>
   <i type="int" name="NELM">    70</i>
   <i type="int" name="NELMHF">     1</i>
   <i type="int" name="DIM">     3</i>
   <i type="int" name="ANTIRES">     0</i>
   <i name="OMEGAMAX">    -30.00000000</i>
   <i name="OMEGAMIN">    -30.00000000</i>
   <i name="OMEGATL">   -200.00000000</i>
   <i type="int" name="OMEGAGRID">     0</i>
   <i name="CSHIFT">     -0.10000000</i>
   <i type="logical" name="SELFENERGY"> F  </i>
   <i type="logical" name="LSPECTRAL"> F  </i>
   <i type="logical" name="LSPECTRALGW"> F  </i>
   <i type="logical" name="LSINGLES"> F  </i>
   <i type="logical" name="LFERMIGW"> F  </i>
   <i type="logical" name="ODDONLYGW"> F  </i>
   <i type="logical" name="EVENONLYGW"> F  </i>
   <i type="int" name="NKREDLFX">     1</i>
   <i type="int" name="NKREDLFY">     1</i>
   <i type="int" name="NKREDLFZ">     1</i>
   <i type="int" name="MAXMEM">  1800</i>
   <i type="int" name="TELESCOPE">     0</i>
   <i type="int" name="TAUPAR">     1</i>
   <i type="int" name="OMEGAPAR">    -1</i>
   <i name="LAMBDA">      1.00000000</i>
  </separator>
  <separator name="External order field" >
   <i name="OFIELD_KAPPA">      0.00000000</i>
   <v name="OFIELD_K">      0.00000000      0.00000000      0.00000000</v>
   <i name="OFIELD_Q6_NEAR">      0.00000000</i>
   <i name="OFIELD_Q6_FAR">      0.00000000</i>
   <i name="OFIELD_A">      0.00000000</i>
  </separator>
 </parameters>
 <atominfo>
  <atoms>      36 </atoms>
  <types>       4 </types>
  <array name="atoms" >
   <dimension dim="1">ion</dimension>
   <field type="string">element</field>
   <field type="int">atomtype</field>
   <set>
    <rc><c>Hf</c><c>   1</c></rc>
    <rc><c>Hf</c><c>   1</c></rc>
    <rc><c>Hf</c><c>   1</c></rc>
    <rc><c>Hf</c><c>   1</c></rc>
    <rc><c>Hf</c><c>   1</c></rc>
    <rc><c>Hf</c><c>   1</c></rc>
    <rc><c>Hf</c><c>   1</c></rc>
    <rc><c>Hf</c><c>   1</c></rc>
    <rc><c>Hf</c><c>   1</c></rc>
    <rc><c>Nb</c><c>   2</c></rc>
    <rc><c>Nb</c><c>   2</c></rc>
    <rc><c>Nb</c><c>   2</c></rc>
    <rc><c>Nb</c><c>   2</c></rc>
    <rc><c>Nb</c><c>   2</c></rc>
    <rc><c>Nb</c><c>   2</c></rc>
    <rc><c>Nb</c><c>   2</c></rc>
    <rc><c>Nb</c><c>   2</c></rc>
    <rc><c>Nb</c><c>   2</c></rc>
    <rc><c>Ta</c><c>   3</c></rc>
    <rc><c>Ta</c><c>   3</c></rc>
    <rc><c>Ta</c><c>   3</c></rc>
    <rc><c>Ta</c><c>   3</c></rc>
    <rc><c>Ta</c><c>   3</c></rc>
    <rc><c>Ta</c><c>   3</c></rc>
    <rc><c>Ta</c><c>   3</c></rc>
    <rc><c>Ta</c><c>   3</c></rc>
    <rc><c>Ta</c><c>   3</c></rc>
    <rc><c>Zr</c><c>   4</c></rc>
    <rc><c>Zr</c><c>   4</c></rc>
    <rc><c>Zr</c><c>   4</c></rc>
    <rc><c>Zr</c><c>   4</c></rc>
    <rc><c>Zr</c><c>   4</c></rc>
    <rc><c>Zr</c><c>   4</c></rc>
    <rc><c>Zr</c><c>   4</c></rc>
    <rc><c>Zr</c><c>   4</c></rc>
    <rc><c>Zr</c><c>   4</c></rc>
   </set>
  </array>
  <array name="atomtypes" >
   <dimension dim="1">type</dimension>
   <field type="int">atomspertype</field>
   <field type="string">element</field>
   <field>mass</field>
   <field>valence</field>
   <field type="string">pseudopotential</field>
   <set>
    <rc><c>   9</c><c>Hf</c><c>    178.49000000</c><c>      4.00000000</c><c>  PAW_PBE Hf 20Jan2003                  </c></rc>
    <rc><c>   9</c><c>Nb</c><c>     92.91000000</c><c>     13.00000000</c><c>  PAW_PBE Nb_sv 25May2007               </c></rc>
    <rc><c>   9</c><c>Ta</c><c>    180.94800000</c><c>      5.00000000</c><c>  PAW_PBE Ta 17Jan2003                  </c></rc>
    <rc><c>   9</c><c>Zr</c><c>     91.22400000</c><c>     12.00000000</c><c>  PAW_PBE Zr_sv 04Jan2005               </c></rc>
   </set>
  </array>
 </atominfo>
 <structure name="initialpos" >
  <crystal>
   <varray name="basis" >
    <v>       6.87657421      -0.01603849       0.01037081 </v>
    <v>      -0.02418300      10.23575671      -0.00542201 </v>
    <v>       0.01545267      -0.00511104      10.34954798 </v>
   </varray>
   <i name="volume">    728.46717586 </i>
   <varray name="rec_basis" >
    <v>       0.14542238       0.00034346      -0.00021696 </v>
    <v>       0.00022779       0.09769730       0.00004791 </v>
    <v>      -0.00014560       0.00005084       0.09662282 </v>
   </varray>
  </crystal>
  <varray name="positions" >
   <v>       0.25107058       0.16390910       0.16170515 </v>
   <v>       0.98915883       0.99796194       0.66589885 </v>
   <v>       0.99728421       0.34006945       0.32046330 </v>
   <v>       0.23715159       0.49141408       0.52832672 </v>
   <v>       0.02560607       0.65383833       0.32907222 </v>
   <v>       0.50960331       0.98591505       0.99829906 </v>
   <v>       0.49844163       0.99111244       0.33419154 </v>
   <v>       0.49606177       0.66855514       0.99836507 </v>
   <v>       0.48542228       0.66660690       0.32492839 </v>
   <v>       0.98991643       0.33110011       0.99927384 </v>
   <v>       0.00175183       0.67727182       0.67167843 </v>
   <v>       0.24888935       0.83460754       0.81579945 </v>
   <v>       0.73554366       0.17505053       0.83567680 </v>
   <v>       0.50926021       0.33613605       0.00058502 </v>
   <v>       0.51391157       0.34439871       0.68528556 </v>
   <v>       0.75251418       0.49564003       0.83729853 </v>
   <v>       0.75463774       0.83259362       0.49632182 </v>
   <v>       0.75227427       0.82672362       0.81961800 </v>
   <v>       0.00173583       0.00334884       0.34703238 </v>
   <v>       0.24561814       0.48191178       0.13827269 </v>
   <v>       0.98478929       0.32751644       0.69028284 </v>
   <v>       0.24865128       0.49032568       0.83447536 </v>
   <v>       0.22534024       0.85161616       0.17659093 </v>
   <v>       0.24630979       0.83769780       0.50281832 </v>
   <v>       0.74131082       0.17395984       0.16123209 </v>
   <v>       0.50583009       0.98495995       0.66438026 </v>
   <v>       0.75515997       0.49168988       0.14880926 </v>
   <v>       0.98695162       0.99917886       0.98539922 </v>
   <v>       0.25559268       0.17116891       0.50786082 </v>
   <v>       0.26372993       0.17251789       0.83239732 </v>
   <v>       0.00876735       0.66571936       0.99371871 </v>
   <v>       0.73853009       0.17323670       0.50659481 </v>
   <v>       0.49836519       0.35293001       0.32180298 </v>
   <v>       0.76287225       0.50214734       0.51285263 </v>
   <v>       0.78071910       0.83403174       0.18170168 </v>
   <v>       0.50122681       0.67313836       0.67098995 </v>
  </varray>
 </structure>
 <calculation>
  <scstep>
   <time name="dav">    1.06    1.06</time>
   <time name="total">    1.33    1.44</time>
   <energy>
    <i name="alphaZ">   1583.39396528 </i>
    <i name="ewald"> -20146.76119998 </i>
    <i name="hartreedc">  -8053.44246621 </i>
    <i name="XCdc">   -116.55368926 </i>
    <i name="pawpsdc">  22956.18843697 </i>
    <i name="pawaedc"> -21419.48755377 </i>
    <i name="eentropy">     -0.00220387 </i>
    <i name="bandstr">   -209.03116840 </i>
    <i name="atom">  27412.48717566 </i>
    <i name="e_fr_energy">   2006.79129641 </i>
    <i name="e_wo_entrp">   2006.79350028 </i>
    <i name="e_0_energy">   2006.79203103 </i>
   </energy>
  </scstep>
  <scstep>
   <time name="dav">    1.15    1.15</time>
   <time name="total">    1.15    1.24</time>
   <energy>
    <i name="e_fr_energy">    -71.78962039 </i>
    <i name="e_wo_entrp">    -71.79532473 </i>
    <i name="e_0_energy">    -71.79152184 </i>
   </energy>
  </scstep>
  <scstep>
   <time name="dav">    1.56    1.58</time>
   <time name="total">    1.56    1.60</time>
   <energy>
    <i name="e_fr_energy">   -340.95562469 </i>
    <i name="e_wo_entrp">   -340.94583741 </i>
    <i name="e_0_energy">   -340.95236226 </i>
   </energy>
  </scstep>
  <scstep>
   <time name="dav">    1.45    1.60</time>
   <time name="total">    1.45    1.64</time>
   <energy>
    <i name="e_fr_energy">   -372.80307199 </i>
    <i name="e_wo_entrp">   -372.80602033 </i>
    <i name="e_0_energy">   -372.80405477 </i>
   </energy>
  </scstep>
  <scstep>
   <time name="dav">    1.99    2.03</time>
   <time name="total">    2.03    2.07</time>
   <energy>
    <i name="e_fr_energy">   -376.10254713 </i>
    <i name="e_wo_entrp">   -376.10856053 </i>
    <i name="e_0_energy">   -376.10455159 </i>
   </energy>
  </scstep>
  <scstep>
   <time name="diag">    0.14    0.14</time>
   <time name="diis">    1.27    1.27</time>
   <time name="orth">    0.02    0.02</time>
   <time name="total">    1.55    1.57</time>
   <energy>
    <i name="e_fr_energy">   -365.49893783 </i>
    <i name="e_wo_entrp">   -365.51487143 </i>
    <i name="e_0_energy">   -365.50424903 </i>
   </energy>
  </scstep>
  <scstep>
   <time name="diag">    0.09    0.09</time>
   <time name="diis">    0.88    0.88</time>
   <time name="orth">    0.01    0.01</time>
   <time name="total">    1.05    1.07</time>
   <energy>
    <i name="e_fr_energy">   -367.06289129 </i>
    <i name="e_wo_entrp">   -367.07159610 </i>
    <i name="e_0_energy">   -367.06579290 </i>
   </energy>
  </scstep>
  <scstep>
   <time name="diag">    0.08    0.08</time>
   <time name="diis">    0.80    0.80</time>
   <time name="orth">    0.01    0.01</time>
   <time name="total">    0.96    0.97</time>
   <energy>
    <i name="e_fr_energy">   -361.49440552 </i>
    <i name="e_wo_entrp">   -361.51207449 </i>
    <i name="e_0_energy">   -361.50029517 </i>
   </energy>
  </scstep>
  <scstep>
   <time name="diag">    0.09    0.09</time>
   <time name="diis">    0.86    0.87</time>
   <time name="orth">    0.01    0.01</time>
   <time name="total">    1.02    1.05</time>
   <energy>
    <i name="e_fr_energy">   -361.30560093 </i>
    <i name="e_wo_entrp">   -361.32921046 </i>
    <i name="e_0_energy">   -361.31347077 </i>
   </energy>
  </scstep>
  <scstep>
   <time name="diag">    0.11    0.13</time>
   <time name="diis">    0.89    0.89</time>
   <time name="orth">    0.01    0.01</time>
   <time name="total">    1.08    1.15</time>
   <energy>
    <i name="e_fr_energy">   -361.22952108 </i>
    <i name="e_wo_entrp">   -361.25233119 </i>
    <i name="e_0_energy">   -361.23712445 </i>
   </energy>
  </scstep>
  <scstep>
   <time name="diag">    0.08    0.08</time>
   <time name="diis">    0.87    0.88</time>
   <time name="orth">    0.01    0.01</time>
   <time name="total">    1.12    1.14</time>
   <energy>
    <i name="e_fr_energy">   -361.21003570 </i>
    <i name="e_wo_entrp">   -361.23295240 </i>
    <i name="e_0_energy">   -361.21767460 </i>
   </energy>
  </scstep>
  <scstep>
   <time name="diag">    0.08    0.14</time>
   <time name="diis">    0.79    0.81</time>
   <time name="orth">    0.01    0.01</time>
   <time name="total">    0.95    1.07</time>
   <energy>
    <i name="e_fr_energy">   -361.20650814 </i>
    <i name="e_wo_entrp">   -361.22884242 </i>
    <i name="e_0_energy">   -361.21395290 </i>
   </energy>
  </scstep>
  <scstep>
   <time name="diag">    0.08    0.08</time>
   <time name="diis">    0.81    0.82</time>
   <time name="orth">    0.01    0.01</time>
   <time name="total">    0.97    0.99</time>
   <energy>
    <i name="e_fr_energy">   -361.20397317 </i>
    <i name="e_wo_entrp">   -361.22626592 </i>
    <i name="e_0_energy">   -361.21140408 </i>
   </energy>
  </scstep>
  <scstep>
   <time name="diag">    0.08    0.08</time>
   <time name="diis">    0.83    0.84</time>
   <time name="orth">    0.01    0.01</time>
   <time name="total">    0.99    1.01</time>
   <energy>
    <i name="e_fr_energy">   -361.20404587 </i>
    <i name="e_wo_entrp">   -361.22665091 </i>
    <i name="e_0_energy">   -361.21158089 </i>
   </energy>
  </scstep>
  <scstep>
   <time name="diag">    0.08    0.08</time>
   <time name="diis">    0.92    0.92</time>
   <time name="orth">    0.01    0.01</time>
   <time name="total">    1.09    1.13</time>
   <energy>
    <i name="e_fr_energy">   -361.20418255 </i>
    <i name="e_wo_entrp">   -361.22679726 </i>
    <i name="e_0_energy">   -361.21172079 </i>
   </energy>
  </scstep>
  <scstep>
   <time name="diag">    0.09    0.09</time>
   <time name="diis">    0.75    0.75</time>
   <time name="orth">    0.01    0.01</time>
   <time name="total">    0.96    1.00</time>
   <energy>
    <i name="e_fr_energy">   -361.20424549 </i>
    <i name="e_wo_entrp">   -361.22669627 </i>
    <i name="e_0_energy">   -361.21172908 </i>
   </energy>
  </scstep>
  <scstep>
   <time name="diag">    0.14    0.14</time>
   <time name="diis">    0.64    0.64</time>
   <time name="orth">    0.01    0.01</time>
   <time name="total">    0.87    0.89</time>
   <energy>
    <i name="e_fr_energy">   -361.20425743 </i>
    <i name="e_wo_entrp">   -361.22679274 </i>
    <i name="e_0_energy">   -361.21176920 </i>
   </energy>
  </scstep>
  <scstep>
   <time name="diag">    0.08    0.08</time>
   <time name="diis">    0.61    0.61</time>
   <time name="orth">    0.01    0.01</time>
   <time name="total">    0.77    0.78</time>
   <energy>
    <i name="e_fr_energy">   -361.20427238 </i>
    <i name="e_wo_entrp">   -361.22679001 </i>
    <i name="e_0_energy">   -361.21177826 </i>
   </energy>
  </scstep>
  <scstep>
   <time name="diag">    0.08    0.08</time>
   <time name="diis">    0.50    0.50</time>
   <time name="orth">    0.01    0.01</time>
   <time name="total">    0.66    0.67</time>
   <energy>
    <i name="e_fr_energy">   -361.20427653 </i>
    <i name="e_wo_entrp">   -361.22681182 </i>
    <i name="e_0_energy">   -361.21178830 </i>
   </energy>
  </scstep>
  <scstep>
   <time name="diag">    0.08    0.08</time>
   <time name="diis">    0.51    0.51</time>
   <time name="orth">    0.01    0.01</time>
   <time name="total">    0.65    0.66</time>
   <energy>
    <i name="alphaZ">   1583.39396528 </i>
    <i name="ewald"> -20146.76119998 </i>
    <i name="hartreedc">  -7808.94605656 </i>
    <i name="XCdc">   -118.45986710 </i>
    <i name="pawpsdc">  35619.09343658 </i>
    <i name="pawaedc"> -34059.37420685 </i>
    <i name="eentropy">      0.02253075 </i>
    <i name="bandstr">  -2842.66005741 </i>
    <i name="atom">  27412.48717566 </i>
    <i name="e_fr_energy">   -361.20427964 </i>
    <i name="e_wo_entrp">   -361.22681039 </i>
    <i name="e_0_energy">   -361.21178989 </i>
   </energy>
  </scstep>
  <structure>
   <crystal>
    <varray name="basis" >
     <v>       6.87657421      -0.01603849       0.01037081 </v>
     <v>      -0.02418300      10.23575671      -0.00542201 </v>
     <v>       0.01545267      -0.00511104      10.34954798 </v>
    </varray>
    <i name="volume">    728.46717586 </i>
    <varray name="rec_basis" >
     <v>       0.14542238       0.00034346      -0.00021696 </v>
     <v>       0.00022779       0.09769730       0.00004791 </v>
     <v>      -0.00014560       0.00005084       0.09662282 </v>
    </varray>
   </crystal>
   <varray name="positions" >
    <v>       0.25107058       0.16390910       0.16170515 </v>
    <v>       0.98915883       0.99796194       0.66589885 </v>
    <v>       0.99728421       0.34006945       0.32046330 </v>
    <v>       0.23715159       0.49141408       0.52832672 </v>
    <v>       0.02560607       0.65383833       0.32907222 </v>
    <v>       0.50960331       0.98591505       0.99829906 </v>
    <v>       0.49844163       0.99111244       0.33419154 </v>
    <v>       0.49606177       0.66855514       0.99836507 </v>
    <v>       0.48542228       0.66660690       0.32492839 </v>
    <v>       0.98991643       0.33110011       0.99927384 </v>
    <v>       0.00175183       0.67727182       0.67167843 </v>
    <v>       0.24888935       0.83460754       0.81579945 </v>
    <v>       0.73554366       0.17505053       0.83567680 </v>
    <v>       0.50926021       0.33613605       0.00058502 </v>
    <v>       0.51391157       0.34439871       0.68528556 </v>
    <v>       0.75251418       0.49564003       0.83729853 </v>
    <v>       0.75463774       0.83259362       0.49632182 </v>
    <v>       0.75227427       0.82672362       0.81961800 </v>
    <v>       0.00173583       0.00334884       0.34703238 </v>
    <v>       0.24561814       0.48191178       0.13827269 </v>
    <v>       0.98478929       0.32751644       0.69028284 </v>
    <v>       0.24865128       0.49032568       0.83447536 </v>
    <v>       0.22534024       0.85161616       0.17659093 </v>
    <v>       0.24630979       0.83769780       0.50281832 </v>
    <v>       0.74131082       0.17395984       0.16123209 </v>
    <v>       0.50583009       0.98495995       0.66438026 </v>
    <v>       0.75515997       0.49168988       0.14880926 </v>
    <v>       0.98695162       0.99917886       0.98539922 </v>
    <v>       0.25559268       0.17116891       0.50786082 </v>
    <v>       0.26372993       0.17251789       0.83239732 </v>
    <v>       0.00876735       0.66571936       0.99371871 </v>
    <v>       0.73853009       0.17323670       0.50659481 </v>
    <v>       0.49836519       0.35293001       0.32180298 </v>
    <v>       0.76287225       0.50214734       0.51285263 </v>
    <v>       0.78071910       0.83403174       0.18170168 </v>
    <v>       0.50122681       0.67313836       0.67098995 </v>
   </varray>
  </structure>
  <varray name="forces" >
   <v>       0.01220376       0.00228538      -0.00349110 </v>
   <v>       0.00442044       0.01131834      -0.00712778 </v>
   <v>      -0.00242121      -0.00525337      -0.00179059 </v>
   <v>       0.00362642      -0.00491839      -0.01452965 </v>
   <v>       0.00399765      -0.00030846      -0.00867518 </v>
   <v>      -0.01119671      -0.00272721       0.00493384 </v>
   <v>      -0.00438743      -0.00613192       0.00270144 </v>
   <v>      -0.00333281       0.00306552       0.01299918 </v>
   <v>      -0.00287898      -0.00034280      -0.01330710 </v>
   <v>       0.00918214      -0.00195522      -0.00202166 </v>
   <v>       0.00826084      -0.01214984      -0.00782742 </v>
   <v>       0.00328018       0.00491823       0.01921561 </v>
   <v>      -0.00015057      -0.02274228      -0.00278162 </v>
   <v>      -0.01485579       0.00282641      -0.00033523 </v>
   <v>      -0.00950305      -0.00281691      -0.01871797 </v>
   <v>      -0.00087273       0.01762822       0.00501347 </v>
   <v>      -0.00693632      -0.00260751      -0.00911894 </v>
   <v>      -0.00002108       0.01593187       0.01441096 </v>
   <v>      -0.00526961       0.00455127       0.00438726 </v>
   <v>       0.00286499       0.01005217       0.01816391 </v>
   <v>       0.01833140       0.00558566      -0.00151366 </v>
   <v>       0.00036428      -0.00337758       0.00080025 </v>
   <v>       0.01149678      -0.00575890      -0.00251651 </v>
   <v>      -0.00395296       0.00962052       0.00253890 </v>
   <v>      -0.00054782      -0.01168929       0.01102887 </v>
   <v>       0.00040290       0.00829984      -0.00728001 </v>
   <v>       0.00417194       0.01228998       0.00501197 </v>
   <v>       0.00539093       0.00192946       0.01028633 </v>
   <v>      -0.00621924      -0.01191113      -0.00190212 </v>
   <v>      -0.00011026      -0.00903903       0.00123175 </v>
   <v>      -0.00042105       0.00218827       0.00321444 </v>
   <v>       0.00292897      -0.00500534      -0.00070544 </v>
   <v>       0.00277552       0.00892416       0.00891279 </v>
   <v>       0.00363182      -0.00102811      -0.01122234 </v>
   <v>      -0.01267314      -0.00114332      -0.00812257 </v>
   <v>      -0.01158021      -0.01050872      -0.00186407 </v>
  </varray>
  <varray name="stress" >
   <v>      -3.66267225       0.04211877      -0.06940155 </v>
   <v>       0.04211874      -3.57600700       0.05192012 </v>
   <v>      -0.06940148       0.05192012      -3.50519560 </v>
  </varray>
  <energy>
   <i name="e_fr_energy">   -361.20427964 </i>
   <i name="e_wo_entrp">   -361.21178989 </i>
   <i name="e_0_energy">      0.02253075 </i>
  </energy>
  <time name="totalsc">   23.88   24.81</time>
 </calculation>
 <calculation>
  <scstep>
   <time name="dav">    1.32    1.41</time>
   <time name="total">    1.49    1.62</time>
   <energy>
    <i name="alphaZ">   1586.50760412 </i>
    <i name="ewald"> -20160.98678865 </i>
    <i name="hartreedc">  -7813.07411500 </i>
    <i name="XCdc">   -117.84569698 </i>
    <i name="pawpsdc">  35618.96447926 </i>
    <i name="pawaedc"> -34059.24608798 </i>
    <i name="eentropy">      0.02259928 </i>
    <i name="bandstr">  -2828.04491867 </i>
    <i name="atom">  27412.48717566 </i>
    <i name="e_fr_energy">   -361.21574896 </i>
    <i name="e_wo_entrp">   -361.23834825 </i>
    <i name="e_0_energy">   -361.22328206 </i>
   </energy>
  </scstep>
  <scstep>
   <time name="diag">    0.09    0.14</time>
   <time name="diis">    0.84    0.86</time>
   <time name="orth">    0.01    0.01</time>
   <time name="total">    1.02    1.09</time>
   <energy>
    <i name="e_fr_energy">   -361.21173321 </i>
    <i name="e_wo_entrp">   -361.23441052 </i>
    <i name="e_0_energy">   -361.21929231 </i>
   </energy>
  </scstep>
  <scstep>
   <time name="diag">    0.08    0.08</time>
   <time name="diis">    0.82    0.82</time>
   <time name="orth">    0.01    0.01</time>
   <time name="total">    1.01    1.03</time>
   <energy>
    <i name="e_fr_energy">   -361.20794114 </i>
    <i name="e_wo_entrp">   -361.23023054 </i>
    <i name="e_0_energy">   -361.21537094 </i>
   </energy>
  </scstep>
  <scstep>
   <time name="diag">    0.13    0.13</time>
   <time name="diis">    0.83    0.83</time>
   <time name="orth">    0.02    0.02</time>
   <time name="total">    1.08    1.10</time>
   <energy>
    <i name="e_fr_energy">   -361.20652721 </i>
    <i name="e_wo_entrp">   -361.22912031 </i>
    <i name="e_0_energy">   -361.21405824 </i>
   </energy>
  </scstep>
  <scstep>
   <time name="diag">    0.09    0.09</time>
   <time name="diis">    0.87    0.87</time>
   <time name="orth">    0.01    0.01</time>
   <time name="total">    1.05    1.06</time>
   <energy>
    <i name="e_fr_energy">   -361.20626360 </i>
    <i name="e_wo_entrp">   -361.22875112 </i>
    <i name="e_0_energy">   -361.21375944 </i>
   </energy>
  </scstep>
  <scstep>
   <time name="diag">    0.08    0.08</time>
   <time name="diis">    0.76    0.77</time>
   <time name="orth">    0.01    0.01</time>
   <time name="total">    0.92    0.94</time>
   <energy>
    <i name="e_fr_energy">   -361.20630582 </i>
    <i name="e_wo_entrp">   -361.22883921 </i>
    <i name="e_0_energy">   -361.21381695 </i>
   </energy>
  </scstep>
  <scstep>
   <time name="diag">    0.08    0.08</time>
   <time name="diis">    0.68    0.68</time>
   <time name="orth">    0.01    0.01</time>
   <time name="total">    0.84    0.85</time>
   <energy>
    <i name="e_fr_energy">   -361.20633721 </i>
    <i name="e_wo_entrp">   -361.22885545 </i>
    <i name="e_0_energy">   -361.21384329 </i>
   </energy>
  </scstep>
  <scstep>
   <time name="diag">    0.08    0.08</time>
   <time name="diis">    0.70    0.71</time>
   <time name="orth">    0.01    0.01</time>
   <time name="total">    0.87    0.88</time>
   <energy>
    <i name="e_fr_energy">   -361.20636247 </i>
    <i name="e_wo_entrp">   -361.22887657 </i>
    <i name="e_0_energy">   -361.21386717 </i>
   </energy>
  </scstep>
  <scstep>
   <time name="diag">    0.08    0.08</time>
   <time name="diis">    0.45    0.45</time>
   <time name="orth">    0.01    0.01</time>
   <time name="total">    0.62    0.64</time>
   <energy>
    <i name="e_fr_energy">   -361.20638112 </i>
    <i name="e_wo_entrp">   -361.22890863 </i>
    <i name="e_0_energy">   -361.21389029 </i>
   </energy>
  </scstep>
  <scstep>
   <time name="diag">    0.08    0.08</time>
   <time name="diis">    0.43    0.43</time>
   <time name="orth">    0.01    0.01</time>
   <time name="total">    0.59    0.62</time>
   <energy>
    <i name="e_fr_energy">   -361.20640037 </i>
    <i name="e_wo_entrp">   -361.22891452 </i>
    <i name="e_0_energy">   -361.21390508 </i>
   </energy>
  </scstep>
  <scstep>
   <time name="diag">    0.08    0.08</time>
   <time name="diis">    0.40    0.40</time>
   <time name="orth">    0.01    0.01</time>
   <time name="total">    0.53    0.54</time>
   <energy>
    <i name="alphaZ">   1586.50760412 </i>
    <i name="ewald"> -20160.98678865 </i>
    <i name="hartreedc">  -7804.33884419 </i>
    <i name="XCdc">   -118.22754486 </i>
    <i name="pawpsdc">  35707.10875454 </i>
    <i name="pawaedc"> -34147.29661527 </i>
    <i name="eentropy">      0.02252679 </i>
    <i name="bandstr">  -2836.48267579 </i>
    <i name="atom">  27412.48717566 </i>
    <i name="e_fr_energy">   -361.20640766 </i>
    <i name="e_wo_entrp">   -361.22893445 </i>
    <i name="e_0_energy">   -361.21391659 </i>
   </energy>
  </scstep>
  <structure>
   <crystal>
    <varray name="basis" >
     <v>       6.87197012      -0.01597496       0.01027678 </v>
     <v>      -0.02408794      10.22906583      -0.00532109 </v>
     <v>       0.01531100      -0.00500936      10.34291667 </v>
    </varray>
    <i name="volume">    727.03750500 </i>
    <varray name="rec_basis" >
     <v>       0.14551980       0.00034257      -0.00021525 </v>
     <v>       0.00022719       0.09776120       0.00004701 </v>
     <v>      -0.00014447       0.00004995       0.09668476 </v>
    </varray>
   </crystal>
   <varray name="positions" >
    <v>       0.25109629       0.16391237       0.16170024 </v>
    <v>       0.98916821       0.99797795       0.66588889 </v>
    <v>       0.99727910       0.34006202       0.32046080 </v>
    <v>       0.23715924       0.49140712       0.52830639 </v>
    <v>       0.02561451       0.65383790       0.32906008 </v>
    <v>       0.50957971       0.98591116       0.99830598 </v>
    <v>       0.49843236       0.99110376       0.33419532 </v>
    <v>       0.49605473       0.66855947       0.99838326 </v>
    <v>       0.48541626       0.66660640       0.32490979 </v>
    <v>       0.98993576       0.33109737       0.99927099 </v>
    <v>       0.00176918       0.67725467       0.67166746 </v>
    <v>       0.24889621       0.83461452       0.81582631 </v>
    <v>       0.73554324       0.17501837       0.83567289 </v>
    <v>       0.50922895       0.33614000       0.00058458 </v>
    <v>       0.51389162       0.34439469       0.68525940 </v>
    <v>       0.75251242       0.49566496       0.83730556 </v>
    <v>       0.75462316       0.83258991       0.49630908 </v>
    <v>       0.75227426       0.82674616       0.81963817 </v>
    <v>       0.00172475       0.00335526       0.34703853 </v>
    <v>       0.24562416       0.48192601       0.13829809 </v>
    <v>       0.98482791       0.32752440       0.69028069 </v>
    <v>       0.24865203       0.49032090       0.83447648 </v>
    <v>       0.22536442       0.85160805       0.17658738 </v>
    <v>       0.24630151       0.83771139       0.50282188 </v>
    <v>       0.74130957       0.17394331       0.16124750 </v>
    <v>       0.50583101       0.98497168       0.66437009 </v>
    <v>       0.75516879       0.49170728       0.14881627 </v>
    <v>       0.98696295       0.99918162       0.98541360 </v>
    <v>       0.25557954       0.17115204       0.50785817 </v>
    <v>       0.26372965       0.17250511       0.83239904 </v>
    <v>       0.00876647       0.66572246       0.99372320 </v>
    <v>       0.73853623       0.17322963       0.50659381 </v>
    <v>       0.49837105       0.35294264       0.32181545 </v>
    <v>       0.76287992       0.50214589       0.51283693 </v>
    <v>       0.78069244       0.83403007       0.18169035 </v>
    <v>       0.50120239       0.67312346       0.67098736 </v>
   </varray>
  </structure>
  <varray name="forces" >
   <v>       0.01136843       0.00231887      -0.00134119 </v>
   <v>       0.00516499       0.01404252      -0.00539924 </v>
   <v>      -0.00172096      -0.00817988       0.00380763 </v>
   <v>       0.00660167      -0.00449168      -0.01864220 </v>
   <v>      -0.00003551      -0.00039738      -0.00548551 </v>
   <v>      -0.01226601      -0.00282980       0.00384684 </v>
   <v>      -0.00204360      -0.00150647       0.00360760 </v>
   <v>      -0.00261067       0.00609612       0.01356184 </v>
   <v>       0.00069385      -0.00326374      -0.01149925 </v>
   <v>       0.01119344      -0.00689218      -0.00507469 </v>
   <v>       0.00643389      -0.01632440      -0.00872029 </v>
   <v>       0.00227273       0.00281498       0.02524525 </v>
   <v>       0.00061201      -0.02671487      -0.00131593 </v>
   <v>      -0.01584806      -0.00056129      -0.00269998 </v>
   <v>      -0.01113020      -0.00846606      -0.02491608 </v>
   <v>      -0.00050816       0.02214711       0.00455114 </v>
   <v>      -0.00677106      -0.00754910      -0.00925250 </v>
   <v>       0.00016643       0.01410088       0.01747073 </v>
   <v>      -0.00852658       0.01054118       0.00214477 </v>
   <v>       0.00319746       0.01489845       0.02378438 </v>
   <v>       0.01983209       0.00502983      -0.00841780 </v>
   <v>       0.00017555       0.00366907       0.00001672 </v>
   <v>       0.01590842      -0.00971897      -0.00728651 </v>
   <v>      -0.00274658       0.00585236       0.00019292 </v>
   <v>      -0.00013553      -0.01634421       0.01396840 </v>
   <v>      -0.00007016       0.01586349      -0.00592237 </v>
   <v>       0.00270044       0.01897658       0.01015668 </v>
   <v>       0.00701566       0.00382516       0.01122266 </v>
   <v>      -0.00445792      -0.00895921      -0.00408159 </v>
   <v>      -0.00137246      -0.01277145       0.00255190 </v>
   <v>      -0.00180750       0.00577249       0.00252299 </v>
   <v>       0.00228198      -0.00227244      -0.00431502 </v>
   <v>       0.00243328       0.00643836       0.01545261 </v>
   <v>       0.00032908       0.00114510      -0.01463900 </v>
   <v>      -0.01632814      -0.00363175      -0.01075328 </v>
   <v>      -0.01000231      -0.01265768      -0.00434259 </v>
  </varray>
  <varray name="stress" >
   <v>      -1.09571551       0.02629970      -0.05817718 </v>
   <v>       0.02629966      -1.01248089       0.04110721 </v>
   <v>      -0.05817720       0.04110720      -0.93813760 </v>
  </varray>
  <energy>
   <i name="e_fr_energy">   -361.20640766 </i>
   <i name="e_wo_entrp">   -361.21391659 </i>
   <i name="e_0_energy">      0.02252679 </i>
  </energy>
  <time name="totalsc">   11.65   12.09</time>
 </calculation>
 <calculation>
  <scstep>
   <time name="dav">    1.20    1.21</time>
   <time name="total">    1.36    1.40</time>
   <energy>
    <i name="alphaZ">   1587.91649100 </i>
    <i name="ewald"> -20167.41767087 </i>
    <i name="hartreedc">  -7806.21530569 </i>
    <i name="XCdc">   -117.94936419 </i>
    <i name="pawpsdc">  35707.18965646 </i>
    <i name="pawaedc"> -34147.35124468 </i>
    <i name="eentropy">      0.02255173 </i>
    <i name="bandstr">  -2829.89076879 </i>
    <i name="atom">  27412.48717566 </i>
    <i name="e_fr_energy">   -361.20847938 </i>
    <i name="e_wo_entrp">   -361.23103111 </i>
    <i name="e_0_energy">   -361.21599662 </i>
   </energy>
  </scstep>
  <scstep>
   <time name="diag">    0.08    0.08</time>
   <time name="diis">    0.89    0.90</time>
   <time name="orth">    0.01    0.01</time>
   <time name="total">    1.05    1.08</time>
   <energy>
    <i name="e_fr_energy">   -361.20766165 </i>
    <i name="e_wo_entrp">   -361.23024948 </i>
    <i name="e_0_energy">   -361.21519093 </i>
   </energy>
  </scstep>
  <scstep>
   <time name="diag">    0.08    0.08</time>
   <time name="diis">    0.85    0.85</time>
   <time name="orth">    0.01    0.01</time>
   <time name="total">    1.01    1.03</time>
   <energy>
    <i name="e_fr_energy">   -361.20686896 </i>
    <i name="e_wo_entrp">   -361.22927743 </i>
    <i name="e_0_energy">   -361.21433845 </i>
   </energy>
  </scstep>
  <scstep>
   <time name="diag">    0.08    0.08</time>
   <time name="diis">    0.82    0.85</time>
   <time name="orth">    0.04    0.04</time>
   <time name="total">    1.02    1.05</time>
   <energy>
    <i name="e_fr_energy">   -361.20659583 </i>
    <i name="e_wo_entrp">   -361.22913919 </i>
    <i name="e_0_energy">   -361.21411028 </i>
   </energy>
  </scstep>
  <scstep>
   <time name="diag">    0.09    0.10</time>
   <time name="diis">    0.76    0.80</time>
   <time name="orth">    0.01    0.01</time>
   <time name="total">    0.94    0.99</time>
   <energy>
    <i name="e_fr_energy">   -361.20654764 </i>
    <i name="e_wo_entrp">   -361.22904309 </i>
    <i name="e_0_energy">   -361.21404612 </i>
   </energy>
  </scstep>
  <scstep>
   <time name="diag">    0.08    0.13</time>
   <time name="diis">    0.56    0.58</time>
   <time name="orth">    0.01    0.01</time>
   <time name="total">    0.74    0.83</time>
   <energy>
    <i name="e_fr_energy">   -361.20656042 </i>
    <i name="e_wo_entrp">   -361.22907613 </i>
    <i name="e_0_energy">   -361.21406565 </i>
   </energy>
  </scstep>
  <scstep>
   <time name="diag">    0.08    0.08</time>
   <time name="diis">    0.40    0.40</time>
   <time name="orth">    0.01    0.01</time>
   <time name="total">    0.58    0.66</time>
   <energy>
    <i name="e_fr_energy">   -361.20657292 </i>
    <i name="e_wo_entrp">   -361.22908283 </i>
    <i name="e_0_energy">   -361.21407622 </i>
   </energy>
  </scstep>
  <scstep>
   <time name="diag">    0.16    0.16</time>
   <time name="diis">    0.41    0.41</time>
   <time name="orth">    0.01    0.01</time>
   <time name="total">    0.67    0.69</time>
   <energy>
    <i name="e_fr_energy">   -361.20658318 </i>
    <i name="e_wo_entrp">   -361.22909088 </i>
    <i name="e_0_energy">   -361.21408574 </i>
   </energy>
  </scstep>
  <scstep>
   <time name="diag">    0.08    0.08</time>
   <time name="diis">    0.39    0.39</time>
   <time name="orth">    0.01    0.01</time>
   <time name="total">    0.52    0.53</time>
   <energy>
    <i name="alphaZ">   1587.91649100 </i>
    <i name="ewald"> -20167.41767087 </i>
    <i name="hartreedc">  -7802.25915512 </i>
    <i name="XCdc">   -118.12220386 </i>
    <i name="pawpsdc">  35747.78782796 </i>
    <i name="pawaedc"> -34187.91954471 </i>
    <i name="eentropy">      0.02251390 </i>
    <i name="bandstr">  -2833.70202368 </i>
    <i name="atom">  27412.48717566 </i>
    <i name="e_fr_energy">   -361.20658973 </i>
    <i name="e_wo_entrp">   -361.22910363 </i>
    <i name="e_0_energy">   -361.21409436 </i>
   </energy>
  </scstep>
  <structure>
   <crystal>
    <varray name="basis" >
     <v>       6.86989078      -0.01594628       0.01023431 </v>
     <v>      -0.02404501      10.22604403      -0.00527551 </v>
     <v>       0.01524701      -0.00496344      10.33992178 </v>
    </varray>
    <i name="volume">    726.39243732 </i>
    <varray name="rec_basis" >
     <v>       0.14556384       0.00034216      -0.00021448 </v>
     <v>       0.00022692       0.09779008       0.00004661 </v>
     <v>      -0.00014396       0.00004955       0.09671277 </v>
    </varray>
   </crystal>
   <varray name="positions" >
    <v>       0.25110791       0.16391385       0.16169802 </v>
    <v>       0.98917245       0.99798519       0.66588438 </v>
    <v>       0.99727679       0.34005866       0.32045966 </v>
    <v>       0.23716270       0.49140398       0.52829721 </v>
    <v>       0.02561833       0.65383770       0.32905459 </v>
    <v>       0.50956905       0.98590941       0.99830911 </v>
    <v>       0.49842817       0.99109984       0.33419703 </v>
    <v>       0.49605155       0.66856143       0.99839147 </v>
    <v>       0.48541354       0.66660617       0.32490138 </v>
    <v>       0.98994449       0.33109613       0.99926970 </v>
    <v>       0.00177702       0.67724691       0.67166250 </v>
    <v>       0.24889932       0.83461767       0.81583846 </v>
    <v>       0.73554305       0.17500383       0.83567113 </v>
    <v>       0.50921483       0.33614178       0.00058439 </v>
    <v>       0.51388260       0.34439287       0.68524758 </v>
    <v>       0.75251162       0.49567622       0.83730873 </v>
    <v>       0.75461657       0.83258823       0.49630332 </v>
    <v>       0.75227425       0.82675634       0.81964728 </v>
    <v>       0.00171974       0.00335816       0.34704131 </v>
    <v>       0.24562688       0.48193245       0.13830957 </v>
    <v>       0.98484536       0.32752799       0.69027972 </v>
    <v>       0.24865236       0.49031875       0.83447698 </v>
    <v>       0.22537534       0.85160439       0.17658578 </v>
    <v>       0.24629777       0.83771753       0.50282350 </v>
    <v>       0.74130901       0.17393585       0.16125447 </v>
    <v>       0.50583142       0.98497698       0.66436549 </v>
    <v>       0.75517278       0.49171514       0.14881944 </v>
    <v>       0.98696807       0.99918286       0.98542009 </v>
    <v>       0.25557360       0.17114442       0.50785697 </v>
    <v>       0.26372952       0.17249933       0.83239981 </v>
    <v>       0.00876607       0.66572386       0.99372524 </v>
    <v>       0.73853900       0.17322644       0.50659336 </v>
    <v>       0.49837369       0.35294835       0.32182108 </v>
    <v>       0.76288339       0.50214524       0.51282983 </v>
    <v>       0.78068040       0.83402932       0.18168523 </v>
    <v>       0.50119136       0.67311672       0.67098619 </v>
   </varray>
  </structure>
  <varray name="forces" >
   <v>       0.01094672       0.00217895      -0.00064617 </v>
   <v>       0.00567193       0.01546203      -0.00454727 </v>
   <v>      -0.00147984      -0.00988382       0.00640105 </v>
   <v>       0.00799101      -0.00443994      -0.02069341 </v>
   <v>      -0.00171593      -0.00010071      -0.00407611 </v>
   <v>      -0.01257305      -0.00285461       0.00290812 </v>
   <v>      -0.00097511       0.00036724       0.00418197 </v>
   <v>      -0.00208136       0.00778355       0.01371613 </v>
   <v>       0.00236974      -0.00449069      -0.01071335 </v>
   <v>       0.01203398      -0.00886116      -0.00625325 </v>
   <v>       0.00559128      -0.01778049      -0.00889644 </v>
   <v>       0.00201650       0.00158262       0.02830257 </v>
   <v>       0.00119854      -0.02836760      -0.00053891 </v>
   <v>      -0.01636739      -0.00200588      -0.00372956 </v>
   <v>      -0.01194161      -0.01091716      -0.02748699 </v>
   <v>      -0.00047909       0.02407402       0.00455338 </v>
   <v>      -0.00691685      -0.00964264      -0.00950132 </v>
   <v>       0.00002278       0.01331271       0.01889193 </v>
   <v>      -0.01004504       0.01288376       0.00116332 </v>
   <v>       0.00332608       0.01670178       0.02607446 </v>
   <v>       0.01994553       0.00418334      -0.01111360 </v>
   <v>       0.00021905       0.00664250      -0.00004959 </v>
   <v>       0.01758140      -0.01148615      -0.00956200 </v>
   <v>      -0.00223982       0.00420088      -0.00093562 </v>
   <v>       0.00007163      -0.01833804       0.01511189 </v>
   <v>      -0.00038029       0.01932898      -0.00524897 </v>
   <v>       0.00219618       0.02153390       0.01207240 </v>
   <v>       0.00764043       0.00413295       0.01155695 </v>
   <v>      -0.00370420      -0.00752354      -0.00518510 </v>
   <v>      -0.00193342      -0.01397103       0.00326868 </v>
   <v>      -0.00242173       0.00778588       0.00220830 </v>
   <v>       0.00204266      -0.00075372      -0.00614835 </v>
   <v>       0.00240811       0.00535860       0.01851489 </v>
   <v>      -0.00116864       0.00182471      -0.01618586 </v>
   <v>      -0.01787491      -0.00475826      -0.01214849 </v>
   <v>      -0.00897526      -0.01316296      -0.00526566 </v>
  </varray>
  <varray name="stress" >
   <v>       0.10202715       0.01692994      -0.05650492 </v>
   <v>       0.01692995       0.18220944       0.03714812 </v>
   <v>      -0.05650487       0.03714816       0.26390834 </v>
  </varray>
  <energy>
   <i name="e_fr_energy">   -361.20658973 </i>
   <i name="e_wo_entrp">   -361.21409436 </i>
   <i name="e_0_energy">      0.02251390 </i>
  </energy>
  <time name="totalsc">    9.50    9.92</time>
 </calculation>
 <calculation>
  <scstep>
   <time name="dav">    0.96    0.97</time>
   <time name="total">    1.12    1.18</time>
   <energy>
    <i name="alphaZ">   1587.97602919 </i>
    <i name="ewald"> -20169.06802863 </i>
    <i name="hartreedc">  -7801.06773138 </i>
    <i name="XCdc">   -118.11311148 </i>
    <i name="pawpsdc">  35747.60353110 </i>
    <i name="pawaedc"> -34187.69127496 </i>
    <i name="eentropy">      0.02259543 </i>
    <i name="bandstr">  -2833.35594001 </i>
    <i name="atom">  27412.48717566 </i>
    <i name="e_fr_energy">   -361.20675509 </i>
    <i name="e_wo_entrp">   -361.22935051 </i>
    <i name="e_0_energy">   -361.21428690 </i>
   </energy>
  </scstep>
  <scstep>
   <time name="diag">    0.08    0.08</time>
   <time name="diis">    0.77    0.78</time>
   <time name="orth">    0.01    0.01</time>
   <time name="total">    0.96    0.99</time>
   <energy>
    <i name="e_fr_energy">   -361.20679847 </i>
    <i name="e_wo_entrp">   -361.22935374 </i>
    <i name="e_0_energy">   -361.21431690 </i>
   </energy>
  </scstep>
  <scstep>
   <time name="diag">    0.08    0.08</time>
   <time name="diis">    0.50    0.51</time>
   <time name="orth">    0.01    0.01</time>
   <time name="total">    0.63    0.64</time>
   <energy>
    <i name="alphaZ">   1587.97602919 </i>
    <i name="ewald"> -20169.06802863 </i>
    <i name="hartreedc">  -7800.88889395 </i>
    <i name="XCdc">   -118.12011602 </i>
    <i name="pawpsdc">  35748.08345576 </i>
    <i name="pawaedc"> -34188.15081542 </i>
    <i name="eentropy">      0.02254738 </i>
    <i name="bandstr">  -2833.54814353 </i>
    <i name="atom">  27412.48717566 </i>
    <i name="e_fr_energy">   -361.20678956 </i>
    <i name="e_wo_entrp">   -361.22933694 </i>
    <i name="e_0_energy">   -361.21430535 </i>
   </energy>
  </scstep>
  <structure>
   <crystal>
    <varray name="basis" >
     <v>       6.86968696      -0.01591894       0.01015059 </v>
     <v>      -0.02400395      10.22591580      -0.00519251 </v>
     <v>       0.01512065      -0.00487967      10.33996989 </v>
    </varray>
    <i name="volume">    726.36520260 </i>
    <varray name="rec_basis" >
     <v>       0.14556815       0.00034159      -0.00021271 </v>
     <v>       0.00022654       0.09779131       0.00004582 </v>
     <v>      -0.00014279       0.00004877       0.09671231 </v>
    </varray>
   </crystal>
   <varray name="positions" >
    <v>       0.25113498       0.16391749       0.16169665 </v>
    <v>       0.98918628       0.99801026       0.66587670 </v>
    <v>       0.99727293       0.34004285       0.32046924 </v>
    <v>       0.23718167       0.49139662       0.52826409 </v>
    <v>       0.02561503       0.65383751       0.32904747 </v>
    <v>       0.50953839       0.98590467       0.99831409 </v>
    <v>       0.49842523       0.99109975       0.33420370 </v>
    <v>       0.49604624       0.66857376       0.99841378 </v>
    <v>       0.48541854       0.66659921       0.32488364 </v>
    <v>       0.98997355       0.33108229       0.99925991 </v>
    <v>       0.00179110       0.67721821       0.67164808 </v>
    <v>       0.24890438       0.83462066       0.81588365 </v>
    <v>       0.73554562       0.17495766       0.83566999 </v>
    <v>       0.50917490       0.33613892       0.00057870 </v>
    <v>       0.51385371       0.34437566       0.68520370 </v>
    <v>       0.75251050       0.49571523       0.83731623 </v>
    <v>       0.75459957       0.83257304       0.49628788 </v>
    <v>       0.75227431       0.82677858       0.81967763 </v>
    <v>       0.00169590       0.00337849       0.34704358 </v>
    <v>       0.24563498       0.48195931       0.13835126 </v>
    <v>       0.98489411       0.32753510       0.69026256 </v>
    <v>       0.24865296       0.49032864       0.83447700 </v>
    <v>       0.22541750       0.85158612       0.17657087 </v>
    <v>       0.24629203       0.83772502       0.50282234 </v>
    <v>       0.74130893       0.17390633       0.16127867 </v>
    <v>       0.50583074       0.98500768       0.66435673 </v>
    <v>       0.75517856       0.49174968       0.14883840 </v>
    <v>       0.98698644       0.99918948       0.98543879 </v>
    <v>       0.25556409       0.17113154       0.50784886 </v>
    <v>       0.26372497       0.17247681       0.83240492 </v>
    <v>       0.00876047       0.66573609       0.99372895 </v>
    <v>       0.73854417       0.17322475       0.50658390 </v>
    <v>       0.49837963       0.35295758       0.32185026 </v>
    <v>       0.76288134       0.50214793       0.51280396 </v>
    <v>       0.78063737       0.83402178       0.18166588 </v>
    <v>       0.50116887       0.67309526       0.67097797 </v>
   </varray>
  </structure>
  <varray name="forces" >
   <v>       0.00991601       0.00239796       0.00093354 </v>
   <v>       0.00420088       0.01172393      -0.00427344 </v>
   <v>      -0.00188054      -0.01031410       0.00444831 </v>
   <v>       0.00710858      -0.00538647      -0.01995832 </v>
   <v>      -0.00169566       0.00179052      -0.00414929 </v>
   <v>      -0.01088435      -0.00282298       0.00344584 </v>
   <v>      -0.00079065      -0.00049642       0.00410581 </v>
   <v>      -0.00231423       0.00802423       0.01287077 </v>
   <v>       0.00197758      -0.00342279      -0.00951372 </v>
   <v>       0.00799936      -0.00505727      -0.00368252 </v>
   <v>       0.00381976      -0.01256946      -0.00512177 </v>
   <v>       0.00148143       0.00082980       0.02052115 </v>
   <v>       0.00111520      -0.02064385      -0.00215700 </v>
   <v>      -0.01067292      -0.00016207      -0.00141928 </v>
   <v>      -0.00792803      -0.00867238      -0.02052601 </v>
   <v>       0.00001970       0.01637617       0.00182599 </v>
   <v>      -0.00469902      -0.00710023      -0.00628847 </v>
   <v>      -0.00002976       0.00999101       0.01287032 </v>
   <v>      -0.00919860       0.00923492      -0.00153226 </v>
   <v>       0.00227377       0.01231124       0.02303374 </v>
   <v>       0.01557474       0.00270129      -0.00946886 </v>
   <v>      -0.00003651       0.00491453      -0.00102166 </v>
   <v>       0.01417711      -0.00945390      -0.00673175 </v>
   <v>      -0.00210891       0.00465624      -0.00179637 </v>
   <v>      -0.00037482      -0.01608520       0.01378766 </v>
   <v>      -0.00022255       0.01496264      -0.00436290 </v>
   <v>       0.00188321       0.01732511       0.01046890 </v>
   <v>       0.00622314       0.00366833       0.01041478 </v>
   <v>      -0.00323230      -0.00640180      -0.00490108 </v>
   <v>      -0.00153067      -0.01129242       0.00292481 </v>
   <v>      -0.00263858       0.00713314       0.00184245 </v>
   <v>       0.00228205      -0.00037373      -0.00580652 </v>
   <v>       0.00326038       0.00406114       0.01561395 </v>
   <v>      -0.00076591       0.00156782      -0.01341489 </v>
   <v>      -0.01557957      -0.00382139      -0.00987889 </v>
   <v>      -0.00672935      -0.00959357      -0.00310302 </v>
  </varray>
  <varray name="stress" >
   <v>       0.04891818       0.02507682      -0.08540963 </v>
   <v>       0.02507681       0.10015142       0.04406419 </v>
   <v>      -0.08540962       0.04406419       0.14759059 </v>
  </varray>
  <energy>
   <i name="e_fr_energy">   -361.20678956 </i>
   <i name="e_wo_entrp">   -361.21430535 </i>
   <i name="e_0_energy">      0.02254738 </i>
  </energy>
  <time name="totalsc">    4.46    4.60</time>
 </calculation>
 <calculation>
  <scstep>
   <time name="dav">    0.95    0.96</time>
   <time name="total">    1.09    1.14</time>
   <energy>
    <i name="alphaZ">   1588.15467158 </i>
    <i name="ewald"> -20174.00991211 </i>
    <i name="hartreedc">  -7797.16948094 </i>
    <i name="XCdc">   -118.09851062 </i>
    <i name="pawpsdc">  35748.46232322 </i>
    <i name="pawaedc"> -34188.51945362 </i>
    <i name="eentropy">      0.02282419 </i>
    <i name="bandstr">  -2832.53652638 </i>
    <i name="atom">  27412.48717566 </i>
    <i name="e_fr_energy">   -361.20688903 </i>
    <i name="e_wo_entrp">   -361.22971322 </i>
    <i name="e_0_energy">   -361.21449709 </i>
   </energy>
  </scstep>
  <scstep>
   <time name="diag">    0.08    0.08</time>
   <time name="diis">    0.83    0.83</time>
   <time name="orth">    0.01    0.01</time>
   <time name="total">    0.99    1.00</time>
   <energy>
    <i name="e_fr_energy">   -361.20727280 </i>
    <i name="e_wo_entrp">   -361.22994428 </i>
    <i name="e_0_energy">   -361.21482996 </i>
   </energy>
  </scstep>
  <scstep>
   <time name="diag">    0.08    0.08</time>
   <time name="diis">    0.77    0.77</time>
   <time name="orth">    0.01    0.01</time>
   <time name="total">    0.93    0.95</time>
   <energy>
    <i name="e_fr_energy">   -361.20720084 </i>
    <i name="e_wo_entrp">   -361.22988289 </i>
    <i name="e_0_energy">   -361.21476152 </i>
   </energy>
  </scstep>
  <scstep>
   <time name="diag">    0.08    0.09</time>
   <time name="diis">    0.68    0.68</time>
   <time name="orth">    0.01    0.01</time>
   <time name="total">    0.84    0.86</time>
   <energy>
    <i name="e_fr_energy">   -361.20718408 </i>
    <i name="e_wo_entrp">   -361.22992465 </i>
    <i name="e_0_energy">   -361.21476427 </i>
   </energy>
  </scstep>
  <scstep>
   <time name="diag">    0.08    0.08</time>
   <time name="diis">    0.47    0.48</time>
   <time name="orth">    0.01    0.01</time>
   <time name="total">    0.60    0.63</time>
   <energy>
    <i name="alphaZ">   1588.15467158 </i>
    <i name="ewald"> -20174.00991211 </i>
    <i name="hartreedc">  -7796.45305539 </i>
    <i name="XCdc">   -118.12596929 </i>
    <i name="pawpsdc">  35750.78712372 </i>
    <i name="pawaedc"> -34190.83914667 </i>
    <i name="eentropy">      0.02270596 </i>
    <i name="bandstr">  -2833.23077513 </i>
    <i name="atom">  27412.48717566 </i>
    <i name="e_fr_energy">   -361.20718168 </i>
    <i name="e_wo_entrp">   -361.22988764 </i>
    <i name="e_0_energy">   -361.21475033 </i>
   </energy>
  </scstep>
  <structure>
   <crystal>
    <varray name="basis" >
     <v>       6.86907548      -0.01583692       0.00989942 </v>
     <v>      -0.02388080      10.22553111      -0.00494352 </v>
     <v>       0.01474156      -0.00462835      10.34011424 </v>
    </varray>
    <i name="volume">    726.28349795 </i>
    <varray name="rec_basis" >
     <v>       0.14558108       0.00033989      -0.00020740 </v>
     <v>       0.00022541       0.09779498       0.00004345 </v>
     <v>      -0.00013927       0.00004643       0.09671095 </v>
    </varray>
   </crystal>
   <varray name="positions" >
    <v>       0.25121622       0.16392843       0.16169252 </v>
    <v>       0.98922776       0.99808548       0.66585364 </v>
    <v>       0.99726136       0.33999542       0.32049798 </v>
    <v>       0.23723859       0.49137455       0.52816473 </v>
    <v>       0.02560513       0.65383692       0.32902610 </v>
    <v>       0.50944638       0.98589045       0.99832903 </v>
    <v>       0.49841639       0.99109951       0.33422370 </v>
    <v>       0.49603031       0.66861078       0.99848068 </v>
    <v>       0.48543356       0.66657831       0.32483039 </v>
    <v>       0.99006072       0.33104078       0.99923055 </v>
    <v>       0.00183331       0.67713209       0.67160481 </v>
    <v>       0.24891955       0.83462964       0.81601924 </v>
    <v>       0.73555333       0.17481915       0.83566658 </v>
    <v>       0.50905512       0.33613033       0.00056163 </v>
    <v>       0.51376705       0.34432403       0.68507205 </v>
    <v>       0.75250715       0.49583227       0.83733871 </v>
    <v>       0.75454858       0.83252747       0.49624155 </v>
    <v>       0.75227449       0.82684530       0.81976866 </v>
    <v>       0.00162439       0.00343947       0.34705038 </v>
    <v>       0.24565925       0.48203991       0.13847634 </v>
    <v>       0.98504039       0.32755644       0.69021107 </v>
    <v>       0.24865474       0.49035833       0.83447703 </v>
    <v>       0.22554398       0.85153130       0.17652615 </v>
    <v>       0.24627482       0.83774749       0.50281888 </v>
    <v>       0.74130870       0.17381777       0.16135126 </v>
    <v>       0.50582868       0.98509978       0.66433047 </v>
    <v>       0.75519590       0.49185332       0.14889527 </v>
    <v>       0.98704158       0.99920934       0.98549488 </v>
    <v>       0.25553555       0.17109288       0.50782453 </v>
    <v>       0.26371133       0.17240926       0.83242025 </v>
    <v>       0.00874369       0.66577281       0.99374011 </v>
    <v>       0.73855967       0.17321969       0.50655551 </v>
    <v>       0.49839744       0.35298528       0.32193782 </v>
    <v>       0.76287520       0.50215600       0.51272636 </v>
    <v>       0.78050826       0.83399916       0.18160783 </v>
    <v>       0.50110139       0.67303088       0.67095331 </v>
   </varray>
  </structure>
  <varray name="forces" >
   <v>       0.00816308       0.00518498       0.00275797 </v>
   <v>      -0.00028953       0.00146343      -0.00175799 </v>
   <v>      -0.00223036      -0.00977169      -0.00077854 </v>
   <v>       0.00496028      -0.00584393      -0.01538050 </v>
   <v>      -0.00113851       0.00456002      -0.00339497 </v>
   <v>      -0.00645020      -0.00272066       0.00169690 </v>
   <v>       0.00072928      -0.00389230       0.00518113 </v>
   <v>      -0.00271963       0.00674629       0.00672066 </v>
   <v>       0.00108692      -0.00173269      -0.00618847 </v>
   <v>       0.00419578       0.00177109       0.00094066 </v>
   <v>       0.00298734      -0.00617924      -0.00032561 </v>
   <v>       0.00086537      -0.00006731       0.01227829 </v>
   <v>       0.00163179      -0.01085083      -0.00708454 </v>
   <v>      -0.00403097       0.00511700       0.00257444 </v>
   <v>      -0.00350130      -0.00937073      -0.01310845 </v>
   <v>       0.00071228       0.00551263      -0.00243652 </v>
   <v>      -0.00258656      -0.00508240      -0.00172654 </v>
   <v>      -0.00113944       0.00955606       0.00479535 </v>
   <v>      -0.00900714       0.00148694      -0.00608623 </v>
   <v>      -0.00000850       0.00249780       0.01497617 </v>
   <v>       0.00544286       0.00351268      -0.00285380 </v>
   <v>      -0.00010492       0.00172094      -0.00390982 </v>
   <v>       0.00506134      -0.00524187      -0.00142121 </v>
   <v>      -0.00235405       0.00505685      -0.00047415 </v>
   <v>      -0.00115333      -0.00977665       0.00960377 </v>
   <v>       0.00149555       0.00414183       0.00014898 </v>
   <v>       0.00163094       0.00801773       0.00500761 </v>
   <v>       0.00452677       0.00253798       0.01038742 </v>
   <v>      -0.00119266      -0.00252788      -0.00427081 </v>
   <v>       0.00040147      -0.00581541       0.00135006 </v>
   <v>      -0.00131631       0.00602351       0.00268563 </v>
   <v>       0.00204519       0.00304103      -0.00525648 </v>
   <v>       0.00510082       0.00242443       0.00891870 </v>
   <v>       0.00097673      -0.00000709      -0.00926484 </v>
   <v>      -0.00959769      -0.00114211      -0.00578142 </v>
   <v>      -0.00319265      -0.00035042       0.00147714 </v>
  </varray>
  <varray name="stress" >
   <v>       0.20548407       0.01251088      -0.05572886 </v>
   <v>       0.01251086       0.08855301       0.00543708 </v>
   <v>      -0.05572886       0.00543704       0.17682519 </v>
  </varray>
  <energy>
   <i name="e_fr_energy">   -361.20718168 </i>
   <i name="e_wo_entrp">   -361.21475033 </i>
   <i name="e_0_energy">      0.02270596 </i>
  </energy>
  <time name="totalsc">    6.12    6.31</time>
 </calculation>
 <calculation>
  <scstep>
   <time name="dav">    1.07    1.08</time>
   <time name="total">    1.23    1.28</time>
   <energy>
    <i name="alphaZ">   1588.51208169 </i>
    <i name="ewald"> -20183.85236157 </i>
    <i name="hartreedc">  -7789.06447555 </i>
    <i name="XCdc">   -118.08277221 </i>
    <i name="pawpsdc">  35750.59373362 </i>
    <i name="pawaedc"> -34190.64238308 </i>
    <i name="eentropy">      0.02320172 </i>
    <i name="bandstr">  -2831.18016201 </i>
    <i name="atom">  27412.48717566 </i>
    <i name="e_fr_energy">   -361.20596173 </i>
    <i name="e_wo_entrp">   -361.22916345 </i>
    <i name="e_0_energy">   -361.21369564 </i>
   </energy>
  </scstep>
  <scstep>
   <time name="diag">    0.08    0.08</time>
   <time name="diis">    0.74    0.75</time>
   <time name="orth">    0.01    0.01</time>
   <time name="total">    0.90    0.93</time>
   <energy>
    <i name="e_fr_energy">   -361.20751650 </i>
    <i name="e_wo_entrp">   -361.23045540 </i>
    <i name="e_0_energy">   -361.21516280 </i>
   </energy>
  </scstep>
  <scstep>
   <time name="diag">    0.14    0.14</time>
   <time name="diis">    0.82    0.83</time>
   <time name="orth">    0.01    0.01</time>
   <time name="total">    1.04    1.06</time>
   <energy>
    <i name="e_fr_energy">   -361.20723622 </i>
    <i name="e_wo_entrp">   -361.23016725 </i>
    <i name="e_0_energy">   -361.21487990 </i>
   </energy>
  </scstep>
  <scstep>
   <time name="diag">    0.08    0.08</time>
   <time name="diis">    0.87    0.88</time>
   <time name="orth">    0.01    0.01</time>
   <time name="total">    1.03    1.05</time>
   <energy>
    <i name="e_fr_energy">   -361.20716501 </i>
    <i name="e_wo_entrp">   -361.23021773 </i>
    <i name="e_0_energy">   -361.21484925 </i>
   </energy>
  </scstep>
  <scstep>
   <time name="diag">    0.08    0.08</time>
   <time name="diis">    0.72    0.73</time>
   <time name="orth">    0.01    0.01</time>
   <time name="total">    0.88    0.90</time>
   <energy>
    <i name="e_fr_energy">   -361.20715571 </i>
    <i name="e_wo_entrp">   -361.23014142 </i>
    <i name="e_0_energy">   -361.21481762 </i>
   </energy>
  </scstep>
  <scstep>
   <time name="diag">    0.13    0.13</time>
   <time name="diis">    0.70    0.71</time>
   <time name="orth">    0.01    0.01</time>
   <time name="total">    0.90    0.92</time>
   <energy>
    <i name="alphaZ">   1588.51208169 </i>
    <i name="ewald"> -20183.85236157 </i>
    <i name="hartreedc">  -7787.57332660 </i>
    <i name="XCdc">   -118.14014293 </i>
    <i name="pawpsdc">  35753.63490342 </i>
    <i name="pawaedc"> -34193.73112937 </i>
    <i name="eentropy">      0.02301079 </i>
    <i name="bandstr">  -2832.56736699 </i>
    <i name="atom">  27412.48717566 </i>
    <i name="e_fr_energy">   -361.20715588 </i>
    <i name="e_wo_entrp">   -361.23016667 </i>
    <i name="e_0_energy">   -361.21482614 </i>
   </energy>
  </scstep>
  <structure>
   <crystal>
    <varray name="basis" >
     <v>       6.86785253      -0.01567288       0.00939708 </v>
     <v>      -0.02363448      10.22476173      -0.00444553 </v>
     <v>       0.01398339      -0.00412570      10.34040292 </v>
    </varray>
    <i name="volume">    726.12008650 </i>
    <varray name="rec_basis" >
     <v>       0.14560696       0.00033648      -0.00019677 </v>
     <v>       0.00022314       0.09780232       0.00003872 </v>
     <v>      -0.00013223       0.00004174       0.09670823 </v>
    </varray>
   </crystal>
   <varray name="positions" >
    <v>       0.25137870       0.16395030       0.16168428 </v>
    <v>       0.98931073       0.99823592       0.66580753 </v>
    <v>       0.99723823       0.33990057       0.32055544 </v>
    <v>       0.23735242       0.49133042       0.52796602 </v>
    <v>       0.02558534       0.65383574       0.32898336 </v>
    <v>       0.50926237       0.98586202       0.99835891 </v>
    <v>       0.49839873       0.99109902       0.33426370 </v>
    <v>       0.49599845       0.66868480       0.99861448 </v>
    <v>       0.48546359       0.66653651       0.32472392 </v>
    <v>       0.99023508       0.33095773       0.99917181 </v>
    <v>       0.00191776       0.67695986       0.67151829 </v>
    <v>       0.24894992       0.83464757       0.81629040 </v>
    <v>       0.73556876       0.17454211       0.83565975 </v>
    <v>       0.50881553       0.33611316       0.00052749 </v>
    <v>       0.51359370       0.34422077       0.68480876 </v>
    <v>       0.75250044       0.49606635       0.83738366 </v>
    <v>       0.75444658       0.83243634       0.49614889 </v>
    <v>       0.75227486       0.82697874       0.81995074 </v>
    <v>       0.00148137       0.00356143       0.34706397 </v>
    <v>       0.24570782       0.48220111       0.13872650 </v>
    <v>       0.98533296       0.32759912       0.69010810 </v>
    <v>       0.24865831       0.49041770       0.83447711 </v>
    <v>       0.22579696       0.85142165       0.17643673 </v>
    <v>       0.24624039       0.83779242       0.50281196 </v>
    <v>       0.74130824       0.17364063       0.16149646 </v>
    <v>       0.50582458       0.98528397       0.66427794 </v>
    <v>       0.75523058       0.49206059       0.14900902 </v>
    <v>       0.98715187       0.99924905       0.98560706 </v>
    <v>       0.25547847       0.17101557       0.50777588 </v>
    <v>       0.26368404       0.17227415       0.83245091 </v>
    <v>       0.00871012       0.66584625       0.99376241 </v>
    <v>       0.73859068       0.17320956       0.50649873 </v>
    <v>       0.49843306       0.35304069       0.32211293 </v>
    <v>       0.76286291       0.50217216       0.51257114 </v>
    <v>       0.78025003       0.83395393       0.18149173 </v>
    <v>       0.50096642       0.67290212       0.67090399 </v>
   </varray>
  </structure>
  <varray name="forces" >
   <v>       0.00412598       0.01041582       0.00747131 </v>
   <v>      -0.00758794      -0.01843304       0.00592448 </v>
   <v>      -0.00374916      -0.00797783      -0.01177577 </v>
   <v>       0.00065398      -0.00929434      -0.00750037 </v>
   <v>      -0.00006041       0.00917337      -0.00558319 </v>
   <v>       0.00146409      -0.00372795      -0.00224939 </v>
   <v>       0.00247412      -0.00895102       0.00437902 </v>
   <v>      -0.00328463       0.00521411      -0.00438036 </v>
   <v>      -0.00129726      -0.00033686      -0.00236730 </v>
   <v>      -0.00709531       0.01638394       0.00914894 </v>
   <v>       0.00048704       0.00950861       0.01398390 </v>
   <v>      -0.00099657      -0.00360342      -0.00757676 </v>
   <v>       0.00229644       0.01471012      -0.01533075 </v>
   <v>       0.01342421       0.01598368       0.00925705 </v>
   <v>       0.00795974      -0.00807375       0.00650420 </v>
   <v>       0.00217079      -0.01944016      -0.01097476 </v>
   <v>       0.00526906       0.00046356       0.00976377 </v>
   <v>      -0.00216056       0.00463778      -0.01424605 </v>
   <v>      -0.00668277      -0.01308646      -0.01850512 </v>
   <v>      -0.00451620      -0.01761053      -0.00120959 </v>
   <v>      -0.01572320       0.00281195       0.00951441 </v>
   <v>      -0.00030191      -0.00574008      -0.00897670 </v>
   <v>      -0.01401595       0.00306933       0.00887155 </v>
   <v>      -0.00435981       0.00610737       0.00068110 </v>
   <v>      -0.00211243       0.00358513       0.00085402 </v>
   <v>       0.00315666      -0.01765024       0.01253659 </v>
   <v>       0.00107223      -0.01110667      -0.00542223 </v>
   <v>       0.00148001      -0.00088409       0.00863168 </v>
   <v>       0.00181305       0.00577942      -0.00227321 </v>
   <v>       0.00398949       0.00654935      -0.00065772 </v>
   <v>       0.00041495       0.00374841       0.00309155 </v>
   <v>       0.00274916       0.01032002      -0.00331711 </v>
   <v>       0.00886436      -0.00025334      -0.00429086 </v>
   <v>       0.00376045      -0.00330820       0.00053072 </v>
   <v>       0.00310200       0.00342927       0.00134385 </v>
   <v>       0.00321632       0.01758674       0.01414907 </v>
  </varray>
  <varray name="stress" >
   <v>       0.45186056      -0.01830160       0.01778834 </v>
   <v>      -0.01830162       0.03947854      -0.11539478 </v>
   <v>       0.01778831      -0.11539478       0.10894933 </v>
  </varray>
  <energy>
   <i name="e_fr_energy">   -361.20715588 </i>
   <i name="e_wo_entrp">   -361.21482614 </i>
   <i name="e_0_energy">      0.02301079 </i>
  </energy>
  <time name="totalsc">    7.68    7.90</time>
 </calculation>
 <calculation>
  <scstep>
   <time name="dav">    1.02    1.10</time>
   <time name="total">    1.18    1.30</time>
   <energy>
    <i name="alphaZ">   1588.32790506 </i>
    <i name="ewald"> -20178.78782247 </i>
    <i name="hartreedc">  -7791.39062883 </i>
    <i name="XCdc">   -118.16193415 </i>
    <i name="pawpsdc">  35753.22864289 </i>
    <i name="pawaedc"> -34193.31748336 </i>
    <i name="eentropy">      0.02276422 </i>
    <i name="bandstr">  -2833.61563535 </i>
    <i name="atom">  27412.48717566 </i>
    <i name="e_fr_energy">   -361.20701633 </i>
    <i name="e_wo_entrp">   -361.22978055 </i>
    <i name="e_0_energy">   -361.21460440 </i>
[...]
       <r>    6.9981    1.0000 </r>
       <r>    7.0565    1.0000 </r>
       <r>    7.0880    1.0000 </r>
       <r>    7.1514    1.0000 </r>
       <r>    7.1840    1.0000 </r>
       <r>    7.2351    1.0001 </r>
       <r>    7.2846    1.0004 </r>
       <r>    7.3234    1.0013 </r>
       <r>    7.3441    1.0023 </r>
       <r>    7.3776    1.0053 </r>
       <r>    7.4223    1.0136 </r>
       <r>    7.4453    1.0200 </r>
       <r>    7.4836    1.0313 </r>
       <r>    7.5173    1.0352 </r>
       <r>    7.5424    1.0271 </r>
       <r>    7.5696    0.9994 </r>
       <r>    7.6056    0.9195 </r>
       <r>    7.6433    0.7754 </r>
       <r>    7.6555    0.7165 </r>
       <r>    7.6895    0.5336 </r>
       <r>    7.7472    0.2263 </r>
       <r>    7.7721    0.1239 </r>
       <r>    7.7956    0.0519 </r>
       <r>    7.8346   -0.0160 </r>
       <r>    7.8868   -0.0351 </r>
       <r>    7.9049   -0.0319 </r>
       <r>    7.9426   -0.0209 </r>
       <r>    7.9733   -0.0125 </r>
       <r>    8.0385   -0.0028 </r>
       <r>    8.0743   -0.0010 </r>
       <r>    8.0933   -0.0006 </r>
       <r>    8.1246   -0.0002 </r>
       <r>    8.1754   -0.0000 </r>
       <r>    8.2214   -0.0000 </r>
       <r>    8.2845   -0.0000 </r>
       <r>    8.3052   -0.0000 </r>
       <r>    8.3450   -0.0000 </r>
       <r>    8.4273   -0.0000 </r>
       <r>    8.5114   -0.0000 </r>
       <r>    8.5726   -0.0000 </r>
       <r>    8.6220   -0.0000 </r>
       <r>    8.7868   -0.0000 </r>
       <r>    8.9113   -0.0000 </r>
       <r>    9.0527   -0.0000 </r>
       <r>    9.5792   -0.0000 </r>
       <r>    9.6662   -0.0000 </r>
       <r>    9.7053   -0.0000 </r>
       <r>    9.8245   -0.0000 </r>
       <r>    9.8900   -0.0000 </r>
      </set>
     </set>
    </set>
   </array>
  </eigenvalues>
  <separator name="orbital magnetization" >
   <v name="MAGDIPOLOUT">      0.00000000      0.00000000      0.00000000</v>
  </separator>
  <dos>
   <i name="efermi">      7.69542788 </i>
   <total>
    <array>
     <dimension dim="1">gridpoints</dimension>
     <dimension dim="2">spin</dimension>
     <field>energy</field>
     <field>total</field>
     <field>integrated</field>
     <set>
      <set comment="spin 1">
       <r>   -49.3977     0.0000     0.0000 </r>
       <r>   -49.1907     0.0000     0.0000 </r>
       <r>   -48.9837     0.0000     0.0000 </r>
       <r>   -48.7766     0.0000     0.0000 </r>
       <r>   -48.5696     0.0000     0.0000 </r>
       <r>   -48.3626     0.0000     0.0000 </r>
       <r>   -48.1555     0.0000     0.0000 </r>
       <r>   -47.9485    -0.0000    -0.0000 </r>
       <r>   -47.7415    -0.0000    -0.0000 </r>
       <r>   -47.5344    -0.0000    -0.0000 </r>
       <r>   -47.3274    -0.0000    -0.0000 </r>
       <r>   -47.1203    -0.0000    -0.0000 </r>
       <r>   -46.9133    -0.0612    -0.0127 </r>
       <r>   -46.7063    -1.0598    -0.2321 </r>
       <r>   -46.4992    28.5824     5.6855 </r>
       <r>   -46.2922    52.7774    16.6123 </r>
       <r>   -46.0852     7.3432    18.1327 </r>
       <r>   -45.8781    -0.6381    18.0005 </r>
       <r>   -45.6711    -0.0027    18.0000 </r>
       <r>   -45.4641    -0.0000    18.0000 </r>
       <r>   -45.2570    -0.0000    18.0000 </r>
       <r>   -45.0500     0.0000    18.0000 </r>
       <r>   -44.8429     0.0000    18.0000 </r>
       <r>   -44.6359     0.0000    18.0000 </r>
       <r>   -44.4289     0.0000    18.0000 </r>
       <r>   -44.2218     0.0000    18.0000 </r>
       <r>   -44.0148     0.0000    18.0000 </r>
       <r>   -43.8078     0.0000    18.0000 </r>
       <r>   -43.6007     0.0000    18.0000 </r>
       <r>   -43.3937     0.0000    18.0000 </r>
       <r>   -43.1867     0.0000    18.0000 </r>
       <r>   -42.9796     0.0000    18.0000 </r>
       <r>   -42.7726     0.0000    18.0000 </r>
       <r>   -42.5655     0.0000    18.0000 </r>
       <r>   -42.3585     0.0000    18.0000 </r>
       <r>   -42.1515     0.0000    18.0000 </r>
       <r>   -41.9444     0.0000    18.0000 </r>
       <r>   -41.7374    -0.0000    18.0000 </r>
       <r>   -41.5304    -0.0000    18.0000 </r>
       <r>   -41.3233    -0.0000    18.0000 </r>
       <r>   -41.1163    -0.0000    18.0000 </r>
       <r>   -40.9093    -0.0043    17.9991 </r>
       <r>   -40.7022    -1.0512    17.7815 </r>
       <r>   -40.4952    13.5406    20.5849 </r>
       <r>   -40.2881    66.7430    34.4031 </r>
       <r>   -40.0811     8.4672    36.1561 </r>
       <r>   -39.8741    -0.7501    36.0008 </r>
       <r>   -39.6670    -0.0040    36.0000 </r>
       <r>   -39.4600    -0.0000    36.0000 </r>
       <r>   -39.2530    -0.0000    36.0000 </r>
       <r>   -39.0459     0.0000    36.0000 </r>
       <r>   -38.8389     0.0000    36.0000 </r>
       <r>   -38.6319     0.0000    36.0000 </r>
       <r>   -38.4248     0.0000    36.0000 </r>
       <r>   -38.2178     0.0000    36.0000 </r>
       <r>   -38.0107     0.0000    36.0000 </r>
       <r>   -37.8037     0.0000    36.0000 </r>
       <r>   -37.5967     0.0000    36.0000 </r>
       <r>   -37.3896     0.0000    36.0000 </r>
       <r>   -37.1826     0.0000    36.0000 </r>
       <r>   -36.9756     0.0000    36.0000 </r>
       <r>   -36.7685     0.0000    36.0000 </r>
       <r>   -36.5615     0.0000    36.0000 </r>
       <r>   -36.3545     0.0000    36.0000 </r>
       <r>   -36.1474     0.0000    36.0000 </r>
       <r>   -35.9404     0.0000    36.0000 </r>
       <r>   -35.7333     0.0000    36.0000 </r>
       <r>   -35.5263     0.0000    36.0000 </r>
       <r>   -35.3193     0.0000    36.0000 </r>
       <r>   -35.1122     0.0000    36.0000 </r>
       <r>   -34.9052     0.0000    36.0000 </r>
       <r>   -34.6982     0.0000    36.0000 </r>
       <r>   -34.4911     0.0000    36.0000 </r>
       <r>   -34.2841     0.0000    36.0000 </r>
       <r>   -34.0770     0.0000    36.0000 </r>
       <r>   -33.8700     0.0000    36.0000 </r>
       <r>   -33.6630     0.0000    36.0000 </r>
       <r>   -33.4559     0.0000    36.0000 </r>
       <r>   -33.2489     0.0000    36.0000 </r>
       <r>   -33.0419     0.0000    36.0000 </r>
       <r>   -32.8348     0.0000    36.0000 </r>
       <r>   -32.6278     0.0000    36.0000 </r>
       <r>   -32.4208     0.0000    36.0000 </r>
       <r>   -32.2137     0.0000    36.0000 </r>
       <r>   -32.0067     0.0000    36.0000 </r>
       <r>   -31.7996     0.0000    36.0000 </r>
       <r>   -31.5926     0.0000    36.0000 </r>
       <r>   -31.3856     0.0000    36.0000 </r>
       <r>   -31.1785     0.0000    36.0000 </r>
       <r>   -30.9715     0.0000    36.0000 </r>
       <r>   -30.7645     0.0000    36.0000 </r>
       <r>   -30.5574     0.0000    36.0000 </r>
       <r>   -30.3504     0.0000    36.0000 </r>
       <r>   -30.1434     0.0000    36.0000 </r>
       <r>   -29.9363     0.0000    36.0000 </r>
       <r>   -29.7293     0.0000    36.0000 </r>
       <r>   -29.5222     0.0000    36.0000 </r>
       <r>   -29.3152     0.0000    36.0000 </r>
       <r>   -29.1082     0.0000    36.0000 </r>
       <r>   -28.9011     0.0000    36.0000 </r>
       <r>   -28.6941     0.0000    36.0000 </r>
       <r>   -28.4871     0.0000    36.0000 </r>
       <r>   -28.2800     0.0000    36.0000 </r>
       <r>   -28.0730     0.0000    36.0000 </r>
       <r>   -27.8660     0.0000    36.0000 </r>
       <r>   -27.6589     0.0000    36.0000 </r>
       <r>   -27.4519     0.0000    36.0000 </r>
       <r>   -27.2448     0.0000    36.0000 </r>
       <r>   -27.0378     0.0000    36.0000 </r>
       <r>   -26.8308     0.0000    36.0000 </r>
       <r>   -26.6237     0.0000    36.0000 </r>
       <r>   -26.4167     0.0000    36.0000 </r>
       <r>   -26.2097     0.0000    36.0000 </r>
       <r>   -26.0026     0.0000    36.0000 </r>
       <r>   -25.7956     0.0000    36.0000 </r>
       <r>   -25.5886     0.0000    36.0000 </r>
       <r>   -25.3815     0.0000    36.0000 </r>
       <r>   -25.1745     0.0000    36.0000 </r>
       <r>   -24.9674     0.0000    36.0000 </r>
       <r>   -24.7604     0.0000    36.0000 </r>
       <r>   -24.5534     0.0000    36.0000 </r>
       <r>   -24.3463    -0.0000    36.0000 </r>
       <r>   -24.1393    -0.0000    36.0000 </r>
       <r>   -23.9323    -0.0000    36.0000 </r>
       <r>   -23.7252    -0.0000    36.0000 </r>
       <r>   -23.5182    -0.0001    36.0000 </r>
       <r>   -23.3112    -0.1116    35.9769 </r>
       <r>   -23.1041    -0.1940    35.9367 </r>
       <r>   -22.8971    28.1328    41.7612 </r>
       <r>   -22.6900    59.2828    54.0349 </r>
       <r>   -22.4830    74.9204    69.5462 </r>
       <r>   -22.2760    73.2133    84.7040 </r>
       <r>   -22.0689    26.9796    90.2897 </r>
       <r>   -21.8619    -1.3555    90.0091 </r>
       <r>   -21.6549    -0.0438    90.0000 </r>
       <r>   -21.4478    -0.0000    90.0000 </r>
       <r>   -21.2408    -0.0000    90.0000 </r>
       <r>   -21.0338     0.0000    90.0000 </r>
       <r>   -20.8267     0.0000    90.0000 </r>
       <r>   -20.6197     0.0000    90.0000 </r>
       <r>   -20.4126     0.0000    90.0000 </r>
       <r>   -20.2056    -0.0000    90.0000 </r>
       <r>   -19.9986    -0.0000    90.0000 </r>
       <r>   -19.7915    -0.0000    90.0000 </r>
       <r>   -19.5845    -0.0000    90.0000 </r>
       <r>   -19.3775    -0.0001    90.0000 </r>
       <r>   -19.1704    -0.0982    89.9796 </r>
       <r>   -18.9634    -0.3727    89.9025 </r>
       <r>   -18.7564    26.1304    95.3124 </r>
       <r>   -18.5493    77.5164   111.3612 </r>
       <r>   -18.3423   119.0286   136.0044 </r>
       <r>   -18.1352    39.3551   144.1523 </r>
       <r>   -17.9282    -0.5932   144.0295 </r>
       <r>   -17.7212    -0.1425   144.0000 </r>
       <r>   -17.5141    -0.0001   144.0000 </r>
       <r>   -17.3071    -0.0000   144.0000 </r>
       <r>   -17.1001     0.0000   144.0000 </r>
       <r>   -16.8930     0.0000   144.0000 </r>
       <r>   -16.6860     0.0000   144.0000 </r>
       <r>   -16.4790     0.0000   144.0000 </r>
       <r>   -16.2719     0.0000   144.0000 </r>
       <r>   -16.0649     0.0000   144.0000 </r>
       <r>   -15.8578     0.0000   144.0000 </r>
       <r>   -15.6508     0.0000   144.0000 </r>
       <r>   -15.4438     0.0000   144.0000 </r>
       <r>   -15.2367     0.0000   144.0000 </r>
       <r>   -15.0297     0.0000   144.0000 </r>
       <r>   -14.8227     0.0000   144.0000 </r>
       <r>   -14.6156     0.0000   144.0000 </r>
       <r>   -14.4086     0.0000   144.0000 </r>
       <r>   -14.2016     0.0000   144.0000 </r>
       <r>   -13.9945     0.0000   144.0000 </r>
       <r>   -13.7875     0.0000   144.0000 </r>
       <r>   -13.5804     0.0000   144.0000 </r>
       <r>   -13.3734     0.0000   144.0000 </r>
       <r>   -13.1664     0.0000   144.0000 </r>
       <r>   -12.9593     0.0000   144.0000 </r>
       <r>   -12.7523     0.0000   144.0000 </r>
       <r>   -12.5453     0.0000   144.0000 </r>
       <r>   -12.3382     0.0000   144.0000 </r>
       <r>   -12.1312     0.0000   144.0000 </r>
       <r>   -11.9242     0.0000   144.0000 </r>
       <r>   -11.7171     0.0000   144.0000 </r>
       <r>   -11.5101     0.0000   144.0000 </r>
       <r>   -11.3030     0.0000   144.0000 </r>
       <r>   -11.0960     0.0000   144.0000 </r>
       <r>   -10.8890     0.0000   144.0000 </r>
       <r>   -10.6819     0.0000   144.0000 </r>
       <r>   -10.4749     0.0000   144.0000 </r>
       <r>   -10.2679     0.0000   144.0000 </r>
       <r>   -10.0608     0.0000   144.0000 </r>
       <r>    -9.8538     0.0000   144.0000 </r>
       <r>    -9.6468     0.0000   144.0000 </r>
       <r>    -9.4397     0.0000   144.0000 </r>
       <r>    -9.2327     0.0000   144.0000 </r>
       <r>    -9.0256     0.0000   144.0000 </r>
       <r>    -8.8186     0.0000   144.0000 </r>
       <r>    -8.6116     0.0000   144.0000 </r>
       <r>    -8.4045     0.0000   144.0000 </r>
       <r>    -8.1975     0.0000   144.0000 </r>
       <r>    -7.9905     0.0000   144.0000 </r>
       <r>    -7.7834     0.0000   144.0000 </r>
       <r>    -7.5764     0.0000   144.0000 </r>
       <r>    -7.3694     0.0000   144.0000 </r>
       <r>    -7.1623     0.0000   144.0000 </r>
       <r>    -6.9553     0.0000   144.0000 </r>
       <r>    -6.7482     0.0000   144.0000 </r>
       <r>    -6.5412     0.0000   144.0000 </r>
       <r>    -6.3342     0.0000   144.0000 </r>
       <r>    -6.1271     0.0000   144.0000 </r>
       <r>    -5.9201     0.0000   144.0000 </r>
       <r>    -5.7131     0.0000   144.0000 </r>
       <r>    -5.5060     0.0000   144.0000 </r>
       <r>    -5.2990     0.0000   144.0000 </r>
       <r>    -5.0920     0.0000   144.0000 </r>
       <r>    -4.8849     0.0000   144.0000 </r>
       <r>    -4.6779     0.0000   144.0000 </r>
       <r>    -4.4708     0.0000   144.0000 </r>
       <r>    -4.2638     0.0000   144.0000 </r>
       <r>    -4.0568     0.0000   144.0000 </r>
       <r>    -3.8497     0.0000   144.0000 </r>
       <r>    -3.6427     0.0000   144.0000 </r>
       <r>    -3.4357     0.0000   144.0000 </r>
       <r>    -3.2286     0.0000   144.0000 </r>
       <r>    -3.0216     0.0000   144.0000 </r>
       <r>    -2.8146     0.0000   144.0000 </r>
       <r>    -2.6075     0.0000   144.0000 </r>
       <r>    -2.4005     0.0000   144.0000 </r>
       <r>    -2.1934     0.0000   144.0000 </r>
       <r>    -1.9864     0.0000   144.0000 </r>
       <r>    -1.7794     0.0000   144.0000 </r>
       <r>    -1.5723     0.0000   144.0000 </r>
       <r>    -1.3653     0.0000   144.0000 </r>
       <r>    -1.1583     0.0000   144.0000 </r>
       <r>    -0.9512     0.0000   144.0000 </r>
       <r>    -0.7442     0.0000   144.0000 </r>
       <r>    -0.5372     0.0000   144.0000 </r>
       <r>    -0.3301    -0.0000   144.0000 </r>
       <r>    -0.1231    -0.0000   144.0000 </r>
       <r>     0.0840    -0.0000   144.0000 </r>
       <r>     0.2910    -0.0000   144.0000 </r>
       <r>     0.4980    -0.0000   144.0000 </r>
       <r>     0.7051    -0.0020   143.9996 </r>
       <r>     0.9121     0.0073   144.0011 </r>
       <r>     1.1191     0.3307   144.0696 </r>
       <r>     1.3262     1.2574   144.3299 </r>
       <r>     1.5332     1.7361   144.6893 </r>
       <r>     1.7402     2.1261   145.1295 </r>
       <r>     1.9473     3.9751   145.9525 </r>
       <r>     2.1543     3.1216   146.5988 </r>
       <r>     2.3614     2.8971   147.1986 </r>
       <r>     2.5684     4.4516   148.1202 </r>
       <r>     2.7754     4.0222   148.9530 </r>
       <r>     2.9825     3.7629   149.7320 </r>
       <r>     3.1895     8.4205   151.4754 </r>
       <r>     3.3965     8.3625   153.2067 </r>
       <r>     3.6036     7.2655   154.7109 </r>
       <r>     3.8106     8.3483   156.4393 </r>
       <r>     4.0176    11.3320   158.7855 </r>
       <r>     4.2247    19.3923   162.8004 </r>
       <r>     4.4317    24.0032   167.7699 </r>
       <r>     4.6388    26.2896   173.2128 </r>
       <r>     4.8458    33.1780   180.0819 </r>
       <r>     5.0528    35.4632   187.4240 </r>
       <r>     5.2599    40.4089   195.7902 </r>
       <r>     5.4669    39.9219   204.0554 </r>
       <r>     5.6739    33.8700   211.0678 </r>
       <r>     5.8810    35.0453   218.3234 </r>
       <r>     6.0880    26.1690   223.7413 </r>
       <r>     6.2950    18.4672   227.5647 </r>
       <r>     6.5021    58.9631   239.7722 </r>
       <r>     6.7091    60.7612   252.3520 </r>
       <r>     6.9162    54.6816   263.6731 </r>
       <r>     7.1232    52.8467   274.6143 </r>
       <r>     7.3302    53.8341   285.7599 </r>
       <r>     7.5373    59.1662   298.0094 </r>
       <r>     7.7443    49.6812   308.2953 </r>
       <r>     7.9513    49.2421   318.4902 </r>
       <r>     8.1584    48.3149   328.4931 </r>
       <r>     8.3654    41.1813   337.0192 </r>
       <r>     8.5724    31.1522   343.4688 </r>
       <r>     8.7795    24.8146   348.6063 </r>
       <r>     8.9865    20.9273   352.9391 </r>
       <r>     9.1936    13.6380   355.7626 </r>
       <r>     9.4006    14.9102   358.8496 </r>
       <r>     9.6076    22.7800   363.5659 </r>
       <r>     9.8147    17.7836   367.2477 </r>
       <r>    10.0217     3.8720   368.0494 </r>
       <r>    10.2287    -0.2326   368.0012 </r>
       <r>    10.4358    -0.0058   368.0000 </r>
       <r>    10.6428    -0.0000   368.0000 </r>
       <r>    10.8498    -0.0000   368.0000 </r>
       <r>    11.0569     0.0000   368.0000 </r>
       <r>    11.2639     0.0000   368.0000 </r>
       <r>    11.4710     0.0000   368.0000 </r>
       <r>    11.6780     0.0000   368.0000 </r>
       <r>    11.8850     0.0000   368.0000 </r>
       <r>    12.0921     0.0000   368.0000 </r>
       <r>    12.2991     0.0000   368.0000 </r>
       <r>    12.5061     0.0000   368.0000 </r>
       <r>    12.7132     0.0000   368.0000 </r>
      </set>
     </set>
    </array>
   </total>
  </dos>
 </calculation>
 <structure name="finalpos" >
  <crystal>
   <varray name="basis" >
    <v>       6.87041008      -0.01576079       0.00968774 </v>
    <v>      -0.02377185      10.22521780      -0.00552830 </v>
    <v>       0.01442271      -0.00521965      10.34123087 </v>
   </varray>
   <i name="volume">    726.48085461 </i>
   <varray name="rec_basis" >
    <v>       0.14555278       0.00033828      -0.00020283 </v>
    <v>       0.00022428       0.09779798       0.00004905 </v>
    <v>      -0.00013623       0.00005196       0.09670050 </v>
   </varray>
  </crystal>
  <varray name="positions" >
   <v>       0.25141937       0.16401275       0.16172774 </v>
   <v>       0.98923938       0.99811588       0.66584377 </v>
   <v>       0.99720388       0.33985771       0.32048180 </v>
   <v>       0.23734803       0.49127737       0.52793885 </v>
   <v>       0.02559200       0.65389108       0.32895953 </v>
   <v>       0.50928257       0.98584130       0.99833554 </v>
   <v>       0.49841565       0.99103816       0.33429466 </v>
   <v>       0.49595945       0.66870287       0.99857238 </v>
   <v>       0.48543938       0.66653773       0.32472013 </v>
   <v>       0.99014705       0.33106815       0.99922531 </v>
   <v>       0.00191939       0.67703768       0.67160413 </v>
   <v>       0.24893088       0.83461789       0.81621167 </v>
   <v>       0.73558305       0.17467142       0.83557187 </v>
   <v>       0.50897045       0.33621685       0.00057322 </v>
   <v>       0.51368189       0.34418202       0.68487897 </v>
   <v>       0.75251326       0.49591497       0.83732193 </v>
   <v>       0.75450361       0.83244712       0.49622945 </v>
   <v>       0.75224850       0.82699175       0.81983776 </v>
   <v>       0.00142915       0.00347205       0.34696048 </v>
   <v>       0.24566737       0.48208697       0.13870537 </v>
   <v>       0.98519020       0.32761564       0.69017040 </v>
   <v>       0.24865512       0.49037969       0.83441945 </v>
   <v>       0.22566007       0.85144147       0.17649333 </v>
   <v>       0.24620052       0.83782435       0.50282243 </v>
   <v>       0.74128018       0.17367151       0.16149041 </v>
   <v>       0.50584855       0.98517131       0.66434999 </v>
   <v>       0.75523666       0.49198728       0.14896525 </v>
   <v>       0.98716412       0.99924503       0.98565146 </v>
   <v>       0.25549511       0.17105185       0.50777209 </v>
   <v>       0.26372766       0.17232728       0.83244213 </v>
   <v>       0.00873010       0.66584943       0.99377281 </v>
   <v>       0.73861132       0.17326950       0.50649493 </v>
   <v>       0.49850972       0.35303775       0.32206726 </v>
   <v>       0.76290141       0.50215416       0.51259923 </v>
   <v>       0.78030029       0.83397505       0.18150382 </v>
   <v>       0.50099466       0.67301700       0.67099049 </v>
  </varray>
 </structure>
</modeling>
