 vasp.5.4.1 05Feb16 (build Jan 29 2020 16:04:39) complex                        
  
 executed on           IFC91_ompi date 2020.06.15  06:05:28
 running on  160 total cores
 distrk:  each k-point on   20 cores,    8 groups
 distr:  one band on NCORES_PER_BAND=   5 cores,    4 groups


--------------------------------------------------------------------------------------------------------


 INCAR:
 POTCAR:    PAW_PBE Hf 20Jan2003                  
 POTCAR:    PAW_PBE Zr_sv 04Jan2005               
 POTCAR:    PAW_PBE Ta 17Jan2003                  
 POTCAR:    PAW_PBE Nb_sv 25May2007               

 ----------------------------------------------------------------------------- 
|                                                                             |
|           W    W    AA    RRRRR   N    N  II  N    N   GGGG   !!!           |
|           W    W   A  A   R    R  NN   N  II  NN   N  G    G  !!!           |
|           W    W  A    A  R    R  N N  N  II  N N  N  G       !!!           |
|           W WW W  AAAAAA  RRRRR   N  N N  II  N  N N  G  GGG   !            |
|           WW  WW  A    A  R   R   N   NN  II  N   NN  G    G                |
|           W    W  A    A  R    R  N    N  II  N    N   GGGG   !!!           |
|                                                                             |
|      For optimal performance we recommend to set                            |
|        NCORE= 4 - approx SQRT( number of cores)                             |
|      NCORE specifies how many cores store one orbital (NPAR=cpu/NCORE).     |
|      This setting can  greatly improve the performance of VASP for DFT.     |
|      The default, NPAR=number of cores might be grossly inefficient         |
|      on modern multi-core architectures or massively parallel machines.     |
|      Do your own testing !!!!                                               |
|      Unfortunately you need to use the default for GW and RPA calculations. |
|      (for HF NCORE is supported but not extensively tested yet)             |
|                                                                             |
 ----------------------------------------------------------------------------- 


 ----------------------------------------------------------------------------- 
|                                                                             |
|           W    W    AA    RRRRR   N    N  II  N    N   GGGG   !!!           |
|           W    W   A  A   R    R  NN   N  II  NN   N  G    G  !!!           |
|           W    W  A    A  R    R  N N  N  II  N N  N  G       !!!           |
|           W WW W  AAAAAA  RRRRR   N  N N  II  N  N N  G  GGG   !            |
|           WW  WW  A    A  R   R   N   NN  II  N   NN  G    G                |
|           W    W  A    A  R    R  N    N  II  N    N   GGGG   !!!           |
|                                                                             |
|      You have enabled k-point parallelism (KPAR>1).                         |
|      This developmental code was originally  written by Paul Kent at ORNL,  |
|      and carefully double checked in Vienna.                                |
|      GW as well as linear response parallelism added by Martijn Marsman     |
|      and Georg Kresse.                                                      |
|      Carefully verify results versus KPAR=1.                                |
|      Report problems to Paul Kent and Vienna.                               |
|                                                                             |
 ----------------------------------------------------------------------------- 

 POTCAR:    PAW_PBE Hf 20Jan2003                  
   VRHFIN =Hf: 6s5d                                                             
   LEXCH  = PE                                                                  
   EATOM  =    75.9011 eV,    5.5786 Ry                                         
                                                                                
   TITEL  = PAW_PBE Hf 20Jan2003                                                
   LULTRA =        F    use ultrasoft PP ?                                      
   IUNSCR =        1    unscreen: 0-lin 1-nonlin 2-no                           
   RPACOR =    2.500    partial core radius                                     
   POMASS =  178.490; ZVAL   =    4.000    mass and valenz                      
   RCORE  =    3.000    outmost cutoff radius                                   
   RWIGS  =    3.050; RWIGS  =    1.614    wigner-seitz radius (au A)           
   ENMAX  =  220.334; ENMIN  =  165.250 eV                                      
   RCLOC  =    2.212    cutoff for local pot                                    
   LCOR   =        T    correct aug charges                                     
   LPAW   =        T    paw PP                                                  
   EAUG   =  335.116                                                            
   DEXC   =    0.000                                                            
   RMAX   =    3.077    core radius for proj-oper                               
   RAUG   =    1.300    factor for augmentation sphere                          
   RDEP   =    3.047    radius for radial grids                                 
   RDEPT  =    2.344    core radius for aug-charge                              
                                                                                
   Atomic configuration                                                         
   16 entries                                                                   
     n  l   j            E        occ.                                          
     1  0  0.50    -65259.4397   2.0000                                         
     2  0  0.50    -11157.9882   2.0000                                         
     2  1  1.50     -9795.2113   6.0000                                         
     3  0  0.50     -2541.4058   2.0000                                         
     3  1  1.50     -2134.4770   6.0000                                         
     3  2  2.50     -1653.5418  10.0000                                         
     4  0  0.50      -510.9575   2.0000                                         
     4  1  1.50      -377.5023   6.0000                                         
     4  2  2.50      -205.2085  10.0000                                         
     4  3  3.50       -15.4905  14.0000                                         
     5  0  0.50       -65.6020   2.0000                                         
     5  1  1.50       -34.2798   6.0000                                         
     5  2  2.50        -1.9877   3.0000                                         
     6  0  0.50        -4.7357   1.0000                                         
     6  1  1.50        -1.3606   0.0000                                         
     5  3  2.50        -1.3606   0.0000                                         
   Description                                                                  
     l       E           TYP  RCUT    TYP  RCUT                                 
     2     -1.9876627     23  2.500                                             
     2      0.0744703     23  2.500                                             
     0     -4.7356889     23  2.600                                             
     0      3.2364747     23  2.600                                             
     1     -1.3605826     23  3.000                                             
     1     27.2116520     23  3.000                                             
  local pseudopotential read in
  partial core-charges read in
  partial kinetic energy density read in
  atomic valenz-charges read in
  non local Contribution for L=           2  read in
    real space projection operators read in
  non local Contribution for L=           2  read in
    real space projection operators read in
  non local Contribution for L=           0  read in
    real space projection operators read in
  non local Contribution for L=           0  read in
    real space projection operators read in
  non local Contribution for L=           1  read in
    real space projection operators read in
  non local Contribution for L=           1  read in
    real space projection operators read in
    PAW grid and wavefunctions read in
 
   number of l-projection  operators is LMAX  =           6
   number of lm-projection operators is LMMAX =          18
 
 POTCAR:    PAW_PBE Zr_sv 04Jan2005               
   VRHFIN =Zr: 4s4p5s4d                                                         
   LEXCH  = PE                                                                  
   EATOM  =  1284.2219 eV,   94.3876 Ry                                         
                                                                                
   TITEL  = PAW_PBE Zr_sv 04Jan2005                                             
   LULTRA =        F    use ultrasoft PP ?                                      
   IUNSCR =        1    unscreen: 0-lin 1-nonlin 2-no                           
   RPACOR =    2.200    partial core radius                                     
   POMASS =   91.224; ZVAL   =   12.000    mass and valenz                      
   RCORE  =    2.500    outmost cutoff radius                                   
   RWIGS  =    3.070; RWIGS  =    1.625    wigner-seitz radius (au A)           
   ENMAX  =  229.898; ENMIN  =  172.424 eV                                      
   ICORE  =        3    local potential                                         
   LCOR   =        T    correct aug charges                                     
   LPAW   =        T    paw PP                                                  
   EAUG   =  461.257                                                            
   DEXC   =    0.000                                                            
   RMAX   =    2.561    core radius for proj-oper                               
   RAUG   =    1.300    factor for augmentation sphere                          
   RDEP   =    2.597    radius for radial grids                                 
   RDEPT  =    2.007    core radius for aug-charge                              
                                                                                
   Atomic configuration                                                         
   11 entries                                                                   
     n  l   j            E        occ.                                          
     1  0  0.50    -17820.0161   2.0000                                         
     2  0  0.50     -2467.0882   2.0000                                         
     2  1  1.50     -2199.6095   6.0000                                         
     3  0  0.50      -402.4863   2.0000                                         
     3  1  1.50      -315.3675   6.0000                                         
     3  2  2.50      -172.4472  10.0000                                         
     4  0  0.50       -52.4146   2.0000                                         
     5  0  0.50        -3.8421   1.0000                                         
     4  1  1.50       -30.5054   6.0000                                         
     4  2  2.50        -2.3341   3.0000                                         
     4  3  2.50        -1.3606   0.0000                                         
   Description                                                                  
     l       E           TYP  RCUT    TYP  RCUT                                 
     0    -52.4145962     23  2.200                                             
     0     -3.8421270     23  2.500                                             
     1    -30.5053914     23  2.200                                             
     1     20.4087390     23  2.200                                             
     2     -2.3340816     23  2.500                                             
     2     -0.6120942     23  2.500                                             
     3     -4.0817478     23  2.500                                             
  local pseudopotential read in
  partial core-charges read in
  partial kinetic energy density read in
  atomic valenz-charges read in
  non local Contribution for L=           0  read in
    real space projection operators read in
  non local Contribution for L=           0  read in
    real space projection operators read in
  non local Contribution for L=           1  read in
    real space projection operators read in
  non local Contribution for L=           1  read in
    real space projection operators read in
  non local Contribution for L=           2  read in
    real space projection operators read in
  non local Contribution for L=           2  read in
    real space projection operators read in
    PAW grid and wavefunctions read in
 
   number of l-projection  operators is LMAX  =           6
   number of lm-projection operators is LMMAX =          18
 
 POTCAR:    PAW_PBE Ta 17Jan2003                  
   VRHFIN =Ta:  6s5d                                                            
   LEXCH  = PE                                                                  
   EATOM  =   130.6506 eV,    9.6025 Ry                                         
                                                                                
   TITEL  = PAW_PBE Ta 17Jan2003                                                
   LULTRA =        F    use ultrasoft PP ?                                      
   IUNSCR =        1    unscreen: 0-lin 1-nonlin 2-no                           
   RPACOR =    2.330    partial core radius                                     
   POMASS =  180.948; ZVAL   =    5.000    mass and valenz                      
   RCORE  =    2.900    outmost cutoff radius                                   
   RWIGS  =    2.840; RWIGS  =    1.503    wigner-seitz radius (au A)           
   ENMAX  =  223.667; ENMIN  =  167.750 eV                                      
   RCLOC  =    2.205    cutoff for local pot                                    
   LCOR   =        T    correct aug charges                                     
   LPAW   =        T    paw PP                                                  
   EAUG   =  332.075                                                            
   DEXC   =    0.000                                                            
   RMAX   =    2.970    core radius for proj-oper                               
   RAUG   =    1.300    factor for augmentation sphere                          
   RDEP   =    3.060    radius for radial grids                                 
   RDEPT  =    2.354    core radius for aug-charge                              
                                                                                
   Atomic configuration                                                         
   16 entries                                                                   
     n  l   j            E        occ.                                          
     1  0  0.50    -67341.2807   2.0000                                         
     2  0  0.50    -11566.9376   2.0000                                         
     2  1  1.50    -10134.1182   6.0000                                         
     3  0  0.50     -2648.5620   2.0000                                         
     3  1  1.50     -2222.6012   6.0000                                         
     3  2  2.50     -1726.3120  10.0000                                         
     4  0  0.50      -538.6961   2.0000                                         
     4  1  1.50      -399.0129   6.0000                                         
     4  2  2.50      -220.3959  10.0000                                         
     4  3  3.50       -23.0374  14.0000                                         
     5  0  0.50       -71.2901   2.0000                                         
     5  1  1.50       -37.8225   6.0000                                         
     5  2  2.50        -2.6455   4.0000                                         
     6  0  0.50        -4.9623   1.0000                                         
     6  1  1.50        -1.3606   0.0000                                         
     5  3  2.50        -1.3606   0.0000                                         
   Description                                                                  
     l       E           TYP  RCUT    TYP  RCUT                                 
     2     -2.6455043     23  2.500                                             
     2     -0.6258895     23  2.500                                             
     0     -4.9622780     23  2.500                                             
     0      4.7531321     23  2.500                                             
     1     -1.3605826     23  2.900                                             
     1     27.2116520     23  2.900                                             
  local pseudopotential read in
  partial core-charges read in
  partial kinetic energy density read in
  atomic valenz-charges read in
  non local Contribution for L=           2  read in
    real space projection operators read in
  non local Contribution for L=           2  read in
    real space projection operators read in
  non local Contribution for L=           0  read in
    real space projection operators read in
  non local Contribution for L=           0  read in
    real space projection operators read in
  non local Contribution for L=           1  read in
    real space projection operators read in
  non local Contribution for L=           1  read in
    real space projection operators read in
    PAW grid and wavefunctions read in
 
   number of l-projection  operators is LMAX  =           6
   number of lm-projection operators is LMMAX =          18
 
 POTCAR:    PAW_PBE Nb_sv 25May2007               
   VRHFIN =Nb: 4p5s4d                                                           
   LEXCH  = PE                                                                  
   EATOM  =  1555.1913 eV,  114.3033 Ry                                         
                                                                                
   TITEL  = PAW_PBE Nb_sv 25May2007                                             
   LULTRA =        F    use ultrasoft PP ?                                      
   IUNSCR =        1    unscreen: 0-lin 1-nonlin 2-no                           
   RPACOR =    1.800    partial core radius                                     
   POMASS =   92.910; ZVAL   =   13.000    mass and valenz                      
   RCORE  =    2.400    outmost cutoff radius                                   
   RWIGS  =    2.400; RWIGS  =    1.270    wigner-seitz radius (au A)           
   ENMAX  =  293.235; ENMIN  =  219.927 eV                                      
   ICORE  =        3    local potential                                         
   LCOR   =        T    correct aug charges                                     
   LPAW   =        T    paw PP                                                  
   EAUG   =  455.659                                                            
   DEXC   =    0.000                                                            
   RMAX   =    2.456    core radius for proj-oper                               
   RAUG   =    1.300    factor for augmentation sphere                          
   RDEP   =    2.451    radius for radial grids                                 
   RDEPT  =    1.956    core radius for aug-charge                              
                                                                                
   Atomic configuration                                                         
   11 entries                                                                   
     n  l   j            E        occ.                                          
     1  0  0.50    -18805.2457   2.0000                                         
     2  0  0.50     -2630.2869   2.0000                                         
     2  1  1.50     -2348.4046   6.0000                                         
     3  0  0.50      -438.8757   2.0000                                         
     3  1  1.50      -346.7588   6.0000                                         
     3  2  2.50      -196.2560  10.0000                                         
     4  0  0.50       -58.3859   2.0000                                         
     5  0  0.50        -3.9816   1.0000                                         
     4  1  1.50       -34.5141   6.0000                                         
     4  2  2.50        -3.0408   4.0000                                         
     4  3  2.50        -1.3606   0.0000                                         
   Description                                                                  
     l       E           TYP  RCUT    TYP  RCUT                                 
     0    -58.3859094     23  2.200                                             
     0     -3.9816262     23  2.200                                             
     1    -34.5140738     23  2.200                                             
     1     13.6058260     23  2.200                                             
     2     -3.0408010     23  2.200                                             
     2     -0.1283038     23  2.200                                             
     3     -1.3605826     23  2.400                                             
  local pseudopotential read in
  partial core-charges read in
  partial kinetic energy density read in
  atomic valenz-charges read in
  non local Contribution for L=           0  read in
    real space projection operators read in
  non local Contribution for L=           0  read in
    real space projection operators read in
  non local Contribution for L=           1  read in
    real space projection operators read in
  non local Contribution for L=           1  read in
    real space projection operators read in
  non local Contribution for L=           2  read in
    real space projection operators read in
  non local Contribution for L=           2  read in
    real space projection operators read in
    PAW grid and wavefunctions read in
 
   number of l-projection  operators is LMAX  =           6
   number of lm-projection operators is LMMAX =          18
 
 Optimization of the real space projectors (new method)

 maximal supplied QI-value         = 12.47
 optimisation between [QCUT,QGAM] = [  8.86, 17.71] = [ 21.96, 87.83] Ry 
 Optimized for a Real-space Cutoff    1.90 Angstroem

   l    n(q)    QCUT    max X(q) W(low)/X(q) W(high)/X(q)  e(spline) 
   2      9     8.855    48.111    0.22E-03    0.80E-04    0.10E-05
   2      9     8.855    40.545    0.21E-03    0.76E-04    0.95E-06
   0     10     8.855   121.658    0.27E-04    0.12E-04    0.11E-06
   0     10     8.855    71.177    0.22E-04    0.11E-04    0.99E-07
   1     10     8.855    14.183    0.65E-04    0.10E-03    0.98E-07
   1     10     8.855     8.257    0.43E-04    0.73E-04    0.72E-07
 Optimization of the real space projectors (new method)

 maximal supplied QI-value         = 15.12
 optimisation between [QCUT,QGAM] = [  8.77, 17.69] = [ 21.53, 87.61] Ry 
 Optimized for a Real-space Cutoff    1.74 Angstroem

   l    n(q)    QCUT    max X(q) W(low)/X(q) W(high)/X(q)  e(spline) 
   0      9     8.768    12.107    0.28E-04    0.53E-06    0.29E-07
   0      9     8.768     9.948    0.36E-04    0.50E-05    0.64E-07
   1      9     8.768     3.563    0.14E-04    0.16E-04    0.88E-07
   1      9     8.768     4.524    0.21E-03    0.33E-03    0.19E-06
   2      8     8.768    87.261    0.19E-03    0.25E-03    0.24E-06
   2      8     8.768    70.950    0.19E-03    0.24E-03    0.24E-06
 Optimization of the real space projectors (new method)

 maximal supplied QI-value         = 12.85
 optimisation between [QCUT,QGAM] = [  8.87, 17.73] = [ 22.01, 88.06] Ry 
 Optimized for a Real-space Cutoff    1.90 Angstroem

   l    n(q)    QCUT    max X(q) W(low)/X(q) W(high)/X(q)  e(spline) 
   2      9     8.867    62.315    0.23E-03    0.62E-04    0.11E-05
   2      9     8.867    52.185    0.23E-03    0.62E-04    0.11E-05
   0     10     8.867   103.837    0.15E-04    0.23E-04    0.98E-07
   0     10     8.867    59.728    0.12E-04    0.21E-04    0.89E-07
   1     10     8.867    13.958    0.50E-04    0.22E-04    0.14E-06
   1     10     8.867     8.441    0.36E-04    0.19E-04    0.98E-07
 Optimization of the real space projectors (new method)

 maximal supplied QI-value         = 15.68
 optimisation between [QCUT,QGAM] = [  8.78, 17.72] = [ 21.60, 87.97] Ry 
 Optimized for a Real-space Cutoff    1.96 Angstroem

   l    n(q)    QCUT    max X(q) W(low)/X(q) W(high)/X(q)  e(spline) 
   0     10     8.783    10.201    0.29E-04    0.25E-05    0.69E-07
   0     10     8.783     8.174    0.45E-04    0.57E-05    0.14E-06
   1     10     8.783     3.488    0.76E-05    0.24E-04    0.95E-07
   1     10     8.783     4.917    0.78E-04    0.14E-03    0.46E-06
   2      9     8.783   153.744    0.22E-03    0.34E-04    0.15E-05
   2      9     8.783   126.342    0.22E-03    0.35E-04    0.15E-05
  PAW_PBE Hf 20Jan2003                  :
 energy of atom  1       EATOM=  -75.9011
 kinetic energy error for atom=    0.0071 (will be added to EATOM!!)
  PAW_PBE Zr_sv 04Jan2005               :
 energy of atom  2       EATOM=-1284.2219
 kinetic energy error for atom=    0.0483 (will be added to EATOM!!)
  PAW_PBE Ta 17Jan2003                  :
 energy of atom  3       EATOM= -130.6506
 kinetic energy error for atom=    0.0121 (will be added to EATOM!!)
  PAW_PBE Nb_sv 25May2007               :
 energy of atom  4       EATOM=-1555.1913
 kinetic energy error for atom=    0.0655 (will be added to EATOM!!)
 
 
 POSCAR: generated by pypospack                  
  positions in direct lattice
  No initial velocities read in
 exchange correlation table for  LEXCH =        8
   RHO(1)=    0.500       N(1)  =     2000
   RHO(2)=  100.500       N(2)  =     4000
 


--------------------------------------------------------------------------------------------------------


 ion  position               nearest neighbor table
   1  0.751  0.499  0.168-  29 2.96  32 2.97  26 3.06   8 3.11   6 3.15  18 3.17  24 3.17  13 3.17
                            10 3.24  11 3.34  35 3.37   4 3.39   5 3.43   5 3.49
   2  0.267  0.830  0.840-  29 2.86  28 2.93  27 2.94  33 2.95  32 2.98  12 3.03  14 3.03  16 3.08
                            22 3.16  30 3.24  20 3.35  21 3.35  36 3.38
   3  0.718  0.833  0.502-  26 2.92  28 2.92  33 2.93  15 2.99  21 3.00   6 3.08  16 3.09  14 3.11
                             9 3.14  35 3.42  30 3.44  11 3.46   7 3.50
   4  0.734  0.499  0.835-  28 2.90  29 2.90  23 2.95  24 2.97  13 3.02  19 3.04  14 3.05  32 3.08
                            20 3.24  30 3.34  34 3.35   1 3.39  11 3.44  20 3.68
   5  0.247  0.508  0.153-  32 2.92  29 2.92  26 2.94   8 2.97   6 3.01  18 3.02  24 3.03  13 3.05
                            22 3.23  20 3.24   1 3.43   1 3.49  25 3.60
   6  0.020  0.682  0.337-  22 2.91  21 2.98  25 2.99  35 3.01   5 3.01   3 3.08  11 3.13   1 3.15
                            26 3.17   9 3.19  14 3.38  32 3.39  18 3.60
   7  0.755  0.175  0.498-  18 2.96  19 2.98  23 3.01  16 3.01  33 3.04   9 3.07   8 3.08  15 3.15
                            11 3.25  10 3.27  34 3.31  17 3.39   3 3.50  17 3.54
   8  0.463  0.333  0.335-  25 2.85  31 2.87  17 2.88  18 2.95   5 2.97  10 3.01  11 3.06   7 3.08
                             1 3.11  23 3.38  15 3.40  26 3.42  24 3.51
   9  0.017  0.994  0.334-  31 2.98  17 2.99  22 3.06  21 3.06   7 3.07  35 3.08  10 3.08   3 3.14
                             6 3.19  15 3.23  12 3.41  16 3.41  18 3.42  15 3.69
  10  0.756  0.181  0.176-  24 2.99  18 2.99   8 3.01  15 3.01  13 3.03  12 3.06  27 3.07   9 3.08
                             1 3.24   7 3.27  31 3.42
  11  0.749  0.494  0.497-  28 2.98  23 3.00  19 3.02  18 3.03  14 3.05   8 3.06  26 3.08   6 3.13
                             7 3.25   1 3.34   4 3.44  25 3.46  25 3.46   3 3.46
  12  0.992  0.998  1.000-  35 2.96  31 2.97  30 2.98  22 3.02   2 3.03  10 3.06  36 3.07  34 3.08
                            32 3.26  13 3.32  27 3.35  16 3.37   9 3.41  27 3.57
  13  0.012  0.323  0.981-  36 2.88  31 2.91  20 2.93  34 2.95   4 3.02  10 3.03   5 3.05  19 3.15
                             1 3.17  24 3.29  12 3.32  24 3.63  18 3.69
  14  0.004  0.667  0.668-  25 2.90  20 3.00  30 3.02  21 3.02   2 3.03   4 3.05  11 3.05   3 3.11
                            28 3.35   6 3.38  16 3.38  19 3.40  32 3.42  28 3.56
  15  0.485  0.001  0.321-  31 2.88  21 2.93  22 2.94  35 2.95   3 2.99  10 3.01  17 3.07   7 3.15
                             9 3.23  27 3.25  26 3.39   8 3.40   9 3.69
  16  0.998  0.999  0.669-  17 2.91  36 2.95  34 2.97   7 3.01  21 3.06  30 3.06   2 3.08   3 3.09
                            12 3.37  14 3.38   9 3.41  19 3.42  33 3.45  33 3.47
  17  0.244  0.170  0.512-  18 2.77  19 2.82  23 2.85   8 2.88  16 2.91  33 2.93   9 2.99  15 3.07
                            36 3.19  25 3.36   7 3.39  21 3.45   7 3.54
  18  0.036  0.330  0.343-  17 2.77  25 2.83  31 2.88   8 2.95   7 2.96  10 2.99   5 3.02  11 3.03
                             1 3.17  19 3.34   9 3.42   6 3.60  13 3.69
  19  0.012  0.334  0.671-  17 2.82  25 2.88  36 2.94  20 2.97  34 2.98   7 2.98  11 3.02   4 3.04
                            13 3.15  23 3.27  18 3.34  14 3.40  16 3.42
  20  0.266  0.502  0.835-  28 2.80  23 2.84  24 2.90  13 2.93  19 2.97  29 2.99  14 3.00  32 3.14
                             4 3.24   5 3.24  25 3.34   2 3.35   4 3.68
  21  0.284  0.832  0.511-  28 2.78  26 2.79  33 2.87  15 2.93   6 2.98   3 3.00  14 3.02  16 3.06
                             9 3.06   2 3.35  25 3.41  17 3.45
  22  0.264  0.824  0.151-  29 2.74  32 2.85  26 2.85  27 2.91   6 2.91  15 2.94  12 3.02   9 3.06
                             2 3.16   5 3.23  35 3.30
  23  0.485  0.334  0.667-  36 2.83  20 2.84  17 2.85  25 2.86  34 2.88   4 2.95  11 3.00   7 3.01
                            19 3.27  28 3.29  24 3.30  33 3.32   8 3.38
  24  0.488  0.318  0.991-  36 2.80  31 2.82  34 2.84  20 2.90   4 2.97  10 2.99   5 3.03   1 3.17
                            27 3.21  13 3.29  23 3.30   8 3.51  13 3.63
  25  0.249  0.499  0.507-  28 2.83  18 2.83   8 2.85  23 2.86  19 2.88  14 2.90  26 2.93   6 2.99
                            20 3.34  17 3.36  21 3.41  11 3.46  11 3.46   5 3.60
  26  0.478  0.669  0.333-  21 2.79  22 2.85   3 2.92  25 2.93   5 2.94  35 2.98   1 3.06  11 3.08
                             6 3.17  28 3.39  15 3.39   8 3.42
  27  0.508  0.003  0.002-  30 2.90  22 2.91  35 2.92  31 2.92  34 2.94   2 2.94  36 2.95  10 3.07
                            24 3.21  15 3.25  12 3.35  12 3.57
  28  0.489  0.656  0.666-  21 2.78  20 2.80  25 2.83   4 2.90   3 2.92   2 2.93  11 2.98  30 3.01
                            23 3.29  14 3.35  26 3.39  14 3.56
  29  0.512  0.673  0.003-  22 2.74  30 2.75  35 2.79   2 2.86   4 2.90   5 2.92   1 2.96  20 2.99

  30  0.735  0.827  0.840-  29 2.75  32 2.86  27 2.90  12 2.98  33 2.99  28 3.01  14 3.02  16 3.06
                             2 3.24   4 3.34   3 3.44
  31  0.249  0.168  0.159-  24 2.82   8 2.87  15 2.88  18 2.88  13 2.91  27 2.92  12 2.97   9 2.98
                            10 3.42
  32  0.989  0.678  0.004-  35 2.82  22 2.85  30 2.86   5 2.92   1 2.97   2 2.98   4 3.08  20 3.14
                            12 3.26   6 3.39  14 3.42
  33  0.499  0.008  0.675-  36 2.71  34 2.78  21 2.87   3 2.93  17 2.93   2 2.95  30 2.99   7 3.04
                            23 3.32  16 3.45  16 3.47
  34  0.735  0.170  0.824-  33 2.78  24 2.84  23 2.88  27 2.94  13 2.95  16 2.97  19 2.98  12 3.08
                             7 3.31   4 3.35
  35  0.742  0.829  0.165-  29 2.79  32 2.82  27 2.92  15 2.95  12 2.96  26 2.98   6 3.01   9 3.08
                            22 3.30   1 3.37   3 3.42
  36  0.264  0.160  0.825-  33 2.71  24 2.80  23 2.83  13 2.88  19 2.94  16 2.95  27 2.95  12 3.07
                            17 3.19   2 3.38
 
  LATTYP: Found a triclinic cell.
 ALAT       =    15.9901552927
 B/A-ratio  =     0.6361272804
 C/A-ratio  =     0.6378367728
 COS(alpha) =     0.0001789103
 COS(beta)  =     0.6370721303
 COS(gamma) =     0.6381900000
  
  Lattice vectors:
  
 A1 = (   6.9273259567, -10.1932523267,  10.1879746947)
 A2 = (   0.0230958753,  -0.0010774750,  10.1717477223)
 A3 = (  -0.0105003926, -10.1991036143,   0.0007681997)


Analysis of symmetry for initial positions (statically):
=====================================================================
 Subroutine PRICEL returns:
 Original cell was already a primitive cell.
 

 Routine SETGRP: Setting up the symmetry group for a 
 triclinic supercell.


 Subroutine GETGRP returns: Found  1 space group operations
 (whereof  1 operations were pure point group operations)
 out of a pool of  2 trial point group operations.


The static configuration has the point symmetry C_1 .


Analysis of symmetry for dynamics (positions and initial velocities):
=====================================================================
 Subroutine PRICEL returns:
 Original cell was already a primitive cell.
 

 Routine SETGRP: Setting up the symmetry group for a 
 triclinic supercell.


 Subroutine GETGRP returns: Found  1 space group operations
 (whereof  1 operations were pure point group operations)
 out of a pool of  2 trial point group operations.


The dynamic configuration has the point symmetry C_1 .


 Subroutine INISYM returns: Found  1 space group operations
 (whereof  1 operations are pure point group operations),
 and found     1 'primitive' translations

 
 
 KPOINTS: k-points                                

Automatic generation of k-mesh.
Space group operators:
 irot       det(A)        alpha          n_x          n_y          n_z        tau_x        tau_y        tau_z
    1     1.000000     0.000000     1.000000     0.000000     0.000000     0.000000     0.000000     0.000000
 
 Subroutine IBZKPT returns following result:
 ===========================================
 
 Found     14 irreducible k-points:
 
 Following reciprocal coordinates:
            Coordinates               Weight
  0.000000  0.000000  0.000000      1.000000
  0.333333 -0.000000 -0.000000      2.000000
 -0.000000  0.333333  0.000000      2.000000
  0.333333  0.333333  0.000000      2.000000
 -0.333333  0.333333  0.000000      2.000000
 -0.000000  0.000000  0.333333      2.000000
  0.333333  0.000000  0.333333      2.000000
 -0.333333  0.000000  0.333333      2.000000
 -0.000000  0.333333  0.333333      2.000000
  0.333333  0.333333  0.333333      2.000000
 -0.333333  0.333333  0.333333      2.000000
  0.000000 -0.333333  0.333333      2.000000
  0.333333 -0.333333  0.333333      2.000000
 -0.333333 -0.333333  0.333333      2.000000
 
 Following cartesian coordinates:
            Coordinates               Weight
  0.000000  0.000000  0.000000      1.000000
  0.240469 -0.000248 -0.000546      2.000000
 -0.000163  0.163031  0.000018      2.000000
  0.240306  0.162784 -0.000528      2.000000
 -0.240633  0.163279  0.000564      2.000000
 -0.000365  0.000013  0.163470      2.000000
  0.240104 -0.000235  0.162924      2.000000
 -0.240835  0.000260  0.164016      2.000000
 -0.000529  0.163044  0.163488      2.000000
  0.239940  0.162796  0.162942      2.000000
 -0.240998  0.163291  0.164034      2.000000
 -0.000202 -0.163018  0.163453      2.000000
  0.240267 -0.163266  0.162907      2.000000
 -0.240671 -0.162771  0.163999      2.000000
 


--------------------------------------------------------------------------------------------------------




 Dimension of arrays:
   k-points           NKPTS =     14   k-points in BZ     NKDIM =     14   number of bands    NBANDS=    168
   number of dos      NEDOS =    301   number of ions     NIONS =     36
   non local maximal  LDIM  =      6   non local SUM 2l+1 LMDIM =     18
   total plane-waves  NPLWV = 144000
   max r-space proj   IRMAX =   6386   max aug-charges    IRDMAX=  13863
   dimension x,y,z NGX =    40 NGY =   60 NGZ =   60
   dimension x,y,z NGXF=    80 NGYF=  120 NGZF=  120
   support grid    NGXF=    80 NGYF=  120 NGZF=  120
   ions per type =              10   6  12   8
 NGX,Y,Z   is equivalent  to a cutoff of   9.62,  9.78,  9.81 a.u.
 NGXF,Y,Z  is equivalent  to a cutoff of  19.23, 19.56, 19.61 a.u.


 I would recommend the setting:
   dimension x,y,z NGX =    39 NGY =   58 NGZ =   57
 SYSTEM =  automatically generated by mexm         
 POSCAR =  generated by pypospack                  

 Startparameter for this run:
   NWRITE =      2    write-flag & timer
   PREC   = accura    normal or accurate (medium, high low for compatibility)
   ISTART =      0    job   : 0-new  1-cont  2-samecut
   ICHARG =      2    charge: 1-file 2-atom 10-const
   ISPIN  =      1    spin polarized calculation?
   LNONCOLLINEAR =      F non collinear calculations
   LSORBIT =      F    spin-orbit coupling
   INIWAV =      1    electr: 0-lowe 1-rand  2-diag
   LASPH  =      F    aspherical Exc in radial PAW
   METAGGA=      F    non-selfconsistent MetaGGA calc.

 Electronic Relaxation 1
   ENCUT  =  300.0 eV  22.05 Ry    4.70 a.u.   9.77 14.40 14.37*2*pi/ulx,y,z
   ENINI  =  300.0     initial cutoff
   ENAUG  =  461.3 eV  augmentation charge cutoff
   NELM   =     70;   NELMIN=  2; NELMDL= -5     # of ELM steps 
   EDIFF  = 0.1E-04   stopping-criterion for ELM
   LREAL  =      T    real-space projection
   NLSPLINE    = F    spline interpolate recip. space projectors
   LCOMPAT=      F    compatible to vasp.4.4
   GGA_COMPAT  = T    GGA compatible to vasp.4.4-vasp.4.6
   LMAXPAW     = -100 max onsite density
   LMAXMIX     =    2 max onsite mixed and CHGCAR
   VOSKOWN=      0    Vosko Wilk Nusair interpolation
   ROPT   =   -0.00025  -0.00025  -0.00025  -0.00025
 Ionic relaxation
   EDIFFG = -.1E-01   stopping-criterion for IOM
   NSW    =    300    number of steps for IOM
   NBLOCK =      1;   KBLOCK =    300    inner block; outer block 
   IBRION =      2    ionic relax: 0-MD 1-quasi-New 2-CG
   NFREE  =      1    steps in history (QN), initial steepest desc. (CG)
   ISIF   =      3    stress and relaxation
   IWAVPR =     11    prediction:  0-non 1-charg 2-wave 3-comb
   ISYM   =      1    0-nonsym 1-usesym 2-fastsym
   LCORR  =      T    Harris-Foulkes like correction to forces

   POTIM  = 0.1500    time-step for ionic-motion
   TEIN   =    0.0    initial temperature
   TEBEG  =    0.0;   TEEND  =   0.0 temperature during run
   SMASS  =  -3.00    Nose mass-parameter (am)
   estimated Nose-frequenzy (Omega)   =  0.10E-29 period in steps =****** mass=  -0.109E-26a.u.
   SCALEE = 1.0000    scale energy and forces
   NPACO  =    256;   APACO  = 16.0  distance and # of slots for P.C.
   PSTRESS=    0.0 pullay stress

  Mass of Ions in am
   POMASS = 178.49 91.22180.95 92.91
  Ionic Valenz
   ZVAL   =   4.00 12.00  5.00 13.00
  Atomic Wigner-Seitz radii
   RWIGS  =  -1.00 -1.00 -1.00 -1.00
  virtual crystal weights 
   VCA    =   1.00  1.00  1.00  1.00
   NELECT =     276.0000    total number of electrons
   NUPDOWN=      -1.0000    fix difference up-down

 DOS related values:
   EMIN   =  10.00;   EMAX   =-10.00  energy-range for DOS
   EFERMI =   0.00
   ISMEAR =     1;   SIGMA  =   0.15  broadening in eV -4-tet -1-fermi 0-gaus

 Electronic relaxation 2 (details)
   IALGO  =     68    algorithm
   LDIAG  =      T    sub-space diagonalisation (order eigenvalues)
   LSUBROT=      F    optimize rotation matrix (better conditioning)
   TURBO    =      0    0=normal 1=particle mesh
   IRESTART =      0    0=no restart 2=restart with 2 vectors
   NREBOOT  =      0    no. of reboots
   NMIN     =      0    reboot dimension
   EREF     =   0.00    reference energy to select bands
   IMIX   =      4    mixing-type and parameters
     AMIX     =   0.40;   BMIX     =  1.00
     AMIX_MAG =   1.60;   BMIX_MAG =  1.00
     AMIN     =   0.10
     WC   =   100.;   INIMIX=   1;  MIXPRE=   1;  MAXMIX= -45

 Intra band minimization:
   WEIMIN = 0.0010     energy-eigenvalue tresh-hold
   EBREAK =  0.15E-07  absolut break condition
   DEPER  =   0.30     relativ break condition  

   TIME   =   0.40     timestep for ELM

  volume/ion in A,a.u.               =      19.93       134.47
  Fermi-wavevector in a.u.,A,eV,Ry     =   1.190697  2.250090 19.289775  1.417759
  Thomas-Fermi vector in A             =   2.326775
 
 Write flags
   LWAVE  =      F    write WAVECAR
   LCHARG =      F    write CHGCAR
   LVTOT  =      F    write LOCPOT, total local potential
   LVHAR  =      F    write LOCPOT, Hartree potential only
   LELF   =      F    write electronic localiz. function (ELF)
   LORBIT =      0    0 simple, 1 ext, 2 COOP (PROOUT)


 Dipole corrections
   LMONO  =      F    monopole corrections only (constant potential shift)
   LDIPOL =      F    correct potential (dipole corrections)
   IDIPOL =      0    1-x, 2-y, 3-z, 4-all directions 
   EPSILON=  1.0000000 bulk dielectric constant

 Exchange correlation treatment:
   GGA     =    --    GGA type
   LEXCH   =     8    internal setting for exchange type
   VOSKOWN=      0    Vosko Wilk Nusair interpolation
   LHFCALC =     F    Hartree Fock is set to
   LHFONE  =     F    Hartree Fock one center treatment
   AEXX    =    0.0000 exact exchange contribution

 Linear response parameters
   LEPSILON=     F    determine dielectric tensor
   LRPA    =     F    only Hartree local field effects (RPA)
   LNABLA  =     F    use nabla operator in PAW spheres
   LVEL    =     F    velocity operator in full k-point grid
   LINTERFAST=   F  fast interpolation
   KINTER  =     0    interpolate to denser k-point grid
   CSHIFT  =0.1000    complex shift for real part using Kramers Kronig
   OMEGAMAX=  -1.0    maximum frequency
   DEG_THRESHOLD= 0.2000000E-02 threshold for treating states as degnerate
   RTIME   =    0.100 relaxation time in fs

 Orbital magnetization related:
   ORBITALMAG=     F  switch on orbital magnetization
   LCHIMAG   =     F  perturbation theory with respect to B field
   DQ        =  0.001000  dq finite difference perturbation B field



--------------------------------------------------------------------------------------------------------


 conjugate gradient relaxation of ions
 charge density and potential will be updated during run
 non-spin polarized calculation
 RMM-DIIS sequential band-by-band and
  variant of blocked Davidson during initial phase
 perform sub-space diagonalisation
    before iterative eigenvector-optimisation
 modified Broyden-mixing scheme, WC =      100.0
 initial mixing is a Kerker type mixing with AMIX =  0.4000 and BMIX =      1.0000
 Hartree-type preconditioning will be used
 using additional bands           30
 real space projection scheme for non local part
 use partial core corrections
 calculate Harris-corrections to forces 
   (improved forces if not selfconsistent)
 use gradient corrections 
 use of overlap-Matrix (Vanderbilt PP)
 Methfessel and Paxton  Order N= 1 SIGMA  =   0.15


--------------------------------------------------------------------------------------------------------


  energy-cutoff  :      300.00
  volume of cell :      717.35
      direct lattice vectors                 reciprocal lattice vectors
     6.914730474  0.006928763  0.015458773     0.144619680 -0.000148917 -0.000328388
     0.010500393 10.199103614 -0.000768200    -0.000098271  0.098047934  0.000010609
     0.023095875 -0.001077475 10.171747722    -0.000219797  0.000007631  0.098312022

  length of vectors
     6.914751225 10.199109049 10.171774000     0.144620129  0.098047984  0.098312268


 
 k-points in units of 2pi/SCALE and weight: k-points                                
   0.00000000  0.00000000  0.00000000       0.037
   0.24046927 -0.00024761 -0.00054603       0.074
  -0.00016340  0.16303116  0.00001764       0.074
   0.24030586  0.16278355 -0.00052839       0.074
  -0.24063267  0.16327878  0.00056367       0.074
  -0.00036547  0.00001269  0.16347028       0.074
   0.24010379 -0.00023493  0.16292425       0.074
  -0.24083474  0.00026030  0.16401631       0.074
  -0.00052887  0.16304385  0.16348792       0.074
   0.23994039  0.16279624  0.16294189       0.074
  -0.24099814  0.16329147  0.16403395       0.074
  -0.00020207 -0.16301847  0.16345264       0.074
   0.24026720 -0.16326609  0.16290661       0.074
  -0.24067134 -0.16277086  0.16399867       0.074
 
 k-points in reciprocal lattice and weights: k-points                                
   0.00000000  0.00000000  0.00000000       0.037
   0.33333333 -0.00000000 -0.00000000       0.074
  -0.00000000  0.33333333  0.00000000       0.074
   0.33333333  0.33333333  0.00000000       0.074
  -0.33333333  0.33333333  0.00000000       0.074
  -0.00000000  0.00000000  0.33333333       0.074
   0.33333333  0.00000000  0.33333333       0.074
  -0.33333333  0.00000000  0.33333333       0.074
  -0.00000000  0.33333333  0.33333333       0.074
   0.33333333  0.33333333  0.33333333       0.074
  -0.33333333  0.33333333  0.33333333       0.074
   0.00000000 -0.33333333  0.33333333       0.074
   0.33333333 -0.33333333  0.33333333       0.074
  -0.33333333 -0.33333333  0.33333333       0.074
 
 position of ions in fractional coordinates (direct lattice) 
   0.75145400  0.49882100  0.16824400
   0.26714500  0.82965400  0.84035200
   0.71833400  0.83295600  0.50154800
   0.73415800  0.49861200  0.83490600
   0.24722700  0.50764800  0.15344800
   0.02040200  0.68187300  0.33699900
   0.75525100  0.17509300  0.49824400
   0.46327000  0.33340700  0.33497000
   0.01734400  0.99441500  0.33409600
   0.75554200  0.18132700  0.17646700
   0.74920400  0.49397200  0.49693100
   0.99216800  0.99800700  0.99977600
   0.01200800  0.32256400  0.98078500
   0.00422000  0.66699100  0.66844700
   0.48468900  0.00088500  0.32145200
   0.99769600  0.99863100  0.66876600
   0.24437700  0.16981400  0.51176700
   0.03629600  0.32950900  0.34261500
   0.01239900  0.33376100  0.67085400
   0.26591200  0.50157400  0.83515900
   0.28421700  0.83235500  0.51099100
   0.26442400  0.82365000  0.15135000
   0.48497300  0.33412100  0.66732100
   0.48752200  0.31757300  0.99097600
   0.24872100  0.49942100  0.50702800
   0.47806600  0.66891500  0.33347200
   0.50813600  0.00328300  0.00238000
   0.48900500  0.65643800  0.66622000
   0.51226200  0.67334600  0.00321000
   0.73503400  0.82650500  0.83973300
   0.24914600  0.16832000  0.15900400
   0.98891600  0.67822700  0.00432900
   0.49939700  0.00839800  0.67480400
   0.73503300  0.17030800  0.82360100
   0.74168400  0.82916500  0.16520800
   0.26435600  0.16047200  0.82454500
 
 position of ions in cartesian coordinates  (Angst):
   5.20522543  5.09255243  1.72256889
   1.87535603  8.46267264  8.55134094
   4.98741606  8.49984131  5.11208441
   5.10102320  5.08958267  8.50341935
   1.71838259  5.17910219  1.56426620
   0.15601755  6.95427163  3.42766039
   5.23570303  1.79048776  5.07955302
   3.21462452  3.40330150  3.41413580
   0.13808707 10.14190181  3.39784443
   5.23034896  1.85441769  1.80651826
   5.19720769  5.04272724  5.06585907
   6.89414447 10.18457406 10.18404028
   0.10907122  3.28889009  9.97623543
   0.05162220  6.80201932  6.79882710
   3.35892731  0.01203815  3.27722067
   6.92473069 10.19133326  6.81717504
   1.70340391  1.73309240  5.20921213
   0.26235002  3.36057876  3.48530131
   0.10473432  3.40342610  6.82369292
   1.86326526  5.11654777  8.49875202
   1.98582579  8.49069358  5.20142577
   1.84056490  8.40216075  1.54294896
   3.37237835  3.41037594  6.79506128
   3.39730533  3.24127010 10.08725040
   1.73679305  5.09482354  5.16082217
   3.32042324  6.82528649  3.39886951
   3.51371293  0.03700185  0.03206140
   3.40361757  6.69774954  6.78367691
   3.54929820  6.87107151  0.04005299
   5.11063499  8.43379822  8.55228003
   1.72821720  1.71826807  1.62107076
   6.84530923  6.92415475  0.05879991
   3.46886903  0.08838519  6.87164966
   5.10336517  1.74119440  8.38869347
   5.14106714  8.46170069  1.69128266
   1.84867910  1.63761379  8.39102707
 


--------------------------------------------------------------------------------------------------------


 k-point  1 :   0.0000 0.0000 0.0000  plane waves:    8517
 k-point  2 :   0.3333-0.0000-0.0000  plane waves:    8465
 k-point  3 :  -0.0000 0.3333 0.0000  plane waves:    8462
 k-point  4 :   0.3333 0.3333 0.0000  plane waves:    8458
 k-point  5 :  -0.3333 0.3333 0.0000  plane waves:    8468
 k-point  6 :  -0.0000 0.0000 0.3333  plane waves:    8464
 k-point  7 :   0.3333 0.0000 0.3333  plane waves:    8461
 k-point  8 :  -0.3333 0.0000 0.3333  plane waves:    8462
 k-point  9 :  -0.0000 0.3333 0.3333  plane waves:    8450
 k-point 10 :   0.3333 0.3333 0.3333  plane waves:    8468
 k-point 11 :  -0.3333 0.3333 0.3333  plane waves:    8462
 k-point 12 :   0.0000-0.3333 0.3333  plane waves:    8446
 k-point 13 :   0.3333-0.3333 0.3333  plane waves:    8463
 k-point 14 :  -0.3333-0.3333 0.3333  plane waves:    8465

 maximum and minimum number of plane-waves per node :      1715     1673

 maximum number of plane-waves:      8517
 maximum index in each direction: 
   IXMAX=   10   IYMAX=   14   IZMAX=   14
   IXMIN=  -10   IYMIN=  -14   IZMIN=  -14

 WARNING: aliasing errors must be expected set NGX to  42 to avoid them
 NGY is ok and might be reduce to  58
 NGZ is ok and might be reduce to  58
 aliasing errors are usually negligible using standard VASP settings
 and one can safely disregard these warnings

 real space projection operators:
  total allocation   :      27943.45 KBytes
  max/ min on nodes  :       5625.56       5546.95


 parallel 3D FFT for wavefunctions:
    minimum data exchange during FFTs selected (reduces bandwidth)
 parallel 3D FFT for charge:
    minimum data exchange during FFTs selected (reduces bandwidth)


 total amount of memory used by VASP on root node    66371. kBytes
========================================================================

   base      :      30000. kBytes
   nonlr-proj:      10725. kBytes
   fftplans  :       2814. kBytes
   grid      :       5360. kBytes
   one-center:        124. kBytes
   wavefun   :      17348. kBytes
 
     INWAV:  cpu time    0.0000: real time    0.0000
 Broyden mixing: mesh for mixing (old mesh)
   NGX = 19   NGY = 29   NGZ = 29
  (NGX  = 80   NGY  =120   NGZ  =120)
  gives a total of  15979 points

 initial charge density was supplied:
 charge density of overlapping atoms calculated
 number of electron     276.0000000 magnetization 
 keeping initial charge density in first step


--------------------------------------------------------------------------------------------------------


 Maximum index for non-local projection operator         1245
 Maximum index for augmentation-charges          687 (set IRDMAX)


--------------------------------------------------------------------------------------------------------


 First call to EWALD:  gamma=   0.198
 Maximum number of real-space cells 3x 2x 2
 Maximum number of reciprocal cells 2x 3x 3

 FEWALD executed in parallel
    FEWALD:  cpu time    0.0568: real time    0.0574


----------------------------------------- Iteration    1(   1)  ---------------------------------------


    POTLOK:  cpu time    0.0303: real time    0.5462
    SETDIJ:  cpu time    0.0148: real time    0.0148
     EDDAV:  cpu time    0.9323: real time    1.0951
       DOS:  cpu time    0.0018: real time    0.0032
    --------------------------------------------
      LOOP:  cpu time    0.9868: real time    2.0399

 eigenvalue-minimisations  :  5168
 total energy-change (2. order) : 0.1594603E+04  (-0.1016542E+05)
 number of electron     276.0000000 magnetization 
 augmentation part      276.0000000 magnetization 

 Free energy of the ion-electron system (eV)
  ---------------------------------------------------
  alpha Z        PSCENC =      1438.15555718
  Ewald energy   TEWEN  =    -16793.20790578
  -Hartree energ DENC   =     -6724.15686952
  -exchange      EXHF   =         0.00000000
  -V(xc)+E(xc)   XCENC  =      -576.96771956
  PAW double counting   =     19401.59854195   -17659.58838017
  entropy T*S    EENTRO =        -0.00448093
  eigenvalues    EBANDS =        36.12373078
  atomic energy  EATOM  =     22472.65029968
  Solvation  Ediel_sol  =         0.00000000
  ---------------------------------------------------
  free energy    TOTEN  =      1594.60277363 eV

  energy without entropy =     1594.60725456  energy(sigma->0) =     1594.60426727


--------------------------------------------------------------------------------------------------------




----------------------------------------- Iteration    1(   2)  ---------------------------------------


     EDDAV:  cpu time    0.9358: real time    1.9125
       DOS:  cpu time    0.0013: real time    0.0013
    --------------------------------------------
      LOOP:  cpu time    0.9804: real time    2.2089

 eigenvalue-minimisations  :  5488
 total energy-change (2. order) :-0.1731803E+04  (-0.1669283E+04)
 number of electron     276.0000000 magnetization 
 augmentation part      276.0000000 magnetization 

 Free energy of the ion-electron system (eV)
  ---------------------------------------------------
  alpha Z        PSCENC =      1438.15555718
  Ewald energy   TEWEN  =    -16793.20790578
  -Hartree energ DENC   =     -6724.15686952
  -exchange      EXHF   =         0.00000000
  -V(xc)+E(xc)   XCENC  =      -576.96771956
  PAW double counting   =     19401.59854195   -17659.58838017
  entropy T*S    EENTRO =         0.00430190
  eigenvalues    EBANDS =     -1695.68771208
  atomic energy  EATOM  =     22472.65029968
  Solvation  Ediel_sol  =         0.00000000
  ---------------------------------------------------
  free energy    TOTEN  =      -137.19988640 eV

  energy without entropy =     -137.20418830  energy(sigma->0) =     -137.20132037


--------------------------------------------------------------------------------------------------------




----------------------------------------- Iteration    1(   3)  ---------------------------------------


     EDDAV:  cpu time    1.3032: real time    1.3131
       DOS:  cpu time    0.0011: real time    0.0011
    --------------------------------------------
      LOOP:  cpu time    1.3047: real time    1.3566

 eigenvalue-minimisations  :  7968
 total energy-change (2. order) :-0.2218452E+03  (-0.2103011E+03)
 number of electron     276.0000000 magnetization 
 augmentation part      276.0000000 magnetization 

 Free energy of the ion-electron system (eV)
  ---------------------------------------------------
  alpha Z        PSCENC =      1438.15555718
  Ewald energy   TEWEN  =    -16793.20790578
  -Hartree energ DENC   =     -6724.15686952
  -exchange      EXHF   =         0.00000000
  -V(xc)+E(xc)   XCENC  =      -576.96771956
  PAW double counting   =     19401.59854195   -17659.58838017
  entropy T*S    EENTRO =         0.01204325
  eigenvalues    EBANDS =     -1917.54067990
  atomic energy  EATOM  =     22472.65029968
  Solvation  Ediel_sol  =         0.00000000
  ---------------------------------------------------
  free energy    TOTEN  =      -359.04511286 eV

  energy without entropy =     -359.05715612  energy(sigma->0) =     -359.04912728


--------------------------------------------------------------------------------------------------------




----------------------------------------- Iteration    1(   4)  ---------------------------------------


     EDDAV:  cpu time    1.5644: real time    1.5749
       DOS:  cpu time    0.0011: real time    0.0011
    --------------------------------------------
      LOOP:  cpu time    1.5698: real time    1.6188

 eigenvalue-minimisations  :  7976
 total energy-change (2. order) :-0.2533867E+02  (-0.2409161E+02)
 number of electron     276.0000000 magnetization 
 augmentation part      276.0000000 magnetization 

 Free energy of the ion-electron system (eV)
  ---------------------------------------------------
  alpha Z        PSCENC =      1438.15555718
  Ewald energy   TEWEN  =    -16793.20790578
  -Hartree energ DENC   =     -6724.15686952
  -exchange      EXHF   =         0.00000000
  -V(xc)+E(xc)   XCENC  =      -576.96771956
  PAW double counting   =     19401.59854195   -17659.58838017
  entropy T*S    EENTRO =        -0.00761263
  eigenvalues    EBANDS =     -1942.85969690
  atomic energy  EATOM  =     22472.65029968
  Solvation  Ediel_sol  =         0.00000000
  ---------------------------------------------------
  free energy    TOTEN  =      -384.38378575 eV

  energy without entropy =     -384.37617312  energy(sigma->0) =     -384.38124821


--------------------------------------------------------------------------------------------------------




----------------------------------------- Iteration    1(   5)  ---------------------------------------


     EDDAV:  cpu time    1.3984: real time    1.4048
       DOS:  cpu time    0.0010: real time    0.0010
    CHARGE:  cpu time    0.0300: real time    0.0301
    MIXING:  cpu time    0.0014: real time    0.0015
    --------------------------------------------
      LOOP:  cpu time    1.4312: real time    1.4785

 eigenvalue-minimisations  :  7584
 total energy-change (2. order) :-0.2396333E+01  (-0.2338434E+01)
 number of electron     275.9999999 magnetization 
 augmentation part       16.8697163 magnetization 

 Broyden mixing:
  rms(total) = 0.65934E+01    rms(broyden)= 0.65930E+01
  rms(prec ) = 0.68564E+01
  weight for this iteration     100.00

 Free energy of the ion-electron system (eV)
  ---------------------------------------------------
  alpha Z        PSCENC =      1438.15555718
  Ewald energy   TEWEN  =    -16793.20790578
  -Hartree energ DENC   =     -6724.15686952
  -exchange      EXHF   =         0.00000000
  -V(xc)+E(xc)   XCENC  =      -576.96771956
  PAW double counting   =     19401.59854195   -17659.58838017
  entropy T*S    EENTRO =        -0.00515363
  eigenvalues    EBANDS =     -1945.25848863
  atomic energy  EATOM  =     22472.65029968
  Solvation  Ediel_sol  =         0.00000000
  ---------------------------------------------------
  free energy    TOTEN  =      -386.78011847 eV

  energy without entropy =     -386.77496484  energy(sigma->0) =     -386.77840060


--------------------------------------------------------------------------------------------------------




----------------------------------------- Iteration    1(   6)  ---------------------------------------


    POTLOK:  cpu time    0.0395: real time    0.0397
    SETDIJ:  cpu time    0.0047: real time    0.0047
    EDDIAG:  cpu time    0.0742: real time    0.0746
  RMM-DIIS:  cpu time    0.7706: real time    0.7741
    ORTHCH:  cpu time    0.0550: real time    0.0570
       DOS:  cpu time    0.0009: real time    0.0016
    CHARGE:  cpu time    0.0355: real time    0.0362
    MIXING:  cpu time    0.0017: real time    0.0025
    --------------------------------------------
      LOOP:  cpu time    0.9827: real time    1.0703

 eigenvalue-minimisations  :  6533
 total energy-change (2. order) : 0.1076053E+02  (-0.2212372E+01)
 number of electron     275.9999999 magnetization 
 augmentation part       17.5026969 magnetization 

 Broyden mixing:
  rms(total) = 0.31968E+01    rms(broyden)= 0.31967E+01
  rms(prec ) = 0.33743E+01
  weight for this iteration     100.00

 eigenvalues of (default mixing * dielectric matrix)
  average eigenvalue GAMMA=   1.8759
  1.8759

 Free energy of the ion-electron system (eV)
  ---------------------------------------------------
  alpha Z        PSCENC =      1438.15555718
  Ewald energy   TEWEN  =    -16793.20790578
  -Hartree energ DENC   =     -6579.81093901
  -exchange      EXHF   =         0.00000000
  -V(xc)+E(xc)   XCENC  =      -578.22834588
  PAW double counting   =     24556.84733382   -22822.85864283
  entropy T*S    EENTRO =         0.00490117
  eigenvalues    EBANDS =     -2069.57184760
  atomic energy  EATOM  =     22472.65029968
  Solvation  Ediel_sol  =         0.00000000
  ---------------------------------------------------
  free energy    TOTEN  =      -376.01958924 eV

  energy without entropy =     -376.02449041  energy(sigma->0) =     -376.02122296


--------------------------------------------------------------------------------------------------------




----------------------------------------- Iteration    1(   7)  ---------------------------------------


    POTLOK:  cpu time    0.0329: real time    0.0336
    SETDIJ:  cpu time    0.0042: real time    0.0043
    EDDIAG:  cpu time    0.1141: real time    0.1205
  RMM-DIIS:  cpu time    0.6639: real time    0.6780
    ORTHCH:  cpu time    0.0109: real time    0.0109
       DOS:  cpu time    0.0018: real time    0.0018
    CHARGE:  cpu time    0.0299: real time    0.0301
    MIXING:  cpu time    0.0013: real time    0.0013
    --------------------------------------------
      LOOP:  cpu time    0.8599: real time    0.9394

 eigenvalue-minimisations  :  6438
 total energy-change (2. order) : 0.2006561E+01  (-0.2359846E+01)
 number of electron     275.9999999 magnetization 
 augmentation part       18.0890064 magnetization 

 Broyden mixing:
  rms(total) = 0.71600E+00    rms(broyden)= 0.71576E+00
  rms(prec ) = 0.14542E+01
  weight for this iteration     100.00

 eigenvalues of (default mixing * dielectric matrix)
  average eigenvalue GAMMA=   1.2945
  0.6989  1.8901

 Free energy of the ion-electron system (eV)
  ---------------------------------------------------
  alpha Z        PSCENC =      1438.15555718
  Ewald energy   TEWEN  =    -16793.20790578
  -Hartree energ DENC   =     -6511.39710637
  -exchange      EXHF   =         0.00000000
  -V(xc)+E(xc)   XCENC  =      -575.41929911
  PAW double counting   =     30324.84687474   -28586.61242090
  entropy T*S    EENTRO =         0.01973654
  eigenvalues    EBANDS =     -2143.04876382
  atomic energy  EATOM  =     22472.65029968
  Solvation  Ediel_sol  =         0.00000000
  ---------------------------------------------------
  free energy    TOTEN  =      -374.01302783 eV

  energy without entropy =     -374.03276437  energy(sigma->0) =     -374.01960667


--------------------------------------------------------------------------------------------------------




----------------------------------------- Iteration    1(   8)  ---------------------------------------


    POTLOK:  cpu time    0.0290: real time    0.0291
    SETDIJ:  cpu time    0.0037: real time    0.0037
    EDDIAG:  cpu time    0.0718: real time    0.0720
  RMM-DIIS:  cpu time    0.7794: real time    0.7836
    ORTHCH:  cpu time    0.0109: real time    0.0109
       DOS:  cpu time    0.0017: real time    0.0017
    CHARGE:  cpu time    0.0288: real time    0.0289
    MIXING:  cpu time    0.0013: real time    0.0013
    --------------------------------------------
      LOOP:  cpu time    0.9271: real time    0.9714

 eigenvalue-minimisations  :  7400
 total energy-change (2. order) : 0.2437845E+01  (-0.4382374E+00)
 number of electron     275.9999999 magnetization 
 augmentation part       17.9343977 magnetization 

 Broyden mixing:
  rms(total) = 0.36452E+00    rms(broyden)= 0.36429E+00
  rms(prec ) = 0.47918E+00
  weight for this iteration     100.00

 eigenvalues of (default mixing * dielectric matrix)
  average eigenvalue GAMMA=   1.3915
  1.8201  1.8201  0.5343

 Free energy of the ion-electron system (eV)
  ---------------------------------------------------
  alpha Z        PSCENC =      1438.15555718
  Ewald energy   TEWEN  =    -16793.20790578
  -Hartree energ DENC   =     -6494.24022650
  -exchange      EXHF   =         0.00000000
  -V(xc)+E(xc)   XCENC  =      -575.11325265
  PAW double counting   =     30969.49656308   -29229.35470317
  entropy T*S    EENTRO =         0.01431552
  eigenvalues    EBANDS =     -2159.97582986
  atomic energy  EATOM  =     22472.65029968
  Solvation  Ediel_sol  =         0.00000000
  ---------------------------------------------------
  free energy    TOTEN  =      -371.57518250 eV

  energy without entropy =     -371.58949801  energy(sigma->0) =     -371.57995434


--------------------------------------------------------------------------------------------------------




----------------------------------------- Iteration    1(   9)  ---------------------------------------


    POTLOK:  cpu time    0.0292: real time    0.0293
    SETDIJ:  cpu time    0.0038: real time    0.0038
    EDDIAG:  cpu time    0.0856: real time    0.0859
  RMM-DIIS:  cpu time    0.8456: real time    0.8510
    ORTHCH:  cpu time    0.0110: real time    0.0111
       DOS:  cpu time    0.0024: real time    0.0024
    CHARGE:  cpu time    0.0306: real time    0.0308
    MIXING:  cpu time    0.0013: real time    0.0014
    --------------------------------------------
      LOOP:  cpu time    1.0103: real time    1.0545

 eigenvalue-minimisations  :  7329
 total energy-change (2. order) :-0.3354974E-01  (-0.1191481E+00)
 number of electron     275.9999999 magnetization 
 augmentation part       17.8114046 magnetization 

 Broyden mixing:
  rms(total) = 0.23504E+00    rms(broyden)= 0.23496E+00
  rms(prec ) = 0.42406E+00
  weight for this iteration     100.00

 eigenvalues of (default mixing * dielectric matrix)
  average eigenvalue GAMMA=   1.2381
  1.9718  1.9718  0.5043  0.5043

 Free energy of the ion-electron system (eV)
  ---------------------------------------------------
  alpha Z        PSCENC =      1438.15555718
  Ewald energy   TEWEN  =    -16793.20790578
  -Hartree energ DENC   =     -6509.82446339
  -exchange      EXHF   =         0.00000000
  -V(xc)+E(xc)   XCENC  =      -574.30062432
  PAW double counting   =     31038.19689466   -29293.78229696
  entropy T*S    EENTRO =         0.01420162
  eigenvalues    EBANDS =     -2149.51039495
  atomic energy  EATOM  =     22472.65029968
  Solvation  Ediel_sol  =         0.00000000
  ---------------------------------------------------
  free energy    TOTEN  =      -371.60873224 eV

  energy without entropy =     -371.62293386  energy(sigma->0) =     -371.61346611


--------------------------------------------------------------------------------------------------------




----------------------------------------- Iteration    1(  10)  ---------------------------------------


    POTLOK:  cpu time    0.0292: real time    0.0293
    SETDIJ:  cpu time    0.0037: real time    0.0037
    EDDIAG:  cpu time    0.0741: real time    0.0743
  RMM-DIIS:  cpu time    0.7809: real time    0.7843
    ORTHCH:  cpu time    0.0111: real time    0.0111
       DOS:  cpu time    0.0024: real time    0.0025
    CHARGE:  cpu time    0.0301: real time    0.0302
    MIXING:  cpu time    0.0014: real time    0.0014
    --------------------------------------------
      LOOP:  cpu time    0.9336: real time    0.9787

 eigenvalue-minimisations  :  7271
 total energy-change (2. order) : 0.7436233E-01  (-0.2552938E-01)
 number of electron     275.9999999 magnetization 
 augmentation part       17.7387826 magnetization 

 Broyden mixing:
  rms(total) = 0.10176E+00    rms(broyden)= 0.10171E+00
  rms(prec ) = 0.18269E+00
  weight for this iteration     100.00

 eigenvalues of (default mixing * dielectric matrix)
  average eigenvalue GAMMA=   1.1626
  1.9910  1.9910  0.8814  0.5389  0.4108

 Free energy of the ion-electron system (eV)
  ---------------------------------------------------
  alpha Z        PSCENC =      1438.15555718
  Ewald energy   TEWEN  =    -16793.20790578
  -Hartree energ DENC   =     -6517.15958326
  -exchange      EXHF   =         0.00000000
  -V(xc)+E(xc)   XCENC  =      -573.50174443
  PAW double counting   =     31209.79202231   -29459.78057667
  entropy T*S    EENTRO =         0.01607608
  eigenvalues    EBANDS =     -2148.49851502
  atomic energy  EATOM  =     22472.65029968
  Solvation  Ediel_sol  =         0.00000000
  ---------------------------------------------------
  free energy    TOTEN  =      -371.53436991 eV

  energy without entropy =     -371.55044599  energy(sigma->0) =     -371.53972860


--------------------------------------------------------------------------------------------------------




----------------------------------------- Iteration    1(  11)  ---------------------------------------


    POTLOK:  cpu time    0.0294: real time    0.0295
    SETDIJ:  cpu time    0.0360: real time    0.0361
    EDDIAG:  cpu time    0.0713: real time    0.1709
  RMM-DIIS:  cpu time    0.6896: real time    0.8334
    ORTHCH:  cpu time    0.0109: real time    0.0109
       DOS:  cpu time    0.0013: real time    0.0013
    CHARGE:  cpu time    0.0283: real time    0.0284
    MIXING:  cpu time    0.0014: real time    0.0014
    --------------------------------------------
      LOOP:  cpu time    0.8687: real time    1.1607

 eigenvalue-minimisations  :  7384
 total energy-change (2. order) : 0.1857380E-01  (-0.9707217E-02)
 number of electron     275.9999999 magnetization 
 augmentation part       17.7364763 magnetization 

 Broyden mixing:
  rms(total) = 0.54500E-01    rms(broyden)= 0.54476E-01
  rms(prec ) = 0.78083E-01
  weight for this iteration     100.00

 eigenvalues of (default mixing * dielectric matrix)
  average eigenvalue GAMMA=   1.1641
  2.2455  1.6508  1.6508  0.5383  0.5383  0.3607

 Free energy of the ion-electron system (eV)
  ---------------------------------------------------
  alpha Z        PSCENC =      1438.15555718
  Ewald energy   TEWEN  =    -16793.20790578
  -Hartree energ DENC   =     -6519.45946811
  -exchange      EXHF   =         0.00000000
  -V(xc)+E(xc)   XCENC  =      -573.26240609
  PAW double counting   =     31360.46822801   -29608.51970827
  entropy T*S    EENTRO =         0.01548523
  eigenvalues    EBANDS =     -2148.35587797
  atomic energy  EATOM  =     22472.65029968
  Solvation  Ediel_sol  =         0.00000000
  ---------------------------------------------------
  free energy    TOTEN  =      -371.51579611 eV

  energy without entropy =     -371.53128134  energy(sigma->0) =     -371.52095786


--------------------------------------------------------------------------------------------------------




----------------------------------------- Iteration    1(  12)  ---------------------------------------


    POTLOK:  cpu time    0.0289: real time    0.0291
    SETDIJ:  cpu time    0.0037: real time    0.0037
    EDDIAG:  cpu time    0.0728: real time    0.0732
  RMM-DIIS:  cpu time    0.7639: real time    0.7675
    ORTHCH:  cpu time    0.0109: real time    0.0109
       DOS:  cpu time    0.0021: real time    0.0021
    CHARGE:  cpu time    0.0286: real time    0.0287
    MIXING:  cpu time    0.0015: real time    0.0015
    --------------------------------------------
      LOOP:  cpu time    0.9129: real time    0.9589

 eigenvalue-minimisations  :  7353
 total energy-change (2. order) : 0.1084478E-02  (-0.3526277E-02)
 number of electron     275.9999999 magnetization 
 augmentation part       17.7403427 magnetization 

 Broyden mixing:
  rms(total) = 0.32078E-01    rms(broyden)= 0.32063E-01
  rms(prec ) = 0.49992E-01
  weight for this iteration     100.00

 eigenvalues of (default mixing * dielectric matrix)
  average eigenvalue GAMMA=   1.1289
  2.3234  1.7410  1.7410  0.6257  0.6257  0.4865  0.3589

 Free energy of the ion-electron system (eV)
  ---------------------------------------------------
  alpha Z        PSCENC =      1438.15555718
  Ewald energy   TEWEN  =    -16793.20790578
  -Hartree energ DENC   =     -6519.82447244
  -exchange      EXHF   =         0.00000000
  -V(xc)+E(xc)   XCENC  =      -573.20015519
  PAW double counting   =     31488.41354990   -29735.36437184
  entropy T*S    EENTRO =         0.01629230
  eigenvalues    EBANDS =     -2149.15350545
  atomic energy  EATOM  =     22472.65029968
  Solvation  Ediel_sol  =         0.00000000
  ---------------------------------------------------
  free energy    TOTEN  =      -371.51471163 eV

  energy without entropy =     -371.53100394  energy(sigma->0) =     -371.52014240


--------------------------------------------------------------------------------------------------------




----------------------------------------- Iteration    1(  13)  ---------------------------------------


    POTLOK:  cpu time    0.0291: real time    0.0294
    SETDIJ:  cpu time    0.0038: real time    0.0039
    EDDIAG:  cpu time    0.0762: real time    0.0767
  RMM-DIIS:  cpu time    0.8189: real time    0.8239
    ORTHCH:  cpu time    0.0107: real time    0.0108
       DOS:  cpu time    0.0011: real time    0.0011
    CHARGE:  cpu time    0.0285: real time    0.0286
    MIXING:  cpu time    0.0015: real time    0.0015
    --------------------------------------------
      LOOP:  cpu time    0.9704: real time    1.0181

 eigenvalue-minimisations  :  7489
 total energy-change (2. order) : 0.2401767E-03  (-0.1042709E-02)
 number of electron     275.9999999 magnetization 
 augmentation part       17.7394207 magnetization 

 Broyden mixing:
  rms(total) = 0.20408E-01    rms(broyden)= 0.20403E-01
  rms(prec ) = 0.34249E-01
  weight for this iteration     100.00

 eigenvalues of (default mixing * dielectric matrix)
  average eigenvalue GAMMA=   1.1215
  2.4035  2.0318  1.6134  0.9429  0.5845  0.5600  0.4746  0.3617

 Free energy of the ion-electron system (eV)
  ---------------------------------------------------
  alpha Z        PSCENC =      1438.15555718
  Ewald energy   TEWEN  =    -16793.20790578
  -Hartree energ DENC   =     -6519.97125377
  -exchange      EXHF   =         0.00000000
  -V(xc)+E(xc)   XCENC  =      -573.18138649
  PAW double counting   =     31536.26527640   -29782.59415722
  entropy T*S    EENTRO =         0.01619956
  eigenvalues    EBANDS =     -2149.64710103
  atomic energy  EATOM  =     22472.65029968
  Solvation  Ediel_sol  =         0.00000000
  ---------------------------------------------------
  free energy    TOTEN  =      -371.51447146 eV

  energy without entropy =     -371.53067102  energy(sigma->0) =     -371.51987131


--------------------------------------------------------------------------------------------------------




----------------------------------------- Iteration    1(  14)  ---------------------------------------


    POTLOK:  cpu time    0.0285: real time    0.0287
    SETDIJ:  cpu time    0.0037: real time    0.0037
    EDDIAG:  cpu time    0.0725: real time    0.0728
  RMM-DIIS:  cpu time    0.7222: real time    0.8148
    ORTHCH:  cpu time    0.0193: real time    0.0194
       DOS:  cpu time    0.0012: real time    0.0012
    CHARGE:  cpu time    0.0443: real time    0.0444
    MIXING:  cpu time    0.0015: real time    0.0016
    --------------------------------------------
      LOOP:  cpu time    0.8937: real time    1.0247

 eigenvalue-minimisations  :  7626
 total energy-change (2. order) : 0.2334555E-03  (-0.4176279E-03)
 number of electron     275.9999999 magnetization 
 augmentation part       17.7363066 magnetization 

 Broyden mixing:
  rms(total) = 0.95808E-02    rms(broyden)= 0.95770E-02
  rms(prec ) = 0.14887E-01
  weight for this iteration     100.00

 eigenvalues of (default mixing * dielectric matrix)
  average eigenvalue GAMMA=   1.1105
  2.5119  2.0713  1.5279  1.2920  0.6875  0.6393  0.4995  0.3579  0.4072

 Free energy of the ion-electron system (eV)
  ---------------------------------------------------
  alpha Z        PSCENC =      1438.15555718
  Ewald energy   TEWEN  =    -16793.20790578
  -Hartree energ DENC   =     -6520.72246407
  -exchange      EXHF   =         0.00000000
  -V(xc)+E(xc)   XCENC  =      -573.16532590
  PAW double counting   =     31557.20231347   -29803.12339650
  entropy T*S    EENTRO =         0.01608930
  eigenvalues    EBANDS =     -2149.31940537
  atomic energy  EATOM  =     22472.65029968
  Solvation  Ediel_sol  =         0.00000000
  ---------------------------------------------------
  free energy    TOTEN  =      -371.51423800 eV

  energy without entropy =     -371.53032730  energy(sigma->0) =     -371.51960110


--------------------------------------------------------------------------------------------------------




----------------------------------------- Iteration    1(  15)  ---------------------------------------


    POTLOK:  cpu time    0.0283: real time    0.0284
    SETDIJ:  cpu time    0.0037: real time    0.0037
    EDDIAG:  cpu time    0.0706: real time    0.0710
  RMM-DIIS:  cpu time    0.8274: real time    0.8325
    ORTHCH:  cpu time    0.0108: real time    0.0108
       DOS:  cpu time    0.0009: real time    0.0009
    CHARGE:  cpu time    0.0284: real time    0.0285
    MIXING:  cpu time    0.0016: real time    0.0016
    --------------------------------------------
      LOOP:  cpu time    0.9723: real time    1.0208

 eigenvalue-minimisations  :  7294
 total energy-change (2. order) :-0.9677342E-04  (-0.2380721E-03)
 number of electron     275.9999999 magnetization 
 augmentation part       17.7342283 magnetization 

 Broyden mixing:
  rms(total) = 0.50626E-02    rms(broyden)= 0.50594E-02
  rms(prec ) = 0.90333E-02
  weight for this iteration     100.00

 eigenvalues of (default mixing * dielectric matrix)
  average eigenvalue GAMMA=   1.0777
  2.5995  1.9781  1.7306  1.2210  0.9132  0.6228  0.4977  0.4977  0.3638  0.3533

 Free energy of the ion-electron system (eV)
  ---------------------------------------------------
  alpha Z        PSCENC =      1438.15555718
  Ewald energy   TEWEN  =    -16793.20790578
  -Hartree energ DENC   =     -6520.88089407
  -exchange      EXHF   =         0.00000000
  -V(xc)+E(xc)   XCENC  =      -573.16232786
  PAW double counting   =     31569.36209705   -29815.04870783
  entropy T*S    EENTRO =         0.01614073
  eigenvalues    EBANDS =     -2149.39859388
  atomic energy  EATOM  =     22472.65029968
  Solvation  Ediel_sol  =         0.00000000
  ---------------------------------------------------
  free energy    TOTEN  =      -371.51433478 eV

  energy without entropy =     -371.53047551  energy(sigma->0) =     -371.51971502


--------------------------------------------------------------------------------------------------------




----------------------------------------- Iteration    1(  16)  ---------------------------------------


    POTLOK:  cpu time    0.0283: real time    0.0285
    SETDIJ:  cpu time    0.0036: real time    0.0036
    EDDIAG:  cpu time    0.0700: real time    0.0704
  RMM-DIIS:  cpu time    0.6790: real time    0.6826
    ORTHCH:  cpu time    0.0109: real time    0.0110
       DOS:  cpu time    0.0012: real time    0.0012
    CHARGE:  cpu time    0.0291: real time    0.0292
    MIXING:  cpu time    0.0017: real time    0.0017
    --------------------------------------------
      LOOP:  cpu time    0.8245: real time    0.8634

 eigenvalue-minimisations  :  6456
 total energy-change (2. order) :-0.1601128E-04  (-0.8000949E-04)
 number of electron     275.9999999 magnetization 
 augmentation part       17.7341150 magnetization 

 Broyden mixing:
  rms(total) = 0.24586E-02    rms(broyden)= 0.24576E-02
  rms(prec ) = 0.44785E-02
  weight for this iteration     100.00

 eigenvalues of (default mixing * dielectric matrix)
  average eigenvalue GAMMA=   1.0671
  2.6736  1.9100  1.9100  1.2255  1.0110  0.6970  0.5676  0.5676  0.4582  0.3628
  0.3546

 Free energy of the ion-electron system (eV)
  ---------------------------------------------------
  alpha Z        PSCENC =      1438.15555718
  Ewald energy   TEWEN  =    -16793.20790578
  -Hartree energ DENC   =     -6521.01770350
  -exchange      EXHF   =         0.00000000
[...]
     78       4.6039      2.00000
     79       4.6358      2.00000
     80       4.6484      2.00000
     81       4.7108      2.00000
     82       4.8045      2.00000
     83       4.8098      2.00000
     84       4.8393      2.00000
     85       4.9167      2.00000
     86       4.9426      2.00000
     87       5.0207      2.00000
     88       5.0734      2.00000
     89       5.1215      2.00000
     90       5.1639      2.00000
     91       5.2034      2.00000
     92       5.2603      2.00000
     93       5.3094      2.00000
     94       5.3440      2.00000
     95       5.4389      2.00000
     96       5.5019      2.00000
     97       5.5477      2.00000
     98       5.7381      2.00000
     99       5.7936      2.00000
    100       5.8591      2.00000
    101       5.8680      2.00000
    102       5.9263      2.00000
    103       5.9692      2.00000
    104       5.9835      2.00000
    105       6.0032      2.00000
    106       6.0375      2.00000
    107       6.0700      2.00000
    108       6.0881      2.00000
    109       6.1333      2.00000
    110       6.1641      2.00000
    111       6.1714      2.00000
    112       6.2220      2.00000
    113       6.2562      2.00000
    114       6.3085      2.00000
    115       6.3282      2.00000
    116       6.3592      2.00000
    117       6.3974      2.00000
    118       6.4493      2.00000
    119       6.5093      2.00000
    120       6.5532      2.00000
    121       6.5936      2.00000
    122       6.6310      2.00000
    123       6.6684      2.00000
    124       6.7017      2.00000
    125       6.7346      2.00000
    126       6.7802      2.00003
    127       6.8137      2.00010
    128       6.8652      2.00067
    129       6.8995      2.00201
    130       6.9487      2.00784
    131       6.9731      2.01396
    132       6.9842      2.01774
    133       7.0485      2.05182
    134       7.0943      2.07089
    135       7.1089      2.06816
    136       7.1361      2.03947
    137       7.1594      1.97981
    138       7.2102      1.69519
    139       7.2321      1.50454
    140       7.2688      1.11807
    141       7.3308      0.45536
    142       7.3633      0.19716
    143       7.3810      0.09583
    144       7.4259     -0.04517
    145       7.4562     -0.07024
    146       7.4790     -0.06789
    147       7.5202     -0.04556
    148       7.5977     -0.01055
    149       7.6031     -0.00926
    150       7.6414     -0.00337
    151       7.6844     -0.00090
    152       7.7167     -0.00030
    153       7.7726     -0.00003
    154       7.8133     -0.00001
    155       7.8597     -0.00000
    156       7.9161     -0.00000
    157       7.9684     -0.00000
    158       8.0308     -0.00000
    159       8.0996     -0.00000
    160       8.1345     -0.00000
    161       8.4219     -0.00000
    162       8.5167     -0.00000
    163       8.5987     -0.00000
    164       9.1708     -0.00000
    165       9.2447     -0.00000
    166       9.2994     -0.00000
    167       9.3316     -0.00000
    168       9.4087     -0.00000


--------------------------------------------------------------------------------------------------------


 soft charge-density along one line, spin component           1
         0         1         2         3         4         5         6         7         8         9
 total charge-density along one line
 
 pseudopotential strength for first ion, spin component:           1
 -5.090   0.000  -0.001  -0.001   0.000  -6.350   0.000  -0.001
  0.000  -5.094   0.000  -0.001  -0.000   0.000  -6.354   0.000
 -0.001   0.000  -5.093  -0.000   0.001  -0.001   0.000  -6.353
 -0.001  -0.001  -0.000  -5.094  -0.001  -0.001  -0.001  -0.000
  0.000  -0.000   0.001  -0.001  -5.092   0.000  -0.001   0.002
 -6.350   0.000  -0.001  -0.001   0.000  -7.902   0.001  -0.001
  0.000  -6.354   0.000  -0.001  -0.001   0.001  -7.908   0.000
 -0.001   0.000  -6.353  -0.000   0.002  -0.001   0.000  -7.906
 -0.001  -0.001  -0.000  -6.355  -0.001  -0.001  -0.002  -0.000
  0.000  -0.001   0.002  -0.001  -6.352   0.000  -0.001   0.002
  0.000  -0.000   0.001  -0.000   0.001   0.000  -0.001   0.001
  0.000  -0.001   0.001  -0.000   0.001   0.000  -0.001   0.001
  0.002   0.005   0.002   0.004   0.004   0.002   0.006   0.002
  0.004  -0.001   0.004   0.002  -0.002   0.004  -0.001   0.005
  0.000   0.004  -0.000   0.002   0.001   0.000   0.004  -0.000
 -0.002  -0.007  -0.001  -0.005  -0.004  -0.002  -0.009  -0.002
 -0.005   0.000  -0.005  -0.002   0.003  -0.007   0.000  -0.006
 -0.001  -0.005  -0.000  -0.002  -0.000  -0.002  -0.007  -0.000
 total augmentation occupancy for first ion, spin component:           1
  3.720   0.039  -0.082  -0.092  -0.003  -1.912  -0.024   0.037   0.044   0.003   0.005   0.003  -0.030  -0.036   0.040  -0.001
  0.039   3.548  -0.015  -0.087   0.031  -0.024  -1.840   0.015   0.041  -0.030  -0.070   0.006  -0.091   0.050  -0.044  -0.003
 -0.082  -0.015   3.759  -0.036   0.115   0.037   0.016  -1.956   0.020  -0.056  -0.023   0.016  -0.016  -0.025  -0.005  -0.002
 -0.092  -0.087  -0.036   3.529  -0.109   0.044   0.041   0.020  -1.810   0.056  -0.044   0.002  -0.051  -0.043   0.015  -0.002
 -0.003   0.031   0.115  -0.109   3.705   0.003  -0.031  -0.056   0.056  -1.955  -0.087   0.017  -0.033   0.046  -0.007  -0.003
 -1.912  -0.024   0.037   0.044   0.003   0.994   0.014  -0.016  -0.022  -0.002  -0.001  -0.002   0.017   0.019  -0.019   0.001
 -0.024  -1.840   0.016   0.041  -0.031   0.014   0.964  -0.012  -0.020   0.023   0.042  -0.004   0.041  -0.022   0.023   0.002
  0.037   0.015  -1.956   0.020  -0.056  -0.016  -0.012   1.027  -0.011   0.028   0.019  -0.009   0.011   0.016   0.001   0.001
  0.044   0.041   0.020  -1.810   0.056  -0.022  -0.020  -0.011   0.939  -0.029   0.021  -0.001   0.026   0.022  -0.008   0.001
  0.003  -0.030  -0.056   0.056  -1.955  -0.002   0.023   0.028  -0.029   1.040   0.048  -0.009   0.020  -0.022   0.004   0.002
  0.005  -0.070  -0.023  -0.044  -0.087  -0.001   0.042   0.019   0.021   0.048   2.318  -0.294   0.004  -0.007  -0.003   0.001
  0.003   0.006   0.016   0.002   0.017  -0.002  -0.004  -0.009  -0.001  -0.009  -0.294   0.039   0.001  -0.002  -0.000  -0.000
 -0.030  -0.091  -0.016  -0.051  -0.033   0.017   0.041   0.011   0.026   0.020   0.004   0.001   0.304  -0.003  -0.003   0.006
 -0.036   0.050  -0.025  -0.043   0.046   0.019  -0.022   0.016   0.022  -0.022  -0.007  -0.002  -0.003   0.281   0.002   0.000
  0.040  -0.044  -0.005   0.015  -0.007  -0.019   0.023   0.001  -0.008   0.004  -0.003  -0.000  -0.003   0.002   0.301  -0.000
 -0.001  -0.003  -0.002  -0.002  -0.003   0.001   0.002   0.001   0.001   0.002   0.001  -0.000   0.006   0.000  -0.000   0.000
 -0.002   0.001  -0.003  -0.002   0.001   0.001  -0.001   0.001   0.001  -0.001  -0.001   0.000   0.000   0.005   0.000   0.000
  0.001  -0.002   0.000  -0.001  -0.001  -0.000   0.001  -0.000   0.000   0.000  -0.000   0.000   0.000   0.000   0.006   0.000


------------------------ aborting loop because EDIFF is reached ----------------------------------------


    CHARGE:  cpu time    0.0275: real time    0.0277
    FORLOC:  cpu time    0.0133: real time    0.0133
    FORNL :  cpu time    0.2973: real time    0.2986
    STRESS:  cpu time    0.8856: real time    0.8934
    FORCOR:  cpu time    0.0429: real time    0.0431
    FORHAR:  cpu time    0.0181: real time    0.0182
    MIXING:  cpu time    0.0012: real time    0.0012
    OFIELD:  cpu time    0.0000: real time    0.0000

  FORCE on cell =-STRESS in cart. coord.  units (eV):
  Direction    XX          YY          ZZ          XY          YZ          ZX
  --------------------------------------------------------------------------------------
  Alpha Z  1440.26272  1440.26272  1440.26272
  Ewald   -4436.95312 -5769.99488 -6604.99552  -123.74343   222.84405    64.09072
  Hartree  3249.56665  2030.11996  1228.73526  -100.99032   163.00819    66.72697
  E(xc)   -1208.30263 -1208.96659 -1209.01865    -0.03134     0.36117     0.14489
  Local   -3480.90481  -930.62223   705.43664   225.13647  -385.67773  -130.13853
  n-local  -263.04442  -267.65589  -267.30288     0.58101    -1.39897     1.22472
  augment   210.89831   211.47677   211.56584    -0.13260     0.09778    -0.12531
  Kinetic  4488.47532  4495.39203  4495.39114    -0.80266     0.77380    -1.89686
  Fock        0.00000     0.00000     0.00000     0.00000     0.00000     0.00000
  -------------------------------------------------------------------------------------
  Total      -0.00198     0.01189     0.07454     0.01713     0.00829     0.02661
  in kB      -0.00442     0.02659     0.16673     0.03831     0.01853     0.05951
  external pressure =        0.06 kB  Pullay stress =        0.00 kB


 VOLUME and BASIS-vectors are now :
 -----------------------------------------------------------------------------
  energy-cutoff  :      300.00
  volume of cell :      716.30
      direct lattice vectors                 reciprocal lattice vectors
     6.907255937  0.005654263  0.014365029     0.144776028 -0.000122380 -0.000305538
     0.008615051 10.195460886 -0.001535951    -0.000080328  0.098082934  0.000017953
     0.021464520 -0.001844244 10.171479686    -0.000204477  0.000014984  0.098314547

  length of vectors
     6.907273189 10.195464642 10.171502501     0.144776402  0.098082969  0.098314761


 FORCES acting on ions
    electron-ion (+dipol)            ewald-force                    non-local-force                 convergence-correction
 -----------------------------------------------------------------------------------------------
   0.103E+02 0.685E+02 -.928E+02   -.105E+02 -.681E+02 0.924E+02   0.200E+00 -.352E+00 0.396E+00   -.239E-02 0.417E-02 -.645E-02
   -.749E+01 0.581E+02 0.364E+02   0.847E+01 -.583E+02 -.362E+02   -.982E+00 0.214E+00 -.298E+00   0.169E-02 0.325E-02 0.364E-02
   -.199E+02 0.450E+02 0.738E+02   0.187E+02 -.454E+02 -.736E+02   0.120E+01 0.307E+00 -.149E+00   -.185E-02 0.191E-02 0.402E-02
   0.229E+02 0.463E+02 0.341E+02   -.237E+02 -.463E+02 -.343E+02   0.881E+00 -.129E-01 0.170E+00   -.335E-02 0.287E-02 -.400E-03
   -.113E+02 0.289E+02 -.105E+03   0.115E+02 -.284E+02 0.104E+03   -.236E+00 -.534E+00 0.250E+00   0.215E-02 0.572E-02 -.658E-02
   -.244E+02 0.446E+02 -.362E+02   0.253E+02 -.443E+02 0.361E+02   -.862E+00 -.317E+00 0.134E+00   0.398E-02 0.752E-02 -.171E-02
   -.133E+02 -.572E+02 0.953E+02   0.135E+02 0.576E+02 -.951E+02   -.208E+00 -.391E+00 -.210E+00   0.111E-03 -.543E-02 0.422E-02
   -.226E+02 -.523E+02 -.170E+02   0.214E+02 0.520E+02 0.173E+02   0.120E+01 0.335E+00 -.300E+00   -.204E-02 -.307E-02 -.544E-03
   0.195E+02 -.468E+01 -.597E+02   -.190E+02 0.472E+01 0.596E+02   -.503E+00 -.407E-01 0.355E-01   0.303E-02 -.302E-02 -.241E-02
   0.111E+02 -.787E+02 -.103E+03   -.112E+02 0.789E+02 0.103E+03   0.877E-01 -.183E+00 -.622E-01   -.110E-02 -.805E-02 -.635E-02
   0.368E+02 0.621E+02 0.176E+03   -.370E+02 -.622E+02 -.176E+03   0.131E+00 0.102E+00 -.448E+00   -.125E-01 0.113E-01 0.226E-01
   -.540E+02 -.345E+02 -.235E+03   0.538E+02 0.345E+02 0.235E+03   0.237E+00 0.704E-01 -.176E+00   0.129E-01 -.670E-02 -.117E-01
   0.878E+02 -.306E+03 -.192E+03   -.870E+02 0.305E+03 0.192E+03   -.790E+00 0.528E+00 0.683E+00   0.136E-01 -.177E-01 -.197E-01
   -.884E+02 0.163E+03 0.256E+03   0.891E+02 -.163E+03 -.256E+03   -.636E+00 0.153E+00 0.289E+00   0.111E-01 0.143E-01 0.170E-01
   -.338E+02 -.604E+02 -.177E+03   0.331E+02 0.605E+02 0.176E+03   0.736E+00 -.981E-02 0.464E+00   -.133E-01 -.113E-01 -.123E-01
   -.351E+02 0.307E+02 0.420E+03   0.353E+02 -.304E+02 -.421E+03   -.216E+00 -.346E+00 0.127E+00   0.115E-01 -.446E-02 0.179E-01
   0.185E+02 -.885E+02 0.112E+03   -.187E+02 0.891E+02 -.111E+03   0.226E+00 -.572E+00 -.635E+00   0.102E-02 -.710E-02 0.584E-02
   0.239E+02 -.499E+02 -.254E+02   -.229E+02 0.495E+02 0.257E+02   -.996E+00 0.425E+00 -.268E+00   0.410E-02 -.642E-02 -.974E-03
   -.167E+01 -.815E+02 0.122E+03   0.256E+01 0.813E+02 -.121E+03   -.892E+00 0.158E+00 -.179E+00   0.414E-02 -.367E-02 0.829E-02
   -.295E+02 0.140E+02 0.477E+02   0.303E+02 -.141E+02 -.479E+02   -.822E+00 0.607E-01 0.193E+00   0.330E-02 0.436E-02 -.423E-03
   0.250E+02 0.776E+02 0.896E+02   -.241E+02 -.781E+02 -.891E+02   -.914E+00 0.477E+00 -.441E+00   0.298E-03 0.243E-02 0.428E-02
   0.251E+02 0.456E+02 -.137E+03   -.245E+02 -.463E+02 0.137E+03   -.622E+00 0.679E+00 0.829E+00   0.155E-02 0.516E-02 -.871E-02
   0.623E+00 -.107E+03 0.111E+03   -.156E+01 0.107E+03 -.111E+03   0.933E+00 0.864E-02 -.328E-01   -.442E-02 -.171E-02 0.911E-02
   -.476E+02 -.127E+03 -.941E+02   0.470E+02 0.127E+03 0.937E+02   0.599E+00 0.505E+00 0.377E+00   -.364E-02 -.476E-02 -.730E-02
   -.189E+02 0.165E+02 0.786E+02   0.191E+02 -.166E+02 -.782E+02   -.200E+00 0.173E+00 -.401E+00   0.398E-02 0.463E-02 0.852E-02
   0.348E+02 0.872E+02 -.563E+02   -.356E+02 -.869E+02 0.561E+02   0.736E+00 -.259E+00 0.135E+00   -.428E-02 0.853E-02 -.188E-02
   0.241E+02 -.290E+02 -.876E+02   -.240E+02 0.289E+02 0.879E+02   -.123E+00 0.280E-01 -.251E+00   -.408E-02 -.467E-02 -.534E-02
   0.296E+02 0.716E+02 0.943E+02   -.301E+02 -.719E+02 -.942E+02   0.539E+00 0.345E+00 -.719E-01   -.322E-02 0.493E-02 0.757E-02
   0.191E+03 0.366E+03 -.118E+03   -.190E+03 -.365E+03 0.118E+03   -.340E+00 -.789E+00 -.270E+00   -.196E-01 0.237E-01 -.861E-02
   0.746E+02 0.152E+03 0.220E+03   -.755E+02 -.153E+03 -.219E+03   0.964E+00 0.669E+00 -.508E+00   -.129E-01 0.140E-01 0.186E-01
   -.329E+02 -.204E+03 -.338E+03   0.332E+02 0.204E+03 0.337E+03   -.284E+00 -.598E+00 0.251E+00   -.114E-02 -.177E-01 -.276E-01
   -.187E+03 0.344E+03 -.163E+03   0.187E+03 -.343E+03 0.164E+03   0.500E+00 -.913E+00 -.557E+00   0.256E-01 0.252E-01 -.176E-02
   0.291E+02 0.767E+02 0.408E+03   -.294E+02 -.763E+02 -.407E+03   0.289E+00 -.431E+00 -.205E+00   -.104E-01 -.104E-01 0.300E-01
   0.253E+02 -.330E+03 0.507E+02   -.265E+02 0.331E+03 -.510E+02   0.115E+01 -.734E+00 0.290E+00   -.828E-02 -.168E-01 0.135E-01
   -.367E+02 0.517E+02 -.473E+03   0.358E+02 -.524E+02 0.473E+03   0.851E+00 0.698E+00 0.488E+00   -.131E-01 0.230E-01 -.121E-01
   -.253E+02 -.239E+03 0.849E+02   0.265E+02 0.239E+03 -.853E+02   -.120E+01 -.253E+00 0.425E+00   0.155E-01 -.954E-02 0.187E-01
 -----------------------------------------------------------------------------------------------
   -.624E+00 0.771E+00 -.125E+00   0.639E-13 0.199E-12 0.227E-12   0.627E+00 -.799E+00 0.759E-01   -.224E-02 0.246E-01 0.511E-01
 
 
 POSITION                                       TOTAL-FORCE (eV/Angst)
 -----------------------------------------------------------------------------------
      5.19828      5.08849      1.72103         0.000058     -0.000193     -0.001230
      1.86760      8.46403      8.54582        -0.000323      0.000710      0.000945
      4.97685      8.49876      5.11859        -0.000806      0.002471      0.005874
      5.09417      5.08993      8.52025         0.001314     -0.005004     -0.002974
      1.70955      5.18054      1.56079        -0.001073     -0.000525      0.005119
      0.14991      6.94929      3.42536        -0.004130      0.001715      0.002715
      5.23013      1.79041      5.08067         0.000994     -0.000189      0.000596
      3.20590      3.40738      3.40970         0.000920      0.002012      0.001380
      0.13126     10.13835      3.39519         0.000045     -0.000436      0.001933
      5.22328      1.87702      1.81430        -0.001085     -0.000603     -0.003012
      5.19325      5.03402      5.04408         0.001311      0.000351      0.002994
      6.85431     10.17814      0.01537         0.000624     -0.004074     -0.000650
      0.10647      3.29153      9.98469        -0.001745     -0.001358      0.004288
      0.04500      6.79724      6.79816        -0.000820      0.005156      0.001724
      3.36760      0.00749      3.27321         0.002787     -0.001774      0.001398
      6.91598     10.18911      6.81457        -0.002225      0.000443     -0.001889
      1.70055      1.73205      5.20845         0.005732      0.000274     -0.002501
      0.26218      3.35841      3.47356         0.002437     -0.002613     -0.001961
      0.10092      3.39992      6.83112         0.001940     -0.000457     -0.002340
      1.85917      5.11272      8.49570        -0.004814      0.002464     -0.000952
      1.98063      8.48654      5.19790         0.001161      0.004028      0.001826
      1.83663      8.40156      1.54124        -0.001522     -0.002064      0.000730
      3.36921      3.41165      6.79598        -0.003525     -0.004583     -0.001371
      3.39879      3.24668     10.09687         0.000478      0.000433     -0.000373
      1.72657      5.09229      5.16328        -0.001895     -0.001959     -0.003905
      3.32014      6.81756      3.39162         0.004040      0.002011      0.002970
      3.51640      0.03402      0.03251        -0.000075     -0.002117      0.000148
      3.40126      6.69131      6.78309        -0.001432      0.002702      0.000391
      3.53934      6.86440      0.03766         0.000424      0.001524     -0.003008
      5.10158      8.42943      8.54476        -0.000994     -0.003294     -0.003190
      1.73535      1.70562      1.61815         0.003484     -0.000909      0.003774
      6.83863      6.91489      0.05247        -0.002372      0.002331     -0.003866
      3.45788      0.09164      6.87025        -0.001016     -0.000547     -0.001908
      5.09716      1.74119      8.38962        -0.000135      0.003198      0.001311
      5.13392      8.42838      1.68602         0.003287      0.002251     -0.004544
      1.84377      1.63837      8.39245        -0.001047     -0.001378     -0.000446
 -----------------------------------------------------------------------------------
    total drift:                                0.001162     -0.002670      0.001601


--------------------------------------------------------------------------------------------------------



  FREE ENERGIE OF THE ION-ELECTRON SYSTEM (eV)
  ---------------------------------------------------
  free  energy   TOTEN  =      -371.52136571 eV

  energy  without entropy=     -371.53856162  energy(sigma->0) =     -371.52709768
 
 d Force = 0.9191065E-04[ 0.508E-04, 0.133E-03]  d Energy = 0.1248220E-03-0.329E-04
 d Force =-0.2386706E+00[-0.240E+00,-0.237E+00]  d Ewald  =-0.9054404E+00 0.667E+00


--------------------------------------------------------------------------------------------------------


    POTLOK:  cpu time    0.0344: real time    0.0346


--------------------------------------------------------------------------------------------------------




--------------------------------------------------------------------------------------------------------


  
 reached required accuracy - stopping structural energy minimisation
     LOOP+:  cpu time    4.8624: real time    5.5955
    4ORBIT:  cpu time    0.0000: real time    0.0000

 total amount of memory used by VASP on root node    66371. kBytes
========================================================================

   base      :      30000. kBytes
   nonlr-proj:      10725. kBytes
   fftplans  :       2814. kBytes
   grid      :       5360. kBytes
   one-center:        124. kBytes
   wavefun   :      17348. kBytes
 
  
  
 General timing and accounting informations for this job:
 ========================================================
  
                  Total CPU time used (sec):      148.670
                            User time (sec):      147.850
                          System time (sec):        0.820
                         Elapsed time (sec):      175.900
  
                   Maximum memory used (kb):      266276.
                   Average memory used (kb):           0.
  
                          Minor page faults:       124206
                          Major page faults:           30
                 Voluntary context switches:         7283
