       N       E                     dE             d eps       ncg     rms          rms(c)
DAV:   1     0.216687649018E+04    0.21669E+04   -0.12143E+05  5896   0.107E+03
DAV:   2    -0.747749211159E+02   -0.22417E+04   -0.21662E+04  6232   0.407E+02
DAV:   3    -0.345012735178E+03   -0.27024E+03   -0.25702E+03  9152   0.962E+01
DAV:   4    -0.375166521958E+03   -0.30154E+02   -0.28897E+02  8952   0.302E+01
DAV:   5    -0.378145958314E+03   -0.29794E+01   -0.29353E+01  8872   0.957E+00    0.647E+01
RMM:   6    -0.368281114011E+03    0.98648E+01   -0.28005E+01  7415   0.108E+01    0.302E+01
RMM:   7    -0.373437756642E+03   -0.51566E+01   -0.33573E+01  7913   0.758E+00    0.163E+01
RMM:   8    -0.363912488101E+03    0.95253E+01   -0.99784E+00  7594   0.486E+00    0.545E+00
RMM:   9    -0.363225555498E+03    0.68693E+00   -0.29947E+00  8103   0.213E+00    0.323E+00
RMM:  10    -0.363234435259E+03   -0.88798E-02   -0.68770E-01  7997   0.123E+00    0.168E+00
RMM:  11    -0.363215304737E+03    0.19131E-01   -0.22338E-01  7944   0.728E-01    0.829E-01
RMM:  12    -0.363202688173E+03    0.12617E-01   -0.71718E-02  8124   0.380E-01    0.451E-01
RMM:  13    -0.363199383084E+03    0.33051E-02   -0.21722E-02  8076   0.203E-01    0.270E-01
RMM:  14    -0.363199197005E+03    0.18608E-03   -0.73181E-03  8292   0.111E-01    0.168E-01
RMM:  15    -0.363199259564E+03   -0.62559E-04   -0.31108E-03  8222   0.705E-02    0.902E-02
RMM:  16    -0.363199265980E+03   -0.64160E-05   -0.13538E-03  7756   0.419E-02    0.469E-02
RMM:  17    -0.363199264857E+03    0.11229E-05   -0.55701E-04  6613   0.262E-02    0.272E-02
RMM:  18    -0.363199270438E+03   -0.55801E-05   -0.24046E-04  6084   0.196E-02    0.115E-02
RMM:  19    -0.363199275183E+03   -0.47459E-05   -0.10636E-04  5170   0.134E-02    0.711E-03
RMM:  20    -0.363199276242E+03   -0.10588E-05   -0.45590E-05  4444   0.110E-02
   1 F= -.36319928E+03 E0= -.36320435E+03  d E =-.363199E+03
       N       E                     dE             d eps       ncg     rms          rms(c)
DAV:   1    -0.363285074242E+03   -0.85799E-01   -0.26053E+00  6392   0.506E+00    0.185E+00
RMM:   2    -0.363274169796E+03    0.10904E-01   -0.26279E-01  7867   0.128E+00    0.764E-01
RMM:   3    -0.363253349440E+03    0.20820E-01   -0.62915E-02  8194   0.399E-01    0.546E-01
RMM:   4    -0.363246460942E+03    0.68885E-02   -0.19087E-02  8179   0.276E-01    0.284E-01
RMM:   5    -0.363245070460E+03    0.13905E-02   -0.55867E-03  8143   0.154E-01    0.201E-01
RMM:   6    -0.363245190514E+03   -0.12005E-03   -0.23390E-03  8436   0.751E-02    0.145E-01
RMM:   7    -0.363245157300E+03    0.33214E-04   -0.94851E-04  8165   0.513E-02    0.710E-02
RMM:   8    -0.363245202449E+03   -0.45149E-04   -0.52821E-04  7279   0.330E-02    0.524E-02
RMM:   9    -0.363245220127E+03   -0.17678E-04   -0.22092E-04  6904   0.256E-02    0.362E-02
RMM:  10    -0.363245234093E+03   -0.13966E-04   -0.13278E-04  6178   0.189E-02    0.182E-02
RMM:  11    -0.363245231803E+03    0.22898E-05   -0.63483E-05  4668   0.146E-02
   2 F= -.36324523E+03 E0= -.36325053E+03  d E =-.459556E-01
       N       E                     dE             d eps       ncg     rms          rms(c)
DAV:   1    -0.363513924205E+03   -0.26869E+00   -0.14497E+01  6104   0.119E+01    0.430E+00
RMM:   2    -0.363456879251E+03    0.57045E-01   -0.14569E+00  7899   0.301E+00    0.183E+00
RMM:   3    -0.363333159497E+03    0.12372E+00   -0.34189E-01  8212   0.935E-01    0.127E+00
RMM:   4    -0.363297036623E+03    0.36123E-01   -0.10967E-01  8199   0.653E-01    0.670E-01
RMM:   5    -0.363288895235E+03    0.81414E-02   -0.30761E-02  8121   0.375E-01    0.471E-01
RMM:   6    -0.363289714716E+03   -0.81948E-03   -0.13695E-02  8646   0.179E-01    0.342E-01
RMM:   7    -0.363289726659E+03   -0.11943E-04   -0.51100E-03  8947   0.125E-01    0.168E-01
RMM:   8    -0.363290066476E+03   -0.33982E-03   -0.30285E-03  8992   0.748E-02    0.127E-01
RMM:   9    -0.363290223901E+03   -0.15742E-03   -0.11354E-03  8359   0.545E-02    0.866E-02
RMM:  10    -0.363290383759E+03   -0.15986E-03   -0.74570E-04  7984   0.403E-02    0.449E-02
RMM:  11    -0.363290412110E+03   -0.28351E-04   -0.36044E-04  6746   0.283E-02    0.220E-02
RMM:  12    -0.363290409538E+03    0.25716E-05   -0.12601E-04  6111   0.183E-02    0.130E-02
RMM:  13    -0.363290408013E+03    0.15248E-05   -0.39117E-05  4872   0.132E-02
   3 F= -.36329041E+03 E0= -.36329621E+03  d E =-.911318E-01
       N       E                     dE             d eps       ncg     rms          rms(c)
DAV:   1    -0.363334242943E+03   -0.43833E-01   -0.23457E+00  5712   0.413E+00    0.999E-01
RMM:   2    -0.363332189751E+03    0.20532E-02   -0.13114E-01  7335   0.915E-01    0.396E-01
RMM:   3    -0.363329042303E+03    0.31474E-02   -0.20168E-02  7871   0.290E-01    0.293E-01
RMM:   4    -0.363327376604E+03    0.16657E-02   -0.55919E-03  8151   0.128E-01    0.169E-01
RMM:   5    -0.363326926578E+03    0.45003E-03   -0.23519E-03  8186   0.860E-02    0.116E-01
RMM:   6    -0.363326946045E+03   -0.19467E-04   -0.79870E-04  8262   0.443E-02    0.715E-02
RMM:   7    -0.363326980956E+03   -0.34911E-04   -0.39973E-04  7414   0.323E-02    0.394E-02
RMM:   8    -0.363327006172E+03   -0.25216E-04   -0.16875E-04  6608   0.206E-02    0.238E-02
RMM:   9    -0.363327019941E+03   -0.13769E-04   -0.84024E-05  5133   0.164E-02    0.190E-02
RMM:  10    -0.363327034141E+03   -0.14200E-04   -0.41290E-05  4671   0.125E-02    0.108E-02
RMM:  11    -0.363327042512E+03   -0.83711E-05   -0.17404E-05  3693   0.110E-02
   4 F= -.36332704E+03 E0= -.36333287E+03  d E =-.366345E-01
       N       E                     dE             d eps       ncg     rms          rms(c)
DAV:   1    -0.363451830667E+03   -0.12480E+00   -0.20919E+01  5720   0.123E+01    0.304E+00
RMM:   2    -0.363429058552E+03    0.22772E-01   -0.11299E+00  7327   0.267E+00    0.119E+00
RMM:   3    -0.363400372165E+03    0.28686E-01   -0.17830E-01  7872   0.871E-01    0.863E-01
RMM:   4    -0.363385773172E+03    0.14599E-01   -0.52985E-02  8241   0.394E-01    0.488E-01
RMM:   5    -0.363381905739E+03    0.38674E-02   -0.21105E-02  8177   0.264E-01    0.340E-01
RMM:   6    -0.363382133892E+03   -0.22815E-03   -0.72542E-03  9080   0.130E-01    0.213E-01
RMM:   7    -0.363382409670E+03   -0.27578E-03   -0.34487E-03  9048   0.977E-02    0.118E-01
RMM:   8    -0.363382613961E+03   -0.20429E-03   -0.16935E-03  8916   0.576E-02    0.733E-02
RMM:   9    -0.363382704981E+03   -0.91020E-04   -0.66223E-04  7852   0.385E-02    0.598E-02
RMM:  10    -0.363382792155E+03   -0.87174E-04   -0.31498E-04  7195   0.266E-02    0.338E-02
RMM:  11    -0.363382829529E+03   -0.37374E-04   -0.14256E-04  6032   0.207E-02    0.129E-02
RMM:  12    -0.363382836285E+03   -0.67561E-05   -0.69259E-05  5344   0.156E-02
   5 F= -.36338284E+03 E0= -.36338855E+03  d E =-.924283E-01
       N       E                     dE             d eps       ncg     rms          rms(c)
DAV:   1    -0.363386399759E+03   -0.35702E-02   -0.72434E-01  5728   0.231E+00    0.563E-01
RMM:   2    -0.363385713360E+03    0.68640E-03   -0.40430E-02  7307   0.509E-01    0.219E-01
RMM:   3    -0.363384762406E+03    0.95095E-03   -0.62055E-03  7830   0.163E-01    0.159E-01
RMM:   4    -0.363384284568E+03    0.47784E-03   -0.17487E-03  8151   0.717E-02    0.910E-02
RMM:   5    -0.363384156207E+03    0.12836E-03   -0.73510E-04  8178   0.472E-02    0.629E-02
RMM:   6    -0.363384173246E+03   -0.17038E-04   -0.24670E-04  7190   0.246E-02    0.395E-02
RMM:   7    -0.363384192187E+03   -0.18941E-04   -0.12577E-04  6453   0.187E-02    0.222E-02
RMM:   8    -0.363384206053E+03   -0.13866E-04   -0.62866E-05  4796   0.146E-02    0.127E-02
RMM:   9    -0.363384212409E+03   -0.63560E-05   -0.32973E-05  4390   0.119E-02
   6 F= -.36338421E+03 E0= -.36338988E+03  d E =-.938044E-01
       N       E                     dE             d eps       ncg     rms          rms(c)
DAV:   1    -0.363391884519E+03   -0.76785E-02   -0.81067E-01  5536   0.252E+00    0.338E-01
RMM:   2    -0.363395033618E+03   -0.31491E-02   -0.36153E-02  7817   0.509E-01    0.225E-01
RMM:   3    -0.363392886092E+03    0.21475E-02   -0.47049E-03  7972   0.144E-01    0.125E-01
RMM:   4    -0.363392698802E+03    0.18729E-03   -0.11574E-03  8057   0.549E-02    0.789E-02
RMM:   5    -0.363392632173E+03    0.66629E-04   -0.40647E-04  7926   0.392E-02    0.439E-02
RMM:   6    -0.363392623916E+03    0.82578E-05   -0.19112E-04  7313   0.231E-02    0.298E-02
RMM:   7    -0.363392612906E+03    0.11010E-04   -0.70501E-05  5769   0.143E-02    0.173E-02
RMM:   8    -0.363392610625E+03    0.22804E-05   -0.31688E-05  3857   0.114E-02
   7 F= -.36339261E+03 E0= -.36339838E+03  d E =-.839822E-02
       N       E                     dE             d eps       ncg     rms          rms(c)
DAV:   1    -0.363402620488E+03   -0.10008E-01   -0.72918E+00  5376   0.757E+00    0.994E-01
RMM:   2    -0.363430985982E+03   -0.28365E-01   -0.32409E-01  7793   0.153E+00    0.667E-01
RMM:   3    -0.363411872669E+03    0.19113E-01   -0.41513E-02  7966   0.438E-01    0.365E-01
RMM:   4    -0.363410302352E+03    0.15703E-02   -0.10151E-02  8112   0.163E-01    0.230E-01
RMM:   5    -0.363409766644E+03    0.53571E-03   -0.35816E-03  8035   0.117E-01    0.129E-01
RMM:   6    -0.363409731917E+03    0.34728E-04   -0.16988E-03  8454   0.676E-02    0.878E-02
RMM:   7    -0.363409671974E+03    0.59943E-04   -0.62165E-04  8266   0.387E-02    0.532E-02
RMM:   8    -0.363409681345E+03   -0.93713E-05   -0.27339E-04  6754   0.230E-02    0.361E-02
RMM:   9    -0.363409674504E+03    0.68408E-05   -0.13366E-04  6612   0.196E-02    0.184E-02
RMM:  10    -0.363409673025E+03    0.14795E-05   -0.54520E-05  5109   0.144E-02
   8 F= -.36340967E+03 E0= -.36341571E+03  d E =-.254606E-01
       N       E                     dE             d eps       ncg     rms          rms(c)
DAV:   1    -0.363376295673E+03    0.33379E-01   -0.29163E+01  5376   0.152E+01    0.194E+00
RMM:   2    -0.363490613677E+03   -0.11432E+00   -0.13068E+00  7791   0.305E+00    0.132E+00
RMM:   3    -0.363416408360E+03    0.74205E-01   -0.16719E-01  8097   0.886E-01    0.732E-01
RMM:   4    -0.363410115347E+03    0.62930E-02   -0.39334E-02  8074   0.319E-01    0.463E-01
RMM:   5    -0.363407974499E+03    0.21408E-02   -0.14296E-02  7976   0.235E-01    0.260E-01
RMM:   6    -0.363407774270E+03    0.20023E-03   -0.66266E-03  8448   0.135E-01    0.170E-01
RMM:   7    -0.363407614819E+03    0.15945E-03   -0.24938E-03  9077   0.769E-02    0.104E-01
RMM:   8    -0.363407686325E+03   -0.71505E-04   -0.11646E-03  8745   0.427E-02    0.704E-02
RMM:   9    -0.363407673774E+03    0.12551E-04   -0.48380E-04  7932   0.344E-02    0.384E-02
RMM:  10    -0.363407679732E+03   -0.59580E-05   -0.19572E-04  6651   0.221E-02    0.241E-02
RMM:  11    -0.363407679958E+03   -0.22570E-06   -0.11499E-04  5764   0.177E-02    0.132E-02
RMM:  12    -0.363407676990E+03    0.29681E-05   -0.36921E-05  4694   0.134E-02
   9 F= -.36340768E+03 E0= -.36341399E+03  d E =-.234646E-01
       N       E                     dE             d eps       ncg     rms          rms(c)
DAV:   1    -0.363407534912E+03    0.14505E-03   -0.86608E+00  5392   0.826E+00    0.109E+00
RMM:   2    -0.363439753832E+03   -0.32219E-01   -0.38003E-01  7832   0.165E+00    0.722E-01
RMM:   3    -0.363417110016E+03    0.22644E-01   -0.47612E-02  7890   0.464E-01    0.389E-01
RMM:   4    -0.363415246336E+03    0.18637E-02   -0.11871E-02  8178   0.177E-01    0.240E-01
RMM:   5    -0.363414652315E+03    0.59402E-03   -0.41645E-03  8226   0.126E-01    0.136E-01
RMM:   6    -0.363414669035E+03   -0.16720E-04   -0.18648E-03  8558   0.700E-02    0.918E-02
RMM:   7    -0.363414636402E+03    0.32634E-04   -0.67391E-04  8371   0.410E-02    0.558E-02
RMM:   8    -0.363414678770E+03   -0.42368E-04   -0.31032E-04  6973   0.248E-02    0.369E-02
RMM:   9    -0.363414691611E+03   -0.12841E-04   -0.13889E-04  6673   0.204E-02    0.189E-02
RMM:  10    -0.363414702396E+03   -0.10786E-04   -0.56768E-05  5113   0.146E-02    0.119E-02
RMM:  11    -0.363414709252E+03   -0.68555E-05   -0.28739E-05  4064   0.120E-02
  10 F= -.36341471E+03 E0= -.36342091E+03  d E =-.304968E-01
       N       E                     dE             d eps       ncg     rms          rms(c)
DAV:   1    -0.363453497963E+03   -0.38796E-01   -0.39372E+00  5992   0.626E+00    0.189E+00
RMM:   2    -0.363438468456E+03    0.15030E-01   -0.33174E-01  7142   0.154E+00    0.685E-01
RMM:   3    -0.363427754892E+03    0.10714E-01   -0.61871E-02  8028   0.486E-01    0.509E-01
RMM:   4    -0.363420762547E+03    0.69923E-02   -0.18167E-02  8189   0.263E-01    0.264E-01
RMM:   5    -0.363419878607E+03    0.88394E-03   -0.60387E-03  8149   0.150E-01    0.206E-01
RMM:   6    -0.363420077618E+03   -0.19901E-03   -0.23960E-03  8659   0.781E-02    0.132E-01
RMM:   7    -0.363420162310E+03   -0.84691E-04   -0.10435E-03  8475   0.570E-02    0.656E-02
RMM:   8    -0.363420283888E+03   -0.12158E-03   -0.50642E-04  7426   0.330E-02    0.459E-02
RMM:   9    -0.363420337870E+03   -0.53982E-04   -0.20801E-04  5955   0.249E-02    0.386E-02
RMM:  10    -0.363420396803E+03   -0.58934E-04   -0.11686E-04  5866   0.188E-02    0.221E-02
RMM:  11    -0.363420433511E+03   -0.36707E-04   -0.79602E-05  5217   0.166E-02    0.880E-03
RMM:  12    -0.363420437878E+03   -0.43670E-05   -0.29447E-05  4255   0.135E-02
  11 F= -.36342044E+03 E0= -.36342644E+03  d E =-.572863E-02
       N       E                     dE             d eps       ncg     rms          rms(c)
DAV:   1    -0.363421038923E+03   -0.60541E-03   -0.55418E-02  6160   0.742E-01    0.224E-01
RMM:   2    -0.363420854637E+03    0.18429E-03   -0.47379E-03  7571   0.183E-01    0.829E-02
RMM:   3    -0.363420700981E+03    0.15366E-03   -0.91428E-04  8075   0.576E-02    0.637E-02
RMM:   4    -0.363420593888E+03    0.10709E-03   -0.26288E-04  7855   0.320E-02    0.327E-02
RMM:   5    -0.363420573626E+03    0.20262E-04   -0.84467E-05  6171   0.198E-02    0.239E-02
RMM:   6    -0.363420567915E+03    0.57112E-05   -0.29568E-05  3522   0.114E-02
  12 F= -.36342057E+03 E0= -.36342660E+03  d E =-.585866E-02
       N       E                     dE             d eps       ncg     rms          rms(c)
DAV:   1    -0.363421962598E+03   -0.13890E-02   -0.22270E+00  5376   0.421E+00    0.412E-01
RMM:   2    -0.363428086830E+03   -0.61242E-02   -0.87633E-02  7228   0.839E-01    0.202E-01
RMM:   3    -0.363427378569E+03    0.70826E-03   -0.89002E-03  7876   0.229E-01    0.161E-01
RMM:   4    -0.363427216979E+03    0.16159E-03   -0.22413E-03  8916   0.689E-02    0.112E-01
RMM:   5    -0.363427149304E+03    0.67675E-04   -0.81389E-04  8217   0.489E-02    0.674E-02
RMM:   6    -0.363427104058E+03    0.45245E-04   -0.38532E-04  8231   0.389E-02    0.295E-02
RMM:   7    -0.363427102338E+03    0.17207E-05   -0.13866E-04  6320   0.178E-02    0.206E-02
RMM:   8    -0.363427099923E+03    0.24149E-05   -0.42111E-05  4771   0.146E-02
  13 F= -.36342710E+03 E0= -.36343317E+03  d E =-.653201E-02
       N       E                     dE             d eps       ncg     rms          rms(c)
DAV:   1    -0.363418688870E+03    0.84135E-02   -0.52650E+00  5376   0.648E+00    0.633E-01
RMM:   2    -0.363433284240E+03   -0.14595E-01   -0.20812E-01  7338   0.129E+00    0.318E-01
RMM:   3    -0.363431722425E+03    0.15618E-02   -0.21585E-02  7903   0.349E-01    0.250E-01
RMM:   4    -0.363431370716E+03    0.35171E-03   -0.54955E-03  9057   0.108E-01    0.176E-01
RMM:   5    -0.363431208930E+03    0.16179E-03   -0.19968E-03  8259   0.768E-02    0.104E-01
RMM:   6    -0.363431108004E+03    0.10093E-03   -0.92814E-04  8306   0.600E-02    0.455E-02
RMM:   7    -0.363431111703E+03   -0.36987E-05   -0.36773E-04  7951   0.276E-02    0.313E-02
RMM:   8    -0.363431109103E+03    0.26002E-05   -0.10247E-04  5869   0.173E-02    0.220E-02
RMM:   9    -0.363431110196E+03   -0.10934E-05   -0.74208E-05  5162   0.148E-02
  14 F= -.36343111E+03 E0= -.36343717E+03  d E =-.105423E-01
       N       E                     dE             d eps       ncg     rms          rms(c)
DAV:   1    -0.363432766233E+03   -0.16571E-02   -0.10890E+00  5392   0.290E+00    0.326E-01
RMM:   2    -0.363435883307E+03   -0.31171E-02   -0.40373E-02  7854   0.569E-01    0.200E-01
RMM:   3    -0.363434661933E+03    0.12214E-02   -0.50446E-03  7991   0.151E-01    0.126E-01
RMM:   4    -0.363434470359E+03    0.19157E-03   -0.11652E-03  8368   0.569E-02    0.758E-02
RMM:   5    -0.363434432173E+03    0.38186E-04   -0.51720E-04  8215   0.421E-02    0.418E-02
RMM:   6    -0.363434428916E+03    0.32573E-05   -0.20061E-04  7412   0.241E-02    0.252E-02
RMM:   7    -0.363434429597E+03   -0.68081E-06   -0.76318E-05  5384   0.149E-02
  15 F= -.36343443E+03 E0= -.36344057E+03  d E =-.331940E-02
       N       E                     dE             d eps       ncg     rms          rms(c)
DAV:   1    -0.363431173740E+03    0.32552E-02   -0.35987E+00  5376   0.528E+00    0.592E-01
RMM:   2    -0.363441514828E+03   -0.10341E-01   -0.13307E-01  7850   0.103E+00    0.365E-01
RMM:   3    -0.363437389757E+03    0.41251E-02   -0.16440E-02  7952   0.273E-01    0.226E-01
RMM:   4    -0.363436783941E+03    0.60582E-03   -0.38273E-03  8440   0.103E-01    0.134E-01
RMM:   5    -0.363436675164E+03    0.10878E-03   -0.16916E-03  8424   0.762E-02    0.744E-02
RMM:   6    -0.363436671870E+03    0.32946E-05   -0.67262E-04  8615   0.430E-02    0.461E-02
RMM:   7    -0.363436672642E+03   -0.77216E-06   -0.25808E-04  7362   0.239E-02    0.301E-02
RMM:   8    -0.363436687181E+03   -0.14539E-04   -0.98223E-05  5883   0.169E-02    0.191E-02
RMM:   9    -0.363436696087E+03   -0.89063E-05   -0.55301E-05  5059   0.138E-02
  16 F= -.36343670E+03 E0= -.36344294E+03  d E =-.558589E-02
       N       E                     dE             d eps       ncg     rms          rms(c)
DAV:   1    -0.363449641580E+03   -0.12954E-01   -0.17395E+00  6080   0.413E+00    0.114E+00
RMM:   2    -0.363444465810E+03    0.51758E-02   -0.13517E-01  7152   0.984E-01    0.419E-01
RMM:   3    -0.363440498162E+03    0.39676E-02   -0.23047E-02  8010   0.312E-01    0.316E-01
RMM:   4    -0.363437981785E+03    0.25164E-02   -0.71033E-03  8183   0.162E-01    0.169E-01
RMM:   5    -0.363437575190E+03    0.40660E-03   -0.22902E-03  8117   0.950E-02    0.128E-01
RMM:   6    -0.363437602125E+03   -0.26935E-04   -0.96259E-04  8531   0.487E-02    0.830E-02
RMM:   7    -0.363437570924E+03    0.31201E-04   -0.39044E-04  7540   0.359E-02    0.405E-02
RMM:   8    -0.363437583764E+03   -0.12840E-04   -0.20001E-04  6680   0.221E-02    0.280E-02
RMM:   9    -0.363437588732E+03   -0.49681E-05   -0.96481E-05  5223   0.182E-02
  17 F= -.36343759E+03 E0= -.36344400E+03  d E =-.892645E-03
       N       E                     dE             d eps       ncg     rms          rms(c)
DAV:   1    -0.363439111851E+03   -0.15281E-02   -0.17236E-01  6144   0.130E+00    0.369E-01
RMM:   2    -0.363438540171E+03    0.57168E-03   -0.13626E-02  7267   0.311E-01    0.137E-01
RMM:   3    -0.363438153974E+03    0.38620E-03   -0.23896E-03  8024   0.986E-02    0.105E-01
RMM:   4    -0.363437882974E+03    0.27100E-03   -0.72004E-04  8103   0.521E-02    0.545E-02
RMM:   5    -0.363437840276E+03    0.42698E-04   -0.23154E-04  7488   0.312E-02    0.394E-02
RMM:   6    -0.363437849659E+03   -0.93827E-05   -0.89402E-05  6247   0.163E-02
  18 F= -.36343785E+03 E0= -.36344421E+03  d E =-.115357E-02
       N       E                     dE             d eps       ncg     rms          rms(c)
DAV:   1    -0.363436911304E+03    0.92897E-03   -0.97658E-01  5376   0.282E+00    0.241E-01
RMM:   2    -0.363439741801E+03   -0.28305E-02   -0.36668E-02  6949   0.558E-01    0.126E-01
RMM:   3    -0.363439461451E+03    0.28035E-03   -0.39960E-03  7903   0.154E-01    0.104E-01
RMM:   4    -0.363439348850E+03    0.11260E-03   -0.84427E-04  8731   0.461E-02    0.635E-02
RMM:   5    -0.363439336498E+03    0.12352E-04   -0.37289E-04  7954   0.336E-02    0.366E-02
RMM:   6    -0.363439336164E+03    0.33410E-06   -0.13876E-04  7231   0.227E-02    0.165E-02
RMM:   7    -0.363439337441E+03   -0.12769E-05   -0.38786E-05  4433   0.123E-02
  19 F= -.36343934E+03 E0= -.36344567E+03  d E =-.148778E-02
       N       E                     dE             d eps       ncg     rms          rms(c)
DAV:   1    -0.363437793078E+03    0.15431E-02   -0.79374E-01  5376   0.255E+00    0.220E-01
RMM:   2    -0.363440124771E+03   -0.23317E-02   -0.30114E-02  7167   0.504E-01    0.118E-01
RMM:   3    -0.363439924165E+03    0.20061E-03   -0.34967E-03  7923   0.137E-01    0.965E-02
RMM:   4    -0.363439835589E+03    0.88576E-04   -0.75705E-04  8798   0.429E-02    0.590E-02
RMM:   5    -0.363439826433E+03    0.91554E-05   -0.33626E-04  7866   0.313E-02    0.328E-02
RMM:   6    -0.363439824773E+03    0.16607E-05   -0.12120E-04  6865   0.208E-02    0.147E-02
RMM:   7    -0.363439825625E+03   -0.85275E-06   -0.33591E-05  4353   0.122E-02
  20 F= -.36343983E+03 E0= -.36344614E+03  d E =-.197597E-02
       N       E                     dE             d eps       ncg     rms          rms(c)
DAV:   1    -0.363440231137E+03   -0.40636E-03   -0.16886E-01  5664   0.122E+00    0.197E-01
RMM:   2    -0.363440578186E+03   -0.34705E-03   -0.95714E-03  6925   0.261E-01    0.775E-02
RMM:   3    -0.363440450236E+03    0.12795E-03   -0.10396E-03  7845   0.773E-02    0.620E-02
RMM:   4    -0.363440375543E+03    0.74693E-04   -0.28791E-04  7691   0.288E-02    0.349E-02
RMM:   5    -0.363440369084E+03    0.64585E-05   -0.11607E-04  6798   0.207E-02    0.241E-02
RMM:   6    -0.363440374115E+03   -0.50310E-05   -0.41740E-05  4310   0.119E-02
  21 F= -.36344037E+03 E0= -.36344661E+03  d E =-.548490E-03
       N       E                     dE             d eps       ncg     rms          rms(c)
DAV:   1    -0.363440378246E+03   -0.91612E-05   -0.22487E-01  5480   0.141E+00    0.226E-01
RMM:   2    -0.363440842078E+03   -0.46383E-03   -0.12740E-02  6984   0.301E-01    0.897E-02
RMM:   3    -0.363440675546E+03    0.16653E-03   -0.14041E-03  7847   0.882E-02    0.718E-02
RMM:   4    -0.363440579534E+03    0.96012E-04   -0.39626E-04  7857   0.333E-02    0.412E-02
RMM:   5    -0.363440572546E+03    0.69884E-05   -0.16727E-04  7323   0.238E-02    0.290E-02
RMM:   6    -0.363440580626E+03   -0.80805E-05   -0.67359E-05  5423   0.140E-02
  22 F= -.36344058E+03 E0= -.36344673E+03  d E =-.755001E-03
       N       E                     dE             d eps       ncg     rms          rms(c)
DAV:   1    -0.363441080195E+03   -0.50765E-03   -0.58812E-02  6088   0.746E-01    0.185E-01
RMM:   2    -0.363441168092E+03   -0.87897E-04   -0.47994E-03  7565   0.179E-01    0.807E-02
RMM:   3    -0.363440973013E+03    0.19508E-03   -0.76211E-04  7954   0.564E-02    0.569E-02
RMM:   4    -0.363440905250E+03    0.67763E-04   -0.23113E-04  7787   0.271E-02    0.304E-02
RMM:   5    -0.363440887466E+03    0.17784E-04   -0.67132E-05  6042   0.182E-02    0.198E-02
RMM:   6    -0.363440883884E+03    0.35816E-05   -0.28685E-05  3624   0.108E-02
  23 F= -.36344088E+03 E0= -.36344702E+03  d E =-.303258E-03
       N       E                     dE             d eps       ncg     rms          rms(c)
DAV:   1    -0.363441393557E+03   -0.50609E-03   -0.12094E-01  5664   0.107E+00    0.251E-01
RMM:   2    -0.363441566203E+03   -0.17265E-03   -0.94958E-03  7191   0.257E-01    0.109E-01
RMM:   3    -0.363441162390E+03    0.40381E-03   -0.13150E-03  7865   0.790E-02    0.742E-02
RMM:   4    -0.363441040307E+03    0.12208E-03   -0.40429E-04  8012   0.359E-02    0.417E-02
RMM:   5    -0.363441010869E+03    0.29438E-04   -0.12389E-04  7140   0.235E-02    0.293E-02
RMM:   6    -0.363441007301E+03    0.35678E-05   -0.55871E-05  5014   0.136E-02
  24 F= -.36344101E+03 E0= -.36344714E+03  d E =-.426675E-03
       N       E                     dE             d eps       ncg     rms          rms(c)
DAV:   1    -0.363441090995E+03   -0.80126E-04   -0.14402E-02  5600   0.336E-01    0.350E-02
RMM:   2    -0.363441121316E+03   -0.30321E-04   -0.56668E-04  7586   0.686E-02    0.200E-02
RMM:   3    -0.363441116648E+03    0.46678E-05   -0.67084E-05  5025   0.194E-02
  25 F= -.36344112E+03 E0= -.36344726E+03  d E =-.109347E-03
       N       E                     dE             d eps       ncg     rms          rms(c)
DAV:   1    -0.363441185053E+03   -0.63738E-04   -0.12952E-01  5424   0.101E+00    0.102E-01
RMM:   2    -0.363441440325E+03   -0.25527E-03   -0.49626E-03  7450   0.203E-01    0.543E-02
RMM:   3    -0.363441418283E+03    0.22042E-04   -0.67135E-04  7756   0.558E-02    0.406E-02
RMM:   4    -0.363441397605E+03    0.20678E-04   -0.20809E-04  7067   0.222E-02    0.221E-02
RMM:   5    -0.363441393453E+03    0.41519E-05   -0.73335E-05  5229   0.138E-02
  26 F= -.36344139E+03 E0= -.36344753E+03  d E =-.386152E-03
       N       E                     dE             d eps       ncg     rms          rms(c)
DAV:   1    -0.363440766949E+03    0.63066E-03   -0.51765E-01  5376   0.201E+00    0.196E-01
RMM:   2    -0.363441839046E+03   -0.10721E-02   -0.19446E-02  7442   0.404E-01    0.104E-01
RMM:   3    -0.363441770669E+03    0.68377E-04   -0.25162E-03  7893   0.111E-01    0.795E-02
RMM:   4    -0.363441678950E+03    0.91719E-04   -0.72020E-04  8554   0.417E-02    0.430E-02
RMM:   5    -0.363441671666E+03    0.72839E-05   -0.29429E-04  7391   0.282E-02    0.235E-02
RMM:   6    -0.363441668676E+03    0.29899E-05   -0.11057E-04  5873   0.171E-02    0.120E-02
RMM:   7    -0.363441668093E+03    0.58322E-06   -0.35600E-05  4674   0.119E-02
  27 F= -.36344167E+03 E0= -.36344783E+03  d E =-.660792E-03
       N       E                     dE             d eps       ncg     rms          rms(c)
DAV:   1    -0.363442053137E+03   -0.38446E-03   -0.50471E-02  6008   0.673E-01    0.172E-01
RMM:   2    -0.363441986284E+03    0.66853E-04   -0.34127E-03  7511   0.155E-01    0.669E-02
RMM:   3    -0.363441883963E+03    0.10232E-03   -0.62169E-04  8081   0.491E-02    0.497E-02
RMM:   4    -0.363441826113E+03    0.57851E-04   -0.18210E-04  7744   0.254E-02    0.252E-02
RMM:   5    -0.363441819499E+03    0.66141E-05   -0.56775E-05  5636   0.161E-02
  28 F= -.36344182E+03 E0= -.36344795E+03  d E =-.151406E-03
       N       E                     dE             d eps       ncg     rms          rms(c)
DAV:   1    -0.363442618262E+03   -0.79215E-03   -0.17128E-01  5728   0.124E+00    0.309E-01
RMM:   2    -0.363442441627E+03    0.17663E-03   -0.11486E-02  7200   0.286E-01    0.123E-01
RMM:   3    -0.363442036106E+03    0.40552E-03   -0.19596E-03  8052   0.906E-02    0.885E-02
RMM:   4    -0.363441854455E+03    0.18165E-03   -0.58093E-04  8043   0.455E-02    0.469E-02
RMM:   5    -0.363441835287E+03    0.19168E-04   -0.19189E-04  7400   0.285E-02    0.366E-02
RMM:   6    -0.363441850848E+03   -0.15561E-04   -0.86852E-05  6078   0.151E-02    0.243E-02
RMM:   7    -0.363441861648E+03   -0.10800E-04   -0.33133E-05  3831   0.122E-02    0.132E-02
RMM:   8    -0.363441872082E+03   -0.10434E-04   -0.25525E-05  3674   0.112E-02    0.766E-03
RMM:   9    -0.363441876453E+03   -0.43715E-05   -0.12508E-05  3206   0.109E-02
  29 F= -.36344188E+03 E0= -.36344797E+03  d E =-.208360E-03
       N       E                     dE             d eps       ncg     rms          rms(c)
DAV:   1    -0.363441975531E+03   -0.10345E-03   -0.12882E-02  6088   0.340E-01    0.894E-02
RMM:   2    -0.363441969937E+03    0.55940E-05   -0.89344E-04  7299   0.787E-02    0.367E-02
RMM:   3    -0.363441938253E+03    0.31684E-04   -0.15951E-04  6894   0.254E-02    0.278E-02
RMM:   4    -0.363441919369E+03    0.18884E-04   -0.42238E-05  4416   0.158E-02    0.149E-02
RMM:   5    -0.363441915067E+03    0.43025E-05   -0.12327E-05  2920   0.114E-02
  30 F= -.36344192E+03 E0= -.36344802E+03  d E =-.246974E-03
       N       E                     dE             d eps       ncg     rms          rms(c)
DAV:   1    -0.363441962571E+03   -0.43202E-04   -0.11868E-02  5664   0.295E-01    0.243E-02
RMM:   2    -0.363441989534E+03   -0.26963E-04   -0.36009E-04  6410   0.550E-02    0.122E-02
RMM:   3    -0.363441985459E+03    0.40747E-05   -0.29227E-05  3627   0.173E-02
  31 F= -.36344199E+03 E0= -.36344809E+03  d E =-.703920E-04
       N       E                     dE             d eps       ncg     rms          rms(c)
DAV:   1    -0.363441953881E+03    0.35653E-04   -0.10667E-01  5504   0.879E-01    0.718E-02
RMM:   2    -0.363442215291E+03   -0.26141E-03   -0.32652E-03  7021   0.162E-01    0.390E-02
RMM:   3    -0.363442197294E+03    0.17997E-04   -0.42347E-04  7452   0.466E-02    0.323E-02
RMM:   4    -0.363442192023E+03    0.52718E-05   -0.10277E-04  5743   0.145E-02    0.217E-02
RMM:   5    -0.363442191618E+03    0.40471E-06   -0.32152E-05  3998   0.103E-02
  32 F= -.36344219E+03 E0= -.36344829E+03  d E =-.276551E-03
       N       E                     dE             d eps       ncg     rms          rms(c)
DAV:   1    -0.363441543812E+03    0.64821E-03   -0.42506E-01  5488   0.176E+00    0.141E-01
RMM:   2    -0.363442601677E+03   -0.10579E-02   -0.12823E-02  6829   0.325E-01    0.718E-02
RMM:   3    -0.363442549935E+03    0.51741E-04   -0.16798E-03  7884   0.929E-02    0.612E-02
RMM:   4    -0.363442529972E+03    0.19963E-04   -0.35605E-04  7949   0.260E-02    0.406E-02
RMM:   5    -0.363442532204E+03   -0.22320E-05   -0.13343E-04  6812   0.180E-02    0.256E-02
RMM:   6    -0.363442529687E+03    0.25177E-05   -0.58554E-05  5849   0.156E-02
  33 F= -.36344253E+03 E0= -.36344861E+03  d E =-.614620E-03
       N       E                     dE             d eps       ncg     rms          rms(c)
DAV:   1    -0.363439015865E+03    0.35163E-02   -0.17023E+00  5488   0.352E+00    0.282E-01
RMM:   2    -0.363443234901E+03   -0.42190E-02   -0.51330E-02  6741   0.652E-01    0.141E-01
RMM:   3    -0.363443003288E+03    0.23161E-03   -0.65670E-03  7974   0.188E-01    0.121E-01
RMM:   4    -0.363442911841E+03    0.91448E-04   -0.13386E-03  8954   0.510E-02    0.803E-02
RMM:   5    -0.363442911829E+03    0.11398E-07   -0.51289E-04  8188   0.368E-02    0.507E-02
RMM:   6    -0.363442900688E+03    0.11141E-04   -0.23752E-04  8079   0.305E-02    0.203E-02
RMM:   7    -0.363442901838E+03   -0.11498E-05   -0.77298E-05  5341   0.139E-02
  34 F= -.36344290E+03 E0= -.36344896E+03  d E =-.986771E-03
       N       E                     dE             d eps       ncg     rms          rms(c)
DAV:   1    -0.363443613350E+03   -0.71266E-03   -0.12298E-01  5816   0.101E+00    0.210E-01
RMM:   2    -0.363443683091E+03   -0.69741E-04   -0.71268E-03  7517   0.223E-01    0.885E-02
RMM:   3    -0.363443504806E+03    0.17829E-03   -0.98976E-04  8001   0.670E-02    0.650E-02
RMM:   4    -0.363443420984E+03    0.83822E-04   -0.33799E-04  8047   0.319E-02    0.359E-02
RMM:   5    -0.363443399962E+03    0.21023E-04   -0.11103E-04  6953   0.209E-02    0.250E-02
RMM:   6    -0.363443396148E+03    0.38137E-05   -0.42908E-05  4238   0.113E-02
  35 F= -.36344340E+03 E0= -.36344948E+03  d E =-.494310E-03
       N       E                     dE             d eps       ncg     rms          rms(c)
DAV:   1    -0.363445719617E+03   -0.23197E-02   -0.10680E+00  5600   0.296E+00    0.600E-01
RMM:   2    -0.363446331104E+03   -0.61149E-03   -0.60214E-02  7196   0.652E-01    0.253E-01
RMM:   3    -0.363444672138E+03    0.16590E-02   -0.75773E-03  7857   0.199E-01    0.182E-01
RMM:   4    -0.363444019174E+03    0.65296E-03   -0.26210E-03  8172   0.893E-02    0.102E-01
RMM:   5    -0.363443869691E+03    0.14948E-03   -0.86790E-04  8098   0.576E-02    0.726E-02
RMM:   6    -0.363443875128E+03   -0.54368E-05   -0.37052E-04  7757   0.296E-02    0.485E-02
RMM:   7    -0.363443858733E+03    0.16396E-04   -0.14973E-04  6686   0.218E-02    0.259E-02
RMM:   8    -0.363443858802E+03   -0.69631E-07   -0.82056E-05  5215   0.153E-02
  36 F= -.36344386E+03 E0= -.36345003E+03  d E =-.956965E-03
       N       E                     dE             d eps       ncg     rms          rms(c)
DAV:   1    -0.363443923005E+03   -0.64272E-04   -0.13779E-01  5440   0.980E-01    0.785E-02
RMM:   2    -0.363444203416E+03   -0.28041E-03   -0.40150E-03  7225   0.184E-01    0.430E-02
RMM:   3    -0.363444197868E+03    0.55488E-05   -0.54723E-04  7652   0.511E-02    0.317E-02
RMM:   4    -0.363444194052E+03    0.38151E-05   -0.14775E-04  6509   0.174E-02    0.213E-02
RMM:   5    -0.363444190153E+03    0.38998E-05   -0.45189E-05  4371   0.108E-02
  37 F= -.36344419E+03 E0= -.36345036E+03  d E =-.331350E-03
       N       E                     dE             d eps       ncg     rms          rms(c)
DAV:   1    -0.363442656495E+03    0.15376E-02   -0.12396E+00  5376   0.294E+00    0.230E-01
RMM:   2    -0.363445201525E+03   -0.25450E-02   -0.35893E-02  7251   0.554E-01    0.126E-01
RMM:   3    -0.363445145441E+03    0.56085E-04   -0.46585E-03  7917   0.151E-01    0.923E-02
RMM:   4    -0.363445106650E+03    0.38791E-04   -0.11209E-03  8799   0.483E-02    0.614E-02
RMM:   5    -0.363445091236E+03    0.15414E-04   -0.40413E-04  7860   0.322E-02    0.324E-02
RMM:   6    -0.363445083694E+03    0.75419E-05   -0.16052E-04  6729   0.204E-02    0.162E-02
RMM:   7    -0.363445082187E+03    0.15069E-05   -0.53715E-05  4574   0.132E-02
  38 F= -.36344508E+03 E0= -.36345126E+03  d E =-.122338E-02
       N       E                     dE             d eps       ncg     rms          rms(c)
DAV:   1    -0.363436472303E+03    0.86114E-02   -0.49605E+00  5376   0.589E+00    0.464E-01
RMM:   2    -0.363446771330E+03   -0.10299E-01   -0.14490E-01  7266   0.111E+00    0.256E-01
RMM:   3    -0.363446476264E+03    0.29507E-03   -0.18253E-02  7945   0.302E-01    0.189E-01
RMM:   4    -0.363446281675E+03    0.19459E-03   -0.44022E-03  8938   0.943E-02    0.128E-01
RMM:   5    -0.363446201785E+03    0.79890E-04   -0.16263E-03  8366   0.652E-02    0.659E-02
RMM:   6    -0.363446180078E+03    0.21708E-04   -0.65197E-04  8324   0.410E-02    0.321E-02
RMM:   7    -0.363446176136E+03    0.39420E-05   -0.21212E-04  6442   0.206E-02    0.197E-02
RMM:   8    -0.363446182314E+03   -0.61781E-05   -0.11526E-04  5677   0.169E-02    0.117E-02
RMM:   9    -0.363446182870E+03   -0.55604E-06   -0.42836E-05  4812   0.118E-02
  39 F= -.36344618E+03 E0= -.36345239E+03  d E =-.232407E-02
       N       E                     dE             d eps       ncg     rms          rms(c)
DAV:   1    -0.363447699534E+03   -0.15172E-02   -0.36845E-01  5800   0.170E+00    0.365E-01
RMM:   2    -0.363447755746E+03   -0.56211E-04   -0.18868E-02  7620   0.365E-01    0.153E-01
RMM:   3    -0.363447244479E+03    0.51127E-03   -0.30927E-03  8101   0.111E-01    0.111E-01
RMM:   4    -0.363446968930E+03    0.27555E-03   -0.96064E-04  8182   0.560E-02    0.552E-02
RMM:   5    -0.363446933949E+03    0.34982E-04   -0.33425E-04  8067   0.346E-02    0.400E-02
RMM:   6    -0.363446949317E+03   -0.15368E-04   -0.12815E-04  6692   0.176E-02    0.255E-02
RMM:   7    -0.363446958226E+03   -0.89086E-05   -0.49704E-05  4557   0.135E-02
  40 F= -.36344696E+03 E0= -.36345313E+03  d E =-.775356E-03
       N       E                     dE             d eps       ncg     rms          rms(c)
DAV:   1    -0.363448782966E+03   -0.18336E-02   -0.84021E-01  5600   0.257E+00    0.547E-01
RMM:   2    -0.363448972682E+03   -0.18972E-03   -0.42630E-02  7420   0.555E-01    0.227E-01
RMM:   3    -0.363447774508E+03    0.11982E-02   -0.66445E-03  8017   0.171E-01    0.164E-01
RMM:   4    -0.363447157609E+03    0.61690E-03   -0.20659E-03  8174   0.819E-02    0.822E-02
RMM:   5    -0.363447085169E+03    0.72440E-04   -0.70147E-04  8294   0.510E-02    0.607E-02
RMM:   6    -0.363447116950E+03   -0.31781E-04   -0.28055E-04  7418   0.256E-02    0.390E-02
RMM:   7    -0.363447134867E+03   -0.17917E-04   -0.11174E-04  6347   0.192E-02    0.225E-02
RMM:   8    -0.363447154405E+03   -0.19537E-04   -0.66429E-05  4823   0.148E-02    0.142E-02
RMM:   9    -0.363447164329E+03   -0.99247E-05   -0.37108E-05  4410   0.122E-02
  41 F= -.36344716E+03 E0= -.36345329E+03  d E =-.981459E-03
       N       E                     dE             d eps       ncg     rms          rms(c)
DAV:   1    -0.363447405623E+03   -0.25122E-03   -0.63919E-02  5968   0.709E-01    0.156E-01
RMM:   2    -0.363447433047E+03   -0.27423E-04   -0.33085E-03  7402   0.152E-01    0.670E-02
RMM:   3    -0.363447335233E+03    0.97813E-04   -0.54055E-04  7986   0.478E-02    0.494E-02
RMM:   4    -0.363447278034E+03    0.57199E-04   -0.15990E-04  7401   0.236E-02    0.244E-02
RMM:   5    -0.363447265243E+03    0.12791E-04   -0.45494E-05  4512   0.158E-02    0.172E-02
RMM:   6    -0.363447261402E+03    0.38413E-05   -0.16665E-05  3113   0.970E-03
  42 F= -.36344726E+03 E0= -.36345340E+03  d E =-.107853E-02
       N       E                     dE             d eps       ncg     rms          rms(c)
DAV:   1    -0.363447370528E+03   -0.10529E-03   -0.12435E-01  5552   0.893E-01    0.647E-02
RMM:   2    -0.363447604872E+03   -0.23434E-03   -0.30284E-03  6960   0.158E-01    0.385E-02
RMM:   3    -0.363447581011E+03    0.23861E-04   -0.38322E-04  7346   0.451E-02    0.284E-02
RMM:   4    -0.363447572917E+03    0.80934E-05   -0.91668E-05  5862   0.142E-02
  43 F= -.36344757E+03 E0= -.36345372E+03  d E =-.311516E-03
       N       E                     dE             d eps       ncg     rms          rms(c)
DAV:   1    -0.363446316133E+03    0.12649E-02   -0.11186E+00  5488   0.268E+00    0.199E-01
RMM:   2    -0.363448496977E+03   -0.21808E-02   -0.27883E-02  7199   0.475E-01    0.123E-01
RMM:   3    -0.363448304136E+03    0.19284E-03   -0.39295E-03  7910   0.133E-01    0.903E-02
RMM:   4    -0.363448240421E+03    0.63715E-04   -0.89166E-04  8569   0.415E-02    0.563E-02
RMM:   5    -0.363448230729E+03    0.96922E-05   -0.35332E-04  7624   0.299E-02    0.296E-02
RMM:   6    -0.363448230502E+03    0.22629E-06   -0.13970E-04  6888   0.191E-02    0.148E-02
RMM:   7    -0.363448228210E+03    0.22928E-05   -0.38276E-05  4271   0.120E-02
  44 F= -.36344823E+03 E0= -.36345442E+03  d E =-.966808E-03
       N       E                     dE             d eps       ncg     rms          rms(c)
DAV:   1    -0.363440343107E+03    0.78874E-02   -0.44779E+00  5376   0.535E+00    0.395E-01
RMM:   2    -0.363449253232E+03   -0.89101E-02   -0.11292E-01  7202   0.955E-01    0.246E-01
RMM:   3    -0.363448261005E+03    0.99223E-03   -0.15116E-02  7923   0.269E-01    0.173E-01
RMM:   4    -0.363448056662E+03    0.20434E-03   -0.35285E-03  8907   0.819E-02    0.111E-01
RMM:   5    -0.363448007459E+03    0.49203E-04   -0.13402E-03  8486   0.569E-02    0.593E-02
RMM:   6    -0.363448009602E+03   -0.21429E-05   -0.55160E-04  8382   0.376E-02    0.295E-02
RMM:   7    -0.363448002303E+03    0.72989E-05   -0.18714E-04  6558   0.199E-02    0.159E-02
RMM:   8    -0.363448008339E+03   -0.60354E-05   -0.80525E-05  5123   0.147E-02
  45 F= -.36344801E+03 E0= -.36345429E+03  d E =-.746937E-03
       N       E                     dE             d eps       ncg     rms          rms(c)
DAV:   1    -0.363444735164E+03    0.32671E-02   -0.22352E+00  5488   0.378E+00    0.280E-01
RMM:   2    -0.363448964337E+03   -0.42292E-02   -0.54430E-02  6928   0.671E-01    0.168E-01
RMM:   3    -0.363448591747E+03    0.37259E-03   -0.73181E-03  7896   0.192E-01    0.124E-01
RMM:   4    -0.363448441332E+03    0.15042E-03   -0.15696E-03  8774   0.551E-02    0.780E-02
RMM:   5    -0.363448414728E+03    0.26603E-04   -0.61813E-04  8187   0.401E-02    0.427E-02
RMM:   6    -0.363448402991E+03    0.11737E-04   -0.23867E-04  7522   0.263E-02    0.200E-02
RMM:   7    -0.363448397590E+03    0.54015E-05   -0.73933E-05  5100   0.140E-02
  46 F= -.36344840E+03 E0= -.36345461E+03  d E =-.113619E-02
       N       E                     dE             d eps       ncg     rms          rms(c)
DAV:   1    -0.363453038303E+03   -0.46353E-02   -0.22311E-01  6440   0.157E+00    0.583E-01
RMM:   2    -0.363451324805E+03    0.17135E-02   -0.26122E-02  7856   0.412E-01    0.232E-01
RMM:   3    -0.363449602348E+03    0.17225E-02   -0.56230E-03  8173   0.123E-01    0.160E-01
RMM:   4    -0.363448939387E+03    0.66296E-03   -0.17906E-03  8174   0.842E-02    0.841E-02
RMM:   5    -0.363448800036E+03    0.13935E-03   -0.52978E-04  7983   0.488E-02    0.615E-02
RMM:   6    -0.363448801079E+03   -0.10429E-05   -0.21361E-04  6975   0.235E-02    0.429E-02
RMM:   7    -0.363448787388E+03    0.13690E-04   -0.75464E-05  5457   0.171E-02    0.209E-02
RMM:   8    -0.363448786385E+03    0.10029E-05   -0.55179E-05  4175   0.138E-02
  47 F= -.36344879E+03 E0= -.36345510E+03  d E =-.388796E-03
       N       E                     dE             d eps       ncg     rms          rms(c)
DAV:   1    -0.363448838262E+03   -0.50874E-04   -0.19711E-03  6800   0.145E-01    0.611E-02
RMM:   2    -0.363448819655E+03    0.18607E-04   -0.28365E-04  7778   0.394E-02    0.273E-02
RMM:   3    -0.363448803407E+03    0.16249E-04   -0.67541E-05  6127   0.132E-02    0.211E-02
RMM:   4    -0.363448793475E+03    0.99312E-05   -0.18416E-05  3020   0.109E-02
  48 F= -.36344879E+03 E0= -.36345510E+03  d E =-.395886E-03
       N       E                     dE             d eps       ncg     rms          rms(c)
DAV:   1    -0.363448862232E+03   -0.58825E-04   -0.36292E-03  6440   0.202E-01    0.749E-02
RMM:   2    -0.363448826433E+03    0.35799E-04   -0.46095E-04  7736   0.541E-02    0.310E-02
RMM:   3    -0.363448796097E+03    0.30335E-04   -0.89908E-05  6457   0.161E-02    0.224E-02
RMM:   4    -0.363448784509E+03    0.11588E-04   -0.22001E-05  2927   0.128E-02    0.133E-02
RMM:   5    -0.363448783909E+03    0.60085E-06   -0.95471E-06  2841   0.111E-02
  49 F= -.36344878E+03 E0= -.36345507E+03  d E =-.386319E-03
       N       E                     dE             d eps       ncg     rms          rms(c)
DAV:   1    -0.363448922427E+03   -0.13792E-03   -0.50506E-02  5440   0.625E-01    0.426E-02
RMM:   2    -0.363449072680E+03   -0.15025E-03   -0.16824E-03  6430   0.120E-01    0.252E-02
RMM:   3    -0.363449055709E+03    0.16971E-04   -0.17105E-04  6584   0.361E-02    0.193E-02
RMM:   4    -0.363449053853E+03    0.18559E-05   -0.41767E-05  4421   0.115E-02
  50 F= -.36344905E+03 E0= -.36345536E+03  d E =-.269945E-03
       N       E                     dE             d eps       ncg     rms          rms(c)
DAV:   1    -0.363448355929E+03    0.69978E-03   -0.45402E-01  5376   0.187E+00    0.130E-01
RMM:   2    -0.363449697496E+03   -0.13416E-02   -0.15252E-02  6786   0.361E-01    0.787E-02
RMM:   3    -0.363449581766E+03    0.11573E-03   -0.18529E-03  7858   0.104E-01    0.619E-02
RMM:   4    -0.363449554417E+03    0.27349E-04   -0.38594E-04  8148   0.293E-02    0.382E-02
RMM:   5    -0.363449554769E+03   -0.35191E-06   -0.15982E-04  7059   0.209E-02    0.220E-02
RMM:   6    -0.363449551414E+03    0.33548E-05   -0.60608E-05  5604   0.148E-02
  51 F= -.36344955E+03 E0= -.36345591E+03  d E =-.767506E-03
       N       E                     dE             d eps       ncg     rms          rms(c)
DAV:   1    -0.363444492343E+03    0.50624E-02   -0.18175E+00  5376   0.375E+00    0.258E-01
RMM:   2    -0.363449857565E+03   -0.53652E-02   -0.60975E-02  6737   0.721E-01    0.154E-01
RMM:   3    -0.363449337462E+03    0.52010E-03   -0.70650E-03  7904   0.208E-01    0.119E-01
RMM:   4    -0.363449234186E+03    0.10328E-03   -0.14437E-03  8985   0.564E-02    0.753E-02
RMM:   5    -0.363449226180E+03    0.80064E-05   -0.59552E-04  8449   0.410E-02    0.444E-02
RMM:   6    -0.363449212769E+03    0.13411E-04   -0.23587E-04  8007   0.283E-02    0.181E-02
RMM:   7    -0.363449211626E+03    0.11436E-05   -0.72416E-05  5317   0.141E-02
  52 F= -.36344921E+03 E0= -.36345567E+03  d E =-.427717E-03
       N       E                     dE             d eps       ncg     rms          rms(c)
DAV:   1    -0.363447303056E+03    0.19097E-02   -0.94121E-01  5376   0.270E+00    0.185E-01
RMM:   2    -0.363450023345E+03   -0.27203E-02   -0.30995E-02  6336   0.519E-01    0.109E-01
RMM:   3    -0.363449732707E+03    0.29064E-03   -0.34228E-03  7868   0.152E-01    0.860E-02
RMM:   4    -0.363449665080E+03    0.67627E-04   -0.66084E-04  8736   0.388E-02    0.544E-02
RMM:   5    -0.363449656091E+03    0.89891E-05   -0.27116E-04  7795   0.288E-02    0.326E-02
RMM:   6    -0.363449644077E+03    0.12013E-04   -0.10383E-04  7025   0.200E-02    0.130E-02
RMM:   7    -0.363449641793E+03    0.22842E-05   -0.26986E-05  3787   0.108E-02
  53 F= -.36344964E+03 E0= -.36345603E+03  d E =-.857884E-03
       N       E                     dE             d eps       ncg     rms          rms(c)
DAV:   1    -0.363449770680E+03   -0.12660E-03   -0.92240E-02  5392   0.857E-01    0.105E-01
RMM:   2    -0.363449958776E+03   -0.18810E-03   -0.37107E-03  7776   0.172E-01    0.502E-02
RMM:   3    -0.363449931153E+03    0.27623E-04   -0.37120E-04  7835   0.438E-02    0.366E-02
RMM:   4    -0.363449912115E+03    0.19037E-04   -0.10306E-04  6519   0.173E-02    0.209E-02
RMM:   5    -0.363449909363E+03    0.27520E-05   -0.39078E-05  4714   0.114E-02
  54 F= -.36344991E+03 E0= -.36345630E+03  d E =-.267570E-03
       N       E                     dE             d eps       ncg     rms          rms(c)
DAV:   1    -0.363449717492E+03    0.19462E-03   -0.22166E-01  5376   0.133E+00    0.160E-01
RMM:   2    -0.363450188509E+03   -0.47102E-03   -0.90546E-03  7858   0.267E-01    0.806E-02
RMM:   3    -0.363450130461E+03    0.58048E-04   -0.10079E-03  7900   0.677E-02    0.574E-02
RMM:   4    -0.363450090605E+03    0.39856E-04   -0.29181E-04  7755   0.276E-02    0.336E-02
RMM:   5    -0.363450087029E+03    0.35762E-05   -0.12662E-04  6946   0.192E-02    0.213E-02
RMM:   6    -0.363450087669E+03   -0.63984E-06   -0.42694E-05  4393   0.117E-02
  55 F= -.36345009E+03 E0= -.36345649E+03  d E =-.445876E-03
       N       E                     dE             d eps       ncg     rms          rms(c)
DAV:   1    -0.363450728615E+03   -0.64159E-03   -0.73800E-02  6056   0.844E-01    0.234E-01
RMM:   2    -0.363450621110E+03    0.10750E-03   -0.60426E-03  7674   0.203E-01    0.925E-02
RMM:   3    -0.363450396929E+03    0.22418E-03   -0.11191E-03  8118   0.638E-02    0.693E-02
RMM:   4    -0.363450281708E+03    0.11522E-03   -0.32966E-04  7955   0.341E-02    0.360E-02
RMM:   5    -0.363450257415E+03    0.24293E-04   -0.10697E-04  6840   0.220E-02    0.253E-02
RMM:   6    -0.363450252898E+03    0.45170E-05   -0.39682E-05  4188   0.117E-02
  56 F= -.36345025E+03 E0= -.36345668E+03  d E =-.165229E-03
       N       E                     dE             d eps       ncg     rms          rms(c)
DAV:   1    -0.363450272992E+03   -0.15577E-04   -0.45459E-03  5888   0.211E-01    0.524E-02
RMM:   2    -0.363450271191E+03    0.18009E-05   -0.35555E-04  7464   0.503E-02    0.213E-02
RMM:   3    -0.363450254085E+03    0.17106E-04   -0.49552E-05  5130   0.152E-02    0.160E-02
RMM:   4    -0.363450246950E+03    0.71350E-05   -0.14147E-05  3133   0.112E-02
  57 F= -.36345025E+03 E0= -.36345669E+03  d E =-.159280E-03
       N       E                     dE             d eps       ncg     rms          rms(c)
DAV:   1    -0.363450327763E+03   -0.73679E-04   -0.18320E-02  6000   0.421E-01    0.112E-01
RMM:   2    -0.363450303414E+03    0.24349E-04   -0.14988E-03  7428   0.102E-01    0.445E-02
RMM:   3    -0.363450240802E+03    0.62612E-04   -0.25472E-04  7425   0.319E-02    0.327E-02
RMM:   4    -0.363450213035E+03    0.27767E-04   -0.75755E-05  5633   0.176E-02    0.183E-02
RMM:   5    -0.363450206248E+03    0.67867E-05   -0.20885E-05  3255   0.136E-02
  58 F= -.36345021E+03 E0= -.36345667E+03  d E =-.118579E-03
       N       E                     dE             d eps       ncg     rms          rms(c)
DAV:   1    -0.363450335009E+03   -0.12197E-03   -0.13557E-02  6024   0.360E-01    0.104E-01
RMM:   2    -0.363450299462E+03    0.35547E-04   -0.11244E-03  7352   0.878E-02    0.419E-02
RMM:   3    -0.363450258084E+03    0.41378E-04   -0.20164E-04  7030   0.280E-02    0.309E-02
RMM:   4    -0.363450234171E+03    0.23913E-04   -0.57812E-05  5589   0.167E-02    0.158E-02
RMM:   5    -0.363450229040E+03    0.51310E-05   -0.14588E-05  2893   0.117E-02
  59 F= -.36345023E+03 E0= -.36345667E+03  d E =-.141371E-03
       N       E                     dE             d eps       ncg     rms          rms(c)
DAV:   1    -0.363450233453E+03    0.71783E-06   -0.21886E-04  5736   0.479E-02    0.117E-02
RMM:   2    -0.363450233606E+03   -0.15301E-06   -0.17911E-05  2852   0.120E-02
  60 F= -.36345023E+03 E0= -.36345667E+03  d E =-.145937E-03
       N       E                     dE             d eps       ncg     rms          rms(c)
DAV:   1    -0.363450151723E+03    0.81731E-04   -0.54975E-02  5424   0.675E-01    0.423E-02
RMM:   2    -0.363450323447E+03   -0.17172E-03   -0.20056E-03  6040   0.132E-01    0.229E-02
RMM:   3    -0.363450311663E+03    0.11784E-04   -0.17875E-04  6620   0.402E-02    0.183E-02
RMM:   4    -0.363450311191E+03    0.47171E-06   -0.48091E-05  4613   0.111E-02
  61 F= -.36345031E+03 E0= -.36345676E+03  d E =-.775850E-04
       N       E                     dE             d eps       ncg     rms          rms(c)
DAV:   1    -0.363450292879E+03    0.18784E-04   -0.14788E-02  5488   0.348E-01    0.253E-02
RMM:   2    -0.363450344280E+03   -0.51401E-04   -0.58671E-04  7099   0.698E-02    0.168E-02
RMM:   3    -0.363450340630E+03    0.36507E-05   -0.69114E-05  4970   0.205E-02
  62 F= -.36345034E+03 E0= -.36345678E+03  d E =-.107023E-03
       N       E                     dE             d eps       ncg     rms          rms(c)
DAV:   1    -0.363450901986E+03   -0.55771E-03   -0.22161E-02  7256   0.514E-01    0.197E-01
RMM:   2    -0.363450656513E+03    0.24547E-03   -0.33979E-03  7972   0.141E-01    0.826E-02
RMM:   3    -0.363450455904E+03    0.20061E-03   -0.67385E-04  8112   0.405E-02    0.543E-02
RMM:   4    -0.363450386657E+03    0.69247E-04   -0.22052E-04  7837   0.290E-02    0.298E-02
RMM:   5    -0.363450371761E+03    0.14897E-04   -0.73282E-05  6775   0.175E-02    0.203E-02
RMM:   6    -0.363450377132E+03   -0.53712E-05   -0.18318E-05  3147   0.968E-03
  63 F= -.36345038E+03 E0= -.36345681E+03  d E =-.365023E-04
