<?xml version="1.0" encoding="ISO-8859-1"?>
<modeling>
 <generator>
  <i name="program" type="string">vasp </i>
  <i name="version" type="string">5.4.1  </i>
  <i name="subversion" type="string">05Feb16 (build Jan 29 2020 16:04:39) complex                          parallel </i>
  <i name="platform" type="string">IFC91_ompi </i>
  <i name="date" type="string">2020 06 15 </i>
  <i name="time" type="string">08:28:33 </i>
 </generator>
 <incar>
  <i type="string" name="SYSTEM"> automatically generated by mexm</i>
  <i type="int" name="ISTART">     0</i>
  <i type="string" name="PREC">accurate               ! avoid wrap aro</i>
  <i type="string" name="ALGO"> Fast                   ! blocked Davids</i>
  <i type="int" name="ISPIN">     1</i>
  <i type="int" name="ICHARG">     2</i>
  <i type="int" name="NELM">    70</i>
  <i type="int" name="IBRION">     2</i>
  <i name="EDIFF">      0.00001000</i>
  <i name="EDIFFG">     -0.01000000</i>
  <i type="int" name="NSW">   300</i>
  <i type="int" name="ISIF">     3</i>
  <i type="int" name="ISYM">     1</i>
  <i name="ENCUT">    300.00000000</i>
  <i name="POTIM">      0.15000000</i>
  <i type="string" name="LREAL"> Auto                  ! unpublished met</i>
  <i type="int" name="ISMEAR">     1</i>
  <i name="SIGMA">      0.15000000</i>
  <i type="logical" name="LWAVE"> F  </i>
  <i type="logical" name="LCHARG"> F  </i>
  <i type="logical" name="LVTOT"> F  </i>
  <v type="int" name="KPOINT_BSE">    -1     0     0     0</v>
  <i type="int" name="NELM">    70</i>
 </incar>
 <kpoints>
  <generation param="Gamma">
   <v type="int" name="divisions">       3        3        3 </v>
   <v name="usershift">      0.00000000       0.00000000       0.00000000 </v>
   <v name="genvec1">      0.33333333      -0.00000000       0.00000000 </v>
   <v name="genvec2">      0.00000000       0.33333333      -0.00000000 </v>
   <v name="genvec3">      0.00000000       0.00000000       0.33333333 </v>
   <v name="shift">      0.00000000       0.00000000       0.00000000 </v>
  </generation>
  <varray name="kpointlist" >
   <v>       0.00000000       0.00000000       0.00000000 </v>
   <v>       0.33333333       0.00000000      -0.00000000 </v>
   <v>       0.00000000       0.33333333       0.00000000 </v>
   <v>       0.33333333       0.33333333       0.00000000 </v>
   <v>      -0.33333333       0.33333333       0.00000000 </v>
   <v>      -0.00000000       0.00000000       0.33333333 </v>
   <v>       0.33333333       0.00000000       0.33333333 </v>
   <v>      -0.33333333      -0.00000000       0.33333333 </v>
   <v>      -0.00000000       0.33333333       0.33333333 </v>
   <v>       0.33333333       0.33333333       0.33333333 </v>
   <v>      -0.33333333       0.33333333       0.33333333 </v>
   <v>      -0.00000000      -0.33333333       0.33333333 </v>
   <v>       0.33333333      -0.33333333       0.33333333 </v>
   <v>      -0.33333333      -0.33333333       0.33333333 </v>
  </varray>
  <varray name="weights" >
   <v>       0.03703704 </v>
   <v>       0.07407407 </v>
   <v>       0.07407407 </v>
   <v>       0.07407407 </v>
   <v>       0.07407407 </v>
   <v>       0.07407407 </v>
   <v>       0.07407407 </v>
   <v>       0.07407407 </v>
   <v>       0.07407407 </v>
   <v>       0.07407407 </v>
   <v>       0.07407407 </v>
   <v>       0.07407407 </v>
   <v>       0.07407407 </v>
   <v>       0.07407407 </v>
  </varray>
 </kpoints>
 <parameters>
  <separator name="general" >
   <i type="string" name="SYSTEM">automatically generated by mexm</i>
   <i type="logical" name="LCOMPAT"> F  </i>
  </separator>
  <separator name="electronic" >
   <i type="string" name="PREC">accura</i>
   <i name="ENMAX">    300.00000000</i>
   <i name="ENAUG">    461.25700000</i>
   <i name="EDIFF">      0.00001000</i>
   <i type="int" name="IALGO">    68</i>
   <i type="int" name="IWAVPR">    11</i>
   <i type="int" name="NBANDS">   160</i>
   <i name="NELECT">    264.00000000</i>
   <i type="int" name="TURBO">     0</i>
   <i type="int" name="IRESTART">     0</i>
   <i type="int" name="NREBOOT">     0</i>
   <i type="int" name="NMIN">     0</i>
   <i name="EREF">      0.00000000</i>
   <separator name="electronic smearing" >
    <i type="int" name="ISMEAR">     1</i>
    <i name="SIGMA">      0.15000000</i>
    <i name="KSPACING">      0.50000000</i>
    <i type="logical" name="KGAMMA"> T  </i>
   </separator>
   <separator name="electronic projectors" >
    <i type="logical" name="LREAL"> T  </i>
    <v name="ROPT">     -0.00025000     -0.00025000     -0.00025000     -0.00025000</v>
    <i type="int" name="LMAXPAW">  -100</i>
    <i type="int" name="LMAXMIX">     2</i>
    <i type="logical" name="NLSPLINE"> F  </i>
   </separator>
   <separator name="electronic startup" >
    <i type="int" name="ISTART">     0</i>
    <i type="int" name="ICHARG">     2</i>
    <i type="int" name="INIWAV">     1</i>
   </separator>
   <separator name="electronic spin" >
    <i type="int" name="ISPIN">     1</i>
    <i type="logical" name="LNONCOLLINEAR"> F  </i>
    <v name="MAGMOM">      1.00000000      1.00000000      1.00000000      1.00000000      1.00000000      1.00000000      1.00000000      1.00000000      1.00000000      1.00000000      1.00000000      1.00000000      1.00000000      1.00000000      1.00000000      1.00000000      1.00000000      1.00000000      1.00000000      1.00000000
      1.00000000      1.00000000      1.00000000      1.00000000      1.00000000      1.00000000      1.00000000      1.00000000      1.00000000      1.00000000      1.00000000      1.00000000      1.00000000      1.00000000      1.00000000      1.00000000</v>
    <i name="NUPDOWN">     -1.00000000</i>
    <i type="logical" name="LSORBIT"> F  </i>
    <v name="SAXIS">      0.00000000      0.00000000      1.00000000</v>
    <i type="logical" name="LSPIRAL"> F  </i>
    <v name="QSPIRAL">      0.00000000      0.00000000      0.00000000</v>
    <i type="logical" name="LZEROZ"> F  </i>
   </separator>
   <separator name="electronic exchange-correlation" >
    <i type="logical" name="LASPH"> F  </i>
    <i type="logical" name="LMETAGGA"> F  </i>
   </separator>
   <separator name="electronic convergence" >
    <i type="int" name="NELM">    70</i>
    <i type="int" name="NELMDL">    -5</i>
    <i type="int" name="NELMIN">     2</i>
    <i name="ENINI">    300.00000000</i>
    <separator name="electronic convergence detail" >
     <i type="logical" name="LDIAG"> T  </i>
     <i type="logical" name="LSUBROT"> F  </i>
     <i name="WEIMIN">      0.00100000</i>
     <i name="EBREAK">      0.00000002</i>
     <i name="DEPER">      0.30000000</i>
     <i type="int" name="NRMM">     4</i>
     <i name="TIME">      0.40000000</i>
    </separator>
   </separator>
   <separator name="electronic mixer" >
    <i name="AMIX">      0.40000000</i>
    <i name="BMIX">      1.00000000</i>
    <i name="AMIN">      0.10000000</i>
    <i name="AMIX_MAG">      1.60000000</i>
    <i name="BMIX_MAG">      1.00000000</i>
    <separator name="electronic mixer details" >
     <i type="int" name="IMIX">     4</i>
     <i type="logical" name="MIXFIRST"> F  </i>
     <i type="int" name="MAXMIX">   -45</i>
     <i name="WC">    100.00000000</i>
     <i type="int" name="INIMIX">     1</i>
     <i type="int" name="MIXPRE">     1</i>
     <i type="int" name="MREMOVE">     5</i>
    </separator>
   </separator>
   <separator name="electronic dipolcorrection" >
    <i type="logical" name="LDIPOL"> F  </i>
    <i type="logical" name="LMONO"> F  </i>
    <i type="int" name="IDIPOL">     0</i>
    <i name="EPSILON">      1.00000000</i>
    <v name="DIPOL">   -100.00000000   -100.00000000   -100.00000000</v>
    <i name="EFIELD">      0.00000000</i>
   </separator>
  </separator>
  <separator name="grids" >
   <i type="int" name="NGX">    40</i>
   <i type="int" name="NGY">    60</i>
   <i type="int" name="NGZ">    60</i>
   <i type="int" name="NGXF">    80</i>
   <i type="int" name="NGYF">   120</i>
   <i type="int" name="NGZF">   120</i>
   <i type="logical" name="ADDGRID"> F  </i>
  </separator>
  <separator name="ionic" >
   <i type="int" name="NSW">   300</i>
   <i type="int" name="IBRION">     2</i>
   <i type="int" name="ISIF">     3</i>
   <i name="PSTRESS">      0.00000000</i>
   <i name="EDIFFG">     -0.01000000</i>
   <i type="int" name="NFREE">     1</i>
   <i name="POTIM">      0.15000000</i>
   <i name="SMASS">     -3.00000000</i>
   <i name="SCALEE">      1.00000000</i>
  </separator>
  <separator name="ionic md" >
   <i name="TEBEG">      0.00010000</i>
   <i name="TEEND">      0.00010000</i>
   <i type="int" name="NBLOCK">     1</i>
   <i type="int" name="KBLOCK">   300</i>
   <i type="int" name="NPACO">   256</i>
   <i name="APACO">     16.00000000</i>
  </separator>
  <separator name="symmetry" >
   <i type="int" name="ISYM">     1</i>
   <i name="SYMPREC">      0.00001000</i>
  </separator>
  <separator name="dos" >
   <i type="logical" name="LORBIT"> F  </i>
   <v name="RWIGS">     -1.00000000     -1.00000000     -1.00000000     -1.00000000</v>
   <i type="int" name="NEDOS">   301</i>
   <i name="EMIN">     10.00000000</i>
   <i name="EMAX">    -10.00000000</i>
   <i name="EFERMI">      0.00000000</i>
  </separator>
  <separator name="writing" >
   <i type="int" name="NWRITE">     2</i>
   <i type="logical" name="LWAVE"> F  </i>
   <i type="logical" name="LCHARG"> F  </i>
   <i type="logical" name="LPARD"> F  </i>
   <i type="logical" name="LVTOT"> F  </i>
   <i type="logical" name="LVHAR"> F  </i>
   <i type="logical" name="LELF"> F  </i>
   <i type="logical" name="LOPTICS"> F  </i>
   <v name="STM">      0.00000000      0.00000000      0.00000000      0.00000000      0.00000000      0.00000000      0.00000000</v>
  </separator>
  <separator name="performance" >
   <i type="int" name="NPAR">     4</i>
   <i type="int" name="NSIM">     4</i>
   <i type="int" name="NBLK">    -1</i>
   <i type="logical" name="LPLANE"> T  </i>
   <i type="logical" name="LSCALAPACK"> T  </i>
   <i type="logical" name="LSCAAWARE"> F  </i>
   <i type="logical" name="LSCALU"> F  </i>
   <i type="logical" name="LASYNC"> F  </i>
   <i type="logical" name="LORBITALREAL"> F  </i>
  </separator>
  <separator name="miscellaneous" >
   <i type="int" name="IDIOT">     3</i>
   <i type="logical" name="LMUSIC"> F  </i>
   <v name="POMASS">    180.94800000     91.22400000     92.91000000    178.49000000</v>
   <v name="DARWINR">      0.00000000      0.00000000      0.00000000      0.00000000</v>
   <v name="DARWINV">      1.00000000      1.00000000      1.00000000      1.00000000</v>
   <i type="logical" name="LCORR"> T  </i>
  </separator>
  <i type="logical" name="GGA_COMPAT"> T  </i>
  <i type="logical" name="LBERRY"> F  </i>
  <i type="int" name="ICORELEVEL">     0</i>
  <i type="logical" name="LDAU"> F  </i>
  <i type="int" name="I_CONSTRAINED_M">     0</i>
  <separator name="electronic exchange-correlation" >
   <i type="string" name="GGA">--</i>
   <i type="int" name="VOSKOWN">     0</i>
   <i type="logical" name="LHFCALC"> F  </i>
   <i type="string" name="PRECFOCK"></i>
   <i type="logical" name="LSYMGRAD"> F  </i>
   <i type="logical" name="LHFONE"> F  </i>
   <i type="logical" name="LRHFCALC"> F  </i>
   <i type="logical" name="LTHOMAS"> F  </i>
   <i type="logical" name="LMODELHF"> F  </i>
   <i name="ENCUT4O">     -1.00000000</i>
   <i type="int" name="EXXOEP">     0</i>
   <i type="int" name="FOURORBIT">     0</i>
   <i name="AEXX">      0.00000000</i>
   <i name="HFALPHA">      0.00000000</i>
   <i name="MCALPHA">      0.00000000</i>
   <i name="ALDAX">      1.00000000</i>
   <i name="AGGAX">      1.00000000</i>
   <i name="ALDAC">      1.00000000</i>
   <i name="AGGAC">      1.00000000</i>
   <i type="int" name="NKREDX">     1</i>
   <i type="int" name="NKREDY">     1</i>
   <i type="int" name="NKREDZ">     1</i>
   <i type="logical" name="SHIFTRED"> F  </i>
   <i type="logical" name="ODDONLY"> F  </i>
   <i type="logical" name="EVENONLY"> F  </i>
   <i type="int" name="LMAXFOCK">     0</i>
   <i type="int" name="NMAXFOCKAE">     0</i>
   <i type="logical" name="LFOCKAEDFT"> F  </i>
   <i name="HFSCREEN">      0.00000000</i>
   <i name="HFSCREENC">      0.00000000</i>
   <i type="int" name="NBANDSGWLOW">     0</i>
  </separator>
  <separator name="vdW DFT" >
   <i type="logical" name="LUSE_VDW"> F  </i>
   <i name="Zab_VDW">     -0.84910000</i>
   <i name="PARAM1">      0.12340000</i>
   <i name="PARAM2">      1.00000000</i>
   <i name="PARAM3">      0.00000000</i>
  </separator>
  <separator name="model GW" >
   <i type="int" name="MODEL_GW">     0</i>
   <i name="MODEL_EPS0">     12.15467735</i>
   <i name="MODEL_ALPHA">      1.00000000</i>
  </separator>
  <separator name="linear response parameters" >
   <i type="logical" name="LEPSILON"> F  </i>
   <i type="logical" name="LRPA"> F  </i>
   <i type="logical" name="LNABLA"> F  </i>
   <i type="logical" name="LVEL"> F  </i>
   <i type="int" name="KINTER">     0</i>
   <i name="CSHIFT">      0.10000000</i>
   <i name="OMEGAMAX">     -1.00000000</i>
   <i name="DEG_THRESHOLD">      0.00200000</i>
  </separator>
  <separator name="orbital magnetization" >
   <i type="logical" name="NUCIND"> F  </i>
   <v name="MAGPOS">      0.00000000      0.00000000      0.00000000</v>
   <i type="logical" name="LNICSALL"> T  </i>
   <i type="logical" name="ORBITALMAG"> F  </i>
   <i type="logical" name="LMAGBLOCH"> F  </i>
   <i type="logical" name="LCHIMAG"> F  </i>
   <i type="logical" name="LGAUGE"> T  </i>
   <i type="int" name="MAGATOM">     0</i>
   <v name="MAGDIPOL">      0.00000000      0.00000000      0.00000000</v>
   <v name="AVECCONST">      0.00000000      0.00000000      0.00000000</v>
  </separator>
  <separator name="response functions" >
   <i type="logical" name="LADDER"> F  </i>
   <i type="logical" name="LFXC"> F  </i>
   <i type="logical" name="LHARTREE"> T  </i>
   <i type="int" name="IBSE">     0</i>
   <v type="int" name="KPOINT">    -1     0     0     0</v>
   <i type="logical" name="LTCTE"> F  </i>
   <i type="logical" name="LTETE"> F  </i>
   <i type="logical" name="LTRIPLET"> F  </i>
   <i type="logical" name="LFXCEPS"> F  </i>
   <i type="logical" name="LFXHEG"> F  </i>
   <i type="int" name="NATURALO">     0</i>
   <i type="logical" name="L2ORDER"> F  </i>
   <i type="logical" name="LUSEW"> F  </i>
   <i name="ENCUTGW">     -2.00000000</i>
   <i name="ENCUTGWSOFT">     -2.00000000</i>
   <i name="ENCUTLF">     -1.00000000</i>
   <i type="int" name="LMAXMP2">    -1</i>
   <i name="SCISSOR">      0.00000000</i>
   <i type="int" name="NOMEGA">     0</i>
   <i type="int" name="NOMEGAR">     0</i>
   <i type="int" name="NBANDSGW">    -1</i>
   <i type="int" name="NBANDSO">    -1</i>
   <i type="int" name="NBANDSV">    -1</i>
   <i type="int" name="NELM">    70</i>
   <i type="int" name="NELMHF">     1</i>
   <i type="int" name="DIM">     3</i>
   <i type="int" name="ANTIRES">     0</i>
   <i name="OMEGAMAX">    -30.00000000</i>
   <i name="OMEGAMIN">    -30.00000000</i>
   <i name="OMEGATL">   -200.00000000</i>
   <i type="int" name="OMEGAGRID">     0</i>
   <i name="CSHIFT">     -0.10000000</i>
   <i type="logical" name="SELFENERGY"> F  </i>
   <i type="logical" name="LSPECTRAL"> F  </i>
   <i type="logical" name="LSPECTRALGW"> F  </i>
   <i type="logical" name="LSINGLES"> F  </i>
   <i type="logical" name="LFERMIGW"> F  </i>
   <i type="logical" name="ODDONLYGW"> F  </i>
   <i type="logical" name="EVENONLYGW"> F  </i>
   <i type="int" name="NKREDLFX">     1</i>
   <i type="int" name="NKREDLFY">     1</i>
   <i type="int" name="NKREDLFZ">     1</i>
   <i type="int" name="MAXMEM">  1800</i>
   <i type="int" name="TELESCOPE">     0</i>
   <i type="int" name="TAUPAR">     1</i>
   <i type="int" name="OMEGAPAR">    -1</i>
   <i name="LAMBDA">      1.00000000</i>
  </separator>
  <separator name="External order field" >
   <i name="OFIELD_KAPPA">      0.00000000</i>
   <v name="OFIELD_K">      0.00000000      0.00000000      0.00000000</v>
   <i name="OFIELD_Q6_NEAR">      0.00000000</i>
   <i name="OFIELD_Q6_FAR">      0.00000000</i>
   <i name="OFIELD_A">      0.00000000</i>
  </separator>
 </parameters>
 <atominfo>
  <atoms>      36 </atoms>
  <types>       4 </types>
  <array name="atoms" >
   <dimension dim="1">ion</dimension>
   <field type="string">element</field>
   <field type="int">atomtype</field>
   <set>
    <rc><c>Ta</c><c>   1</c></rc>
    <rc><c>Ta</c><c>   1</c></rc>
    <rc><c>Ta</c><c>   1</c></rc>
    <rc><c>Ta</c><c>   1</c></rc>
    <rc><c>Ta</c><c>   1</c></rc>
    <rc><c>Ta</c><c>   1</c></rc>
    <rc><c>Ta</c><c>   1</c></rc>
    <rc><c>Ta</c><c>   1</c></rc>
    <rc><c>Ta</c><c>   1</c></rc>
    <rc><c>Ta</c><c>   1</c></rc>
    <rc><c>Ta</c><c>   1</c></rc>
    <rc><c>Zr</c><c>   2</c></rc>
    <rc><c>Zr</c><c>   2</c></rc>
    <rc><c>Zr</c><c>   2</c></rc>
    <rc><c>Zr</c><c>   2</c></rc>
    <rc><c>Zr</c><c>   2</c></rc>
    <rc><c>Zr</c><c>   2</c></rc>
    <rc><c>Zr</c><c>   2</c></rc>
    <rc><c>Zr</c><c>   2</c></rc>
    <rc><c>Nb</c><c>   3</c></rc>
    <rc><c>Nb</c><c>   3</c></rc>
    <rc><c>Nb</c><c>   3</c></rc>
    <rc><c>Nb</c><c>   3</c></rc>
    <rc><c>Nb</c><c>   3</c></rc>
    <rc><c>Hf</c><c>   4</c></rc>
    <rc><c>Hf</c><c>   4</c></rc>
    <rc><c>Hf</c><c>   4</c></rc>
    <rc><c>Hf</c><c>   4</c></rc>
    <rc><c>Hf</c><c>   4</c></rc>
    <rc><c>Hf</c><c>   4</c></rc>
    <rc><c>Hf</c><c>   4</c></rc>
    <rc><c>Hf</c><c>   4</c></rc>
    <rc><c>Hf</c><c>   4</c></rc>
    <rc><c>Hf</c><c>   4</c></rc>
    <rc><c>Hf</c><c>   4</c></rc>
    <rc><c>Hf</c><c>   4</c></rc>
   </set>
  </array>
  <array name="atomtypes" >
   <dimension dim="1">type</dimension>
   <field type="int">atomspertype</field>
   <field type="string">element</field>
   <field>mass</field>
   <field>valence</field>
   <field type="string">pseudopotential</field>
   <set>
    <rc><c>  11</c><c>Ta</c><c>    180.94800000</c><c>      5.00000000</c><c>  PAW_PBE Ta 17Jan2003                  </c></rc>
    <rc><c>   8</c><c>Zr</c><c>     91.22400000</c><c>     12.00000000</c><c>  PAW_PBE Zr_sv 04Jan2005               </c></rc>
    <rc><c>   5</c><c>Nb</c><c>     92.91000000</c><c>     13.00000000</c><c>  PAW_PBE Nb_sv 25May2007               </c></rc>
    <rc><c>  12</c><c>Hf</c><c>    178.49000000</c><c>      4.00000000</c><c>  PAW_PBE Hf 20Jan2003                  </c></rc>
   </set>
  </array>
 </atominfo>
 <structure name="initialpos" >
  <crystal>
   <varray name="basis" >
    <v>       6.95406330      -0.01713983      -0.01095932 </v>
    <v>      -0.02485675      10.26668524       0.02551521 </v>
    <v>      -0.01554357       0.02501139      10.21485171 </v>
   </varray>
   <i name="volume">    729.28064122 </i>
   <varray name="rec_basis" >
    <v>       0.14380202       0.00034762       0.00021797 </v>
    <v>       0.00023970       0.09740359      -0.00023813 </v>
    <v>       0.00015368      -0.00024293       0.09789750 </v>
   </varray>
  </crystal>
  <varray name="positions" >
   <v>       0.23154200       0.17483300       0.50890600 </v>
   <v>       0.03716700       0.33177200       0.34026900 </v>
   <v>       0.25949000       0.49525900       0.82942000 </v>
   <v>       0.25208500       0.82652800       0.15075300 </v>
   <v>       0.48657600       0.32841300       0.66733400 </v>
   <v>       0.48517200       0.32508900       0.99349300 </v>
   <v>       0.26181800       0.50056000       0.50709600 </v>
   <v>       0.49392000       0.66700400       0.31396200 </v>
   <v>       0.50538400       0.99985800       0.99874200 </v>
   <v>       0.49297700       0.65272900       0.68034900 </v>
   <v>       0.74071400       0.82364600       0.82864400 </v>
   <v>       0.74305400       0.49606700       0.49457800 </v>
   <v>       0.98897600       0.00036600       0.00076100 </v>
   <v>       0.01714000       0.31854300       0.98826200 </v>
   <v>       0.00945200       0.65947500       0.66308000 </v>
   <v>       0.48481200       0.00014600       0.32324900 </v>
   <v>       0.99244500       0.00698800       0.67306600 </v>
   <v>       0.28697100       0.82434200       0.50718900 </v>
   <v>       0.01697800       0.33747500       0.66885300 </v>
   <v>       0.25787000       0.16420000       0.15914700 </v>
   <v>       0.97654900       0.67867900       0.00232200 </v>
   <v>       0.73929500       0.18362800       0.83356100 </v>
   <v>       0.74513700       0.83513000       0.16629400 </v>
   <v>       0.26079000       0.16930700       0.83100200 </v>
   <v>       0.76232600       0.49143700       0.17209000 </v>
   <v>       0.25169500       0.82836400       0.84460700 </v>
   <v>       0.72431100       0.82770500       0.50790400 </v>
   <v>       0.74726900       0.49163900       0.83326800 </v>
   <v>       0.22861400       0.50761700       0.15765000 </v>
   <v>       0.00924900       0.68280700       0.33696400 </v>
   <v>       0.76588600       0.17922700       0.49220300 </v>
   <v>       0.46263800       0.33420900       0.33368200 </v>
   <v>       0.01395500       0.99511000       0.33093400 </v>
   <v>       0.74604000       0.17926900       0.17458700 </v>
   <v>       0.51584700       0.66679100       0.00641900 </v>
   <v>       0.50585000       0.01579500       0.67935500 </v>
  </varray>
 </structure>
 <calculation>
  <scstep>
   <time name="dav">    0.89    0.89</time>
   <time name="total">    1.05    1.27</time>
   <energy>
    <i name="alphaZ">   1328.36953978 </i>
    <i name="ewald"> -15720.45063998 </i>
    <i name="hartreedc">  -5725.99230341 </i>
    <i name="XCdc">   -686.57353812 </i>
    <i name="pawpsdc">  17766.17714809 </i>
    <i name="pawaedc"> -16000.88575240 </i>
    <i name="eentropy">     -0.00766897 </i>
    <i name="bandstr">     88.03845680 </i>
    <i name="atom">  20396.76966030 </i>
    <i name="e_fr_energy">   1445.44490208 </i>
    <i name="e_wo_entrp">   1445.45257106 </i>
    <i name="e_0_energy">   1445.44745841 </i>
   </energy>
  </scstep>
  <scstep>
   <time name="dav">    0.93    0.93</time>
   <time name="total">    0.93    1.04</time>
   <energy>
    <i name="e_fr_energy">   -134.76555275 </i>
    <i name="e_wo_entrp">   -134.75426552 </i>
    <i name="e_0_energy">   -134.76179034 </i>
   </energy>
  </scstep>
  <scstep>
   <time name="dav">    1.23    1.24</time>
   <time name="total">    1.23    1.25</time>
   <energy>
    <i name="e_fr_energy">   -351.27217840 </i>
    <i name="e_wo_entrp">   -351.26543045 </i>
    <i name="e_0_energy">   -351.26992909 </i>
   </energy>
  </scstep>
  <scstep>
   <time name="dav">    1.41    1.42</time>
   <time name="total">    1.42    1.44</time>
   <energy>
    <i name="e_fr_energy">   -377.10317960 </i>
    <i name="e_wo_entrp">   -377.11162879 </i>
    <i name="e_0_energy">   -377.10599599 </i>
   </energy>
  </scstep>
  <scstep>
   <time name="dav">    1.49    1.61</time>
   <time name="total">    1.53    1.66</time>
   <energy>
    <i name="e_fr_energy">   -379.74639935 </i>
    <i name="e_wo_entrp">   -379.75636337 </i>
    <i name="e_0_energy">   -379.74972069 </i>
   </energy>
  </scstep>
  <scstep>
   <time name="diag">    0.10    0.10</time>
   <time name="diis">    0.69    0.69</time>
   <time name="orth">    0.01    0.01</time>
   <time name="total">    0.89    0.92</time>
   <energy>
    <i name="e_fr_energy">   -369.65595319 </i>
    <i name="e_wo_entrp">   -369.65608875 </i>
    <i name="e_0_energy">   -369.65599838 </i>
   </energy>
  </scstep>
  <scstep>
   <time name="diag">    0.12    0.12</time>
   <time name="diis">    0.71    0.72</time>
   <time name="orth">    0.01    0.01</time>
   <time name="total">    0.92    0.93</time>
   <energy>
    <i name="e_fr_energy">   -370.02705966 </i>
    <i name="e_wo_entrp">   -370.04010173 </i>
    <i name="e_0_energy">   -370.03140701 </i>
   </energy>
  </scstep>
  <scstep>
   <time name="diag">    0.07    0.07</time>
   <time name="diis">    0.73    0.73</time>
   <time name="orth">    0.01    0.01</time>
   <time name="total">    0.89    0.91</time>
   <energy>
    <i name="e_fr_energy">   -365.28210220 </i>
    <i name="e_wo_entrp">   -365.29975629 </i>
    <i name="e_0_energy">   -365.28798689 </i>
   </energy>
  </scstep>
  <scstep>
   <time name="diag">    0.11    0.11</time>
   <time name="diis">    0.87    0.87</time>
   <time name="orth">    0.01    0.01</time>
   <time name="total">    1.06    1.08</time>
   <energy>
    <i name="e_fr_energy">   -365.08582919 </i>
    <i name="e_wo_entrp">   -365.10119880 </i>
    <i name="e_0_energy">   -365.09095239 </i>
   </energy>
  </scstep>
  <scstep>
   <time name="diag">    0.09    0.10</time>
   <time name="diis">    0.81    0.82</time>
   <time name="orth">    0.01    0.01</time>
   <time name="total">    1.01    1.04</time>
   <energy>
    <i name="e_fr_energy">   -365.05224476 </i>
    <i name="e_wo_entrp">   -365.06850738 </i>
    <i name="e_0_energy">   -365.05766564 </i>
   </energy>
  </scstep>
  <scstep>
   <time name="diag">    0.07    0.11</time>
   <time name="diis">    0.75    0.77</time>
   <time name="orth">    0.01    0.01</time>
   <time name="total">    0.89    0.98</time>
   <energy>
    <i name="e_fr_energy">   -365.04191657 </i>
    <i name="e_wo_entrp">   -365.05938393 </i>
    <i name="e_0_energy">   -365.04773902 </i>
   </energy>
  </scstep>
  <scstep>
   <time name="diag">    0.07    0.07</time>
   <time name="diis">    0.74    0.75</time>
   <time name="orth">    0.01    0.01</time>
   <time name="total">    0.89    0.91</time>
   <energy>
    <i name="e_fr_energy">   -365.03891960 </i>
    <i name="e_wo_entrp">   -365.05676975 </i>
    <i name="e_0_energy">   -365.04486965 </i>
   </energy>
  </scstep>
  <scstep>
   <time name="diag">    0.07    0.07</time>
   <time name="diis">    0.74    0.74</time>
   <time name="orth">    0.01    0.01</time>
   <time name="total">    0.88    0.89</time>
   <energy>
    <i name="e_fr_energy">   -365.03801281 </i>
    <i name="e_wo_entrp">   -365.05573119 </i>
    <i name="e_0_energy">   -365.04391893 </i>
   </energy>
  </scstep>
  <scstep>
   <time name="diag">    0.07    0.07</time>
   <time name="diis">    0.78    0.82</time>
   <time name="orth">    0.01    0.01</time>
   <time name="total">    0.93    0.97</time>
   <energy>
    <i name="e_fr_energy">   -365.03815342 </i>
    <i name="e_wo_entrp">   -365.05591896 </i>
    <i name="e_0_energy">   -365.04407526 </i>
   </energy>
  </scstep>
  <scstep>
   <time name="diag">    0.15    0.15</time>
   <time name="diis">    0.81    0.83</time>
   <time name="orth">    0.01    0.01</time>
   <time name="total">    1.04    1.09</time>
   <energy>
    <i name="e_fr_energy">   -365.03836835 </i>
    <i name="e_wo_entrp">   -365.05607063 </i>
    <i name="e_0_energy">   -365.04426911 </i>
   </energy>
  </scstep>
  <scstep>
   <time name="diag">    0.09    0.09</time>
   <time name="diis">    0.66    0.67</time>
   <time name="orth">    0.01    0.01</time>
   <time name="total">    0.83    0.85</time>
   <energy>
    <i name="e_fr_energy">   -365.03843959 </i>
    <i name="e_wo_entrp">   -365.05617806 </i>
    <i name="e_0_energy">   -365.04435241 </i>
   </energy>
  </scstep>
  <scstep>
   <time name="diag">    0.08    0.08</time>
   <time name="diis">    0.69    0.70</time>
   <time name="orth">    0.02    0.02</time>
   <time name="total">    0.85    0.87</time>
   <energy>
    <i name="e_fr_energy">   -365.03846663 </i>
    <i name="e_wo_entrp">   -365.05622529 </i>
    <i name="e_0_energy">   -365.04438618 </i>
   </energy>
  </scstep>
  <scstep>
   <time name="diag">    0.07    0.07</time>
   <time name="diis">    0.54    0.55</time>
   <time name="orth">    0.01    0.01</time>
   <time name="total">    0.68    0.77</time>
   <energy>
    <i name="e_fr_energy">   -365.03848438 </i>
    <i name="e_wo_entrp">   -365.05626449 </i>
    <i name="e_0_energy">   -365.04441108 </i>
   </energy>
  </scstep>
  <scstep>
   <time name="diag">    0.07    0.07</time>
   <time name="diis">    0.55    0.55</time>
   <time name="orth">    0.01    0.01</time>
   <time name="total">    0.74    0.78</time>
   <energy>
    <i name="e_fr_energy">   -365.03849214 </i>
    <i name="e_wo_entrp">   -365.05627842 </i>
    <i name="e_0_energy">   -365.04442090 </i>
   </energy>
  </scstep>
  <scstep>
   <time name="diag">    0.07    0.07</time>
   <time name="diis">    0.42    0.42</time>
   <time name="orth">    0.01    0.01</time>
   <time name="total">    0.53    0.55</time>
   <energy>
    <i name="alphaZ">   1328.36953978 </i>
    <i name="ewald"> -15720.45063998 </i>
    <i name="hartreedc">  -5544.82427311 </i>
    <i name="XCdc">   -681.06691065 </i>
    <i name="pawpsdc">  30658.93826424 </i>
    <i name="pawaedc"> -28884.59929972 </i>
    <i name="eentropy">      0.01778220 </i>
    <i name="bandstr">  -1918.19261807 </i>
    <i name="atom">  20396.76966030 </i>
    <i name="e_fr_energy">   -365.03849502 </i>
    <i name="e_wo_entrp">   -365.05627722 </i>
    <i name="e_0_energy">   -365.04442242 </i>
   </energy>
  </scstep>
  <structure>
   <crystal>
    <varray name="basis" >
     <v>       6.95406330      -0.01713983      -0.01095932 </v>
     <v>      -0.02485675      10.26668524       0.02551521 </v>
     <v>      -0.01554357       0.02501139      10.21485171 </v>
    </varray>
    <i name="volume">    729.28064122 </i>
    <varray name="rec_basis" >
     <v>       0.14380202       0.00034762       0.00021797 </v>
     <v>       0.00023970       0.09740359      -0.00023813 </v>
     <v>       0.00015368      -0.00024293       0.09789750 </v>
    </varray>
   </crystal>
   <varray name="positions" >
    <v>       0.23154200       0.17483300       0.50890600 </v>
    <v>       0.03716700       0.33177200       0.34026900 </v>
    <v>       0.25949000       0.49525900       0.82942000 </v>
    <v>       0.25208500       0.82652800       0.15075300 </v>
    <v>       0.48657600       0.32841300       0.66733400 </v>
    <v>       0.48517200       0.32508900       0.99349300 </v>
    <v>       0.26181800       0.50056000       0.50709600 </v>
    <v>       0.49392000       0.66700400       0.31396200 </v>
    <v>       0.50538400       0.99985800       0.99874200 </v>
    <v>       0.49297700       0.65272900       0.68034900 </v>
    <v>       0.74071400       0.82364600       0.82864400 </v>
    <v>       0.74305400       0.49606700       0.49457800 </v>
    <v>       0.98897600       0.00036600       0.00076100 </v>
    <v>       0.01714000       0.31854300       0.98826200 </v>
    <v>       0.00945200       0.65947500       0.66308000 </v>
    <v>       0.48481200       0.00014600       0.32324900 </v>
    <v>       0.99244500       0.00698800       0.67306600 </v>
    <v>       0.28697100       0.82434200       0.50718900 </v>
    <v>       0.01697800       0.33747500       0.66885300 </v>
    <v>       0.25787000       0.16420000       0.15914700 </v>
    <v>       0.97654900       0.67867900       0.00232200 </v>
    <v>       0.73929500       0.18362800       0.83356100 </v>
    <v>       0.74513700       0.83513000       0.16629400 </v>
    <v>       0.26079000       0.16930700       0.83100200 </v>
    <v>       0.76232600       0.49143700       0.17209000 </v>
    <v>       0.25169500       0.82836400       0.84460700 </v>
    <v>       0.72431100       0.82770500       0.50790400 </v>
    <v>       0.74726900       0.49163900       0.83326800 </v>
    <v>       0.22861400       0.50761700       0.15765000 </v>
    <v>       0.00924900       0.68280700       0.33696400 </v>
    <v>       0.76588600       0.17922700       0.49220300 </v>
    <v>       0.46263800       0.33420900       0.33368200 </v>
    <v>       0.01395500       0.99511000       0.33093400 </v>
    <v>       0.74604000       0.17926900       0.17458700 </v>
    <v>       0.51584700       0.66679100       0.00641900 </v>
    <v>       0.50585000       0.01579500       0.67935500 </v>
   </varray>
  </structure>
  <varray name="forces" >
   <v>       0.31597662      -0.41011943      -0.40270742 </v>
   <v>      -0.05240926       0.03861091      -0.11732451 </v>
   <v>       0.38638051       0.35140023       0.32688028 </v>
   <v>       0.00750443      -0.00434806      -0.00445532 </v>
   <v>      -0.02096561      -0.00381062       0.05546163 </v>
   <v>       0.01637293       0.01999761      -0.03174474 </v>
   <v>       0.38292509       0.32213747      -0.31139684 </v>
   <v>      -0.00651574      -0.00736278       0.05403740 </v>
   <v>       0.02316541       0.02080682      -0.00134965 </v>
   <v>       0.00955054      -0.04131031       0.00682425 </v>
   <v>      -0.01285685      -0.00401479      -0.00466832 </v>
   <v>      -0.22528609       0.13809342      -0.23450677 </v>
   <v>       0.00431940       0.00446776      -0.01825141 </v>
   <v>      -0.01598236       0.05821697       0.17212181 </v>
   <v>       0.02120266       0.17204629       0.03494659 </v>
   <v>       0.00435454       0.02506389       0.03554670 </v>
   <v>      -0.01480931      -0.15779714       0.03365792 </v>
   <v>      -0.02726678      -0.00591996      -0.01242985 </v>
   <v>      -0.30929894       0.00889490       0.07597293 </v>
   <v>       0.01926665      -0.01343287      -0.02459261 </v>
   <v>       0.00885948       0.00101413      -0.01424729 </v>
   <v>      -0.32195844      -0.16462181       0.23294581 </v>
   <v>       0.00341088      -0.00575259       0.00515993 </v>
   <v>       0.31369031      -0.31133427       0.22405844 </v>
   <v>      -0.02990260      -0.01026140      -0.01536805 </v>
   <v>       0.00754039      -0.00787427      -0.00850504 </v>
   <v>      -0.00447909       0.00832580       0.00102873 </v>
   <v>      -0.26822703       0.18504134       0.25442226 </v>
   <v>       0.00534052       0.01149413      -0.01697657 </v>
   <v>      -0.01124311      -0.01957659       0.01149065 </v>
   <v>      -0.21657110      -0.22784879      -0.29241467 </v>
   <v>       0.00912936      -0.00637615       0.02399582 </v>
   <v>      -0.00514194       0.01919075       0.02246119 </v>
   <v>       0.00714290      -0.00738490      -0.00919541 </v>
   <v>      -0.01306859      -0.01614620      -0.04973633 </v>
   <v>       0.00985021       0.04049049      -0.00114156 </v>
  </varray>
  <varray name="stress" >
   <v>       9.67859002       0.21290157      -0.30837886 </v>
   <v>       0.21290160       8.09397758       0.67275335 </v>
   <v>      -0.30837887       0.67275336       8.55186525 </v>
  </varray>
  <energy>
   <i name="e_fr_energy">   -365.03849502 </i>
   <i name="e_wo_entrp">   -365.04442242 </i>
   <i name="e_0_energy">      0.01778220 </i>
  </energy>
  <time name="totalsc">   20.70   21.76</time>
 </calculation>
 <calculation>
  <scstep>
   <time name="dav">    1.03    1.04</time>
   <time name="total">    1.16    1.24</time>
   <energy>
    <i name="alphaZ">   1321.99109242 </i>
    <i name="ewald"> -15702.26956093 </i>
    <i name="hartreedc">  -5529.34260543 </i>
    <i name="XCdc">   -682.19900734 </i>
    <i name="pawpsdc">  30658.93410127 </i>
    <i name="pawaedc"> -28884.59492027 </i>
    <i name="eentropy">      0.01873564 </i>
    <i name="bandstr">  -1944.42053352 </i>
    <i name="atom">  20396.76966030 </i>
    <i name="e_fr_energy">   -365.11303786 </i>
    <i name="e_wo_entrp">   -365.13177350 </i>
    <i name="e_0_energy">   -365.11928307 </i>
   </energy>
  </scstep>
  <scstep>
   <time name="diag">    0.07    0.07</time>
   <time name="diis">    0.70    0.71</time>
   <time name="orth">    0.01    0.01</time>
   <time name="total">    0.85    0.87</time>
   <energy>
    <i name="e_fr_energy">   -365.09838954 </i>
    <i name="e_wo_entrp">   -365.11685526 </i>
    <i name="e_0_energy">   -365.10454478 </i>
   </energy>
  </scstep>
  <scstep>
   <time name="diag">    0.07    0.07</time>
   <time name="diis">    0.73    0.74</time>
   <time name="orth">    0.01    0.01</time>
   <time name="total">    1.01    1.04</time>
   <energy>
    <i name="e_fr_energy">   -365.09014001 </i>
    <i name="e_wo_entrp">   -365.10872500 </i>
    <i name="e_0_energy">   -365.09633501 </i>
   </energy>
  </scstep>
  <scstep>
   <time name="diag">    0.07    0.07</time>
   <time name="diis">    0.73    0.74</time>
   <time name="orth">    0.01    0.01</time>
   <time name="total">    0.88    0.90</time>
   <energy>
    <i name="e_fr_energy">   -365.08248262 </i>
    <i name="e_wo_entrp">   -365.10123878 </i>
    <i name="e_0_energy">   -365.08873467 </i>
   </energy>
  </scstep>
  <scstep>
   <time name="diag">    0.07    0.07</time>
   <time name="diis">    0.81    0.81</time>
   <time name="orth">    0.01    0.01</time>
   <time name="total">    0.97    0.99</time>
   <energy>
    <i name="e_fr_energy">   -365.08130993 </i>
    <i name="e_wo_entrp">   -365.09989589 </i>
    <i name="e_0_energy">   -365.08750525 </i>
   </energy>
  </scstep>
  <scstep>
   <time name="diag">    0.08    0.08</time>
   <time name="diis">    0.87    0.87</time>
   <time name="orth">    0.01    0.01</time>
   <time name="total">    1.03    1.05</time>
   <energy>
    <i name="e_fr_energy">   -365.08143132 </i>
    <i name="e_wo_entrp">   -365.10008914 </i>
    <i name="e_0_energy">   -365.08765059 </i>
   </energy>
  </scstep>
  <scstep>
   <time name="diag">    0.07    0.07</time>
   <time name="diis">    0.75    0.75</time>
   <time name="orth">    0.01    0.01</time>
   <time name="total">    0.89    0.91</time>
   <energy>
    <i name="e_fr_energy">   -365.08141641 </i>
    <i name="e_wo_entrp">   -365.10003837 </i>
    <i name="e_0_energy">   -365.08762373 </i>
   </energy>
  </scstep>
  <scstep>
   <time name="diag">    0.08    0.08</time>
   <time name="diis">    0.75    0.75</time>
   <time name="orth">    0.01    0.01</time>
   <time name="total">    0.92    0.94</time>
   <energy>
    <i name="e_fr_energy">   -365.08144768 </i>
    <i name="e_wo_entrp">   -365.10010929 </i>
    <i name="e_0_energy">   -365.08766822 </i>
   </energy>
  </scstep>
  <scstep>
   <time name="diag">    0.07    0.07</time>
   <time name="diis">    0.59    0.60</time>
   <time name="orth">    0.01    0.01</time>
   <time name="total">    0.73    0.75</time>
   <energy>
    <i name="e_fr_energy">   -365.08146920 </i>
    <i name="e_wo_entrp">   -365.10010975 </i>
    <i name="e_0_energy">   -365.08768272 </i>
   </energy>
  </scstep>
  <scstep>
   <time name="diag">    0.07    0.07</time>
   <time name="diis">    0.47    0.52</time>
   <time name="orth">    0.01    0.01</time>
   <time name="total">    0.58    0.65</time>
   <energy>
    <i name="alphaZ">   1321.99109242 </i>
    <i name="ewald"> -15702.26956093 </i>
    <i name="hartreedc">  -5543.94900252 </i>
    <i name="XCdc">   -681.60036099 </i>
    <i name="pawpsdc">  30422.04863614 </i>
    <i name="pawaedc"> -28647.84768981 </i>
    <i name="eentropy">      0.01865548 </i>
    <i name="bandstr">  -1930.24290878 </i>
    <i name="atom">  20396.76966030 </i>
    <i name="e_fr_energy">   -365.08147870 </i>
    <i name="e_wo_entrp">   -365.10013417 </i>
    <i name="e_0_energy">   -365.08769719 </i>
   </energy>
  </scstep>
  <structure>
   <crystal>
    <varray name="basis" >
     <v>       6.96637968      -0.01689564      -0.01137100 </v>
     <v>      -0.02450223      10.28189381       0.02682046 </v>
     <v>      -0.01614656       0.02630537      10.23084119 </v>
    </varray>
    <i name="volume">    732.79933223 </i>
    <varray name="rec_basis" >
     <v>       0.14354778       0.00034149       0.00022567 </v>
     <v>       0.00023548       0.09725956      -0.00024970 </v>
     <v>       0.00015893      -0.00025459       0.09774458 </v>
    </varray>
   </crystal>
   <varray name="positions" >
    <v>       0.23219628       0.17425734       0.50833757 </v>
    <v>       0.03705775       0.33182665       0.34010252 </v>
    <v>       0.26029694       0.49575458       0.82988276 </v>
    <v>       0.25210058       0.82652191       0.15074672 </v>
    <v>       0.48653252       0.32840736       0.66741255 </v>
    <v>       0.48520608       0.32511736       0.99344799 </v>
    <v>       0.26261559       0.50101652       0.50665452 </v>
    <v>       0.49390657       0.66699341       0.31403857 </v>
    <v>       0.50543231       0.99988742       0.99874007 </v>
    <v>       0.49299669       0.65267077       0.68035884 </v>
    <v>       0.74068721       0.82364031       0.82863737 </v>
    <v>       0.74258509       0.49626170       0.49424475 </v>
    <v>       0.98898495       0.00037238       0.00073513 </v>
    <v>       0.01710757       0.31862442       0.98850563 </v>
    <v>       0.00949710       0.65971749       0.66312896 </v>
    <v>       0.48482130       0.00018123       0.32329929 </v>
    <v>       0.99241349       0.00676539       0.67311421 </v>
    <v>       0.28691418       0.82433360       0.50717135 </v>
    <v>       0.01633457       0.33748620       0.66895992 </v>
    <v>       0.25790995       0.16418122       0.15911225 </v>
    <v>       0.97656740       0.67868051       0.00230183 </v>
    <v>       0.73862484       0.18339401       0.83389091 </v>
    <v>       0.74514409       0.83512188       0.16630134 </v>
    <v>       0.26144200       0.16886843       0.83132125 </v>
    <v>       0.76226367       0.49142248       0.17206820 </v>
    <v>       0.25171063       0.82835296       0.84459499 </v>
    <v>       0.72430172       0.82771672       0.50790542 </v>
    <v>       0.74671249       0.49189805       0.83362723 </v>
    <v>       0.22862512       0.50763328       0.15762592 </v>
    <v>       0.00922554       0.68277932       0.33698032 </v>
    <v>       0.76543320       0.17890606       0.49178901 </v>
    <v>       0.46265704       0.33419996       0.33371604 </v>
    <v>       0.01394447       0.99513696       0.33096575 </v>
    <v>       0.74605480       0.17925865       0.17457401 </v>
    <v>       0.51581956       0.66676836       0.00634856 </v>
    <v>       0.50587070       0.01585212       0.67935326 </v>
   </varray>
  </structure>
  <varray name="forces" >
   <v>       0.25115168      -0.33015743      -0.33939985 </v>
   <v>      -0.01659778       0.01900940      -0.08784274 </v>
   <v>       0.35037026       0.28842110       0.27498261 </v>
   <v>       0.00873308      -0.01145493      -0.00668392 </v>
   <v>      -0.03730899      -0.00928504       0.05922494 </v>
   <v>      -0.00137347       0.00602968      -0.03551561 </v>
   <v>       0.34770169       0.27997239      -0.26474934 </v>
   <v>      -0.01373728       0.00146631       0.02882724 </v>
   <v>       0.01657357       0.01429711       0.00211958 </v>
   <v>       0.00406981      -0.03218155       0.00569552 </v>
   <v>      -0.00845218      -0.01419116      -0.01187093 </v>
   <v>      -0.21730050       0.12047864      -0.20649887 </v>
   <v>       0.00677726      -0.00129971      -0.01366781 </v>
   <v>       0.00054944       0.04709071       0.12604533 </v>
   <v>       0.03242539       0.14185569       0.03317591 </v>
   <v>      -0.00570740       0.01802942       0.01153751 </v>
   <v>      -0.01269406      -0.13208987       0.02817805 </v>
   <v>      -0.02207469      -0.01225885      -0.00612502 </v>
   <v>      -0.23315637      -0.00103944       0.05353962 </v>
   <v>       0.02233745       0.00183445      -0.01588745 </v>
   <v>       0.00592284       0.02024493      -0.00389748 </v>
   <v>      -0.30294633      -0.13448013       0.22415040 </v>
   <v>       0.00031279      -0.01531844       0.00012860 </v>
   <v>       0.29223129      -0.26727541       0.20441069 </v>
   <v>      -0.02220537      -0.00560067      -0.01425098 </v>
   <v>       0.00838468      -0.00840914      -0.00019525 </v>
   <v>      -0.01240839       0.00464523       0.01017364 </v>
   <v>      -0.25646963       0.16144977       0.22720112 </v>
   <v>       0.00754684       0.01779646      -0.00978770 </v>
   <v>      -0.00913119      -0.01583260       0.00473245 </v>
   <v>      -0.17964251      -0.19330072      -0.26490708 </v>
   <v>      -0.01888571      -0.01162868       0.01874456 </v>
   <v>       0.00443521       0.00877903       0.00552326 </v>
   <v>       0.00059241      -0.00306587      -0.01168480 </v>
   <v>      -0.00537889       0.00726093      -0.02777326 </v>
   <v>       0.01535506       0.04020841       0.00234707 </v>
  </varray>
  <varray name="stress" >
   <v>       3.04451503       0.17545687      -0.24738473 </v>
   <v>       0.17545688       1.43266866       0.57524990 </v>
   <v>      -0.24738474       0.57524994       1.90879479 </v>
  </varray>
  <energy>
   <i name="e_fr_energy">   -365.08147870 </i>
   <i name="e_wo_entrp">   -365.08769719 </i>
   <i name="e_0_energy">      0.01865548 </i>
  </energy>
  <time name="totalsc">   10.49   10.90</time>
 </calculation>
 <calculation>
  <scstep>
   <time name="dav">    0.84    0.85</time>
   <time name="total">    1.00    1.08</time>
   <energy>
    <i name="alphaZ">   1307.55931551 </i>
    <i name="ewald"> -15660.21231384 </i>
    <i name="hartreedc">  -5509.19375917 </i>
    <i name="XCdc">   -684.17965664 </i>
    <i name="pawpsdc">  30421.41846642 </i>
    <i name="pawaedc"> -28647.33286701 </i>
    <i name="eentropy">      0.02039175 </i>
    <i name="bandstr">  -1990.12275229 </i>
    <i name="atom">  20396.76966030 </i>
    <i name="e_fr_energy">   -365.27351495 </i>
    <i name="e_wo_entrp">   -365.29390671 </i>
    <i name="e_0_energy">   -365.28031221 </i>
   </energy>
  </scstep>
  <scstep>
   <time name="diag">    0.07    0.07</time>
   <time name="diis">    0.71    0.71</time>
   <time name="orth">    0.01    0.01</time>
   <time name="total">    0.85    0.87</time>
   <energy>
    <i name="e_fr_energy">   -365.19654903 </i>
    <i name="e_wo_entrp">   -365.21700672 </i>
    <i name="e_0_energy">   -365.20336826 </i>
   </energy>
  </scstep>
  <scstep>
   <time name="diag">    0.07    0.07</time>
   <time name="diis">    0.73    0.73</time>
   <time name="orth">    0.01    0.01</time>
   <time name="total">    0.87    0.89</time>
   <energy>
    <i name="e_fr_energy">   -365.15212224 </i>
    <i name="e_wo_entrp">   -365.17206051 </i>
    <i name="e_0_energy">   -365.15876833 </i>
   </energy>
  </scstep>
  <scstep>
   <time name="diag">    0.07    0.07</time>
   <time name="diis">    0.77    0.77</time>
   <time name="orth">    0.02    0.02</time>
   <time name="total">    0.94    0.96</time>
   <energy>
    <i name="e_fr_energy">   -365.11295295 </i>
    <i name="e_wo_entrp">   -365.13357888 </i>
    <i name="e_0_energy">   -365.11982826 </i>
   </energy>
  </scstep>
  <scstep>
   <time name="diag">    0.07    0.07</time>
   <time name="diis">    0.72    0.73</time>
   <time name="orth">    0.01    0.01</time>
   <time name="total">    0.86    0.91</time>
   <energy>
    <i name="e_fr_energy">   -365.10655376 </i>
    <i name="e_wo_entrp">   -365.12688087 </i>
    <i name="e_0_energy">   -365.11332947 </i>
   </energy>
  </scstep>
  <scstep>
   <time name="diag">    0.13    0.13</time>
   <time name="diis">    0.81    0.81</time>
   <time name="orth">    0.01    0.01</time>
   <time name="total">    1.03    1.06</time>
   <energy>
    <i name="e_fr_energy">   -365.10734022 </i>
    <i name="e_wo_entrp">   -365.12778885 </i>
    <i name="e_0_energy">   -365.11415643 </i>
   </energy>
  </scstep>
  <scstep>
   <time name="diag">    0.07    0.07</time>
   <time name="diis">    0.78    0.78</time>
   <time name="orth">    0.02    0.02</time>
   <time name="total">    0.95    0.97</time>
   <energy>
    <i name="e_fr_energy">   -365.10740044 </i>
    <i name="e_wo_entrp">   -365.12774690 </i>
    <i name="e_0_energy">   -365.11418259 </i>
   </energy>
  </scstep>
  <scstep>
   <time name="diag">    0.12    0.12</time>
   <time name="diis">    0.87    0.87</time>
   <time name="orth">    0.01    0.01</time>
   <time name="total">    1.08    1.10</time>
   <energy>
    <i name="e_fr_energy">   -365.10762400 </i>
    <i name="e_wo_entrp">   -365.12808338 </i>
    <i name="e_0_energy">   -365.11444379 </i>
   </energy>
  </scstep>
  <scstep>
   <time name="diag">    0.08    0.08</time>
   <time name="diis">    0.77    0.79</time>
   <time name="orth">    0.01    0.01</time>
   <time name="total">    0.93    0.96</time>
   <energy>
    <i name="e_fr_energy">   -365.10777508 </i>
    <i name="e_wo_entrp">   -365.12817346 </i>
    <i name="e_0_energy">   -365.11457454 </i>
   </energy>
  </scstep>
  <scstep>
   <time name="diag">    0.07    0.12</time>
   <time name="diis">    0.66    0.68</time>
   <time name="orth">    0.01    0.01</time>
   <time name="total">    0.82    0.90</time>
   <energy>
    <i name="e_fr_energy">   -365.10788509 </i>
    <i name="e_wo_entrp">   -365.12831809 </i>
    <i name="e_0_energy">   -365.11469609 </i>
   </energy>
  </scstep>
  <scstep>
   <time name="diag">    0.07    0.07</time>
   <time name="diis">    0.59    0.59</time>
   <time name="orth">    0.01    0.01</time>
   <time name="total">    0.74    0.76</time>
   <energy>
    <i name="e_fr_energy">   -365.10790576 </i>
    <i name="e_wo_entrp">   -365.12832339 </i>
    <i name="e_0_energy">   -365.11471164 </i>
   </energy>
  </scstep>
  <scstep>
   <time name="diag">    0.07    0.07</time>
   <time name="diis">    0.52    0.52</time>
   <time name="orth">    0.01    0.01</time>
   <time name="total">    0.63    0.65</time>
   <energy>
    <i name="alphaZ">   1307.55931551 </i>
    <i name="ewald"> -15660.21231384 </i>
    <i name="hartreedc">  -5542.11051721 </i>
    <i name="XCdc">   -682.83106120 </i>
    <i name="pawpsdc">  29894.98354695 </i>
    <i name="pawaedc"> -28121.70541340 </i>
    <i name="eentropy">      0.02041614 </i>
    <i name="bandstr">  -1957.58153695 </i>
    <i name="atom">  20396.76966030 </i>
    <i name="e_fr_energy">   -365.10790368 </i>
    <i name="e_wo_entrp">   -365.12831983 </i>
    <i name="e_0_energy">   -365.11470907 </i>
   </energy>
  </scstep>
  <structure>
   <crystal>
    <varray name="basis" >
     <v>       6.99454212      -0.01633728      -0.01231236 </v>
     <v>      -0.02369159      10.31666949       0.02980503 </v>
     <v>      -0.01752535       0.02926416      10.26740250 </v>
    </varray>
    <i name="volume">    740.88737562 </i>
    <varray name="rec_basis" >
     <v>       0.14296981       0.00032762       0.00024310 </v>
     <v>       0.00022592       0.09693182      -0.00027589 </v>
     <v>       0.00017079      -0.00028099       0.09739671 </v>
    </varray>
   </crystal>
   <varray name="positions" >
    <v>       0.23368968       0.17294310       0.50704005 </v>
    <v>       0.03680834       0.33195149       0.33972241 </v>
    <v>       0.26213884       0.49688592       0.83093919 </v>
    <v>       0.25213615       0.82650801       0.15073238 </v>
    <v>       0.48643330       0.32839448       0.66759187 </v>
    <v>       0.48528384       0.32518211       0.99334522 </v>
    <v>       0.26443598       0.50205892       0.50564654 </v>
    <v>       0.49387594       0.66696922       0.31421340 </v>
    <v>       0.50554258       0.99995458       0.99873565 </v>
    <v>       0.49304164       0.65253783       0.68038131 </v>
    <v>       0.74062605       0.82362733       0.82862224 </v>
    <v>       0.74151468       0.49670635       0.49348385 </v>
    <v>       0.98900539       0.00038694       0.00067608 </v>
    <v>       0.01703359       0.31881025       0.98906182 </v>
    <v>       0.00960003       0.66027112       0.66324066 </v>
    <v>       0.48484254       0.00026164       0.32341408 </v>
    <v>       0.99234161       0.00625710       0.67322433 </v>
    <v>       0.28678449       0.82431444       0.50713105 </v>
    <v>       0.01486592       0.33751180       0.66920397 </v>
    <v>       0.25800114       0.16413833       0.15903291 </v>
    <v>       0.97660939       0.67868396       0.00225578 </v>
    <v>       0.73709527       0.18285972       0.83464411 </v>
    <v>       0.74516026       0.83510335       0.16631810 </v>
    <v>       0.26293033       0.16786695       0.83205028 </v>
    <v>       0.76212138       0.49138935       0.17201841 </v>
    <v>       0.25174629       0.82832774       0.84456759 </v>
    <v>       0.72428055       0.82774347       0.50790865 </v>
    <v>       0.74544228       0.49248943       0.83444724 </v>
    <v>       0.22865049       0.50767046       0.15757094 </v>
    <v>       0.00917199       0.68271613       0.33701760 </v>
    <v>       0.76439963       0.17817342       0.49084392 </v>
    <v>       0.46270052       0.33417931       0.33379376 </v>
    <v>       0.01392042       0.99519850       0.33103821 </v>
    <v>       0.74608858       0.17923501       0.17454437 </v>
    <v>       0.51575693       0.66671671       0.00618774 </v>
    <v>       0.50591794       0.01598253       0.67934928 </v>
   </varray>
  </structure>
  <varray name="forces" >
   <v>       0.11581726      -0.16113341      -0.20845437 </v>
   <v>       0.05882229      -0.02508680      -0.02703457 </v>
   <v>       0.27637409       0.15162320       0.16697575 </v>
   <v>       0.01238513      -0.02709924      -0.01052732 </v>
   <v>      -0.06927691      -0.02077220       0.06798960 </v>
   <v>      -0.04011636      -0.02211556      -0.04479477 </v>
   <v>       0.27596403       0.19294840      -0.17007368 </v>
   <v>      -0.03017329       0.02051664      -0.02618408 </v>
   <v>       0.00147201      -0.00091428       0.00960963 </v>
   <v>      -0.00870655      -0.01288610       0.00478881 </v>
   <v>       0.00137914      -0.03626017      -0.02560959 </v>
   <v>      -0.19868383       0.08150255      -0.14375496 </v>
   <v>       0.01246182      -0.01322286      -0.00340617 </v>
   <v>       0.03658573       0.02040025       0.02591675 </v>
   <v>       0.05448018       0.07835766       0.03014154 </v>
   <v>      -0.02786215       0.00135410      -0.04320194 </v>
   <v>      -0.00923497      -0.07639220       0.01671671 </v>
   <v>      -0.01144079      -0.02577276       0.00708420 </v>
   <v>      -0.07522137      -0.02451519       0.00831413 </v>
   <v>       0.02715960       0.03737809       0.00126004 </v>
   <v>      -0.00081872       0.06316971       0.02083164 </v>
   <v>      -0.26367626      -0.06990429       0.20622371 </v>
   <v>      -0.00711174      -0.03872830      -0.01398211 </v>
   <v>       0.24765229      -0.17365756       0.16757770 </v>
   <v>      -0.00516793       0.00545489      -0.01130327 </v>
   <v>       0.01220674      -0.00932169       0.02045339 </v>
   <v>      -0.02936546      -0.00468829       0.03006777 </v>
   <v>      -0.23395335       0.11124387       0.16819846 </v>
   <v>       0.01325867       0.03169547       0.00604527 </v>
   <v>      -0.00465466      -0.00866818      -0.01313310 </v>
   <v>      -0.10040867      -0.11551807      -0.20718906 </v>
   <v>      -0.08120109      -0.02253110       0.00837913 </v>
   <v>       0.02615876      -0.01307975      -0.03249999 </v>
   <v>      -0.01229758       0.00546419      -0.01786764 </v>
   <v>       0.01062978       0.06191014       0.02173290 </v>
   <v>       0.02656417       0.03924883       0.01070951 </v>
  </varray>
  <varray name="stress" >
   <v>     -12.12846447       0.10078432      -0.09757947 </v>
   <v>       0.10078432     -13.73759722       0.35909907 </v>
   <v>      -0.09757951       0.35909907     -13.21004167 </v>
  </varray>
  <energy>
   <i name="e_fr_energy">   -365.10790368 </i>
   <i name="e_wo_entrp">   -365.11470907 </i>
   <i name="e_0_energy">      0.02041614 </i>
  </energy>
  <time name="totalsc">   12.21   12.70</time>
 </calculation>
 <calculation>
  <scstep>
   <time name="dav">    1.03    1.03</time>
   <time name="total">    1.16    1.24</time>
   <energy>
    <i name="alphaZ">   1310.78577743 </i>
    <i name="ewald"> -15669.73668457 </i>
    <i name="hartreedc">  -5549.76127836 </i>
    <i name="XCdc">   -682.25537979 </i>
    <i name="pawpsdc">  29894.23653114 </i>
    <i name="pawaedc"> -28121.00879152 </i>
    <i name="eentropy">      0.02003391 </i>
    <i name="bandstr">  -1944.16881303 </i>
    <i name="atom">  20396.76966030 </i>
    <i name="e_fr_energy">   -365.11894448 </i>
    <i name="e_wo_entrp">   -365.13897839 </i>
    <i name="e_0_energy">   -365.12562245 </i>
   </energy>
  </scstep>
  <scstep>
   <time name="diag">    0.07    0.07</time>
   <time name="diis">    0.75    0.75</time>
   <time name="orth">    0.01    0.01</time>
   <time name="total">    0.92    0.94</time>
   <energy>
    <i name="e_fr_energy">   -365.11496143 </i>
    <i name="e_wo_entrp">   -365.13499937 </i>
    <i name="e_0_energy">   -365.12164075 </i>
   </energy>
  </scstep>
  <scstep>
   <time name="diag">    0.13    0.13</time>
   <time name="diis">    0.73    0.73</time>
   <time name="orth">    0.01    0.01</time>
   <time name="total">    0.95    0.97</time>
   <energy>
    <i name="e_fr_energy">   -365.11263182 </i>
    <i name="e_wo_entrp">   -365.13276174 </i>
    <i name="e_0_energy">   -365.11934179 </i>
   </energy>
  </scstep>
  <scstep>
   <time name="diag">    0.07    0.07</time>
   <time name="diis">    0.70    0.80</time>
   <time name="orth">    0.01    0.01</time>
   <time name="total">    0.89    1.01</time>
   <energy>
    <i name="e_fr_energy">   -365.11067342 </i>
    <i name="e_wo_entrp">   -365.13067468 </i>
    <i name="e_0_energy">   -365.11734051 </i>
   </energy>
  </scstep>
  <scstep>
   <time name="diag">    0.08    0.08</time>
   <time name="diis">    0.68    0.76</time>
   <time name="orth">    0.01    0.01</time>
   <time name="total">    0.85    0.96</time>
   <energy>
    <i name="e_fr_energy">   -365.11038360 </i>
    <i name="e_wo_entrp">   -365.13046386 </i>
    <i name="e_0_energy">   -365.11707702 </i>
   </energy>
  </scstep>
  <scstep>
   <time name="diag">    0.07    0.07</time>
   <time name="diis">    0.65    0.72</time>
   <time name="orth">    0.01    0.01</time>
   <time name="total">    0.79    0.90</time>
   <energy>
    <i name="e_fr_energy">   -365.11044502 </i>
    <i name="e_wo_entrp">   -365.13049689 </i>
    <i name="e_0_energy">   -365.11712897 </i>
   </energy>
  </scstep>
  <scstep>
   <time name="diag">    0.07    0.07</time>
   <time name="diis">    0.62    0.63</time>
   <time name="orth">    0.01    0.01</time>
   <time name="total">    0.76    0.79</time>
   <energy>
    <i name="e_fr_energy">   -365.11046297 </i>
    <i name="e_wo_entrp">   -365.13053511 </i>
    <i name="e_0_energy">   -365.11715368 </i>
   </energy>
  </scstep>
  <scstep>
   <time name="diag">    0.07    0.07</time>
   <time name="diis">    0.56    0.56</time>
   <time name="orth">    0.01    0.01</time>
   <time name="total">    0.70    0.72</time>
   <energy>
    <i name="e_fr_energy">   -365.11048525 </i>
    <i name="e_wo_entrp">   -365.13053469 </i>
    <i name="e_0_energy">   -365.11716840 </i>
   </energy>
  </scstep>
  <scstep>
   <time name="diag">    0.07    0.07</time>
   <time name="diis">    0.40    0.40</time>
   <time name="orth">    0.01    0.01</time>
   <time name="total">    0.54    0.56</time>
   <energy>
    <i name="e_fr_energy">   -365.11050213 </i>
    <i name="e_wo_entrp">   -365.13056417 </i>
    <i name="e_0_energy">   -365.11718948 </i>
   </energy>
  </scstep>
  <scstep>
   <time name="diag">    0.07    0.07</time>
   <time name="diis">    0.37    0.37</time>
   <time name="orth">    0.01    0.01</time>
   <time name="total">    0.51    0.52</time>
   <energy>
    <i name="e_fr_energy">   -365.11051552 </i>
    <i name="e_wo_entrp">   -365.13057025 </i>
    <i name="e_0_energy">   -365.11720043 </i>
   </energy>
  </scstep>
  <scstep>
   <time name="diag">    0.07    0.07</time>
   <time name="diis">    0.34    0.35</time>
   <time name="orth">    0.01    0.01</time>
   <time name="total">    0.46    0.52</time>
   <energy>
    <i name="alphaZ">   1310.78577743 </i>
    <i name="ewald"> -15669.73668457 </i>
    <i name="hartreedc">  -5542.18142267 </i>
    <i name="XCdc">   -682.56538093 </i>
    <i name="pawpsdc">  30007.92962847 </i>
    <i name="pawaedc"> -28234.68904785 </i>
    <i name="eentropy">      0.02005759 </i>
    <i name="bandstr">  -1951.44310827 </i>
    <i name="atom">  20396.76966030 </i>
    <i name="e_fr_energy">   -365.11052049 </i>
    <i name="e_wo_entrp">   -365.13057808 </i>
    <i name="e_0_energy">   -365.11720636 </i>
   </energy>
  </scstep>
  <structure>
   <crystal>
    <varray name="basis" >
     <v>       6.98820999      -0.01646282      -0.01210070 </v>
     <v>      -0.02387385      10.30885041       0.02913397 </v>
     <v>      -0.01721534       0.02859890      10.25918194 </v>
    </varray>
    <i name="volume">    739.06370242 </i>
    <varray name="rec_basis" >
     <v>       0.14309935       0.00033072       0.00023920 </v>
     <v>       0.00022806       0.09700532      -0.00027003 </v>
     <v>       0.00016814      -0.00027509       0.09747471 </v>
    </varray>
   </crystal>
   <varray name="positions" >
    <v>       0.23335527       0.17323754       0.50733064 </v>
    <v>       0.03686421       0.33192349       0.33980758 </v>
    <v>       0.26172636       0.49663250       0.83070254 </v>
    <v>       0.25212818       0.82651113       0.15073559 </v>
    <v>       0.48645551       0.32839738       0.66755170 </v>
    <v>       0.48526644       0.32516760       0.99336825 </v>
    <v>       0.26402840       0.50182530       0.50587240 </v>
    <v>       0.49388279       0.66697465       0.31417423 </v>
    <v>       0.50551789       0.99993953       0.99873664 </v>
    <v>       0.49303157       0.65256762       0.68037626 </v>
    <v>       0.74063975       0.82363024       0.82862563 </v>
    <v>       0.74175443       0.49660665       0.49365437 </v>
    <v>       0.98900081       0.00038367       0.00068931 </v>
    <v>       0.01705014       0.31876864       0.98893722 </v>
    <v>       0.00957699       0.66014707       0.66321567 </v>
    <v>       0.48483778       0.00024363       0.32338837 </v>
    <v>       0.99235769       0.00637101       0.67319963 </v>
    <v>       0.28681354       0.82431873       0.50714008 </v>
    <v>       0.01519480       0.33750606       0.66914932 </v>
    <v>       0.25798072       0.16414794       0.15905068 </v>
    <v>       0.97659999       0.67868318       0.00226610 </v>
    <v>       0.73743775       0.18297947       0.83447536 </v>
    <v>       0.74515664       0.83510751       0.16631434 </v>
    <v>       0.26259698       0.16809143       0.83188685 </v>
    <v>       0.76215325       0.49139677       0.17202957 </v>
    <v>       0.25173831       0.82833339       0.84457373 </v>
    <v>       0.72428529       0.82773748       0.50790793 </v>
    <v>       0.74572671       0.49235695       0.83426358 </v>
    <v>       0.22864481       0.50766212       0.15758326 </v>
    <v>       0.00918398       0.68273029       0.33700924 </v>
    <v>       0.76463110       0.17833752       0.49105564 </v>
    <v>       0.46269078       0.33418394       0.33377635 </v>
    <v>       0.01392581       0.99518471       0.33102198 </v>
    <v>       0.74608102       0.17924030       0.17455101 </v>
    <v>       0.51577096       0.66672827       0.00622377 </v>
    <v>       0.50590737       0.01595331       0.67935018 </v>
   </varray>
  </structure>
  <varray name="forces" >
   <v>       0.14593027      -0.19851506      -0.23829074 </v>
   <v>       0.04262078      -0.01505058      -0.03994453 </v>
   <v>       0.29299184       0.18223970       0.19106056 </v>
   <v>       0.01115282      -0.02370558      -0.00924252 </v>
   <v>      -0.06340547      -0.01837805       0.06610171 </v>
   <v>      -0.03143205      -0.01562478      -0.04296940 </v>
   <v>       0.29203766       0.21231389      -0.19094291 </v>
   <v>      -0.02693273       0.01607515      -0.01390101 </v>
   <v>       0.00480567       0.00296145       0.00791126 </v>
   <v>      -0.00611778      -0.01752151       0.00511072 </v>
   <v>      -0.00104695      -0.03138255      -0.02236150 </v>
   <v>      -0.20256425       0.08991025      -0.15761354 </v>
   <v>       0.01107963      -0.01028085      -0.00528691 </v>
   <v>       0.02913330       0.02613850       0.04706961 </v>
   <v>       0.05008917       0.09126749       0.03033760 </v>
   <v>      -0.02311259       0.00514957      -0.03131094 </v>
   <v>      -0.00982480      -0.08718658       0.01956178 </v>
   <v>      -0.01399322      -0.02255845       0.00396867 </v>
   <v>      -0.10902299      -0.01965119       0.01821445 </v>
   <v>       0.02581910       0.02939805      -0.00233938 </v>
   <v>       0.00067523       0.05381831       0.01550053 </v>
   <v>      -0.27222344      -0.08509505       0.21109585 </v>
   <v>      -0.00513098      -0.03354039      -0.01112089 </v>
   <v>       0.25723611      -0.19482020       0.17566667 </v>
   <v>      -0.00888886       0.00300919      -0.01197606 </v>
   <v>       0.01143013      -0.00960311       0.01558209 </v>
   <v>      -0.02537628      -0.00220876       0.02568638 </v>
   <v>      -0.23911343       0.12306347       0.18203143 </v>
   <v>       0.01168621       0.02854001       0.00248881 </v>
   <v>      -0.00585960      -0.01035340      -0.00922372 </v>
   <v>      -0.11782925      -0.13320988      -0.22063240 </v>
   <v>      -0.06793140      -0.01995935       0.01047383 </v>
   <v>       0.02161503      -0.00822673      -0.02360328 </v>
   <v>      -0.00938634       0.00375612      -0.01616682 </v>
   <v>       0.00708253       0.04938508       0.01041398 </v>
   <v>       0.02380693       0.03984581       0.00865063 </v>
  </varray>
  <varray name="stress" >
   <v>      -8.94772540       0.11468390      -0.12993399 </v>
   <v>       0.11468394     -10.55392066       0.40294616 </v>
   <v>      -0.12993402       0.40294618     -10.03740599 </v>
  </varray>
  <energy>
   <i name="e_fr_energy">   -365.11052049 </i>
   <i name="e_wo_entrp">   -365.11720636 </i>
   <i name="e_0_energy">      0.02005759 </i>
  </energy>
  <time name="totalsc">    9.98   10.65</time>
 </calculation>
 <calculation>
  <scstep>
   <time name="dav">    0.90    0.92</time>
   <time name="total">    1.03    1.16</time>
   <energy>
    <i name="alphaZ">   1313.15390232 </i>
    <i name="ewald"> -15688.07355888 </i>
    <i name="hartreedc">  -5537.06573412 </i>
    <i name="XCdc">   -682.18280502 </i>
    <i name="pawpsdc">  30008.01001247 </i>
    <i name="pawaedc"> -28234.75864148 </i>
    <i name="eentropy">      0.02031449 </i>
    <i name="bandstr">  -1941.01944788 </i>
    <i name="atom">  20396.76966030 </i>
    <i name="e_fr_energy">   -365.14629780 </i>
    <i name="e_wo_entrp">   -365.16661229 </i>
    <i name="e_0_energy">   -365.15306929 </i>
   </energy>
  </scstep>
  <scstep>
   <time name="diag">    0.11    0.11</time>
   <time name="diis">    0.80    0.81</time>
   <time name="orth">    0.01    0.01</time>
   <time name="total">    0.99    1.02</time>
   <energy>
    <i name="e_fr_energy">   -365.15349750 </i>
    <i name="e_wo_entrp">   -365.17385526 </i>
    <i name="e_0_energy">   -365.16028342 </i>
   </energy>
  </scstep>
  <scstep>
   <time name="diag">    0.08    0.08</time>
   <time name="diis">    0.70    0.71</time>
   <time name="orth">    0.01    0.01</time>
   <time name="total">    0.86    0.90</time>
   <energy>
    <i name="e_fr_energy">   -365.14731305 </i>
    <i name="e_wo_entrp">   -365.16747516 </i>
    <i name="e_0_energy">   -365.15403375 </i>
   </energy>
  </scstep>
  <scstep>
   <time name="diag">    0.08    0.08</time>
   <time name="diis">    0.84    0.85</time>
   <time name="orth">    0.01    0.01</time>
   <time name="total">    0.99    1.02</time>
   <energy>
    <i name="e_fr_energy">   -365.14631330 </i>
    <i name="e_wo_entrp">   -365.16668481 </i>
    <i name="e_0_energy">   -365.15310380 </i>
   </energy>
  </scstep>
  <scstep>
   <time name="diag">    0.07    0.07</time>
   <time name="diis">    0.73    0.74</time>
   <time name="orth">    0.01    0.01</time>
   <time name="total">    0.87    0.90</time>
   <energy>
    <i name="e_fr_energy">   -365.14603399 </i>
    <i name="e_wo_entrp">   -365.16630499 </i>
    <i name="e_0_energy">   -365.15279099 </i>
   </energy>
  </scstep>
  <scstep>
   <time name="diag">    0.07    0.07</time>
   <time name="diis">    0.74    0.74</time>
   <time name="orth">    0.01    0.01</time>
   <time name="total">    0.88    0.90</time>
   <energy>
    <i name="e_fr_energy">   -365.14606057 </i>
    <i name="e_wo_entrp">   -365.16638718 </i>
    <i name="e_0_energy">   -365.15283610 </i>
   </energy>
  </scstep>
  <scstep>
   <time name="diag">    0.07    0.07</time>
   <time name="diis">    0.68    0.69</time>
   <time name="orth">    0.01    0.01</time>
   <time name="total">    0.82    0.84</time>
   <energy>
    <i name="e_fr_energy">   -365.14606372 </i>
    <i name="e_wo_entrp">   -365.16634876 </i>
    <i name="e_0_energy">   -365.15282540 </i>
   </energy>
  </scstep>
  <scstep>
   <time name="diag">    0.07    0.07</time>
   <time name="diis">    0.57    0.57</time>
   <time name="orth">    0.01    0.01</time>
   <time name="total">    0.71    0.74</time>
   <energy>
    <i name="e_fr_energy">   -365.14608502 </i>
    <i name="e_wo_entrp">   -365.16638528 </i>
    <i name="e_0_energy">   -365.15285177 </i>
   </energy>
  </scstep>
  <scstep>
   <time name="diag">    0.07    0.07</time>
   <time name="diis">    0.49    0.49</time>
   <time name="orth">    0.01    0.01</time>
   <time name="total">    0.60    0.62</time>
   <energy>
    <i name="alphaZ">   1313.15390232 </i>
    <i name="ewald"> -15688.07355888 </i>
    <i name="hartreedc">  -5530.41972163 </i>
    <i name="XCdc">   -682.43680465 </i>
    <i name="pawpsdc">  30060.76645449 </i>
    <i name="pawaedc"> -28287.55323991 </i>
    <i name="eentropy">      0.02029374 </i>
    <i name="bandstr">  -1947.37307616 </i>
    <i name="atom">  20396.76966030 </i>
    <i name="e_fr_energy">   -365.14609037 </i>
    <i name="e_wo_entrp">   -365.16638411 </i>
    <i name="e_0_energy">   -365.15285495 </i>
   </energy>
  </scstep>
  <structure>
   <crystal>
    <varray name="basis" >
     <v>       6.98608866      -0.01608834      -0.01257347 </v>
     <v>      -0.02333330      10.30028105       0.03088627 </v>
     <v>      -0.01791043       0.03033586      10.25232279 </v>
    </varray>
    <i name="volume">    737.73088442 </i>
    <varray name="rec_basis" >
     <v>       0.14314281       0.00032352       0.00024911 </v>
     <v>       0.00022306       0.09708610      -0.00028688 </v>
     <v>       0.00017488      -0.00029209       0.09754004 </v>
    </varray>
   </crystal>
   <varray name="positions" >
    <v>       0.23416726       0.17250972       0.50655006 </v>
    <v>       0.03686881       0.33194480       0.33962142 </v>
    <v>       0.26296908       0.49727661       0.83133485 </v>
    <v>       0.25216355       0.82647272       0.15071762 </v>
    <v>       0.48628875       0.32836634       0.66770714 </v>
    <v>       0.48522658       0.32516742       0.99327182 </v>
    <v>       0.26526051       0.50248368       0.50525650 </v>
    <v>       0.49381584       0.66698927       0.31421360 </v>
    <v>       0.50556548       0.99996655       0.99874646 </v>
    <v>       0.49303393       0.65249745       0.68039128 </v>
    <v>       0.74061654       0.82358121       0.82858861 </v>
    <v>       0.74096512       0.49688582       0.49316936 </v>
    <v>       0.98903096       0.00037404       0.00066175 </v>
    <v>       0.01708654       0.31886889       0.98919350 </v>
    <v>       0.00971772       0.66046522       0.66329675 </v>
    <v>       0.48479635       0.00027832       0.32338248 </v>
    <v>       0.99231230       0.00607399       0.67326541 </v>
    <v>       0.28673999       0.82428003       0.50713212 </v>
    <v>       0.01446691       0.33748633       0.66925808 </v>
    <v>       0.25806607       0.16417534       0.15902033 </v>
    <v>       0.97661598       0.67876095       0.00227242 </v>
    <v>       0.73634669       0.18267494       0.83503305 </v>
    <v>       0.74515115       0.83505347       0.16630424 </v>
    <v>       0.26364266       0.16747373       0.83238748 </v>
    <v>       0.76208622       0.49138982       0.17199548 </v>
    <v>       0.25177444       0.82831112       0.84458679 </v>
    <v>       0.72422486       0.82774324       0.50794573 </v>
    <v>       0.74479418       0.49273162       0.83480154 </v>
    <v>       0.22867813       0.50771544       0.15756805 </v>
    <v>       0.00915340       0.68269409       0.33700874 </v>
    <v>       0.76403106       0.17789941       0.49041906 </v>
    <v>       0.46256277       0.33414822       0.33381766 </v>
    <v>       0.01396293       0.99519407       0.33101290 </v>
    <v>       0.74607273       0.17923766       0.17451776 </v>
    <v>       0.51576484       0.66678105       0.00618386 </v>
    <v>       0.50597365       0.01605442       0.67936110 </v>
   </varray>
  </structure>
  <varray name="forces" >
   <v>       0.09298065      -0.14729163      -0.16261097 </v>
   <v>       0.04205378      -0.02058902      -0.02705316 </v>
   <v>       0.22221219       0.12062860       0.14943123 </v>
   <v>       0.00549938      -0.01341586      -0.00129311 </v>
   <v>      -0.04481758      -0.01561180       0.05558398 </v>
   <v>      -0.03137615      -0.00627615      -0.01680092 </v>
   <v>       0.23406052       0.17196959      -0.14605966 </v>
   <v>      -0.02677887       0.01394832      -0.02163160 </v>
   <v>       0.00225612      -0.00388097       0.01295746 </v>
   <v>       0.00569160       0.00334239      -0.00968325 </v>
   <v>       0.01450355      -0.02400081      -0.03202503 </v>
   <v>      -0.17454191       0.06509549      -0.11819714 </v>
   <v>       0.01350613      -0.01107746      -0.00216922 </v>
   <v>       0.02864217       0.02693598       0.01080194 </v>
   <v>       0.04579367       0.06321277       0.02860022 </v>
   <v>      -0.02336164      -0.00361241      -0.04147255 </v>
   <v>      -0.00663477      -0.07097483       0.00671217 </v>
   <v>      -0.02829830      -0.00234854       0.01483901 </v>
   <v>      -0.05750604      -0.02226814      -0.00411577 </v>
   <v>       0.01203122       0.03286132       0.01365259 </v>
   <v>       0.00928557       0.04388860       0.01963119 </v>
   <v>      -0.20815647      -0.07126449       0.19016243 </v>
   <v>       0.00033682      -0.02673895      -0.00938249 </v>
   <v>       0.19098651      -0.15998751       0.15061328 </v>
   <v>      -0.00282266       0.00510402      -0.01459179 </v>
   <v>       0.00283936      -0.00402917       0.00432369 </v>
   <v>      -0.01137576       0.00795413       0.02798568 </v>
   <v>      -0.20050203       0.09607164       0.14766287 </v>
   <v>       0.01441539       0.02846899       0.00246852 </v>
   <v>      -0.01143703      -0.01519267      -0.01228879 </v>
   <v>      -0.09173447      -0.10453566      -0.18027949 </v>
   <v>      -0.05962639      -0.02002521      -0.00583543 </v>
   <v>       0.01905299      -0.02101836      -0.03487523 </v>
   <v>      -0.00728852       0.00249869      -0.01967076 </v>
   <v>       0.00508950       0.06141813       0.03406236 </v>
   <v>       0.02502148       0.02074098      -0.00945228 </v>
  </varray>
  <varray name="stress" >
   <v>      -6.65340787       0.06673819      -0.02623433 </v>
   <v>       0.06673820      -8.24503687       0.25192317 </v>
   <v>      -0.02623434       0.25192309      -7.58821633 </v>
  </varray>
  <energy>
   <i name="e_fr_energy">   -365.14609037 </i>
   <i name="e_wo_entrp">   -365.15285495 </i>
   <i name="e_0_energy">      0.02029374 </i>
  </energy>
  <time name="totalsc">    9.20    9.62</time>
 </calculation>
 <calculation>
  <scstep>
   <time name="dav">    0.95    0.96</time>
   <time name="total">    1.07    1.16</time>
   <energy>
    <i name="alphaZ">   1320.29434626 </i>
    <i name="ewald"> -15741.00474021 </i>
    <i name="hartreedc">  -5516.96389691 </i>
    <i name="XCdc">   -681.27800071 </i>
    <i name="pawpsdc">  30061.15945748 </i>
    <i name="pawaedc"> -28287.90916851 </i>
    <i name="eentropy">      0.02086673 </i>
    <i name="bandstr">  -1916.28987605 </i>
    <i name="atom">  20396.76966030 </i>
    <i name="e_fr_energy">   -365.20135162 </i>
    <i name="e_wo_entrp">   -365.22221835 </i>
    <i name="e_0_energy">   -365.20830720 </i>
   </energy>
  </scstep>
  <scstep>
   <time name="diag">    0.07    0.07</time>
   <time name="diis">    0.83    0.84</time>
   <time name="orth">    0.01    0.01</time>
   <time name="total">    0.97    1.00</time>
   <energy>
    <i name="e_fr_energy">   -365.27061393 </i>
    <i name="e_wo_entrp">   -365.29088334 </i>
    <i name="e_0_energy">   -365.27737040 </i>
   </energy>
  </scstep>
  <scstep>
   <time name="diag">    0.07    0.07</time>
   <time name="diis">    0.73    0.74</time>
   <time name="orth">    0.01    0.01</time>
   <time name="total">    0.88    0.90</time>
   <energy>
    <i name="e_fr_energy">   -365.20683814 </i>
    <i name="e_wo_entrp">   -365.22685305 </i>
    <i name="e_0_energy">   -365.21350977 </i>
   </energy>
  </scstep>
  <scstep>
   <time name="diag">    0.11    0.11</time>
   <time name="diis">    0.83    0.84</time>
   <time name="orth">    0.01    0.01</time>
   <time name="total">    1.03    1.06</time>
   <energy>
    <i name="e_fr_energy">   -365.19851072 </i>
    <i name="e_wo_entrp">   -365.21911169 </i>
    <i name="e_0_energy">   -365.20537771 </i>
   </energy>
  </scstep>
  <scstep>
   <time name="diag">    0.08    0.08</time>
   <time name="diis">    0.78    0.79</time>
   <time name="orth">    0.01    0.01</time>
   <time name="total">    0.94    0.97</time>
   <energy>
    <i name="e_fr_energy">   -365.19595303 </i>
    <i name="e_wo_entrp">   -365.21618111 </i>
    <i name="e_0_energy">   -365.20269572 </i>
   </energy>
  </scstep>
  <scstep>
   <time name="diag">    0.20    0.21</time>
   <time name="diis">    0.83    0.84</time>
   <time name="orth">    0.01    0.01</time>
   <time name="total">    1.13    1.16</time>
   <energy>
    <i name="e_fr_energy">   -365.19618340 </i>
    <i name="e_wo_entrp">   -365.21657894 </i>
    <i name="e_0_energy">   -365.20298192 </i>
   </energy>
  </scstep>
  <scstep>
   <time name="diag">    0.07    0.07</time>
   <time name="diis">    0.80    0.80</time>
   <time name="orth">    0.01    0.01</time>
   <time name="total">    0.94    0.97</time>
   <energy>
    <i name="e_fr_energy">   -365.19614862 </i>
    <i name="e_wo_entrp">   -365.21642041 </i>
    <i name="e_0_energy">   -365.20290588 </i>
   </energy>
  </scstep>
  <scstep>
   <time name="diag">    0.07    0.07</time>
   <time name="diis">    0.74    0.75</time>
   <time name="orth">    0.01    0.01</time>
   <time name="total">    0.88    0.90</time>
   <energy>
    <i name="e_fr_energy">   -365.19630058 </i>
    <i name="e_wo_entrp">   -365.21661335 </i>
    <i name="e_0_energy">   -365.20307151 </i>
   </energy>
  </scstep>
  <scstep>
   <time name="diag">    0.07    0.07</time>
   <time name="diis">    0.69    0.69</time>
   <time name="orth">    0.01    0.01</time>
   <time name="total">    0.83    0.85</time>
   <energy>
    <i name="e_fr_energy">   -365.19630837 </i>
    <i name="e_wo_entrp">   -365.21660011 </i>
    <i name="e_0_energy">   -365.20307229 </i>
   </energy>
  </scstep>
  <scstep>
   <time name="diag">    0.07    0.07</time>
   <time name="diis">    0.62    0.64</time>
   <time name="orth">    0.01    0.01</time>
   <time name="total">    0.77    0.80</time>
   <energy>
    <i name="e_fr_energy">   -365.19633441 </i>
    <i name="e_wo_entrp">   -365.21664957 </i>
    <i name="e_0_energy">   -365.20310613 </i>
   </energy>
  </scstep>
  <scstep>
[...]
       <r>    6.1762    1.0000 </r>
       <r>    6.2038    1.0000 </r>
       <r>    6.2464    1.0000 </r>
       <r>    6.2807    1.0000 </r>
       <r>    6.3509    1.0000 </r>
       <r>    6.3984    1.0000 </r>
       <r>    6.4399    1.0000 </r>
       <r>    6.4840    1.0000 </r>
       <r>    6.5355    1.0002 </r>
       <r>    6.5525    1.0003 </r>
       <r>    6.6035    1.0015 </r>
       <r>    6.6435    1.0045 </r>
       <r>    6.6634    1.0071 </r>
       <r>    6.7100    1.0175 </r>
       <r>    6.7199    1.0204 </r>
       <r>    6.7347    1.0249 </r>
       <r>    6.7876    1.0354 </r>
       <r>    6.7988    1.0340 </r>
       <r>    6.8336    1.0115 </r>
       <r>    6.8551    0.9783 </r>
       <r>    6.9115    0.7980 </r>
       <r>    6.9439    0.6379 </r>
       <r>    6.9755    0.4618 </r>
       <r>    7.0184    0.2360 </r>
       <r>    7.0525    0.0992 </r>
       <r>    7.0867    0.0133 </r>
       <r>    7.1256   -0.0293 </r>
       <r>    7.1620   -0.0349 </r>
       <r>    7.1872   -0.0295 </r>
       <r>    7.2579   -0.0100 </r>
       <r>    7.2872   -0.0053 </r>
       <r>    7.3329   -0.0016 </r>
       <r>    7.3779   -0.0004 </r>
       <r>    7.3960   -0.0002 </r>
       <r>    7.4402   -0.0000 </r>
       <r>    7.4959   -0.0000 </r>
       <r>    7.5080   -0.0000 </r>
       <r>    7.5473   -0.0000 </r>
       <r>    7.5899   -0.0000 </r>
       <r>    7.6495   -0.0000 </r>
       <r>    7.6877   -0.0000 </r>
       <r>    7.7693   -0.0000 </r>
       <r>    7.8024   -0.0000 </r>
       <r>    7.8242   -0.0000 </r>
       <r>    7.9228   -0.0000 </r>
       <r>    8.1675   -0.0000 </r>
       <r>    8.2278   -0.0000 </r>
       <r>    8.3251   -0.0000 </r>
       <r>    8.8876   -0.0000 </r>
      </set>
     </set>
    </set>
   </array>
  </eigenvalues>
  <separator name="orbital magnetization" >
   <v name="MAGDIPOLOUT">      0.00000000      0.00000000      0.00000000</v>
  </separator>
  <dos>
   <i name="efermi">      6.96867079 </i>
   <total>
    <array>
     <dimension dim="1">gridpoints</dimension>
     <dimension dim="2">spin</dimension>
     <field>energy</field>
     <field>total</field>
     <field>integrated</field>
     <set>
      <set comment="spin 1">
       <r>   -49.9881     0.0000     0.0000 </r>
       <r>   -49.7825     0.0000     0.0000 </r>
       <r>   -49.5769     0.0000     0.0000 </r>
       <r>   -49.3713     0.0000     0.0000 </r>
       <r>   -49.1657     0.0000     0.0000 </r>
       <r>   -48.9601     0.0000     0.0000 </r>
       <r>   -48.7545     0.0000     0.0000 </r>
       <r>   -48.5489    -0.0000    -0.0000 </r>
       <r>   -48.3433    -0.0000    -0.0000 </r>
       <r>   -48.1377    -0.0000    -0.0000 </r>
       <r>   -47.9321    -0.0000    -0.0000 </r>
       <r>   -47.7265    -0.0000    -0.0000 </r>
       <r>   -47.5209    -0.0706    -0.0145 </r>
       <r>   -47.3153    -1.1140    -0.2435 </r>
       <r>   -47.1097    32.6179     6.4626 </r>
       <r>   -46.9041    18.3536    10.2361 </r>
       <r>   -46.6985    -1.1347    10.0028 </r>
       <r>   -46.4929    -0.0135    10.0000 </r>
       <r>   -46.2873    -0.0000    10.0000 </r>
       <r>   -46.0817    -0.0000    10.0000 </r>
       <r>   -45.8761     0.0000    10.0000 </r>
       <r>   -45.6705     0.0000    10.0000 </r>
       <r>   -45.4649     0.0000    10.0000 </r>
       <r>   -45.2593     0.0000    10.0000 </r>
       <r>   -45.0537     0.0000    10.0000 </r>
       <r>   -44.8481     0.0000    10.0000 </r>
       <r>   -44.6425     0.0000    10.0000 </r>
       <r>   -44.4369     0.0000    10.0000 </r>
       <r>   -44.2313     0.0000    10.0000 </r>
       <r>   -44.0257     0.0000    10.0000 </r>
       <r>   -43.8201     0.0000    10.0000 </r>
       <r>   -43.6145     0.0000    10.0000 </r>
       <r>   -43.4089     0.0000    10.0000 </r>
       <r>   -43.2033     0.0000    10.0000 </r>
       <r>   -42.9978     0.0000    10.0000 </r>
       <r>   -42.7922     0.0000    10.0000 </r>
       <r>   -42.5866    -0.0000    10.0000 </r>
       <r>   -42.3810    -0.0000    10.0000 </r>
       <r>   -42.1754    -0.0000    10.0000 </r>
       <r>   -41.9698    -0.0000    10.0000 </r>
       <r>   -41.7642    -0.0005     9.9999 </r>
       <r>   -41.5586    -0.1875     9.9614 </r>
       <r>   -41.3530     0.4974    10.0636 </r>
       <r>   -41.1474    36.4627    17.5603 </r>
       <r>   -40.9418    42.2864    26.2542 </r>
       <r>   -40.7362    -1.1247    26.0230 </r>
       <r>   -40.5306    -0.1118    26.0000 </r>
       <r>   -40.3250    -0.0001    26.0000 </r>
       <r>   -40.1194    -0.0000    26.0000 </r>
       <r>   -39.9138     0.0000    26.0000 </r>
       <r>   -39.7082     0.0000    26.0000 </r>
       <r>   -39.5026     0.0000    26.0000 </r>
       <r>   -39.2970     0.0000    26.0000 </r>
       <r>   -39.0914     0.0000    26.0000 </r>
       <r>   -38.8858     0.0000    26.0000 </r>
       <r>   -38.6802     0.0000    26.0000 </r>
       <r>   -38.4746     0.0000    26.0000 </r>
       <r>   -38.2690     0.0000    26.0000 </r>
       <r>   -38.0634     0.0000    26.0000 </r>
       <r>   -37.8578     0.0000    26.0000 </r>
       <r>   -37.6522     0.0000    26.0000 </r>
       <r>   -37.4466     0.0000    26.0000 </r>
       <r>   -37.2410     0.0000    26.0000 </r>
       <r>   -37.0354     0.0000    26.0000 </r>
       <r>   -36.8298     0.0000    26.0000 </r>
       <r>   -36.6242     0.0000    26.0000 </r>
       <r>   -36.4186     0.0000    26.0000 </r>
       <r>   -36.2130     0.0000    26.0000 </r>
       <r>   -36.0074     0.0000    26.0000 </r>
       <r>   -35.8018     0.0000    26.0000 </r>
       <r>   -35.5962     0.0000    26.0000 </r>
       <r>   -35.3906     0.0000    26.0000 </r>
       <r>   -35.1850     0.0000    26.0000 </r>
       <r>   -34.9794     0.0000    26.0000 </r>
       <r>   -34.7738     0.0000    26.0000 </r>
       <r>   -34.5682     0.0000    26.0000 </r>
       <r>   -34.3627     0.0000    26.0000 </r>
       <r>   -34.1571     0.0000    26.0000 </r>
       <r>   -33.9515     0.0000    26.0000 </r>
       <r>   -33.7459     0.0000    26.0000 </r>
       <r>   -33.5403     0.0000    26.0000 </r>
       <r>   -33.3347     0.0000    26.0000 </r>
       <r>   -33.1291     0.0000    26.0000 </r>
       <r>   -32.9235     0.0000    26.0000 </r>
       <r>   -32.7179     0.0000    26.0000 </r>
       <r>   -32.5123     0.0000    26.0000 </r>
       <r>   -32.3067     0.0000    26.0000 </r>
       <r>   -32.1011     0.0000    26.0000 </r>
       <r>   -31.8955     0.0000    26.0000 </r>
       <r>   -31.6899     0.0000    26.0000 </r>
       <r>   -31.4843     0.0000    26.0000 </r>
       <r>   -31.2787     0.0000    26.0000 </r>
       <r>   -31.0731     0.0000    26.0000 </r>
       <r>   -30.8675     0.0000    26.0000 </r>
       <r>   -30.6619     0.0000    26.0000 </r>
       <r>   -30.4563     0.0000    26.0000 </r>
       <r>   -30.2507     0.0000    26.0000 </r>
       <r>   -30.0451     0.0000    26.0000 </r>
       <r>   -29.8395     0.0000    26.0000 </r>
       <r>   -29.6339     0.0000    26.0000 </r>
       <r>   -29.4283     0.0000    26.0000 </r>
       <r>   -29.2227     0.0000    26.0000 </r>
       <r>   -29.0171     0.0000    26.0000 </r>
       <r>   -28.8115     0.0000    26.0000 </r>
       <r>   -28.6059     0.0000    26.0000 </r>
       <r>   -28.4003     0.0000    26.0000 </r>
       <r>   -28.1947     0.0000    26.0000 </r>
       <r>   -27.9891     0.0000    26.0000 </r>
       <r>   -27.7835     0.0000    26.0000 </r>
       <r>   -27.5779     0.0000    26.0000 </r>
       <r>   -27.3723     0.0000    26.0000 </r>
       <r>   -27.1667     0.0000    26.0000 </r>
       <r>   -26.9611     0.0000    26.0000 </r>
       <r>   -26.7555     0.0000    26.0000 </r>
       <r>   -26.5499     0.0000    26.0000 </r>
       <r>   -26.3443     0.0000    26.0000 </r>
       <r>   -26.1387     0.0000    26.0000 </r>
       <r>   -25.9332     0.0000    26.0000 </r>
       <r>   -25.7276     0.0000    26.0000 </r>
       <r>   -25.5220     0.0000    26.0000 </r>
       <r>   -25.3164     0.0000    26.0000 </r>
       <r>   -25.1108     0.0000    26.0000 </r>
       <r>   -24.9052     0.0000    26.0000 </r>
       <r>   -24.6996    -0.0000    26.0000 </r>
       <r>   -24.4940    -0.0000    26.0000 </r>
       <r>   -24.2884    -0.0000    26.0000 </r>
       <r>   -24.0828    -0.0000    26.0000 </r>
       <r>   -23.8772    -0.0090    25.9981 </r>
       <r>   -23.6716    -0.5443    25.8862 </r>
       <r>   -23.4660     4.8966    26.8930 </r>
       <r>   -23.2604    79.3523    43.2076 </r>
       <r>   -23.0548    58.7387    55.2841 </r>
       <r>   -22.8492     3.9087    56.0878 </r>
       <r>   -22.6436    -0.4188    56.0016 </r>
       <r>   -22.4380    -0.0080    56.0000 </r>
       <r>   -22.2324    -0.0000    56.0000 </r>
       <r>   -22.0268    -0.0000    56.0000 </r>
       <r>   -21.8212     0.0000    56.0000 </r>
       <r>   -21.6156     0.0000    56.0000 </r>
       <r>   -21.4100     0.0000    56.0000 </r>
       <r>   -21.2044     0.0000    56.0000 </r>
       <r>   -20.9988    -0.0000    56.0000 </r>
       <r>   -20.7932    -0.0000    56.0000 </r>
       <r>   -20.5876    -0.0000    56.0000 </r>
       <r>   -20.3820    -0.0000    56.0000 </r>
       <r>   -20.1764    -0.0000    56.0000 </r>
       <r>   -19.9708    -0.0251    55.9948 </r>
       <r>   -19.7652    -0.5643    55.8788 </r>
       <r>   -19.5596    11.1317    58.1674 </r>
       <r>   -19.3540    47.0411    67.8390 </r>
       <r>   -19.1484   118.5285    92.2082 </r>
       <r>   -18.9428    53.8731   103.2843 </r>
       <r>   -18.7372     3.8983   104.0858 </r>
       <r>   -18.5316    -0.4094   104.0016 </r>
       <r>   -18.3260    -0.0080   104.0000 </r>
       <r>   -18.1204    -0.0000   104.0000 </r>
       <r>   -17.9148    -0.0000   104.0000 </r>
       <r>   -17.7092     0.0000   104.0000 </r>
       <r>   -17.5037     0.0000   104.0000 </r>
       <r>   -17.2981     0.0000   104.0000 </r>
       <r>   -17.0925     0.0000   104.0000 </r>
       <r>   -16.8869     0.0000   104.0000 </r>
       <r>   -16.6813     0.0000   104.0000 </r>
       <r>   -16.4757     0.0000   104.0000 </r>
       <r>   -16.2701     0.0000   104.0000 </r>
       <r>   -16.0645     0.0000   104.0000 </r>
       <r>   -15.8589     0.0000   104.0000 </r>
       <r>   -15.6533     0.0000   104.0000 </r>
       <r>   -15.4477     0.0000   104.0000 </r>
       <r>   -15.2421     0.0000   104.0000 </r>
       <r>   -15.0365     0.0000   104.0000 </r>
       <r>   -14.8309     0.0000   104.0000 </r>
       <r>   -14.6253     0.0000   104.0000 </r>
       <r>   -14.4197     0.0000   104.0000 </r>
       <r>   -14.2141     0.0000   104.0000 </r>
       <r>   -14.0085     0.0000   104.0000 </r>
       <r>   -13.8029     0.0000   104.0000 </r>
       <r>   -13.5973     0.0000   104.0000 </r>
       <r>   -13.3917     0.0000   104.0000 </r>
       <r>   -13.1861     0.0000   104.0000 </r>
       <r>   -12.9805     0.0000   104.0000 </r>
       <r>   -12.7749     0.0000   104.0000 </r>
       <r>   -12.5693     0.0000   104.0000 </r>
       <r>   -12.3637     0.0000   104.0000 </r>
       <r>   -12.1581     0.0000   104.0000 </r>
       <r>   -11.9525     0.0000   104.0000 </r>
       <r>   -11.7469     0.0000   104.0000 </r>
       <r>   -11.5413     0.0000   104.0000 </r>
       <r>   -11.3357     0.0000   104.0000 </r>
       <r>   -11.1301     0.0000   104.0000 </r>
       <r>   -10.9245     0.0000   104.0000 </r>
       <r>   -10.7189     0.0000   104.0000 </r>
       <r>   -10.5133     0.0000   104.0000 </r>
       <r>   -10.3077     0.0000   104.0000 </r>
       <r>   -10.1021     0.0000   104.0000 </r>
       <r>    -9.8965     0.0000   104.0000 </r>
       <r>    -9.6909     0.0000   104.0000 </r>
       <r>    -9.4853     0.0000   104.0000 </r>
       <r>    -9.2797     0.0000   104.0000 </r>
       <r>    -9.0741     0.0000   104.0000 </r>
       <r>    -8.8686     0.0000   104.0000 </r>
       <r>    -8.6630     0.0000   104.0000 </r>
       <r>    -8.4574     0.0000   104.0000 </r>
       <r>    -8.2518     0.0000   104.0000 </r>
       <r>    -8.0462     0.0000   104.0000 </r>
       <r>    -7.8406     0.0000   104.0000 </r>
       <r>    -7.6350     0.0000   104.0000 </r>
       <r>    -7.4294     0.0000   104.0000 </r>
       <r>    -7.2238     0.0000   104.0000 </r>
       <r>    -7.0182     0.0000   104.0000 </r>
       <r>    -6.8126     0.0000   104.0000 </r>
       <r>    -6.6070     0.0000   104.0000 </r>
       <r>    -6.4014     0.0000   104.0000 </r>
       <r>    -6.1958     0.0000   104.0000 </r>
       <r>    -5.9902     0.0000   104.0000 </r>
       <r>    -5.7846     0.0000   104.0000 </r>
       <r>    -5.5790     0.0000   104.0000 </r>
       <r>    -5.3734     0.0000   104.0000 </r>
       <r>    -5.1678     0.0000   104.0000 </r>
       <r>    -4.9622     0.0000   104.0000 </r>
       <r>    -4.7566     0.0000   104.0000 </r>
       <r>    -4.5510     0.0000   104.0000 </r>
       <r>    -4.3454     0.0000   104.0000 </r>
       <r>    -4.1398     0.0000   104.0000 </r>
       <r>    -3.9342     0.0000   104.0000 </r>
       <r>    -3.7286     0.0000   104.0000 </r>
       <r>    -3.5230     0.0000   104.0000 </r>
       <r>    -3.3174     0.0000   104.0000 </r>
       <r>    -3.1118     0.0000   104.0000 </r>
       <r>    -2.9062     0.0000   104.0000 </r>
       <r>    -2.7006     0.0000   104.0000 </r>
       <r>    -2.4950     0.0000   104.0000 </r>
       <r>    -2.2894     0.0000   104.0000 </r>
       <r>    -2.0838     0.0000   104.0000 </r>
       <r>    -1.8782     0.0000   104.0000 </r>
       <r>    -1.6726     0.0000   104.0000 </r>
       <r>    -1.4670     0.0000   104.0000 </r>
       <r>    -1.2614    -0.0000   104.0000 </r>
       <r>    -1.0558    -0.0000   104.0000 </r>
       <r>    -0.8502    -0.0000   104.0000 </r>
       <r>    -0.6446    -0.0000   104.0000 </r>
       <r>    -0.4391    -0.0000   104.0000 </r>
       <r>    -0.2335    -0.0020   103.9996 </r>
       <r>    -0.0279     0.0073   104.0011 </r>
       <r>     0.1777     0.3066   104.0641 </r>
       <r>     0.3833     1.1954   104.3099 </r>
       <r>     0.5889     1.7701   104.6738 </r>
       <r>     0.7945     2.3186   105.1505 </r>
       <r>     1.0001     3.6168   105.8941 </r>
       <r>     1.2057     3.2395   106.5602 </r>
       <r>     1.4113     3.1797   107.2139 </r>
       <r>     1.6169     4.3758   108.1136 </r>
       <r>     1.8225     3.7099   108.8763 </r>
       <r>     2.0281     2.7205   109.4357 </r>
       <r>     2.2337     8.0634   111.0935 </r>
       <r>     2.4393     7.7844   112.6939 </r>
       <r>     2.6449     8.1751   114.3747 </r>
       <r>     2.8505     6.4195   115.6946 </r>
       <r>     3.0561     9.3184   117.6104 </r>
       <r>     3.2617    13.6957   120.4262 </r>
       <r>     3.4673    20.7960   124.7018 </r>
       <r>     3.6729    20.0729   128.8288 </r>
       <r>     3.8785    25.5916   134.0903 </r>
       <r>     4.0841    30.9713   140.4579 </r>
       <r>     4.2897    31.4556   146.9251 </r>
       <r>     4.4953    38.9637   154.9360 </r>
       <r>     4.7009    36.3728   162.4141 </r>
       <r>     4.9065    33.2625   169.2528 </r>
       <r>     5.1121    34.2386   176.2922 </r>
       <r>     5.3177    31.3210   182.7317 </r>
       <r>     5.5233    13.6829   185.5449 </r>
       <r>     5.7289    37.8552   193.3278 </r>
       <r>     5.9345    61.8711   206.0484 </r>
       <r>     6.1401    60.0901   218.4028 </r>
       <r>     6.3457    55.7911   229.8733 </r>
       <r>     6.5513    54.9050   241.1616 </r>
       <r>     6.7569    57.8612   253.0577 </r>
       <r>     6.9625    51.8400   263.7159 </r>
       <r>     7.1681    46.0780   273.1894 </r>
       <r>     7.3737    48.9934   283.2624 </r>
       <r>     7.5793    47.1440   292.9551 </r>
       <r>     7.7849    35.5815   300.2705 </r>
       <r>     7.9904    28.3426   306.0977 </r>
       <r>     8.1960    22.6057   310.7454 </r>
       <r>     8.4016    19.0026   314.6523 </r>
       <r>     8.6072    10.4868   316.8083 </r>
       <r>     8.8128    11.4825   319.1691 </r>
       <r>     9.0184     4.2770   320.0484 </r>
       <r>     9.2240    -0.2291   320.0013 </r>
       <r>     9.4296    -0.0064   320.0000 </r>
       <r>     9.6352    -0.0000   320.0000 </r>
       <r>     9.8408    -0.0000   320.0000 </r>
       <r>    10.0464     0.0000   320.0000 </r>
       <r>    10.2520     0.0000   320.0000 </r>
       <r>    10.4576     0.0000   320.0000 </r>
       <r>    10.6632     0.0000   320.0000 </r>
       <r>    10.8688     0.0000   320.0000 </r>
       <r>    11.0744     0.0000   320.0000 </r>
       <r>    11.2800     0.0000   320.0000 </r>
       <r>    11.4856     0.0000   320.0000 </r>
       <r>    11.6912     0.0000   320.0000 </r>
      </set>
     </set>
    </array>
   </total>
  </dos>
 </calculation>
 <structure name="finalpos" >
  <crystal>
   <varray name="basis" >
    <v>       6.99338665      -0.01144127      -0.01206880 </v>
    <v>      -0.01661110      10.25888500       0.03695897 </v>
    <v>      -0.01718691       0.03630429      10.23342274 </v>
   </varray>
   <i name="volume">    734.17681421 </i>
   <varray name="rec_basis" >
    <v>       0.14299303       0.00023067       0.00023934 </v>
    <v>       0.00015888       0.09747798      -0.00034555 </v>
    <v>       0.00016807      -0.00035178       0.09772055 </v>
   </varray>
  </crystal>
  <varray name="positions" >
   <v>       0.23651206       0.16816662       0.50474355 </v>
   <v>       0.03749177       0.33256583       0.33987253 </v>
   <v>       0.27328567       0.49881782       0.83266545 </v>
   <v>       0.25117540       0.82622813       0.15156777 </v>
   <v>       0.48726632       0.32592228       0.66938812 </v>
   <v>       0.48255966       0.32454107       0.99486409 </v>
   <v>       0.27434361       0.50534785       0.50309606 </v>
   <v>       0.49267215       0.66900273       0.31570473 </v>
   <v>       0.50430028      -0.00082877       0.00012532 </v>
   <v>       0.49508324       0.65499331       0.67831452 </v>
   <v>       0.74470928       0.82248478       0.82699510 </v>
   <v>       0.73584258       0.49584238       0.49145983 </v>
   <v>       0.98951828       0.00002848       0.00057555 </v>
   <v>       0.01883351       0.32277006       0.98667589 </v>
   <v>       0.01086186       0.65743911       0.66443983 </v>
   <v>       0.48447019       0.00029070       0.32143762 </v>
   <v>       0.98934010       0.00603157       0.67405681 </v>
   <v>       0.28061678       0.82722171       0.50847626 </v>
   <v>       0.01376408       0.33689957       0.66877840 </v>
   <v>       0.25171292       0.16577265       0.15955246 </v>
   <v>       0.97852985       0.67821412       0.00274523 </v>
   <v>       0.73231988       0.18002943       0.84162493 </v>
   <v>       0.74546541       0.83474298       0.16765600 </v>
   <v>       0.26739949       0.16282851       0.83506565 </v>
   <v>       0.76109277       0.49207738       0.17120077 </v>
   <v>       0.24994338       0.82885071       0.84232136 </v>
   <v>       0.72583905       0.82808216       0.50774675 </v>
   <v>       0.73654656       0.49492158       0.83769148 </v>
   <v>       0.23053537       0.50917033       0.15809567 </v>
   <v>       0.00837471       0.68052644       0.33685658 </v>
   <v>       0.76136689       0.17681499       0.48644110 </v>
   <v>       0.46062253       0.33221329       0.33221818 </v>
   <v>       0.01303434       0.99459198       0.32907047 </v>
   <v>       0.74828173       0.17992817       0.17194791 </v>
   <v>       0.51633051       0.67177557       0.00779352 </v>
   <v>       0.50995181       0.01570149       0.67872950 </v>
  </varray>
 </structure>
</modeling>
