<?xml version="1.0" encoding="ISO-8859-1"?>
<modeling>
 <generator>
  <i name="program" type="string">vasp </i>
  <i name="version" type="string">5.4.1  </i>
  <i name="subversion" type="string">05Feb16 (build Jan 29 2020 16:04:39) complex                          parallel </i>
  <i name="platform" type="string">IFC91_ompi </i>
  <i name="date" type="string">2020 06 15 </i>
  <i name="time" type="string">04:35:28 </i>
 </generator>
 <incar>
  <i type="string" name="SYSTEM"> automatically generated by mexm</i>
  <i type="int" name="ISTART">     0</i>
  <i type="string" name="PREC">accurate               ! avoid wrap aro</i>
  <i type="string" name="ALGO"> Fast                   ! blocked Davids</i>
  <i type="int" name="ISPIN">     1</i>
  <i type="int" name="ICHARG">     2</i>
  <i type="int" name="NELM">    70</i>
  <i type="int" name="IBRION">     2</i>
  <i name="EDIFF">      0.00001000</i>
  <i name="EDIFFG">     -0.01000000</i>
  <i type="int" name="NSW">   300</i>
  <i type="int" name="ISIF">     3</i>
  <i type="int" name="ISYM">     1</i>
  <i name="ENCUT">    300.00000000</i>
  <i name="POTIM">      0.15000000</i>
  <i type="string" name="LREAL"> Auto                  ! unpublished met</i>
  <i type="int" name="ISMEAR">     1</i>
  <i name="SIGMA">      0.15000000</i>
  <i type="logical" name="LWAVE"> F  </i>
  <i type="logical" name="LCHARG"> F  </i>
  <i type="logical" name="LVTOT"> F  </i>
  <v type="int" name="KPOINT_BSE">    -1     0     0     0</v>
  <i type="int" name="NELM">    70</i>
 </incar>
 <kpoints>
  <generation param="Gamma">
   <v type="int" name="divisions">       3        3        3 </v>
   <v name="usershift">      0.00000000       0.00000000       0.00000000 </v>
   <v name="genvec1">      0.33333333       0.00000000       0.00000000 </v>
   <v name="genvec2">     -0.00000000       0.33333333       0.00000000 </v>
   <v name="genvec3">      0.00000000      -0.00000000       0.33333333 </v>
   <v name="shift">      0.00000000       0.00000000       0.00000000 </v>
  </generation>
  <varray name="kpointlist" >
   <v>       0.00000000       0.00000000       0.00000000 </v>
   <v>       0.33333333      -0.00000000       0.00000000 </v>
   <v>       0.00000000       0.33333333      -0.00000000 </v>
   <v>       0.33333333       0.33333333       0.00000000 </v>
   <v>      -0.33333333       0.33333333       0.00000000 </v>
   <v>       0.00000000       0.00000000       0.33333333 </v>
   <v>       0.33333333       0.00000000       0.33333333 </v>
   <v>      -0.33333333       0.00000000       0.33333333 </v>
   <v>      -0.00000000       0.33333333       0.33333333 </v>
   <v>       0.33333333       0.33333333       0.33333333 </v>
   <v>      -0.33333333       0.33333333       0.33333333 </v>
   <v>       0.00000000      -0.33333333       0.33333333 </v>
   <v>       0.33333333      -0.33333333       0.33333333 </v>
   <v>      -0.33333333      -0.33333333       0.33333333 </v>
  </varray>
  <varray name="weights" >
   <v>       0.03703704 </v>
   <v>       0.07407407 </v>
   <v>       0.07407407 </v>
   <v>       0.07407407 </v>
   <v>       0.07407407 </v>
   <v>       0.07407407 </v>
   <v>       0.07407407 </v>
   <v>       0.07407407 </v>
   <v>       0.07407407 </v>
   <v>       0.07407407 </v>
   <v>       0.07407407 </v>
   <v>       0.07407407 </v>
   <v>       0.07407407 </v>
   <v>       0.07407407 </v>
  </varray>
 </kpoints>
 <parameters>
  <separator name="general" >
   <i type="string" name="SYSTEM">automatically generated by mexm</i>
   <i type="logical" name="LCOMPAT"> F  </i>
  </separator>
  <separator name="electronic" >
   <i type="string" name="PREC">accura</i>
   <i name="ENMAX">    300.00000000</i>
   <i name="ENAUG">    461.25700000</i>
   <i name="EDIFF">      0.00001000</i>
   <i type="int" name="IALGO">    68</i>
   <i type="int" name="IWAVPR">    11</i>
   <i type="int" name="NBANDS">   204</i>
   <i name="NELECT">    337.00000000</i>
   <i type="int" name="TURBO">     0</i>
   <i type="int" name="IRESTART">     0</i>
   <i type="int" name="NREBOOT">     0</i>
   <i type="int" name="NMIN">     0</i>
   <i name="EREF">      0.00000000</i>
   <separator name="electronic smearing" >
    <i type="int" name="ISMEAR">     1</i>
    <i name="SIGMA">      0.15000000</i>
    <i name="KSPACING">      0.50000000</i>
    <i type="logical" name="KGAMMA"> T  </i>
   </separator>
   <separator name="electronic projectors" >
    <i type="logical" name="LREAL"> T  </i>
    <v name="ROPT">     -0.00025000     -0.00025000     -0.00025000     -0.00025000</v>
    <i type="int" name="LMAXPAW">  -100</i>
    <i type="int" name="LMAXMIX">     2</i>
    <i type="logical" name="NLSPLINE"> F  </i>
   </separator>
   <separator name="electronic startup" >
    <i type="int" name="ISTART">     0</i>
    <i type="int" name="ICHARG">     2</i>
    <i type="int" name="INIWAV">     1</i>
   </separator>
   <separator name="electronic spin" >
    <i type="int" name="ISPIN">     1</i>
    <i type="logical" name="LNONCOLLINEAR"> F  </i>
    <v name="MAGMOM">      1.00000000      1.00000000      1.00000000      1.00000000      1.00000000      1.00000000      1.00000000      1.00000000      1.00000000      1.00000000      1.00000000      1.00000000      1.00000000      1.00000000      1.00000000      1.00000000      1.00000000      1.00000000      1.00000000      1.00000000
      1.00000000      1.00000000      1.00000000      1.00000000      1.00000000      1.00000000      1.00000000      1.00000000      1.00000000      1.00000000      1.00000000      1.00000000      1.00000000      1.00000000      1.00000000      1.00000000</v>
    <i name="NUPDOWN">     -1.00000000</i>
    <i type="logical" name="LSORBIT"> F  </i>
    <v name="SAXIS">      0.00000000      0.00000000      1.00000000</v>
    <i type="logical" name="LSPIRAL"> F  </i>
    <v name="QSPIRAL">      0.00000000      0.00000000      0.00000000</v>
    <i type="logical" name="LZEROZ"> F  </i>
   </separator>
   <separator name="electronic exchange-correlation" >
    <i type="logical" name="LASPH"> F  </i>
    <i type="logical" name="LMETAGGA"> F  </i>
   </separator>
   <separator name="electronic convergence" >
    <i type="int" name="NELM">    70</i>
    <i type="int" name="NELMDL">    -5</i>
    <i type="int" name="NELMIN">     2</i>
    <i name="ENINI">    300.00000000</i>
    <separator name="electronic convergence detail" >
     <i type="logical" name="LDIAG"> T  </i>
     <i type="logical" name="LSUBROT"> F  </i>
     <i name="WEIMIN">      0.00100000</i>
     <i name="EBREAK">      0.00000001</i>
     <i name="DEPER">      0.30000000</i>
     <i type="int" name="NRMM">     4</i>
     <i name="TIME">      0.40000000</i>
    </separator>
   </separator>
   <separator name="electronic mixer" >
    <i name="AMIX">      0.40000000</i>
    <i name="BMIX">      1.00000000</i>
    <i name="AMIN">      0.10000000</i>
    <i name="AMIX_MAG">      1.60000000</i>
    <i name="BMIX_MAG">      1.00000000</i>
    <separator name="electronic mixer details" >
     <i type="int" name="IMIX">     4</i>
     <i type="logical" name="MIXFIRST"> F  </i>
     <i type="int" name="MAXMIX">   -45</i>
     <i name="WC">    100.00000000</i>
     <i type="int" name="INIMIX">     1</i>
     <i type="int" name="MIXPRE">     1</i>
     <i type="int" name="MREMOVE">     5</i>
    </separator>
   </separator>
   <separator name="electronic dipolcorrection" >
    <i type="logical" name="LDIPOL"> F  </i>
    <i type="logical" name="LMONO"> F  </i>
    <i type="int" name="IDIPOL">     0</i>
    <i name="EPSILON">      1.00000000</i>
    <v name="DIPOL">   -100.00000000   -100.00000000   -100.00000000</v>
    <i name="EFIELD">      0.00000000</i>
   </separator>
  </separator>
  <separator name="grids" >
   <i type="int" name="NGX">    40</i>
   <i type="int" name="NGY">    60</i>
   <i type="int" name="NGZ">    60</i>
   <i type="int" name="NGXF">    80</i>
   <i type="int" name="NGYF">   120</i>
   <i type="int" name="NGZF">   120</i>
   <i type="logical" name="ADDGRID"> F  </i>
  </separator>
  <separator name="ionic" >
   <i type="int" name="NSW">   300</i>
   <i type="int" name="IBRION">     2</i>
   <i type="int" name="ISIF">     3</i>
   <i name="PSTRESS">      0.00000000</i>
   <i name="EDIFFG">     -0.01000000</i>
   <i type="int" name="NFREE">     1</i>
   <i name="POTIM">      0.15000000</i>
   <i name="SMASS">     -3.00000000</i>
   <i name="SCALEE">      1.00000000</i>
  </separator>
  <separator name="ionic md" >
   <i name="TEBEG">      0.00010000</i>
   <i name="TEEND">      0.00010000</i>
   <i type="int" name="NBLOCK">     1</i>
   <i type="int" name="KBLOCK">   300</i>
   <i type="int" name="NPACO">   256</i>
   <i name="APACO">     16.00000000</i>
  </separator>
  <separator name="symmetry" >
   <i type="int" name="ISYM">     1</i>
   <i name="SYMPREC">      0.00001000</i>
  </separator>
  <separator name="dos" >
   <i type="logical" name="LORBIT"> F  </i>
   <v name="RWIGS">     -1.00000000     -1.00000000     -1.00000000     -1.00000000</v>
   <i type="int" name="NEDOS">   301</i>
   <i name="EMIN">     10.00000000</i>
   <i name="EMAX">    -10.00000000</i>
   <i name="EFERMI">      0.00000000</i>
  </separator>
  <separator name="writing" >
   <i type="int" name="NWRITE">     2</i>
   <i type="logical" name="LWAVE"> F  </i>
   <i type="logical" name="LCHARG"> F  </i>
   <i type="logical" name="LPARD"> F  </i>
   <i type="logical" name="LVTOT"> F  </i>
   <i type="logical" name="LVHAR"> F  </i>
   <i type="logical" name="LELF"> F  </i>
   <i type="logical" name="LOPTICS"> F  </i>
   <v name="STM">      0.00000000      0.00000000      0.00000000      0.00000000      0.00000000      0.00000000      0.00000000</v>
  </separator>
  <separator name="performance" >
   <i type="int" name="NPAR">     4</i>
   <i type="int" name="NSIM">     4</i>
   <i type="int" name="NBLK">    -1</i>
   <i type="logical" name="LPLANE"> T  </i>
   <i type="logical" name="LSCALAPACK"> T  </i>
   <i type="logical" name="LSCAAWARE"> F  </i>
   <i type="logical" name="LSCALU"> F  </i>
   <i type="logical" name="LASYNC"> F  </i>
   <i type="logical" name="LORBITALREAL"> F  </i>
  </separator>
  <separator name="miscellaneous" >
   <i type="int" name="IDIOT">     3</i>
   <i type="logical" name="LMUSIC"> F  </i>
   <v name="POMASS">    178.49000000     91.22400000     92.91000000    180.94800000</v>
   <v name="DARWINR">      0.00000000      0.00000000      0.00000000      0.00000000</v>
   <v name="DARWINV">      1.00000000      1.00000000      1.00000000      1.00000000</v>
   <i type="logical" name="LCORR"> T  </i>
  </separator>
  <i type="logical" name="GGA_COMPAT"> T  </i>
  <i type="logical" name="LBERRY"> F  </i>
  <i type="int" name="ICORELEVEL">     0</i>
  <i type="logical" name="LDAU"> F  </i>
  <i type="int" name="I_CONSTRAINED_M">     0</i>
  <separator name="electronic exchange-correlation" >
   <i type="string" name="GGA">--</i>
   <i type="int" name="VOSKOWN">     0</i>
   <i type="logical" name="LHFCALC"> F  </i>
   <i type="string" name="PRECFOCK"></i>
   <i type="logical" name="LSYMGRAD"> F  </i>
   <i type="logical" name="LHFONE"> F  </i>
   <i type="logical" name="LRHFCALC"> F  </i>
   <i type="logical" name="LTHOMAS"> F  </i>
   <i type="logical" name="LMODELHF"> F  </i>
   <i name="ENCUT4O">     -1.00000000</i>
   <i type="int" name="EXXOEP">     0</i>
   <i type="int" name="FOURORBIT">     0</i>
   <i name="AEXX">      0.00000000</i>
   <i name="HFALPHA">      0.00000000</i>
   <i name="MCALPHA">      0.00000000</i>
   <i name="ALDAX">      1.00000000</i>
   <i name="AGGAX">      1.00000000</i>
   <i name="ALDAC">      1.00000000</i>
   <i name="AGGAC">      1.00000000</i>
   <i type="int" name="NKREDX">     1</i>
   <i type="int" name="NKREDY">     1</i>
   <i type="int" name="NKREDZ">     1</i>
   <i type="logical" name="SHIFTRED"> F  </i>
   <i type="logical" name="ODDONLY"> F  </i>
   <i type="logical" name="EVENONLY"> F  </i>
   <i type="int" name="LMAXFOCK">     0</i>
   <i type="int" name="NMAXFOCKAE">     0</i>
   <i type="logical" name="LFOCKAEDFT"> F  </i>
   <i name="HFSCREEN">      0.00000000</i>
   <i name="HFSCREENC">      0.00000000</i>
   <i type="int" name="NBANDSGWLOW">     0</i>
  </separator>
  <separator name="vdW DFT" >
   <i type="logical" name="LUSE_VDW"> F  </i>
   <i name="Zab_VDW">     -0.84910000</i>
   <i name="PARAM1">      0.12340000</i>
   <i name="PARAM2">      1.00000000</i>
   <i name="PARAM3">      0.00000000</i>
  </separator>
  <separator name="model GW" >
   <i type="int" name="MODEL_GW">     0</i>
   <i name="MODEL_EPS0">     12.25968623</i>
   <i name="MODEL_ALPHA">      1.00000000</i>
  </separator>
  <separator name="linear response parameters" >
   <i type="logical" name="LEPSILON"> F  </i>
   <i type="logical" name="LRPA"> F  </i>
   <i type="logical" name="LNABLA"> F  </i>
   <i type="logical" name="LVEL"> F  </i>
   <i type="int" name="KINTER">     0</i>
   <i name="CSHIFT">      0.10000000</i>
   <i name="OMEGAMAX">     -1.00000000</i>
   <i name="DEG_THRESHOLD">      0.00200000</i>
  </separator>
  <separator name="orbital magnetization" >
   <i type="logical" name="NUCIND"> F  </i>
   <v name="MAGPOS">      0.00000000      0.00000000      0.00000000</v>
   <i type="logical" name="LNICSALL"> T  </i>
   <i type="logical" name="ORBITALMAG"> F  </i>
   <i type="logical" name="LMAGBLOCH"> F  </i>
   <i type="logical" name="LCHIMAG"> F  </i>
   <i type="logical" name="LGAUGE"> T  </i>
   <i type="int" name="MAGATOM">     0</i>
   <v name="MAGDIPOL">      0.00000000      0.00000000      0.00000000</v>
   <v name="AVECCONST">      0.00000000      0.00000000      0.00000000</v>
  </separator>
  <separator name="response functions" >
   <i type="logical" name="LADDER"> F  </i>
   <i type="logical" name="LFXC"> F  </i>
   <i type="logical" name="LHARTREE"> T  </i>
   <i type="int" name="IBSE">     0</i>
   <v type="int" name="KPOINT">    -1     0     0     0</v>
   <i type="logical" name="LTCTE"> F  </i>
   <i type="logical" name="LTETE"> F  </i>
   <i type="logical" name="LTRIPLET"> F  </i>
   <i type="logical" name="LFXCEPS"> F  </i>
   <i type="logical" name="LFXHEG"> F  </i>
   <i type="int" name="NATURALO">     0</i>
   <i type="logical" name="L2ORDER"> F  </i>
   <i type="logical" name="LUSEW"> F  </i>
   <i name="ENCUTGW">     -2.00000000</i>
   <i name="ENCUTGWSOFT">     -2.00000000</i>
   <i name="ENCUTLF">     -1.00000000</i>
   <i type="int" name="LMAXMP2">    -1</i>
   <i name="SCISSOR">      0.00000000</i>
   <i type="int" name="NOMEGA">     0</i>
   <i type="int" name="NOMEGAR">     0</i>
   <i type="int" name="NBANDSGW">    -1</i>
   <i type="int" name="NBANDSO">    -1</i>
   <i type="int" name="NBANDSV">    -1</i>
   <i type="int" name="NELM">    70</i>
   <i type="int" name="NELMHF">     1</i>
   <i type="int" name="DIM">     3</i>
   <i type="int" name="ANTIRES">     0</i>
   <i name="OMEGAMAX">    -30.00000000</i>
   <i name="OMEGAMIN">    -30.00000000</i>
   <i name="OMEGATL">   -200.00000000</i>
   <i type="int" name="OMEGAGRID">     0</i>
   <i name="CSHIFT">     -0.10000000</i>
   <i type="logical" name="SELFENERGY"> F  </i>
   <i type="logical" name="LSPECTRAL"> F  </i>
   <i type="logical" name="LSPECTRALGW"> F  </i>
   <i type="logical" name="LSINGLES"> F  </i>
   <i type="logical" name="LFERMIGW"> F  </i>
   <i type="logical" name="ODDONLYGW"> F  </i>
   <i type="logical" name="EVENONLYGW"> F  </i>
   <i type="int" name="NKREDLFX">     1</i>
   <i type="int" name="NKREDLFY">     1</i>
   <i type="int" name="NKREDLFZ">     1</i>
   <i type="int" name="MAXMEM">  1800</i>
   <i type="int" name="TELESCOPE">     0</i>
   <i type="int" name="TAUPAR">     1</i>
   <i type="int" name="OMEGAPAR">    -1</i>
   <i name="LAMBDA">      1.00000000</i>
  </separator>
  <separator name="External order field" >
   <i name="OFIELD_KAPPA">      0.00000000</i>
   <v name="OFIELD_K">      0.00000000      0.00000000      0.00000000</v>
   <i name="OFIELD_Q6_NEAR">      0.00000000</i>
   <i name="OFIELD_Q6_FAR">      0.00000000</i>
   <i name="OFIELD_A">      0.00000000</i>
  </separator>
 </parameters>
 <atominfo>
  <atoms>      36 </atoms>
  <types>       4 </types>
  <array name="atoms" >
   <dimension dim="1">ion</dimension>
   <field type="string">element</field>
   <field type="int">atomtype</field>
   <set>
    <rc><c>Hf</c><c>   1</c></rc>
    <rc><c>Hf</c><c>   1</c></rc>
    <rc><c>Hf</c><c>   1</c></rc>
    <rc><c>Hf</c><c>   1</c></rc>
    <rc><c>Hf</c><c>   1</c></rc>
    <rc><c>Hf</c><c>   1</c></rc>
    <rc><c>Hf</c><c>   1</c></rc>
    <rc><c>Hf</c><c>   1</c></rc>
    <rc><c>Zr</c><c>   2</c></rc>
    <rc><c>Zr</c><c>   2</c></rc>
    <rc><c>Zr</c><c>   2</c></rc>
    <rc><c>Zr</c><c>   2</c></rc>
    <rc><c>Zr</c><c>   2</c></rc>
    <rc><c>Zr</c><c>   2</c></rc>
    <rc><c>Zr</c><c>   2</c></rc>
    <rc><c>Zr</c><c>   2</c></rc>
    <rc><c>Zr</c><c>   2</c></rc>
    <rc><c>Zr</c><c>   2</c></rc>
    <rc><c>Zr</c><c>   2</c></rc>
    <rc><c>Nb</c><c>   3</c></rc>
    <rc><c>Nb</c><c>   3</c></rc>
    <rc><c>Nb</c><c>   3</c></rc>
    <rc><c>Nb</c><c>   3</c></rc>
    <rc><c>Nb</c><c>   3</c></rc>
    <rc><c>Nb</c><c>   3</c></rc>
    <rc><c>Nb</c><c>   3</c></rc>
    <rc><c>Nb</c><c>   3</c></rc>
    <rc><c>Nb</c><c>   3</c></rc>
    <rc><c>Nb</c><c>   3</c></rc>
    <rc><c>Nb</c><c>   3</c></rc>
    <rc><c>Ta</c><c>   4</c></rc>
    <rc><c>Ta</c><c>   4</c></rc>
    <rc><c>Ta</c><c>   4</c></rc>
    <rc><c>Ta</c><c>   4</c></rc>
    <rc><c>Ta</c><c>   4</c></rc>
    <rc><c>Ta</c><c>   4</c></rc>
   </set>
  </array>
  <array name="atomtypes" >
   <dimension dim="1">type</dimension>
   <field type="int">atomspertype</field>
   <field type="string">element</field>
   <field>mass</field>
   <field>valence</field>
   <field type="string">pseudopotential</field>
   <set>
    <rc><c>   8</c><c>Hf</c><c>    178.49000000</c><c>      4.00000000</c><c>  PAW_PBE Hf 20Jan2003                  </c></rc>
    <rc><c>  11</c><c>Zr</c><c>     91.22400000</c><c>     12.00000000</c><c>  PAW_PBE Zr_sv 04Jan2005               </c></rc>
    <rc><c>  11</c><c>Nb</c><c>     92.91000000</c><c>     13.00000000</c><c>  PAW_PBE Nb_sv 25May2007               </c></rc>
    <rc><c>   6</c><c>Ta</c><c>    180.94800000</c><c>      5.00000000</c><c>  PAW_PBE Ta 17Jan2003                  </c></rc>
   </set>
  </array>
 </atominfo>
 <structure name="initialpos" >
  <crystal>
   <varray name="basis" >
    <v>       6.98655216       0.00416524      -0.01051037 </v>
    <v>       0.00587124      10.34388432       0.01244583 </v>
    <v>      -0.01496992       0.01215651      10.17854679 </v>
   </varray>
   <i name="volume">    735.58117373 </i>
   <varray name="rec_basis" >
    <v>       0.14313248      -0.00008150       0.00021061 </v>
    <v>      -0.00005781       0.09667565      -0.00011555 </v>
    <v>       0.00014787      -0.00011829       0.09824621 </v>
   </varray>
  </crystal>
  <varray name="positions" >
   <v>       0.99002400       0.34751700       0.01078500 </v>
   <v>       0.99521900       0.66084800       0.99450900 </v>
   <v>       0.25492300       0.82735200       0.16459800 </v>
   <v>       0.48218900       0.99741600       0.66525100 </v>
   <v>       0.77133000       0.83521900       0.49918100 </v>
   <v>       0.23345100       0.49641800       0.48848600 </v>
   <v>       0.01832000       0.66959000       0.68172600 </v>
   <v>       0.75633600       0.49781000       0.49351600 </v>
   <v>       0.26125700       0.17085400       0.16333300 </v>
   <v>       0.98445500       0.99356100       0.99058000 </v>
   <v>       0.76577700       0.16909900       0.50205200 </v>
   <v>       0.25580400       0.17361700       0.84053100 </v>
   <v>       0.75667500       0.17529800       0.82049000 </v>
   <v>       0.26162200       0.50608100       0.17575100 </v>
   <v>       0.52620200       0.98376300       0.98568500 </v>
   <v>       0.73886400       0.17024900       0.17567100 </v>
   <v>       0.47389400       0.99774800       0.35102000 </v>
   <v>       0.73849600       0.48730300       0.81849700 </v>
   <v>       0.48595500       0.67141100       0.66528600 </v>
   <v>       0.74411200       0.82459600       0.18113400 </v>
   <v>       0.23116100       0.17316700       0.50192700 </v>
   <v>       0.49729700       0.33166600       0.34623400 </v>
   <v>       0.26774600       0.49128400       0.83565100 </v>
   <v>       0.99295100       0.33246900       0.31617000 </v>
   <v>       0.02994400       0.33679900       0.67115000 </v>
   <v>       0.99607000       0.66768900       0.32419300 </v>
   <v>       0.21903000       0.82983900       0.49294700 </v>
   <v>       0.25416100       0.83216400       0.84851700 </v>
   <v>       0.51105800       0.35205700       0.00141200 </v>
   <v>       0.75524500       0.83064200       0.81627400 </v>
   <v>       0.73275800       0.50914600       0.17879300 </v>
   <v>       0.50329500       0.66448200       0.98804600 </v>
   <v>       0.02156200       0.00460800       0.33809200 </v>
   <v>       0.02533400       0.98837300       0.67200300 </v>
   <v>       0.47510800       0.32502800       0.64956200 </v>
   <v>       0.49238200       0.67483700       0.35094700 </v>
  </varray>
 </structure>
 <calculation>
  <scstep>
   <time name="dav">    1.21    1.22</time>
   <time name="total">    1.29    1.67</time>
   <energy>
    <i name="alphaZ">   1743.19691597 </i>
    <i name="ewald"> -25391.62401575 </i>
    <i name="hartreedc">  -7797.91351165 </i>
    <i name="XCdc">    349.70640149 </i>
    <i name="pawpsdc">  26740.51678085 </i>
    <i name="pawaedc"> -25409.02388151 </i>
    <i name="eentropy">      0.02397471 </i>
    <i name="bandstr">   -397.32730834 </i>
    <i name="atom">  32623.27625270 </i>
    <i name="e_fr_energy">   2460.83160848 </i>
    <i name="e_wo_entrp">   2460.80763377 </i>
    <i name="e_0_energy">   2460.82361691 </i>
   </energy>
  </scstep>
  <scstep>
   <time name="dav">    1.22    1.24</time>
   <time name="total">    1.23    1.43</time>
   <energy>
    <i name="e_fr_energy">    -18.39475826 </i>
    <i name="e_wo_entrp">    -18.40277964 </i>
    <i name="e_0_energy">    -18.39743205 </i>
   </energy>
  </scstep>
  <scstep>
   <time name="dav">    1.65    1.66</time>
   <time name="total">    1.65    1.70</time>
   <energy>
    <i name="e_fr_energy">   -327.54435567 </i>
    <i name="e_wo_entrp">   -327.54711373 </i>
    <i name="e_0_energy">   -327.54527503 </i>
   </energy>
  </scstep>
  <scstep>
   <time name="dav">    1.60    1.61</time>
   <time name="total">    1.65    1.71</time>
   <energy>
    <i name="e_fr_energy">   -364.14650596 </i>
    <i name="e_wo_entrp">   -364.14343959 </i>
    <i name="e_0_energy">   -364.14548383 </i>
   </energy>
  </scstep>
  <scstep>
   <time name="dav">    1.61    1.62</time>
   <time name="total">    1.64    1.69</time>
   <energy>
    <i name="e_fr_energy">   -367.89862564 </i>
    <i name="e_wo_entrp">   -367.89552270 </i>
    <i name="e_0_energy">   -367.89759133 </i>
   </energy>
  </scstep>
  <scstep>
   <time name="diag">    0.11    0.11</time>
   <time name="diis">    1.03    1.03</time>
   <time name="orth">    0.02    0.02</time>
   <time name="total">    1.28    1.34</time>
   <energy>
    <i name="e_fr_energy">   -357.66881463 </i>
    <i name="e_wo_entrp">   -357.66273373 </i>
    <i name="e_0_energy">   -357.66678766 </i>
   </energy>
  </scstep>
  <scstep>
   <time name="diag">    0.10    0.10</time>
   <time name="diis">    0.97    0.97</time>
   <time name="orth">    0.02    0.02</time>
   <time name="total">    1.61    1.66</time>
   <energy>
    <i name="e_fr_energy">   -361.02570884 </i>
    <i name="e_wo_entrp">   -361.01806146 </i>
    <i name="e_0_energy">   -361.02315971 </i>
   </energy>
  </scstep>
  <scstep>
   <time name="diag">    0.13    0.13</time>
   <time name="diis">    1.16    1.32</time>
   <time name="orth">    0.02    0.02</time>
   <time name="total">    1.60    1.82</time>
   <energy>
    <i name="e_fr_energy">   -353.48325381 </i>
    <i name="e_wo_entrp">   -353.48252565 </i>
    <i name="e_0_energy">   -353.48301109 </i>
   </energy>
  </scstep>
  <scstep>
   <time name="diag">    0.13    0.13</time>
   <time name="diis">    0.88    0.89</time>
   <time name="orth">    0.02    0.02</time>
   <time name="total">    1.14    1.21</time>
   <energy>
    <i name="e_fr_energy">   -353.31729054 </i>
    <i name="e_wo_entrp">   -353.31202780 </i>
    <i name="e_0_energy">   -353.31553629 </i>
   </energy>
  </scstep>
  <scstep>
   <time name="diag">    0.15    0.16</time>
   <time name="diis">    0.89    0.92</time>
   <time name="orth">    0.02    0.06</time>
   <time name="total">    1.26    1.39</time>
   <energy>
    <i name="e_fr_energy">   -353.26683460 </i>
    <i name="e_wo_entrp">   -353.26119868 </i>
    <i name="e_0_energy">   -353.26495596 </i>
   </energy>
  </scstep>
  <scstep>
   <time name="diag">    0.11    0.11</time>
   <time name="diis">    1.32    1.40</time>
   <time name="orth">    0.04    0.04</time>
   <time name="total">    1.94    2.16</time>
   <energy>
    <i name="e_fr_energy">   -353.22357159 </i>
    <i name="e_wo_entrp">   -353.22096551 </i>
    <i name="e_0_energy">   -353.22270290 </i>
   </energy>
  </scstep>
  <scstep>
   <time name="diag">    0.11    0.11</time>
   <time name="diis">    1.46    1.47</time>
   <time name="orth">    0.02    0.02</time>
   <time name="total">    1.80    1.85</time>
   <energy>
    <i name="e_fr_energy">   -353.21809945 </i>
    <i name="e_wo_entrp">   -353.21488565 </i>
    <i name="e_0_energy">   -353.21702818 </i>
   </energy>
  </scstep>
  <scstep>
   <time name="diag">    0.10    0.10</time>
   <time name="diis">    0.86    0.87</time>
   <time name="orth">    0.02    0.02</time>
   <time name="total">    1.05    1.09</time>
   <energy>
    <i name="e_fr_energy">   -353.21465316 </i>
    <i name="e_wo_entrp">   -353.21133275 </i>
    <i name="e_0_energy">   -353.21354636 </i>
   </energy>
  </scstep>
  <scstep>
   <time name="diag">    0.09    0.09</time>
   <time name="diis">    0.88    0.88</time>
   <time name="orth">    0.02    0.02</time>
   <time name="total">    1.05    1.09</time>
   <energy>
    <i name="e_fr_energy">   -353.21465831 </i>
    <i name="e_wo_entrp">   -353.21144556 </i>
    <i name="e_0_energy">   -353.21358739 </i>
   </energy>
  </scstep>
  <scstep>
   <time name="diag">    0.11    0.11</time>
   <time name="diis">    0.92    0.93</time>
   <time name="orth">    0.02    0.02</time>
   <time name="total">    1.41    1.46</time>
   <energy>
    <i name="e_fr_energy">   -353.21468626 </i>
    <i name="e_wo_entrp">   -353.21138218 </i>
    <i name="e_0_energy">   -353.21358490 </i>
   </energy>
  </scstep>
  <scstep>
   <time name="diag">    0.10    0.11</time>
   <time name="diis">    0.76    1.20</time>
   <time name="orth">    0.02    0.20</time>
   <time name="total">    0.95    1.63</time>
   <energy>
    <i name="e_fr_energy">   -353.21471232 </i>
    <i name="e_wo_entrp">   -353.21134896 </i>
    <i name="e_0_energy">   -353.21359120 </i>
   </energy>
  </scstep>
  <scstep>
   <time name="diag">    0.10    0.13</time>
   <time name="diis">    0.63    1.84</time>
   <time name="orth">    0.02    0.02</time>
   <time name="total">    0.82    2.09</time>
   <energy>
    <i name="e_fr_energy">   -353.21471200 </i>
    <i name="e_wo_entrp">   -353.21142265 </i>
    <i name="e_0_energy">   -353.21361555 </i>
   </energy>
  </scstep>
  <scstep>
   <time name="diag">    0.09    0.09</time>
   <time name="diis">    0.59    0.72</time>
   <time name="orth">    0.02    0.02</time>
   <time name="total">    0.76    0.93</time>
   <energy>
    <i name="e_fr_energy">   -353.21471854 </i>
    <i name="e_wo_entrp">   -353.21144304 </i>
    <i name="e_0_energy">   -353.21362671 </i>
   </energy>
  </scstep>
  <scstep>
   <time name="diag">    0.09    0.09</time>
   <time name="diis">    0.58    0.59</time>
   <time name="orth">    0.02    0.02</time>
   <time name="total">    0.76    0.81</time>
   <energy>
    <i name="e_fr_energy">   -353.21472591 </i>
    <i name="e_wo_entrp">   -353.21145853 </i>
    <i name="e_0_energy">   -353.21363678 </i>
   </energy>
  </scstep>
  <scstep>
   <time name="diag">    0.09    0.09</time>
   <time name="diis">    0.54    0.55</time>
   <time name="orth">    0.02    0.02</time>
   <time name="total">    0.69    0.73</time>
   <energy>
    <i name="alphaZ">   1743.19691597 </i>
    <i name="ewald"> -25391.62401575 </i>
    <i name="hartreedc">  -7501.42375409 </i>
    <i name="XCdc">    342.21153805 </i>
    <i name="pawpsdc">  39454.99418725 </i>
    <i name="pawaedc"> -38089.87000106 </i>
    <i name="eentropy">     -0.00327447 </i>
    <i name="bandstr">  -3533.97257616 </i>
    <i name="atom">  32623.27625270 </i>
    <i name="e_fr_energy">   -353.21472755 </i>
    <i name="e_wo_entrp">   -353.21145308 </i>
    <i name="e_0_energy">   -353.21363606 </i>
   </energy>
  </scstep>
  <structure>
   <crystal>
    <varray name="basis" >
     <v>       6.98655216       0.00416524      -0.01051037 </v>
     <v>       0.00587124      10.34388432       0.01244583 </v>
     <v>      -0.01496992       0.01215651      10.17854679 </v>
    </varray>
    <i name="volume">    735.58117373 </i>
    <varray name="rec_basis" >
     <v>       0.14313248      -0.00008150       0.00021061 </v>
     <v>      -0.00005781       0.09667565      -0.00011555 </v>
     <v>       0.00014787      -0.00011829       0.09824621 </v>
    </varray>
   </crystal>
   <varray name="positions" >
    <v>       0.99002400       0.34751700       0.01078500 </v>
    <v>       0.99521900       0.66084800       0.99450900 </v>
    <v>       0.25492300       0.82735200       0.16459800 </v>
    <v>       0.48218900       0.99741600       0.66525100 </v>
    <v>       0.77133000       0.83521900       0.49918100 </v>
    <v>       0.23345100       0.49641800       0.48848600 </v>
    <v>       0.01832000       0.66959000       0.68172600 </v>
    <v>       0.75633600       0.49781000       0.49351600 </v>
    <v>       0.26125700       0.17085400       0.16333300 </v>
    <v>       0.98445500       0.99356100       0.99058000 </v>
    <v>       0.76577700       0.16909900       0.50205200 </v>
    <v>       0.25580400       0.17361700       0.84053100 </v>
    <v>       0.75667500       0.17529800       0.82049000 </v>
    <v>       0.26162200       0.50608100       0.17575100 </v>
    <v>       0.52620200       0.98376300       0.98568500 </v>
    <v>       0.73886400       0.17024900       0.17567100 </v>
    <v>       0.47389400       0.99774800       0.35102000 </v>
    <v>       0.73849600       0.48730300       0.81849700 </v>
    <v>       0.48595500       0.67141100       0.66528600 </v>
    <v>       0.74411200       0.82459600       0.18113400 </v>
    <v>       0.23116100       0.17316700       0.50192700 </v>
    <v>       0.49729700       0.33166600       0.34623400 </v>
    <v>       0.26774600       0.49128400       0.83565100 </v>
    <v>       0.99295100       0.33246900       0.31617000 </v>
    <v>       0.02994400       0.33679900       0.67115000 </v>
    <v>       0.99607000       0.66768900       0.32419300 </v>
    <v>       0.21903000       0.82983900       0.49294700 </v>
    <v>       0.25416100       0.83216400       0.84851700 </v>
    <v>       0.51105800       0.35205700       0.00141200 </v>
    <v>       0.75524500       0.83064200       0.81627400 </v>
    <v>       0.73275800       0.50914600       0.17879300 </v>
    <v>       0.50329500       0.66448200       0.98804600 </v>
    <v>       0.02156200       0.00460800       0.33809200 </v>
    <v>       0.02533400       0.98837300       0.67200300 </v>
    <v>       0.47510800       0.32502800       0.64956200 </v>
    <v>       0.49238200       0.67483700       0.35094700 </v>
   </varray>
  </structure>
  <varray name="forces" >
   <v>      -0.02243411      -0.00265129      -0.01271829 </v>
   <v>      -0.17635732       0.22153754       0.15009380 </v>
   <v>      -0.00016510      -0.03095669      -0.05169687 </v>
   <v>       0.02213098      -0.00040719      -0.01605284 </v>
   <v>       0.03664654       0.00473620       0.02010434 </v>
   <v>      -0.00972184      -0.01221552       0.01875935 </v>
   <v>       0.00879649      -0.02032956      -0.01184187 </v>
   <v>      -0.01911458       0.00977309       0.00588810 </v>
   <v>       0.00414526      -0.02444013      -0.01358613 </v>
   <v>      -0.17642798      -0.22956241       0.29538537 </v>
   <v>       0.00257750       0.01443284       0.02958547 </v>
   <v>      -0.00060919       0.01425047      -0.00180921 </v>
   <v>      -0.00027940       0.02769028      -0.02779775 </v>
   <v>       0.01147733      -0.01749190       0.01329080 </v>
   <v>       0.16104857      -0.20604269       0.39910043 </v>
   <v>      -0.00253879       0.03127164      -0.01813193 </v>
   <v>       0.26695312      -0.11267924      -0.17233530 </v>
   <v>      -0.01583341      -0.00674581      -0.00713010 </v>
   <v>      -0.01314070      -0.01429994       0.01623314 </v>
   <v>       0.09942248      -0.26807103      -0.00309392 </v>
   <v>      -0.00699957       0.01661589       0.00691764 </v>
   <v>       0.04721123      -0.00916755      -0.00133687 </v>
   <v>      -0.00951021      -0.03277440      -0.02233356 </v>
   <v>      -0.02029180       0.02911724       0.00152690 </v>
   <v>       0.01108712       0.00295357       0.00896194 </v>
   <v>      -0.46525516       0.50185023      -0.30082553 </v>
   <v>       0.02490279      -0.02750867       0.00671305 </v>
   <v>       0.01704254      -0.00843217       0.04539982 </v>
   <v>       0.03995152       0.02613152       0.02220738 </v>
   <v>       0.00171561       0.03099311      -0.04726972 </v>
   <v>      -0.05549741      -0.10774754       0.03923727 </v>
   <v>       0.20524993       0.18095494       0.28763173 </v>
   <v>      -0.28786902      -0.21116147      -0.16570849 </v>
   <v>      -0.02999826       0.04318034      -0.00186094 </v>
   <v>       0.00812901      -0.00819489       0.00146807 </v>
   <v>       0.34355584       0.19539117      -0.49297527 </v>
  </varray>
  <varray name="stress" >
   <v>      -7.52163772       0.44509747      -0.29995948 </v>
   <v>       0.44509749      -5.87491652       1.37177099 </v>
   <v>      -0.29995948       1.37177101      -8.21482267 </v>
  </varray>
  <energy>
   <i name="e_fr_energy">   -353.21472755 </i>
   <i name="e_wo_entrp">   -353.21363606 </i>
   <i name="e_0_energy">     -0.00327447 </i>
  </energy>
  <time name="totalsc">   27.33   31.36</time>
 </calculation>
 <calculation>
  <scstep>
   <time name="dav">    1.21    1.22</time>
   <time name="total">    1.29    1.48</time>
   <energy>
    <i name="alphaZ">   1750.16909039 </i>
    <i name="ewald"> -25428.15295212 </i>
    <i name="hartreedc">  -7508.81331217 </i>
    <i name="XCdc">    343.71868165 </i>
    <i name="pawpsdc">  39455.13858719 </i>
    <i name="pawaedc"> -38090.01051000 </i>
    <i name="eentropy">     -0.00385019 </i>
    <i name="bandstr">  -3498.61177256 </i>
    <i name="atom">  32623.27625270 </i>
    <i name="e_fr_energy">   -353.28978511 </i>
    <i name="e_wo_entrp">   -353.28593492 </i>
    <i name="e_0_energy">   -353.28850171 </i>
   </energy>
  </scstep>
  <scstep>
   <time name="diag">    0.18    0.18</time>
   <time name="diis">    0.79    0.80</time>
   <time name="orth">    0.02    0.02</time>
   <time name="total">    1.06    1.11</time>
   <energy>
    <i name="e_fr_energy">   -353.26690972 </i>
    <i name="e_wo_entrp">   -353.26398864 </i>
    <i name="e_0_energy">   -353.26593602 </i>
   </energy>
  </scstep>
  <scstep>
   <time name="diag">    0.09    0.09</time>
   <time name="diis">    0.90    0.91</time>
   <time name="orth">    0.02    0.02</time>
   <time name="total">    1.08    1.13</time>
   <energy>
    <i name="e_fr_energy">   -353.25892318 </i>
    <i name="e_wo_entrp">   -353.25550908 </i>
    <i name="e_0_energy">   -353.25778515 </i>
   </energy>
  </scstep>
  <scstep>
   <time name="diag">    0.09    0.09</time>
   <time name="diis">    0.90    0.90</time>
   <time name="orth">    0.02    0.02</time>
   <time name="total">    1.07    1.12</time>
   <energy>
    <i name="e_fr_energy">   -353.25207267 </i>
    <i name="e_wo_entrp">   -353.24861327 </i>
    <i name="e_0_energy">   -353.25091953 </i>
   </energy>
  </scstep>
  <scstep>
   <time name="diag">    0.09    0.09</time>
   <time name="diis">    0.85    0.86</time>
   <time name="orth">    0.02    0.02</time>
   <time name="total">    1.03    1.07</time>
   <energy>
    <i name="e_fr_energy">   -353.25117885 </i>
    <i name="e_wo_entrp">   -353.24778789 </i>
    <i name="e_0_energy">   -353.25004853 </i>
   </energy>
  </scstep>
  <scstep>
   <time name="diag">    0.09    0.12</time>
   <time name="diis">    0.88    1.00</time>
   <time name="orth">    0.02    0.02</time>
   <time name="total">    1.06    1.23</time>
   <energy>
    <i name="e_fr_energy">   -353.25131351 </i>
    <i name="e_wo_entrp">   -353.24798108 </i>
    <i name="e_0_energy">   -353.25020270 </i>
   </energy>
  </scstep>
  <scstep>
   <time name="diag">    0.09    0.09</time>
   <time name="diis">    0.87    0.87</time>
   <time name="orth">    0.02    0.02</time>
   <time name="total">    1.05    1.09</time>
   <energy>
    <i name="e_fr_energy">   -353.25142971 </i>
    <i name="e_wo_entrp">   -353.24801495 </i>
    <i name="e_0_energy">   -353.25029145 </i>
   </energy>
  </scstep>
  <scstep>
   <time name="diag">    0.10    0.10</time>
   <time name="diis">    0.76    0.76</time>
   <time name="orth">    0.02    0.02</time>
   <time name="total">    0.94    0.98</time>
   <energy>
    <i name="e_fr_energy">   -353.25150824 </i>
    <i name="e_wo_entrp">   -353.24809906 </i>
    <i name="e_0_energy">   -353.25037184 </i>
   </energy>
  </scstep>
  <scstep>
   <time name="diag">    0.09    0.09</time>
   <time name="diis">    0.66    0.66</time>
   <time name="orth">    0.02    0.02</time>
   <time name="total">    0.84    0.88</time>
   <energy>
    <i name="e_fr_energy">   -353.25156256 </i>
    <i name="e_wo_entrp">   -353.24815938 </i>
    <i name="e_0_energy">   -353.25042817 </i>
   </energy>
  </scstep>
  <scstep>
   <time name="diag">    0.09    0.09</time>
   <time name="diis">    0.61    0.61</time>
   <time name="orth">    0.02    0.02</time>
   <time name="total">    0.79    0.83</time>
   <energy>
    <i name="e_fr_energy">   -353.25162276 </i>
    <i name="e_wo_entrp">   -353.24822575 </i>
    <i name="e_0_energy">   -353.25049042 </i>
   </energy>
  </scstep>
  <scstep>
   <time name="diag">    0.10    0.10</time>
   <time name="diis">    0.57    0.66</time>
   <time name="orth">    0.02    0.02</time>
   <time name="total">    0.80    0.93</time>
   <energy>
    <i name="e_fr_energy">   -353.25166450 </i>
    <i name="e_wo_entrp">   -353.24825534 </i>
    <i name="e_0_energy">   -353.25052811 </i>
   </energy>
  </scstep>
  <scstep>
   <time name="diag">    0.09    0.09</time>
   <time name="diis">    0.51    0.51</time>
   <time name="orth">    0.02    0.02</time>
   <time name="total">    0.66    0.72</time>
   <energy>
    <i name="alphaZ">   1750.16909039 </i>
    <i name="ewald"> -25428.15295212 </i>
    <i name="hartreedc">  -7487.51024360 </i>
    <i name="XCdc">    342.73635873 </i>
    <i name="pawpsdc">  39634.35201778 </i>
    <i name="pawaedc"> -38268.83831852 </i>
    <i name="eentropy">     -0.00340964 </i>
    <i name="bandstr">  -3519.28046592 </i>
    <i name="atom">  32623.27625270 </i>
    <i name="e_fr_energy">   -353.25167019 </i>
    <i name="e_wo_entrp">   -353.24826056 </i>
    <i name="e_0_energy">   -353.25053365 </i>
   </energy>
  </scstep>
  <structure>
   <crystal>
    <varray name="basis" >
     <v>       6.97685368       0.00473203      -0.01088019 </v>
     <v>       0.00671219      10.33267151       0.01504564 </v>
     <v>      -0.01551167       0.01471924      10.16311757 </v>
    </varray>
    <i name="volume">    732.65082815 </i>
    <varray name="rec_basis" >
     <v>       0.14333149      -0.00009343       0.00021890 </v>
     <v>      -0.00006586       0.09678064      -0.00014027 </v>
     <v>       0.00015354      -0.00014338       0.09839545 </v>
    </varray>
   </crystal>
   <varray name="positions" >
    <v>       0.98997749       0.34751333       0.01076687 </v>
    <v>       0.99485387       0.66115786       0.99472166 </v>
    <v>       0.25492254       0.82730877       0.16452455 </v>
    <v>       0.48223480       0.99741544       0.66522822 </v>
    <v>       0.77140597       0.83522556       0.49920966 </v>
    <v>       0.23343093       0.49640089       0.48851267 </v>
    <v>       0.01833821       0.66956157       0.68170922 </v>
    <v>       0.75629641       0.49782368       0.49352431 </v>
    <v>       0.26126557       0.17081982       0.16331373 </v>
    <v>       0.98409070       0.99323946       0.99100002 </v>
    <v>       0.76578241       0.16911914       0.50209405 </v>
    <v>       0.25580272       0.17363694       0.84052840 </v>
    <v>       0.75667430       0.17533679       0.82045043 </v>
    <v>       0.26164584       0.50605649       0.17576995 </v>
    <v>       0.52653708       0.98347391       0.98625318 </v>
    <v>       0.73885865       0.17029279       0.17564516 </v>
    <v>       0.47444661       0.99759041       0.35077572 </v>
    <v>       0.73846319       0.48729359       0.81848684 </v>
    <v>       0.48592785       0.67139098       0.66530908 </v>
    <v>       0.74431826       0.82422085       0.18113027 </v>
    <v>       0.23114650       0.17319024       0.50193679 </v>
    <v>       0.49739481       0.33165314       0.34623222 </v>
    <v>       0.26772627       0.49123819       0.83561928 </v>
    <v>       0.99290894       0.33250975       0.31617208 </v>
    <v>       0.02996699       0.33680311       0.67116276 </v>
    <v>       0.99510470       0.66839206       0.32376340 </v>
    <v>       0.21908164       0.82980048       0.49295665 </v>
    <v>       0.25419645       0.83215211       0.84858160 </v>
    <v>       0.51114080       0.35209349       0.00144362 </v>
    <v>       0.75524837       0.83068544       0.81620674 </v>
    <v>       0.73264328       0.50899522       0.17884886 </v>
    <v>       0.50372084       0.66473453       0.98845511 </v>
    <v>       0.02096542       0.00431307       0.33785612 </v>
    <v>       0.02527180       0.98843344       0.67200022 </v>
    <v>       0.47512485       0.32501652       0.64956412 </v>
    <v>       0.49309195       0.67511092       0.35024644 </v>
   </varray>
  </structure>
  <varray name="forces" >
   <v>      -0.01644681      -0.00458146      -0.01956671 </v>
   <v>      -0.16781331       0.19208920       0.13665575 </v>
   <v>      -0.00515187      -0.01773293      -0.04629927 </v>
   <v>       0.02054996       0.00211686      -0.01857821 </v>
   <v>       0.01795526       0.00796081       0.03335279 </v>
   <v>      -0.00775530       0.01990130       0.00592562 </v>
   <v>       0.01131997      -0.03001394      -0.00965996 </v>
   <v>      -0.01581440       0.01871383       0.01248968 </v>
   <v>      -0.00060594      -0.03548082      -0.01736497 </v>
   <v>      -0.15328084      -0.19698282       0.28472187 </v>
   <v>       0.00167106       0.00818888       0.02338654 </v>
   <v>       0.00142785      -0.00726823       0.01746619 </v>
   <v>      -0.00038430       0.01079426      -0.01103919 </v>
   <v>       0.00075366      -0.00884141       0.00893574 </v>
   <v>       0.14337968      -0.17626870       0.37230488 </v>
   <v>      -0.00202079       0.03252113      -0.01423821 </v>
   <v>       0.25482841      -0.10232953      -0.15942235 </v>
   <v>      -0.01090194       0.00302695      -0.00491106 </v>
   <v>      -0.01688046      -0.01760586       0.01526471 </v>
   <v>       0.08792857      -0.22734433      -0.01486716 </v>
   <v>      -0.00442720       0.00085654      -0.00974464 </v>
   <v>       0.03727810      -0.01389064      -0.00587665 </v>
   <v>      -0.01349294      -0.02015836      -0.01503728 </v>
   <v>      -0.01466143       0.01879529       0.00917548 </v>
   <v>      -0.00642645       0.00201499       0.00790697 </v>
   <v>      -0.42461435       0.44192053      -0.27428480 </v>
   <v>       0.04031599      -0.02193489       0.00061223 </v>
   <v>       0.02211306       0.00205518       0.03911599 </v>
   <v>       0.03029879       0.00744303       0.01160835 </v>
   <v>      -0.00321373       0.03190124      -0.03769928 </v>
   <v>      -0.05038799      -0.10529061       0.02653974 </v>
   <v>       0.19915187       0.15711052       0.27304946 </v>
   <v>      -0.27230057      -0.19191853      -0.16216797 </v>
   <v>      -0.02503252       0.05326691      -0.00472618 </v>
   <v>       0.02060466       0.00030535       0.00948868 </v>
   <v>       0.32203627       0.16666026      -0.46251676 </v>
  </varray>
  <varray name="stress" >
   <v>      -2.42794838       0.38454106      -0.18892540 </v>
   <v>       0.38454106      -0.77045104       1.23746904 </v>
   <v>      -0.18892542       1.23746901      -3.06241149 </v>
  </varray>
  <energy>
   <i name="e_fr_energy">   -353.25167019 </i>
   <i name="e_wo_entrp">   -353.25053365 </i>
   <i name="e_0_energy">     -0.00340964 </i>
  </energy>
  <time name="totalsc">   13.43   14.62</time>
 </calculation>
 <calculation>
  <scstep>
   <time name="dav">    1.30    1.36</time>
   <time name="total">    1.38    1.63</time>
   <energy>
    <i name="alphaZ">   1771.31264717 </i>
    <i name="ewald"> -25537.19702687 </i>
    <i name="hartreedc">  -7510.72108376 </i>
    <i name="XCdc">    347.28429708 </i>
    <i name="pawpsdc">  39634.58606385 </i>
    <i name="pawaedc"> -38269.05087909 </i>
    <i name="eentropy">     -0.00528498 </i>
    <i name="bandstr">  -3413.12315469 </i>
    <i name="atom">  32623.27625270 </i>
    <i name="e_fr_energy">   -353.63816860 </i>
    <i name="e_wo_entrp">   -353.63288361 </i>
    <i name="e_0_energy">   -353.63640694 </i>
   </energy>
  </scstep>
  <scstep>
   <time name="diag">    0.09    0.09</time>
   <time name="diis">    0.78    0.79</time>
   <time name="orth">    0.02    0.02</time>
   <time name="total">    0.96    1.01</time>
   <energy>
    <i name="e_fr_energy">   -353.42038089 </i>
    <i name="e_wo_entrp">   -353.41747436 </i>
    <i name="e_0_energy">   -353.41941204 </i>
   </energy>
  </scstep>
  <scstep>
   <time name="diag">    0.09    0.09</time>
   <time name="diis">    0.87    0.87</time>
   <time name="orth">    0.02    0.02</time>
   <time name="total">    1.05    1.09</time>
   <energy>
    <i name="e_fr_energy">   -353.35167288 </i>
    <i name="e_wo_entrp">   -353.34793694 </i>
    <i name="e_0_energy">   -353.35042757 </i>
   </energy>
  </scstep>
  <scstep>
   <time name="diag">    0.09    0.09</time>
   <time name="diis">    0.87    0.89</time>
   <time name="orth">    0.02    0.02</time>
   <time name="total">    1.05    1.11</time>
   <energy>
    <i name="e_fr_energy">   -353.29131236 </i>
    <i name="e_wo_entrp">   -353.28733719 </i>
    <i name="e_0_energy">   -353.28998731 </i>
   </energy>
  </scstep>
  <scstep>
   <time name="diag">    0.09    0.09</time>
   <time name="diis">    0.86    0.87</time>
   <time name="orth">    0.02    0.02</time>
   <time name="total">    1.04    1.09</time>
   <energy>
    <i name="e_fr_energy">   -353.28470456 </i>
    <i name="e_wo_entrp">   -353.28082870 </i>
    <i name="e_0_energy">   -353.28341261 </i>
   </energy>
  </scstep>
  <scstep>
   <time name="diag">    0.09    0.09</time>
   <time name="diis">    0.98    0.98</time>
   <time name="orth">    0.02    0.02</time>
   <time name="total">    1.20    1.25</time>
   <energy>
    <i name="e_fr_energy">   -353.28547201 </i>
    <i name="e_wo_entrp">   -353.28178169 </i>
    <i name="e_0_energy">   -353.28424190 </i>
   </energy>
  </scstep>
  <scstep>
   <time name="diag">    0.09    0.09</time>
   <time name="diis">    0.96    0.96</time>
   <time name="orth">    0.02    0.02</time>
   <time name="total">    1.13    1.18</time>
   <energy>
    <i name="e_fr_energy">   -353.28635556 </i>
    <i name="e_wo_entrp">   -353.28246079 </i>
    <i name="e_0_energy">   -353.28505730 </i>
   </energy>
  </scstep>
  <scstep>
   <time name="diag">    0.09    0.09</time>
   <time name="diis">    0.99    1.00</time>
   <time name="orth">    0.02    0.02</time>
   <time name="total">    1.17    1.23</time>
   <energy>
    <i name="e_fr_energy">   -353.28693208 </i>
    <i name="e_wo_entrp">   -353.28301698 </i>
    <i name="e_0_energy">   -353.28562704 </i>
   </energy>
  </scstep>
  <scstep>
   <time name="diag">    0.09    0.09</time>
   <time name="diis">    0.94    0.95</time>
   <time name="orth">    0.02    0.02</time>
   <time name="total">    1.12    1.16</time>
   <energy>
    <i name="e_fr_energy">   -353.28729101 </i>
    <i name="e_wo_entrp">   -353.28342528 </i>
    <i name="e_0_energy">   -353.28600243 </i>
   </energy>
  </scstep>
  <scstep>
   <time name="diag">    0.09    0.09</time>
   <time name="diis">    0.94    0.95</time>
   <time name="orth">    0.02    0.02</time>
   <time name="total">    1.12    1.16</time>
   <energy>
    <i name="e_fr_energy">   -353.28773433 </i>
    <i name="e_wo_entrp">   -353.28386922 </i>
    <i name="e_0_energy">   -353.28644596 </i>
   </energy>
  </scstep>
  <scstep>
   <time name="diag">    0.09    0.09</time>
   <time name="diis">    0.83    0.84</time>
   <time name="orth">    0.02    0.02</time>
   <time name="total">    1.01    1.06</time>
   <energy>
    <i name="e_fr_energy">   -353.28796828 </i>
    <i name="e_wo_entrp">   -353.28407170 </i>
    <i name="e_0_energy">   -353.28666942 </i>
   </energy>
  </scstep>
  <scstep>
   <time name="diag">    0.09    0.09</time>
   <time name="diis">    0.71    0.74</time>
   <time name="orth">    0.02    0.02</time>
   <time name="total">    0.90    0.96</time>
   <energy>
    <i name="e_fr_energy">   -353.28799563 </i>
    <i name="e_wo_entrp">   -353.28409468 </i>
    <i name="e_0_energy">   -353.28669531 </i>
   </energy>
  </scstep>
  <scstep>
   <time name="diag">    0.09    0.09</time>
   <time name="diis">    0.60    0.64</time>
   <time name="orth">    0.02    0.02</time>
   <time name="total">    0.78    0.86</time>
   <energy>
    <i name="e_fr_energy">   -353.28800804 </i>
    <i name="e_wo_entrp">   -353.28410620 </i>
    <i name="e_0_energy">   -353.28670743 </i>
   </energy>
  </scstep>
  <scstep>
   <time name="diag">    0.09    0.09</time>
   <time name="diis">    0.54    0.55</time>
   <time name="orth">    0.02    0.02</time>
   <time name="total">    0.68    0.72</time>
   <energy>
    <i name="alphaZ">   1771.31264717 </i>
    <i name="ewald"> -25537.19702687 </i>
    <i name="hartreedc">  -7447.10577110 </i>
    <i name="XCdc">    344.34641192 </i>
    <i name="pawpsdc">  40196.51427197 </i>
    <i name="pawaedc"> -38829.49741647 </i>
    <i name="eentropy">     -0.00389609 </i>
    <i name="bandstr">  -3474.93348670 </i>
    <i name="atom">  32623.27625270 </i>
    <i name="e_fr_energy">   -353.28801346 </i>
    <i name="e_wo_entrp">   -353.28411737 </i>
    <i name="e_0_energy">   -353.28671476 </i>
   </energy>
  </scstep>
  <structure>
   <crystal>
    <varray name="basis" >
     <v>       6.94775822       0.00643240      -0.01198964 </v>
     <v>       0.00923502      10.29903307       0.02284504 </v>
     <v>      -0.01713692       0.02240741      10.11682991 </v>
    </varray>
    <i name="volume">    723.90542434 </i>
    <varray name="rec_basis" >
     <v>       0.14393186      -0.00012960       0.00024409 </v>
     <v>      -0.00009027       0.09709705      -0.00021521 </v>
     <v>       0.00017078      -0.00021941       0.09884597 </v>
    </varray>
   </crystal>
   <varray name="positions" >
    <v>       0.98983777       0.34750233       0.01071240 </v>
    <v>       0.99375688       0.66208837       0.99536033 </v>
    <v>       0.25492114       0.82717901       0.16430388 </v>
    <v>       0.48237237       0.99741376       0.66515979 </v>
    <v>       0.77163420       0.83524524       0.49929576 </v>
    <v>       0.23337066       0.49634947       0.48859283 </v>
    <v>       0.01839292       0.66947619       0.68165881 </v>
    <v>       0.75617747       0.49786477       0.49354928 </v>
    <v>       0.26129134       0.17071720       0.16325587 </v>
    <v>       0.98299648       0.99227353       0.99226221 </v>
    <v>       0.76579868       0.16917960       0.50222037 </v>
    <v>       0.25579885       0.17369684       0.84052058 </v>
    <v>       0.75667219       0.17545332       0.82033150 </v>
    <v>       0.26171746       0.50598288       0.17582692 </v>
    <v>       0.52754395       0.98260521       0.98796056 </v>
    <v>       0.73884255       0.17042431       0.17556748 </v>
    <v>       0.47610674       0.99711721       0.35004196 </v>
    <v>       0.73836461       0.48726533       0.81845631 </v>
    <v>       0.48584628       0.67133083       0.66537843 </v>
    <v>       0.74493805       0.82309413       0.18111939 </v>
    <v>       0.23110294       0.17326004       0.50196620 </v>
    <v>       0.49768864       0.33161449       0.34622688 </v>
    <v>       0.26766701       0.49110063       0.83552401 </v>
    <v>       0.99278255       0.33263216       0.31617828 </v>
    <v>       0.03003606       0.33681543       0.67120110 </v>
    <v>       0.99220442       0.67050403       0.32247200 </v>
    <v>       0.21923679       0.82968477       0.49298566 </v>
    <v>       0.25430298       0.83211635       0.84877573 </v>
    <v>       0.51138953       0.35220305       0.00153859 </v>
    <v>       0.75525847       0.83081596       0.81600461 </v>
    <v>       0.73229872       0.50854238       0.17901679 </v>
    <v>       0.50500016       0.66549258       0.98968417 </v>
    <v>       0.01917322       0.00342759       0.33714759 </v>
    <v>       0.02508492       0.98861499       0.67199180 </v>
    <v>       0.47517549       0.32498206       0.64957050 </v>
    <v>       0.49522450       0.67593399       0.34814144 </v>
   </varray>
  </structure>
  <varray name="forces" >
   <v>       0.00045685      -0.01069976      -0.04078770 </v>
   <v>      -0.13953125       0.09763806       0.08900282 </v>
   <v>      -0.02211973       0.02459390      -0.02895839 </v>
   <v>       0.01581461       0.00853984      -0.02705047 </v>
   <v>      -0.04294671       0.01633784       0.07932374 </v>
   <v>      -0.00058106       0.11570513      -0.02916185 </v>
   <v>       0.01905461      -0.05904854      -0.00199305 </v>
   <v>      -0.00446075       0.04421838       0.03483119 </v>
   <v>      -0.01667917      -0.06708692      -0.02682053 </v>
   <v>      -0.07929941      -0.09887653       0.24946016 </v>
   <v>      -0.00091288      -0.01047568       0.00375550 </v>
   <v>       0.00830017      -0.07387881       0.07467277 </v>
   <v>      -0.00083531      -0.04167566       0.03887994 </v>
   <v>      -0.03380193       0.01969975      -0.00385379 </v>
   <v>       0.08837113      -0.08568079       0.28625985 </v>
   <v>      -0.00020872       0.03771621      -0.00345427 </v>
   <v>       0.21553729      -0.06852159      -0.11699868 </v>
   <v>       0.00570934       0.03669081       0.00073557 </v>
   <v>      -0.02904063      -0.02944224       0.01378969 </v>
   <v>       0.04499382      -0.08481039      -0.06173084 </v>
   <v>       0.00397051      -0.04850638      -0.06033979 </v>
   <v>       0.00599911      -0.02905139      -0.01833191 </v>
   <v>      -0.02714881       0.02050546       0.00752388 </v>
   <v>       0.00441558      -0.00887845       0.03583270 </v>
   <v>      -0.05989550       0.00181411       0.00137415 </v>
   <v>      -0.28410022       0.24311869      -0.17807815 </v>
   <v>       0.08948566      -0.00481112      -0.01498014 </v>
   <v>       0.03657966       0.03302231       0.01458526 </v>
   <v>       0.00079715      -0.04814894      -0.01974011 </v>
   <v>      -0.01845594       0.03499685      -0.01019280 </v>
   <v>      -0.03192545      -0.10085916      -0.01629641 </v>
   <v>       0.17765748       0.08133142       0.22601911 </v>
   <v>      -0.22443875      -0.13140745      -0.15090899 </v>
   <v>      -0.00913523       0.08279270      -0.01276409 </v>
   <v>       0.05888642       0.02546387       0.03279946 </v>
   <v>       0.24948806       0.07767448      -0.36640383 </v>
  </varray>
  <varray name="stress" >
   <v>      13.63994589       0.15145622       0.17803245 </v>
   <v>       0.15145618      15.31004559       0.73937766 </v>
   <v>       0.17803244       0.73937769      13.24668585 </v>
  </varray>
  <energy>
   <i name="e_fr_energy">   -353.28801346 </i>
   <i name="e_wo_entrp">   -353.28671476 </i>
   <i name="e_0_energy">     -0.00389609 </i>
  </energy>
  <time name="totalsc">   16.37   17.44</time>
 </calculation>
 <calculation>
  <scstep>
   <time name="dav">    1.23    1.24</time>
   <time name="total">    1.30    1.48</time>
   <energy>
    <i name="alphaZ">   1770.34241874 </i>
    <i name="ewald"> -25534.45718082 </i>
    <i name="hartreedc">  -7443.93840890 </i>
    <i name="XCdc">    344.13699377 </i>
    <i name="pawpsdc">  40197.56747912 </i>
    <i name="pawaedc"> -38830.48252030 </i>
    <i name="eentropy">     -0.00415758 </i>
    <i name="bandstr">  -3479.74809254 </i>
    <i name="atom">  32623.27625270 </i>
    <i name="e_fr_energy">   -353.30721580 </i>
    <i name="e_wo_entrp">   -353.30305822 </i>
    <i name="e_0_energy">   -353.30582994 </i>
   </energy>
  </scstep>
  <scstep>
   <time name="diag">    0.09    0.09</time>
   <time name="diis">    0.85    0.86</time>
   <time name="orth">    0.02    0.02</time>
   <time name="total">    1.03    1.07</time>
   <energy>
    <i name="e_fr_energy">   -353.31181545 </i>
    <i name="e_wo_entrp">   -353.30812291 </i>
    <i name="e_0_energy">   -353.31058460 </i>
   </energy>
  </scstep>
  <scstep>
   <time name="diag">    0.09    0.09</time>
   <time name="diis">    0.85    0.86</time>
   <time name="orth">    0.02    0.02</time>
   <time name="total">    1.03    1.07</time>
   <energy>
    <i name="e_fr_energy">   -353.31032644 </i>
    <i name="e_wo_entrp">   -353.30644356 </i>
    <i name="e_0_energy">   -353.30903215 </i>
   </energy>
  </scstep>
  <scstep>
   <time name="diag">    0.09    0.09</time>
   <time name="diis">    1.01    1.02</time>
   <time name="orth">    0.02    0.02</time>
   <time name="total">    1.20    1.25</time>
   <energy>
    <i name="e_fr_energy">   -353.31008850 </i>
    <i name="e_wo_entrp">   -353.30621682 </i>
    <i name="e_0_energy">   -353.30879794 </i>
   </energy>
  </scstep>
  <scstep>
   <time name="diag">    0.10    0.10</time>
   <time name="diis">    0.86    0.86</time>
   <time name="orth">    0.02    0.02</time>
   <time name="total">    1.04    1.09</time>
   <energy>
    <i name="e_fr_energy">   -353.31000012 </i>
    <i name="e_wo_entrp">   -353.30617555 </i>
    <i name="e_0_energy">   -353.30872526 </i>
   </energy>
  </scstep>
  <scstep>
   <time name="diag">    0.09    0.09</time>
   <time name="diis">    0.82    0.83</time>
   <time name="orth">    0.02    0.02</time>
   <time name="total">    1.00    1.04</time>
   <energy>
    <i name="e_fr_energy">   -353.30998267 </i>
    <i name="e_wo_entrp">   -353.30617588 </i>
    <i name="e_0_energy">   -353.30871374 </i>
   </energy>
  </scstep>
  <scstep>
   <time name="diag">    0.11    0.11</time>
   <time name="diis">    0.70    0.71</time>
   <time name="orth">    0.02    0.02</time>
   <time name="total">    0.89    0.94</time>
   <energy>
    <i name="e_fr_energy">   -353.30997373 </i>
    <i name="e_wo_entrp">   -353.30613349 </i>
    <i name="e_0_energy">   -353.30869365 </i>
   </energy>
  </scstep>
  <scstep>
   <time name="diag">    0.10    0.10</time>
   <time name="diis">    0.52    0.52</time>
   <time name="orth">    0.02    0.02</time>
   <time name="total">    0.66    0.70</time>
   <energy>
    <i name="alphaZ">   1770.34241874 </i>
    <i name="ewald"> -25534.45718082 </i>
    <i name="hartreedc">  -7446.92160058 </i>
    <i name="XCdc">    344.27703812 </i>
    <i name="pawpsdc">  40167.38737471 </i>
    <i name="pawaedc"> -38800.20687462 </i>
    <i name="eentropy">     -0.00382456 </i>
    <i name="bandstr">  -3477.00357619 </i>
    <i name="atom">  32623.27625270 </i>
    <i name="e_fr_energy">   -353.30997251 </i>
    <i name="e_wo_entrp">   -353.30614795 </i>
    <i name="e_0_energy">   -353.30869765 </i>
   </energy>
  </scstep>
  <structure>
   <crystal>
    <varray name="basis" >
     <v>       6.94849339       0.00693041      -0.01216523 </v>
     <v>       0.00997355      10.30378793       0.02534752 </v>
     <v>      -0.01739541       0.02487537      10.11664652 </v>
    </varray>
    <i name="volume">    724.30215754 </i>
    <varray name="rec_basis" >
     <v>       0.14391666      -0.00013991       0.00024781 </v>
     <v>      -0.00009722       0.09705237      -0.00023880 </v>
     <v>       0.00017330      -0.00024334       0.09884788 </v>
    </varray>
   </crystal>
   <varray name="positions" >
    <v>       0.98980434       0.34749302       0.01067313 </v>
    <v>       0.99336151       0.66237450       0.99557134 </v>
    <v>       0.25490012       0.82716321       0.16423191 </v>
    <v>       0.48242033       0.99741876       0.66512593 </v>
    <v>       0.77164948       0.83526016       0.49936731 </v>
    <v>       0.23335541       0.49640984       0.48859339 </v>
    <v>       0.01842397       0.66941842       0.68164546 </v>
    <v>       0.75614456       0.49790246       0.49357754 </v>
    <v>       0.26128204       0.17065026       0.16322480 </v>
    <v>       0.98265855       0.99197746       0.99272751 </v>
    <v>       0.76580177       0.16918760       0.50225334 </v>
    <v>       0.25580583       0.17366474       0.84056660 </v>
    <v>       0.75667098       0.17545523       0.82032765 </v>
    <v>       0.26170326       0.50597749       0.17583818 </v>
    <v>       0.52787055       0.98234062       0.98855734 </v>
    <v>       0.73883841       0.17047983       0.17554640 </v>
    <v>       0.47670905       0.99695988       0.34978999 </v>
    <v>       0.73834606       0.48728158       0.81844936 </v>
    <v>       0.48579954       0.67129776       0.66540406 </v>
    <v>       0.74512997       0.82276858       0.18107763 </v>
    <v>       0.23109605       0.17324648       0.50193474 </v>
    <v>       0.49776529       0.33158689       0.34621391 </v>
    <v>       0.26762737       0.49108031       0.83550574 </v>
    <v>       0.99275615       0.33265610       0.31620272 </v>
    <v>       0.02999693       0.33681958       0.67121119 </v>
    <v>       0.99123737       0.67116802       0.32204440 </v>
    <v>       0.21935773       0.82965375       0.49298322 </v>
    <v>       0.25436285       0.83212840       0.84883204 </v>
    <v>       0.51145044       0.35219924       0.00154899 </v>
    <v>       0.75524364       0.83086957       0.81594909 </v>
    <v>       0.73218573       0.50836956       0.17904717 </v>
    <v>       0.50547548       0.66572620       0.99012621 </v>
    <v>       0.01853045       0.00313153       0.33687959 </v>
    <v>       0.02503110       0.98871096       0.67198142 </v>
    <v>       0.47524267       0.32498966       0.64959307 </v>
    <v>       0.49597201       0.67618238       0.34739763 </v>
   </varray>
  </structure>
  <varray name="forces" >
   <v>       0.00337979      -0.00635768      -0.04089204 </v>
   <v>      -0.12752575       0.07057027       0.06967676 </v>
   <v>      -0.02713599       0.02829494      -0.02155244 </v>
   <v>       0.00269404       0.00624693      -0.02583571 </v>
   <v>      -0.04633290       0.01819307       0.09104384 </v>
   <v>       0.00274662       0.13043951      -0.04388234 </v>
   <v>       0.02811377      -0.05343981       0.00787791 </v>
   <v>      -0.00252435       0.04546212       0.02925906 </v>
   <v>      -0.02263035      -0.06766096      -0.02175195 </v>
   <v>      -0.05993007      -0.07878552       0.22617401 </v>
   <v>       0.00472457      -0.01050969      -0.00477329 </v>
   <v>       0.00964313      -0.08370489       0.07930542 </v>
   <v>       0.00063634      -0.05022577       0.04867097 </v>
   <v>      -0.03732823       0.02706721      -0.00234584 </v>
   <v>       0.07519580      -0.07092890       0.24778207 </v>
   <v>       0.00060440       0.04922964       0.00398228 </v>
   <v>       0.18845391      -0.06202008      -0.09878859 </v>
   <v>       0.00112359       0.03960271       0.00515444 </v>
   <v>      -0.03751470      -0.02670598       0.01919447 </v>
   <v>       0.02852344      -0.04865123      -0.06670662 </v>
   <v>       0.00139110      -0.05251675      -0.06887444 </v>
   <v>      -0.00367815      -0.03032700      -0.01085247 </v>
   <v>      -0.01960226       0.02166097       0.01465049 </v>
   <v>       0.00884913      -0.01320164       0.03831281 </v>
   <v>      -0.05567075       0.00217308      -0.00242844 </v>
   <v>      -0.23915017       0.18116380      -0.14817446 </v>
   <v>       0.08725136       0.00442001      -0.02963042 </v>
   <v>       0.03936791       0.04063582       0.01459584 </v>
   <v>      -0.00642123      -0.04732206      -0.02975731 </v>
   <v>      -0.02034649       0.03579848      -0.00665793 </v>
   <v>      -0.02837866      -0.10099717      -0.02360822 </v>
   <v>       0.16369455       0.05813677       0.20027780 </v>
   <v>      -0.19167445      -0.11586477      -0.13116130 </v>
   <v>       0.00537594       0.07518543      -0.01610697 </v>
   <v>       0.04883318       0.03055936       0.02942200 </v>
   <v>       0.22524195       0.05437977      -0.33159940 </v>
  </varray>
  <varray name="stress" >
   <v>      13.10333237       0.07974000       0.27818483 </v>
   <v>       0.07974000      14.65333682       0.56402296 </v>
   <v>       0.27818479       0.56402303      12.69040113 </v>
  </varray>
  <energy>
   <i name="e_fr_energy">   -353.30997251 </i>
   <i name="e_wo_entrp">   -353.30869765 </i>
   <i name="e_0_energy">     -0.00382456 </i>
  </energy>
  <time name="totalsc">    9.94   10.59</time>
 </calculation>
 <calculation>
  <scstep>
   <time name="dav">    1.11    1.12</time>
   <time name="total">    1.19    1.42</time>
   <energy>
    <i name="alphaZ">   1767.43866676 </i>
    <i name="ewald"> -25525.12025335 </i>
    <i name="hartreedc">  -7438.28538459 </i>
    <i name="XCdc">    343.65006496 </i>
    <i name="pawpsdc">  40167.70705205 </i>
    <i name="pawaedc"> -38800.54755931 </i>
    <i name="eentropy">     -0.00466136 </i>
    <i name="bandstr">  -3491.44595937 </i>
    <i name="atom">  32623.27625270 </i>
    <i name="e_fr_energy">   -353.33178152 </i>
    <i name="e_wo_entrp">   -353.32712015 </i>
    <i name="e_0_energy">   -353.33022773 </i>
   </energy>
  </scstep>
  <scstep>
   <time name="diag">    0.10    0.15</time>
   <time name="diis">    0.76    0.89</time>
   <time name="orth">    0.02    0.05</time>
   <time name="total">    0.94    1.22</time>
   <energy>
    <i name="e_fr_energy">   -353.37154754 </i>
    <i name="e_wo_entrp">   -353.36841082 </i>
    <i name="e_0_energy">   -353.37050197 </i>
   </energy>
  </scstep>
  <scstep>
   <time name="diag">    0.10    0.10</time>
   <time name="diis">    0.93    0.93</time>
   <time name="orth">    0.02    0.02</time>
   <time name="total">    1.13    1.18</time>
   <energy>
    <i name="e_fr_energy">   -353.36063704 </i>
    <i name="e_wo_entrp">   -353.35685019 </i>
    <i name="e_0_energy">   -353.35937476 </i>
   </energy>
  </scstep>
  <scstep>
   <time name="diag">    0.09    0.09</time>
   <time name="diis">    0.90    0.90</time>
   <time name="orth">    0.02    0.02</time>
   <time name="total">    1.07    1.13</time>
   <energy>
    <i name="e_fr_energy">   -353.35835306 </i>
    <i name="e_wo_entrp">   -353.35460279 </i>
    <i name="e_0_energy">   -353.35710297 </i>
   </energy>
  </scstep>
  <scstep>
   <time name="diag">    0.09    0.09</time>
   <time name="diis">    0.88    0.89</time>
   <time name="orth">    0.02    0.02</time>
   <time name="total">    1.05    1.10</time>
   <energy>
    <i name="e_fr_energy">   -353.35765855 </i>
    <i name="e_wo_entrp">   -353.35405471 </i>
    <i name="e_0_energy">   -353.35645727 </i>
   </energy>
  </scstep>
  <scstep>
   <time name="diag">    0.09    0.09</time>
   <time name="diis">    0.90    0.90</time>
   <time name="orth">    0.02    0.02</time>
   <time name="total">    1.07    1.12</time>
   <energy>
    <i name="e_fr_energy">   -353.35752708 </i>
    <i name="e_wo_entrp">   -353.35397598 </i>
    <i name="e_0_energy">   -353.35634338 </i>
   </energy>
  </scstep>
  <scstep>
   <time name="diag">    0.09    0.09</time>
   <time name="diis">    0.93    0.94</time>
   <time name="orth">    0.02    0.02</time>
   <time name="total">    1.10    1.15</time>
   <energy>
    <i name="e_fr_energy">   -353.35748338 </i>
    <i name="e_wo_entrp">   -353.35381838 </i>
    <i name="e_0_energy">   -353.35626171 </i>
   </energy>
  </scstep>
  <scstep>
   <time name="diag">    0.09    0.10</time>
   <time name="diis">    0.84    0.84</time>
   <time name="orth">    0.02    0.02</time>
   <time name="total">    1.02    1.06</time>
   <energy>
    <i name="e_fr_energy">   -353.35750255 </i>
    <i name="e_wo_entrp">   -353.35390108 </i>
    <i name="e_0_energy">   -353.35630206 </i>
   </energy>
  </scstep>
  <scstep>
   <time name="diag">    0.09    0.09</time>
   <time name="diis">    0.76    0.77</time>
   <time name="orth">    0.02    0.02</time>
   <time name="total">    0.94    0.99</time>
   <energy>
    <i name="e_fr_energy">   -353.35750481 </i>
    <i name="e_wo_entrp">   -353.35387910 </i>
    <i name="e_0_energy">   -353.35629624 </i>
   </energy>
  </scstep>
  <scstep>
   <time name="diag">    0.09    0.09</time>
   <time name="diis">    0.64    0.65</time>
   <time name="orth">    0.02    0.02</time>
   <time name="total">    0.79    0.83</time>
   <energy>
    <i name="alphaZ">   1767.43866676 </i>
    <i name="ewald"> -25525.12025335 </i>
    <i name="hartreedc">  -7446.87078922 </i>
    <i name="XCdc">    344.05254080 </i>
    <i name="pawpsdc">  40079.64922785 </i>
    <i name="pawaedc"> -38712.67206794 </i>
    <i name="eentropy">     -0.00362559 </i>
    <i name="bandstr">  -3483.10745704 </i>
    <i name="atom">  32623.27625270 </i>
    <i name="e_fr_energy">   -353.35750504 </i>
    <i name="e_wo_entrp">   -353.35387944 </i>
    <i name="e_0_energy">   -353.35629651 </i>
   </energy>
  </scstep>
  <structure>
   <crystal>
    <varray name="basis" >
     <v>       6.95069891       0.00842442      -0.01269201 </v>
     <v>       0.01218916      10.31805253       0.03285496 </v>
     <v>      -0.01817090       0.03227926      10.11609634 </v>
    </varray>
    <i name="volume">    725.49212462 </i>
    <varray name="rec_basis" >
     <v>       0.14387110      -0.00017079       0.00025897 </v>
     <v>      -0.00011803       0.09691864      -0.00030947 </v>
     <v>       0.00018089      -0.00031499       0.09885369 </v>
    </varray>
   </crystal>
   <varray name="positions" >
    <v>       0.98970408       0.34746512       0.01055530 </v>
    <v>       0.99217545       0.66323240       0.99620415 </v>
    <v>       0.25483704       0.82711590       0.16401603 </v>
    <v>       0.48256420       0.99743378       0.66502433 </v>
    <v>       0.77169531       0.83530484       0.49958195 </v>
    <v>       0.23330963       0.49659087       0.48859505 </v>
    <v>       0.01851712       0.66924520       0.68160546 </v>
    <v>       0.75604584       0.49801546       0.49366230 </v>
    <v>       0.26125417       0.17044958       0.16313162 </v>
    <v>       0.98164502       0.99108937       0.99412364 </v>
    <v>       0.76581107       0.16921154       0.50235225 </v>
    <v>       0.25582677       0.17356846       0.84070468 </v>
    <v>       0.75666734       0.17546098       0.82031611 </v>
    <v>       0.26166066       0.50596133       0.17587199 </v>
    <v>       0.52885041       0.98154673       0.99034792 </v>
    <v>       0.73882597       0.17064633       0.17548311 </v>
    <v>       0.47851583       0.99648820       0.34903422 </v>
    <v>       0.73829042       0.48733032       0.81842847 </v>
    <v>       0.48565933       0.67119861       0.66548096 </v>
    <v>       0.74570575       0.82179237       0.18095261 </v>
    <v>       0.23107537       0.17320584       0.50184037 </v>
    <v>       0.49799524       0.33150413       0.34617504 </v>
    <v>       0.26750846       0.49101941       0.83545094 </v>
    <v>       0.99267697       0.33272788       0.31627600 </v>
    <v>       0.02987955       0.33683199       0.67124145 </v>
    <v>       0.98833627       0.67315950       0.32076103 </v>
    <v>       0.21972052       0.82956069       0.49297594 </v>
    <v>       0.25454246       0.83216447       0.84900096 </v>
    <v>       0.51163313       0.35218780       0.00158019 </v>
    <v>       0.75519913       0.83103036       0.81578247 </v>
    <v>       0.73184686       0.50785131       0.17913843 </v>
    <v>       0.50690128       0.66642636       0.99145222 </v>
    <v>       0.01660240       0.00224404       0.33607579 </v>
    <v>       0.02486963       0.98899874       0.67195022 </v>
    <v>       0.47544418       0.32501243       0.64966081 </v>
    <v>       0.49821413       0.67692764       0.34516600 </v>
   </varray>
  </structure>
  <varray name="forces" >
   <v>       0.01088978       0.00615706      -0.04222803 </v>
   <v>      -0.09126763      -0.01257995       0.00775091 </v>
   <v>      -0.04132199       0.03942947       0.00044421 </v>
   <v>      -0.03476636      -0.00046997      -0.02441515 </v>
   <v>      -0.05825953       0.02185015       0.12927810 </v>
   <v>       0.01536748       0.16967765      -0.08063732 </v>
   <v>       0.05217723      -0.03755278       0.03624232 </v>
   <v>       0.00305593       0.04963493       0.01533009 </v>
   <v>      -0.04268929      -0.07085959      -0.00596807 </v>
   <v>       0.00031392      -0.01793763       0.15965171 </v>
   <v>       0.01906799      -0.01134629      -0.02784614 </v>
   <v>       0.01330002      -0.11205704       0.08901007 </v>
   <v>       0.00477906      -0.07570003       0.07570319 </v>
   <v>      -0.04633730       0.05080930      -0.00029509 </v>
   <v>       0.03519375      -0.02784225       0.13193793 </v>
   <v>       0.00412489       0.08316757       0.02414755 </v>
   <v>       0.10789256      -0.04181688      -0.04409619 </v>
   <v>      -0.01076933       0.05061975       0.01544986 </v>
   <v>      -0.06281931      -0.01963629       0.03579670 </v>
   <v>      -0.02449178       0.07055318      -0.08980926 </v>
   <v>      -0.00266504      -0.06427487      -0.08795858 </v>
   <v>      -0.03322414      -0.03260756       0.01352955 </v>
   <v>       0.00053850       0.02494429       0.03258801 </v>
   <v>       0.02262687      -0.02593972       0.04654520 </v>
   <v>      -0.04370366       0.00355418      -0.01566126 </v>
   <v>      -0.09761868      -0.01167212      -0.04880695 </v>
   <v>       0.08280488       0.03537548      -0.06745261 </v>
   <v>       0.04744414       0.06162341       0.01113972 </v>
   <v>      -0.02682783      -0.04379860      -0.05765720 </v>
   <v>      -0.02598564       0.03890600       0.00405859 </v>
   <v>      -0.01743325      -0.09941257      -0.04744190 </v>
   <v>       0.12078015      -0.01071321       0.12544907 </v>
   <v>      -0.09896883      -0.06929933      -0.07442689 </v>
   <v>       0.04626978       0.05340897      -0.02788807 </v>
   <v>       0.01883193       0.04417259       0.01741398 </v>
   <v>       0.15369073      -0.01836732      -0.22887806 </v>
  </varray>
  <varray name="stress" >
   <v>      10.95272802      -0.18336177       0.60384436 </v>
   <v>      -0.18336173      12.03354448      -0.05556854 </v>
   <v>       0.60384435      -0.05556858      10.51630532 </v>
  </varray>
  <energy>
   <i name="e_fr_energy">   -353.35750504 </i>
   <i name="e_wo_entrp">   -353.35629651 </i>
   <i name="e_0_energy">     -0.00362559 </i>
  </energy>
  <time name="totalsc">   12.12   13.14</time>
 </calculation>
 <calculation>
  <scstep>
   <time name="dav">    1.09    1.10</time>
   <time name="total">    1.17    1.35</time>
   <energy>
    <i name="alphaZ">   1761.66218642 </i>
    <i name="ewald"> -25501.32714967 </i>
    <i name="hartreedc">  -7434.18064921 </i>
    <i name="XCdc">    342.83112815 </i>
    <i name="pawpsdc">  40078.73723752 </i>
    <i name="pawaedc"> -38711.81593889 </i>
    <i name="eentropy">     -0.00525008 </i>
    <i name="bandstr">  -3512.42810564 </i>
    <i name="atom">  32623.27625270 </i>
    <i name="e_fr_energy">   -353.25028871 </i>
    <i name="e_wo_entrp">   -353.24503863 </i>
    <i name="e_0_energy">   -353.24853869 </i>
   </energy>
  </scstep>
  <scstep>
   <time name="diag">    0.09    0.09</time>
   <time name="diis">    0.79    0.80</time>
   <time name="orth">    0.02    0.02</time>
   <time name="total">    0.97    1.01</time>
   <energy>
    <i name="e_fr_energy">   -353.40730271 </i>
    <i name="e_wo_entrp">   -353.40556370 </i>
    <i name="e_0_energy">   -353.40672304 </i>
   </energy>
  </scstep>
  <scstep>
   <time name="diag">    0.09    0.09</time>
   <time name="diis">    0.87    0.88</time>
   <time name="orth">    0.02    0.02</time>
   <time name="total">    1.05    1.09</time>
   <energy>
    <i name="e_fr_energy">   -353.38057584 </i>
    <i name="e_wo_entrp">   -353.37702954 </i>
    <i name="e_0_energy">   -353.37939374 </i>
   </energy>
  </scstep>
  <scstep>
   <time name="diag">    0.09    0.09</time>
   <time name="diis">    0.89    0.90</time>
   <time name="orth">    0.02    0.02</time>
   <time name="total">    1.06    1.12</time>
   <energy>
    <i name="e_fr_energy">   -353.37066676 </i>
    <i name="e_wo_entrp">   -353.36748696 </i>
    <i name="e_0_energy">   -353.36960683 </i>
   </energy>
  </scstep>
  <scstep>
   <time name="diag">    0.09    0.09</time>
   <time name="diis">    0.87    0.88</time>
   <time name="orth">    0.02    0.02</time>
   <time name="total">    1.04    1.10</time>
   <energy>
    <i name="e_fr_energy">   -353.36824882 </i>
    <i name="e_wo_entrp">   -353.36527155 </i>
    <i name="e_0_energy">   -353.36725640 </i>
   </energy>
  </scstep>
  <scstep>
   <time name="diag">    0.17    0.17</time>
   <time name="diis">    0.92    0.93</time>
   <time name="orth">    0.02    0.02</time>
   <time name="total">    1.17    1.23</time>
   <energy>
    <i name="e_fr_energy">   -353.36768833 </i>
    <i name="e_wo_entrp">   -353.36486522 </i>
    <i name="e_0_energy">   -353.36674730 </i>
   </energy>
  </scstep>
  <scstep>
   <time name="diag">    0.15    0.15</time>
   <time name="diis">    0.97    0.98</time>
   <time name="orth">    0.02    0.02</time>
   <time name="total">    1.22    1.27</time>
   <energy>
    <i name="e_fr_energy">   -353.36755005 </i>
    <i name="e_wo_entrp">   -353.36442036 </i>
    <i name="e_0_energy">   -353.36650682 </i>
   </energy>
  </scstep>
  <scstep>
   <time name="diag">    0.21    0.22</time>
   <time name="diis">    0.94    0.95</time>
   <time name="orth">    0.02    0.02</time>
   <time name="total">    1.24    1.30</time>
   <energy>
    <i name="e_fr_energy">   -353.36765126 </i>
    <i name="e_wo_entrp">   -353.36470977 </i>
    <i name="e_0_energy">   -353.36667076 </i>
   </energy>
  </scstep>
  <scstep>
[...]
       <r>    7.6986    1.0000 </r>
       <r>    7.7137    1.0000 </r>
       <r>    7.7478    1.0001 </r>
       <r>    7.8217    1.0009 </r>
       <r>    7.8307    1.0011 </r>
       <r>    7.9210    1.0108 </r>
       <r>    7.9472    1.0173 </r>
       <r>    7.9667    1.0231 </r>
       <r>    8.0160    1.0352 </r>
       <r>    8.0567    1.0250 </r>
       <r>    8.0671    1.0162 </r>
       <r>    8.1099    0.9389 </r>
       <r>    8.1278    0.8837 </r>
       <r>    8.1673    0.7131 </r>
       <r>    8.1973    0.5519 </r>
       <r>    8.2257    0.3932 </r>
       <r>    8.2752    0.1539 </r>
       <r>    8.3047    0.0571 </r>
       <r>    8.3520   -0.0217 </r>
       <r>    8.3790   -0.0345 </r>
       <r>    8.4171   -0.0316 </r>
       <r>    8.4682   -0.0167 </r>
       <r>    8.4832   -0.0128 </r>
       <r>    8.4953   -0.0101 </r>
       <r>    8.5552   -0.0025 </r>
       <r>    8.5969   -0.0007 </r>
       <r>    8.6223   -0.0003 </r>
       <r>    8.6639   -0.0001 </r>
       <r>    8.7115   -0.0000 </r>
       <r>    8.7287   -0.0000 </r>
       <r>    8.7997   -0.0000 </r>
       <r>    8.8515   -0.0000 </r>
       <r>    8.8938   -0.0000 </r>
       <r>    8.9615   -0.0000 </r>
       <r>    9.0284   -0.0000 </r>
       <r>    9.0820   -0.0000 </r>
       <r>    9.1593   -0.0000 </r>
       <r>    9.3551   -0.0000 </r>
       <r>    9.4472   -0.0000 </r>
       <r>    9.5516   -0.0000 </r>
       <r>   10.0344   -0.0000 </r>
       <r>   10.0967   -0.0000 </r>
       <r>   10.1533   -0.0000 </r>
       <r>   10.2200   -0.0000 </r>
       <r>   10.2596   -0.0000 </r>
       <r>   10.3335   -0.0000 </r>
       <r>   10.3711   -0.0000 </r>
       <r>   10.4216   -0.0000 </r>
       <r>   10.5339   -0.0000 </r>
      </set>
     </set>
    </set>
   </array>
  </eigenvalues>
  <separator name="orbital magnetization" >
   <v name="MAGDIPOLOUT">      0.00000000      0.00000000      0.00000000</v>
  </separator>
  <dos>
   <i name="efermi">      8.20655977 </i>
   <total>
    <array>
     <dimension dim="1">gridpoints</dimension>
     <dimension dim="2">spin</dimension>
     <field>energy</field>
     <field>total</field>
     <field>integrated</field>
     <set>
      <set comment="spin 1">
       <r>   -48.9012     0.0000     0.0000 </r>
       <r>   -48.6935     0.0000     0.0000 </r>
       <r>   -48.4858     0.0000     0.0000 </r>
       <r>   -48.2782     0.0000     0.0000 </r>
       <r>   -48.0705     0.0000     0.0000 </r>
       <r>   -47.8628     0.0000     0.0000 </r>
       <r>   -47.6551     0.0000     0.0000 </r>
       <r>   -47.4474    -0.0000    -0.0000 </r>
       <r>   -47.2397    -0.0000    -0.0000 </r>
       <r>   -47.0320    -0.0000    -0.0000 </r>
       <r>   -46.8244    -0.0000    -0.0000 </r>
       <r>   -46.6167    -0.0000    -0.0000 </r>
       <r>   -46.4090    -0.0574    -0.0119 </r>
       <r>   -46.2013    -2.0006    -0.4274 </r>
       <r>   -45.9936    41.9975     8.2948 </r>
       <r>   -45.7859    65.7215    21.9441 </r>
       <r>   -45.5783     0.5660    22.0617 </r>
       <r>   -45.3706    -0.2963    22.0001 </r>
       <r>   -45.1629    -0.0007    22.0000 </r>
       <r>   -44.9552    -0.0000    22.0000 </r>
       <r>   -44.7475    -0.0000    22.0000 </r>
       <r>   -44.5398     0.0000    22.0000 </r>
       <r>   -44.3321     0.0000    22.0000 </r>
       <r>   -44.1245     0.0000    22.0000 </r>
       <r>   -43.9168     0.0000    22.0000 </r>
       <r>   -43.7091     0.0000    22.0000 </r>
       <r>   -43.5014     0.0000    22.0000 </r>
       <r>   -43.2937     0.0000    22.0000 </r>
       <r>   -43.0860     0.0000    22.0000 </r>
       <r>   -42.8784     0.0000    22.0000 </r>
       <r>   -42.6707     0.0000    22.0000 </r>
       <r>   -42.4630     0.0000    22.0000 </r>
       <r>   -42.2553     0.0000    22.0000 </r>
       <r>   -42.0476     0.0000    22.0000 </r>
       <r>   -41.8399     0.0000    22.0000 </r>
       <r>   -41.6323     0.0000    22.0000 </r>
       <r>   -41.4246    -0.0000    22.0000 </r>
       <r>   -41.2169    -0.0000    22.0000 </r>
       <r>   -41.0092    -0.0000    22.0000 </r>
       <r>   -40.8015    -0.0000    22.0000 </r>
       <r>   -40.5938    -0.0000    22.0000 </r>
       <r>   -40.3861    -0.0587    21.9878 </r>
       <r>   -40.1785    -2.0631    21.5593 </r>
       <r>   -39.9708    42.8130    30.4509 </r>
       <r>   -39.7631    65.5654    44.0678 </r>
       <r>   -39.5554    -0.0757    44.0521 </r>
       <r>   -39.3477    -0.2507    44.0000 </r>
       <r>   -39.1400    -0.0002    44.0000 </r>
       <r>   -38.9324    -0.0000    44.0000 </r>
       <r>   -38.7247     0.0000    44.0000 </r>
       <r>   -38.5170     0.0000    44.0000 </r>
       <r>   -38.3093     0.0000    44.0000 </r>
       <r>   -38.1016     0.0000    44.0000 </r>
       <r>   -37.8939     0.0000    44.0000 </r>
       <r>   -37.6862     0.0000    44.0000 </r>
       <r>   -37.4786     0.0000    44.0000 </r>
       <r>   -37.2709     0.0000    44.0000 </r>
       <r>   -37.0632     0.0000    44.0000 </r>
       <r>   -36.8555     0.0000    44.0000 </r>
       <r>   -36.6478     0.0000    44.0000 </r>
       <r>   -36.4401     0.0000    44.0000 </r>
       <r>   -36.2325     0.0000    44.0000 </r>
       <r>   -36.0248     0.0000    44.0000 </r>
       <r>   -35.8171     0.0000    44.0000 </r>
       <r>   -35.6094     0.0000    44.0000 </r>
       <r>   -35.4017     0.0000    44.0000 </r>
       <r>   -35.1940     0.0000    44.0000 </r>
       <r>   -34.9863     0.0000    44.0000 </r>
       <r>   -34.7787     0.0000    44.0000 </r>
       <r>   -34.5710     0.0000    44.0000 </r>
       <r>   -34.3633     0.0000    44.0000 </r>
       <r>   -34.1556     0.0000    44.0000 </r>
       <r>   -33.9479     0.0000    44.0000 </r>
       <r>   -33.7402     0.0000    44.0000 </r>
       <r>   -33.5326     0.0000    44.0000 </r>
       <r>   -33.3249     0.0000    44.0000 </r>
       <r>   -33.1172     0.0000    44.0000 </r>
       <r>   -32.9095     0.0000    44.0000 </r>
       <r>   -32.7018     0.0000    44.0000 </r>
       <r>   -32.4941     0.0000    44.0000 </r>
       <r>   -32.2865     0.0000    44.0000 </r>
       <r>   -32.0788     0.0000    44.0000 </r>
       <r>   -31.8711     0.0000    44.0000 </r>
       <r>   -31.6634     0.0000    44.0000 </r>
       <r>   -31.4557     0.0000    44.0000 </r>
       <r>   -31.2480     0.0000    44.0000 </r>
       <r>   -31.0403     0.0000    44.0000 </r>
       <r>   -30.8327     0.0000    44.0000 </r>
       <r>   -30.6250     0.0000    44.0000 </r>
       <r>   -30.4173     0.0000    44.0000 </r>
       <r>   -30.2096     0.0000    44.0000 </r>
       <r>   -30.0019     0.0000    44.0000 </r>
       <r>   -29.7942     0.0000    44.0000 </r>
       <r>   -29.5866     0.0000    44.0000 </r>
       <r>   -29.3789     0.0000    44.0000 </r>
       <r>   -29.1712     0.0000    44.0000 </r>
       <r>   -28.9635     0.0000    44.0000 </r>
       <r>   -28.7558     0.0000    44.0000 </r>
       <r>   -28.5481     0.0000    44.0000 </r>
       <r>   -28.3404     0.0000    44.0000 </r>
       <r>   -28.1328     0.0000    44.0000 </r>
       <r>   -27.9251     0.0000    44.0000 </r>
       <r>   -27.7174     0.0000    44.0000 </r>
       <r>   -27.5097     0.0000    44.0000 </r>
       <r>   -27.3020     0.0000    44.0000 </r>
       <r>   -27.0943     0.0000    44.0000 </r>
       <r>   -26.8867     0.0000    44.0000 </r>
       <r>   -26.6790     0.0000    44.0000 </r>
       <r>   -26.4713     0.0000    44.0000 </r>
       <r>   -26.2636     0.0000    44.0000 </r>
       <r>   -26.0559     0.0000    44.0000 </r>
       <r>   -25.8482     0.0000    44.0000 </r>
       <r>   -25.6406     0.0000    44.0000 </r>
       <r>   -25.4329     0.0000    44.0000 </r>
       <r>   -25.2252     0.0000    44.0000 </r>
       <r>   -25.0175     0.0000    44.0000 </r>
       <r>   -24.8098     0.0000    44.0000 </r>
       <r>   -24.6021     0.0000    44.0000 </r>
       <r>   -24.3944     0.0000    44.0000 </r>
       <r>   -24.1868     0.0000    44.0000 </r>
       <r>   -23.9791     0.0000    44.0000 </r>
       <r>   -23.7714    -0.0000    44.0000 </r>
       <r>   -23.5637    -0.0000    44.0000 </r>
       <r>   -23.3560    -0.0000    44.0000 </r>
       <r>   -23.1483    -0.0000    44.0000 </r>
       <r>   -22.9407    -0.0007    43.9999 </r>
       <r>   -22.7330    -0.3438    43.9285 </r>
       <r>   -22.5253     2.8845    44.5275 </r>
       <r>   -22.3176    39.4666    52.7241 </r>
       <r>   -22.1099   110.6475    75.7039 </r>
       <r>   -21.9022   122.7568   101.1986 </r>
       <r>   -21.6945    34.0286   108.2658 </r>
       <r>   -21.4869     8.8655   110.1070 </r>
       <r>   -21.2792    -0.5002   110.0031 </r>
       <r>   -21.0715    -0.0150   110.0000 </r>
       <r>   -20.8638    -0.0000   110.0000 </r>
       <r>   -20.6561    -0.0000   110.0000 </r>
       <r>   -20.4484     0.0000   110.0000 </r>
       <r>   -20.2408     0.0000   110.0000 </r>
       <r>   -20.0331     0.0000   110.0000 </r>
       <r>   -19.8254    -0.0000   110.0000 </r>
       <r>   -19.6177    -0.0000   110.0000 </r>
       <r>   -19.4100    -0.0000   110.0000 </r>
       <r>   -19.2023    -0.0000   110.0000 </r>
       <r>   -18.9946    -0.0000   110.0000 </r>
       <r>   -18.7870    -0.0278   109.9942 </r>
       <r>   -18.5793    -1.0933   109.7672 </r>
       <r>   -18.3716    19.7659   113.8722 </r>
       <r>   -18.1639    65.2182   127.4170 </r>
       <r>   -17.9562   120.1784   152.3762 </r>
       <r>   -17.7485   106.9131   174.5804 </r>
       <r>   -17.5409     7.7186   176.1835 </r>
       <r>   -17.3332    -0.8810   176.0005 </r>
       <r>   -17.1255    -0.0024   176.0000 </r>
       <r>   -16.9178    -0.0000   176.0000 </r>
       <r>   -16.7101    -0.0000   176.0000 </r>
       <r>   -16.5024     0.0000   176.0000 </r>
       <r>   -16.2948     0.0000   176.0000 </r>
       <r>   -16.0871     0.0000   176.0000 </r>
       <r>   -15.8794     0.0000   176.0000 </r>
       <r>   -15.6717     0.0000   176.0000 </r>
       <r>   -15.4640     0.0000   176.0000 </r>
       <r>   -15.2563     0.0000   176.0000 </r>
       <r>   -15.0486     0.0000   176.0000 </r>
       <r>   -14.8410     0.0000   176.0000 </r>
       <r>   -14.6333     0.0000   176.0000 </r>
       <r>   -14.4256     0.0000   176.0000 </r>
       <r>   -14.2179     0.0000   176.0000 </r>
       <r>   -14.0102     0.0000   176.0000 </r>
       <r>   -13.8025     0.0000   176.0000 </r>
       <r>   -13.5949     0.0000   176.0000 </r>
       <r>   -13.3872     0.0000   176.0000 </r>
       <r>   -13.1795     0.0000   176.0000 </r>
       <r>   -12.9718     0.0000   176.0000 </r>
       <r>   -12.7641     0.0000   176.0000 </r>
       <r>   -12.5564     0.0000   176.0000 </r>
       <r>   -12.3487     0.0000   176.0000 </r>
       <r>   -12.1411     0.0000   176.0000 </r>
       <r>   -11.9334     0.0000   176.0000 </r>
       <r>   -11.7257     0.0000   176.0000 </r>
       <r>   -11.5180     0.0000   176.0000 </r>
       <r>   -11.3103     0.0000   176.0000 </r>
       <r>   -11.1026     0.0000   176.0000 </r>
       <r>   -10.8950     0.0000   176.0000 </r>
       <r>   -10.6873     0.0000   176.0000 </r>
       <r>   -10.4796     0.0000   176.0000 </r>
       <r>   -10.2719     0.0000   176.0000 </r>
       <r>   -10.0642     0.0000   176.0000 </r>
       <r>    -9.8565     0.0000   176.0000 </r>
       <r>    -9.6488     0.0000   176.0000 </r>
       <r>    -9.4412     0.0000   176.0000 </r>
       <r>    -9.2335     0.0000   176.0000 </r>
       <r>    -9.0258     0.0000   176.0000 </r>
       <r>    -8.8181     0.0000   176.0000 </r>
       <r>    -8.6104     0.0000   176.0000 </r>
       <r>    -8.4027     0.0000   176.0000 </r>
       <r>    -8.1951     0.0000   176.0000 </r>
       <r>    -7.9874     0.0000   176.0000 </r>
       <r>    -7.7797     0.0000   176.0000 </r>
       <r>    -7.5720     0.0000   176.0000 </r>
       <r>    -7.3643     0.0000   176.0000 </r>
       <r>    -7.1566     0.0000   176.0000 </r>
       <r>    -6.9490     0.0000   176.0000 </r>
       <r>    -6.7413     0.0000   176.0000 </r>
       <r>    -6.5336     0.0000   176.0000 </r>
       <r>    -6.3259     0.0000   176.0000 </r>
       <r>    -6.1182     0.0000   176.0000 </r>
       <r>    -5.9105     0.0000   176.0000 </r>
       <r>    -5.7028     0.0000   176.0000 </r>
       <r>    -5.4952     0.0000   176.0000 </r>
       <r>    -5.2875     0.0000   176.0000 </r>
       <r>    -5.0798     0.0000   176.0000 </r>
       <r>    -4.8721     0.0000   176.0000 </r>
       <r>    -4.6644     0.0000   176.0000 </r>
       <r>    -4.4567     0.0000   176.0000 </r>
       <r>    -4.2491     0.0000   176.0000 </r>
       <r>    -4.0414     0.0000   176.0000 </r>
       <r>    -3.8337     0.0000   176.0000 </r>
       <r>    -3.6260     0.0000   176.0000 </r>
       <r>    -3.4183     0.0000   176.0000 </r>
       <r>    -3.2106     0.0000   176.0000 </r>
       <r>    -3.0029     0.0000   176.0000 </r>
       <r>    -2.7953     0.0000   176.0000 </r>
       <r>    -2.5876     0.0000   176.0000 </r>
       <r>    -2.3799     0.0000   176.0000 </r>
       <r>    -2.1722     0.0000   176.0000 </r>
       <r>    -1.9645     0.0000   176.0000 </r>
       <r>    -1.7568     0.0000   176.0000 </r>
       <r>    -1.5492     0.0000   176.0000 </r>
       <r>    -1.3415     0.0000   176.0000 </r>
       <r>    -1.1338     0.0000   176.0000 </r>
       <r>    -0.9261     0.0000   176.0000 </r>
       <r>    -0.7184     0.0000   176.0000 </r>
       <r>    -0.5107     0.0000   176.0000 </r>
       <r>    -0.3031     0.0000   176.0000 </r>
       <r>    -0.0954     0.0000   176.0000 </r>
       <r>     0.1123     0.0000   176.0000 </r>
       <r>     0.3200    -0.0000   176.0000 </r>
       <r>     0.5277    -0.0000   176.0000 </r>
       <r>     0.7354    -0.0000   176.0000 </r>
       <r>     0.9431    -0.0000   176.0000 </r>
       <r>     1.1507    -0.0000   176.0000 </r>
       <r>     1.3584    -0.0005   175.9999 </r>
       <r>     1.5661    -0.0120   175.9974 </r>
       <r>     1.7738     0.2347   176.0461 </r>
       <r>     1.9815     1.0716   176.2687 </r>
       <r>     2.1892     1.6671   176.6149 </r>
       <r>     2.3968     1.9900   177.0282 </r>
       <r>     2.6045     3.5394   177.7633 </r>
       <r>     2.8122     3.7802   178.5484 </r>
       <r>     3.0199     2.3019   179.0265 </r>
       <r>     3.2276     4.9474   180.0540 </r>
       <r>     3.4353     3.4650   180.7736 </r>
       <r>     3.6430     5.7407   181.9658 </r>
       <r>     3.8506     7.4285   183.5086 </r>
       <r>     4.0583     8.0254   185.1754 </r>
       <r>     4.2660     8.7738   186.9975 </r>
       <r>     4.4737     9.8865   189.0508 </r>
       <r>     4.6814    14.9541   192.1565 </r>
       <r>     4.8891    20.9544   196.5085 </r>
       <r>     5.0967    21.3638   200.9454 </r>
       <r>     5.3044    29.4267   207.0569 </r>
       <r>     5.5121    35.8289   214.4980 </r>
       <r>     5.7198    40.8700   222.9860 </r>
       <r>     5.9275    43.6914   232.0600 </r>
       <r>     6.1352    38.8986   240.1387 </r>
       <r>     6.3429    35.1302   247.4347 </r>
       <r>     6.5505    32.3783   254.1591 </r>
       <r>     6.7582    20.6626   258.4504 </r>
       <r>     6.9659    47.7473   268.3668 </r>
       <r>     7.1736    61.3485   281.1079 </r>
       <r>     7.3813    58.7439   293.3081 </r>
       <r>     7.5890    55.6489   304.8656 </r>
       <r>     7.7966    53.6909   316.0163 </r>
       <r>     8.0043    52.9273   327.0085 </r>
       <r>     8.2120    49.4105   337.2703 </r>
       <r>     8.4197    49.0900   347.4655 </r>
       <r>     8.6274    51.7583   358.2149 </r>
       <r>     8.8351    44.9214   367.5444 </r>
       <r>     9.0427    33.5932   374.5212 </r>
       <r>     9.2504    24.4159   379.5920 </r>
       <r>     9.4581    21.9927   384.1595 </r>
       <r>     9.6658    16.2095   387.5260 </r>
       <r>     9.8735    14.9996   390.6412 </r>
       <r>    10.0812    30.6884   397.0146 </r>
       <r>    10.2889    29.4734   403.1358 </r>
       <r>    10.4965    19.9191   407.2727 </r>
       <r>    10.7042     3.7537   408.0523 </r>
       <r>    10.9119    -0.2470   408.0010 </r>
       <r>    11.1196    -0.0048   408.0000 </r>
       <r>    11.3273    -0.0000   408.0000 </r>
       <r>    11.5350    -0.0000   408.0000 </r>
       <r>    11.7426     0.0000   408.0000 </r>
       <r>    11.9503     0.0000   408.0000 </r>
       <r>    12.1580     0.0000   408.0000 </r>
       <r>    12.3657     0.0000   408.0000 </r>
       <r>    12.5734     0.0000   408.0000 </r>
       <r>    12.7811     0.0000   408.0000 </r>
       <r>    12.9888     0.0000   408.0000 </r>
       <r>    13.1964     0.0000   408.0000 </r>
       <r>    13.4041     0.0000   408.0000 </r>
      </set>
     </set>
    </array>
   </total>
  </dos>
 </calculation>
 <structure name="finalpos" >
  <crystal>
   <varray name="basis" >
    <v>       6.97031836      -0.00024372       0.00649752 </v>
    <v>      -0.00062832      10.36613792       0.01934234 </v>
    <v>       0.00966253       0.01921216      10.11595986 </v>
   </varray>
   <i name="volume">    730.92828443 </i>
   <varray name="rec_basis" >
    <v>       0.14346560       0.00000895      -0.00013705 </v>
    <v>       0.00000354       0.09646828      -0.00018322 </v>
    <v>      -0.00009216      -0.00018446       0.09885413 </v>
   </varray>
  </crystal>
  <varray name="positions" >
   <v>       0.99116942       0.34686420       0.00604732 </v>
   <v>       0.99000857       0.66237355       0.99578435 </v>
   <v>       0.25146841       0.82824092       0.16537904 </v>
   <v>       0.47677956       0.99500087       0.66280996 </v>
   <v>       0.76970699       0.83261699       0.50469826 </v>
   <v>       0.23630312       0.50113687       0.48590638 </v>
   <v>       0.02529112       0.67105677       0.68295554 </v>
   <v>       0.75659572       0.49937525       0.49544869 </v>
   <v>       0.25589287       0.16829501       0.16563631 </v>
   <v>       0.97877335       0.99289927       0.00227744 </v>
   <v>       0.76564449       0.16906468       0.50475025 </v>
   <v>       0.25754378       0.17109849       0.84146023 </v>
   <v>       0.75547547       0.17287251       0.81963291 </v>
   <v>       0.26013813       0.50503722       0.17464152 </v>
   <v>       0.52978876       0.98234431       0.99358273 </v>
   <v>       0.73582229       0.17759966       0.17646559 </v>
   <v>       0.48713727       0.99624679       0.34737371 </v>
   <v>       0.73960997       0.48950774       0.81726531 </v>
   <v>       0.48140227       0.67156842       0.67022009 </v>
   <v>       0.74695965       0.82163676       0.17835626 </v>
   <v>       0.22933084       0.17184435       0.49848056 </v>
   <v>       0.49449869       0.33008631       0.34967584 </v>
   <v>       0.26946358       0.49096738       0.83736502 </v>
   <v>       0.99413035       0.33197086       0.32151204 </v>
   <v>       0.03185319       0.33606923       0.67013407 </v>
   <v>       0.98244566       0.67214258       0.31962632 </v>
   <v>       0.22337549       0.82859758       0.48761459 </v>
   <v>       0.25641124       0.83571771       0.85285262 </v>
   <v>       0.50936626       0.35065212      -0.00222535 </v>
   <v>       0.75474798       0.83248299       0.81602793 </v>
   <v>       0.73283508       0.50278766       0.17594313 </v>
   <v>       0.51300334       0.66723789       0.99735678 </v>
   <v>       0.00489914      -0.00048141       0.33365310 </v>
   <v>       0.02947508       0.99003610       0.66912647 </v>
   <v>       0.47335887       0.32943990       0.65010428 </v>
   <v>       0.50930100       0.67561247       0.33206071 </v>
  </varray>
 </structure>
</modeling>
