       N       E                     dE             d eps       ncg     rms          rms(c)
DAV:   1     0.204452805918E+04    0.20445E+04   -0.11761E+05  5648   0.108E+03
DAV:   2    -0.798466089975E+02   -0.21244E+04   -0.20558E+04  5912   0.403E+02
DAV:   3    -0.345920519886E+03   -0.26607E+03   -0.25326E+03  8808   0.976E+01
DAV:   4    -0.377058608738E+03   -0.31138E+02   -0.29602E+02  8608   0.310E+01
DAV:   5    -0.380242366569E+03   -0.31838E+01   -0.31087E+01  8392   0.101E+01    0.643E+01
RMM:   6    -0.369285618414E+03    0.10957E+02   -0.25056E+01  7099   0.105E+01    0.302E+01
RMM:   7    -0.367773756721E+03    0.15119E+01   -0.21701E+01  7169   0.850E+00    0.828E+00
RMM:   8    -0.365336396303E+03    0.24374E+01   -0.49397E+00  7905   0.371E+00    0.419E+00
RMM:   9    -0.365212134764E+03    0.12426E+00   -0.15466E+00  7731   0.177E+00    0.283E+00
RMM:  10    -0.365138439732E+03    0.73695E-01   -0.37166E-01  7827   0.108E+00    0.138E+00
RMM:  11    -0.365109380341E+03    0.29059E-01   -0.12457E-01  7766   0.572E-01    0.638E-01
RMM:  12    -0.365109737303E+03   -0.35696E-03   -0.47902E-02  7886   0.320E-01    0.399E-01
RMM:  13    -0.365108378179E+03    0.13591E-02   -0.15927E-02  7785   0.173E-01    0.214E-01
RMM:  14    -0.365108726400E+03   -0.34822E-03   -0.72583E-03  8190   0.889E-02    0.132E-01
RMM:  15    -0.365108744764E+03   -0.18364E-04   -0.29719E-03  7795   0.624E-02    0.549E-02
RMM:  16    -0.365108815802E+03   -0.71038E-04   -0.13075E-03  6736   0.352E-02    0.256E-02
RMM:  17    -0.365108851223E+03   -0.35422E-04   -0.61481E-04  5986   0.245E-02    0.131E-02
RMM:  18    -0.365108869304E+03   -0.18081E-04   -0.26686E-04  5606   0.169E-02    0.881E-03
RMM:  19    -0.365108875657E+03   -0.63534E-05   -0.11469E-04  4732   0.130E-02    0.539E-03
RMM:  20    -0.365108877525E+03   -0.18679E-05   -0.52877E-05  4164   0.105E-02
   1 F= -.36510888E+03 E0= -.36511258E+03  d E =-.365109E+03
       N       E                     dE             d eps       ncg     rms          rms(c)
DAV:   1    -0.365176804853E+03   -0.67929E-01   -0.26164E+00  6288   0.528E+00    0.178E+00
RMM:   2    -0.365158568104E+03    0.18237E-01   -0.26908E-01  7495   0.137E+00    0.636E-01
RMM:   3    -0.365148780070E+03    0.97880E-02   -0.51733E-02  7825   0.419E-01    0.467E-01
RMM:   4    -0.365143227915E+03    0.55522E-02   -0.15773E-02  7940   0.259E-01    0.250E-01
RMM:   5    -0.365142402775E+03    0.82514E-03   -0.49145E-03  7891   0.140E-01    0.186E-01
RMM:   6    -0.365142590493E+03   -0.18772E-03   -0.20283E-03  8128   0.750E-02    0.125E-01
RMM:   7    -0.365142663422E+03   -0.72929E-04   -0.81653E-04  7852   0.495E-02    0.646E-02
RMM:   8    -0.365142738587E+03   -0.75165E-04   -0.41231E-04  6893   0.309E-02    0.449E-02
RMM:   9    -0.365142795922E+03   -0.57335E-04   -0.20733E-04  6455   0.247E-02    0.358E-02
RMM:  10    -0.365142852386E+03   -0.56463E-04   -0.99183E-05  5600   0.181E-02    0.191E-02
RMM:  11    -0.365142878556E+03   -0.26170E-04   -0.66741E-05  4533   0.159E-02    0.918E-03
RMM:  12    -0.365142883722E+03   -0.51663E-05   -0.26563E-05  3927   0.135E-02
   2 F= -.36514288E+03 E0= -.36514660E+03  d E =-.340062E-01
       N       E                     dE             d eps       ncg     rms          rms(c)
DAV:   1    -0.365306599555E+03   -0.16372E+00   -0.10519E+01  5968   0.106E+01    0.362E+00
RMM:   2    -0.365232142685E+03    0.74457E-01   -0.10715E+00  7426   0.274E+00    0.127E+00
RMM:   3    -0.365193375354E+03    0.38767E-01   -0.20761E-01  7832   0.840E-01    0.936E-01
RMM:   4    -0.365170749179E+03    0.22626E-01   -0.62759E-02  7929   0.516E-01    0.502E-01
RMM:   5    -0.365167542790E+03    0.32064E-02   -0.19618E-02  7914   0.279E-01    0.377E-01
RMM:   6    -0.365168207923E+03   -0.66513E-03   -0.79106E-03  8247   0.150E-01    0.251E-01
RMM:   7    -0.365168454202E+03   -0.24628E-03   -0.33719E-03  8601   0.985E-02    0.130E-01
RMM:   8    -0.365168726106E+03   -0.27190E-03   -0.17236E-03  8358   0.614E-02    0.931E-02
RMM:   9    -0.365168916237E+03   -0.19013E-03   -0.69635E-04  7519   0.424E-02    0.719E-02
RMM:  10    -0.365169120146E+03   -0.20391E-03   -0.44856E-04  7252   0.347E-02    0.381E-02
RMM:  11    -0.365169191075E+03   -0.70930E-04   -0.26997E-04  6280   0.261E-02    0.187E-02
RMM:  12    -0.365169202849E+03   -0.11774E-04   -0.99744E-05  5645   0.179E-02    0.104E-02
RMM:  13    -0.365169208120E+03   -0.52711E-05   -0.33741E-05  4445   0.130E-02
   3 F= -.36516921E+03 E0= -.36517294E+03  d E =-.603306E-01
       N       E                     dE             d eps       ncg     rms          rms(c)
DAV:   1    -0.365194006825E+03   -0.24804E-01   -0.25008E+00  5424   0.427E+00    0.688E-01
RMM:   2    -0.365202983422E+03   -0.89766E-02   -0.12738E-01  7318   0.911E-01    0.410E-01
RMM:   3    -0.365196686692E+03    0.62967E-02   -0.17051E-02  7622   0.277E-01    0.231E-01
RMM:   4    -0.365195967071E+03    0.71962E-03   -0.43267E-03  7865   0.107E-01    0.138E-01
RMM:   5    -0.365195792402E+03    0.17467E-03   -0.15881E-03  7914   0.740E-02    0.871E-02
RMM:   6    -0.365195765764E+03    0.26638E-04   -0.71753E-04  8047   0.441E-02    0.601E-02
RMM:   7    -0.365195736478E+03    0.29286E-04   -0.29028E-04  7156   0.261E-02    0.348E-02
RMM:   8    -0.365195732015E+03    0.44633E-05   -0.12087E-04  5986   0.175E-02    0.210E-02
RMM:   9    -0.365195730835E+03    0.11803E-05   -0.57479E-05  4527   0.142E-02
   4 F= -.36519573E+03 E0= -.36519954E+03  d E =-.265227E-01
       N       E                     dE             d eps       ncg     rms          rms(c)
DAV:   1    -0.365217388747E+03   -0.21657E-01   -0.22517E+01  5264   0.128E+01    0.202E+00
RMM:   2    -0.365292929448E+03   -0.75541E-01   -0.11412E+00  7240   0.276E+00    0.116E+00
RMM:   3    -0.365245641724E+03    0.47288E-01   -0.15431E-01  7707   0.851E-01    0.700E-01
RMM:   4    -0.365238537034E+03    0.71047E-02   -0.37451E-02  7884   0.319E-01    0.415E-01
RMM:   5    -0.365237123365E+03    0.14137E-02   -0.14191E-02  7865   0.221E-01    0.266E-01
RMM:   6    -0.365236929310E+03    0.19406E-03   -0.63869E-03  8148   0.133E-01    0.184E-01
RMM:   7    -0.365236748692E+03    0.18062E-03   -0.26978E-03  8561   0.785E-02    0.107E-01
RMM:   8    -0.365236770860E+03   -0.22168E-04   -0.12003E-03  8217   0.491E-02    0.668E-02
RMM:   9    -0.365236809510E+03   -0.38650E-04   -0.48555E-04  7302   0.332E-02    0.395E-02
RMM:  10    -0.365236822789E+03   -0.13280E-04   -0.23527E-04  6493   0.245E-02    0.264E-02
RMM:  11    -0.365236827370E+03   -0.45810E-05   -0.12928E-04  5560   0.186E-02    0.146E-02
RMM:  12    -0.365236823959E+03    0.34118E-05   -0.49428E-05  4735   0.141E-02
   5 F= -.36523682E+03 E0= -.36524078E+03  d E =-.676158E-01
       N       E                     dE             d eps       ncg     rms          rms(c)
DAV:   1    -0.365237471547E+03   -0.64418E-03   -0.10372E+00  5376   0.277E+00    0.433E-01
RMM:   2    -0.365240872003E+03   -0.34005E-02   -0.51532E-02  7258   0.580E-01    0.244E-01
RMM:   3    -0.365238656387E+03    0.22156E-02   -0.67361E-03  7621   0.174E-01    0.144E-01
RMM:   4    -0.365238357284E+03    0.29910E-03   -0.17184E-03  7758   0.670E-02    0.861E-02
RMM:   5    -0.365238291425E+03    0.65859E-04   -0.65702E-04  7901   0.469E-02    0.549E-02
RMM:   6    -0.365238282039E+03    0.93863E-05   -0.29977E-04  7322   0.284E-02    0.381E-02
RMM:   7    -0.365238269060E+03    0.12979E-04   -0.12309E-04  5950   0.177E-02    0.225E-02
RMM:   8    -0.365238265446E+03    0.36142E-05   -0.55577E-05  4449   0.136E-02
   6 F= -.36523827E+03 E0= -.36524224E+03  d E =-.690573E-01
       N       E                     dE             d eps       ncg     rms          rms(c)
DAV:   1    -0.365244807476E+03   -0.65384E-02   -0.53365E-01  5472   0.222E+00    0.404E-01
RMM:   2    -0.365245763698E+03   -0.95622E-03   -0.32570E-02  6750   0.488E-01    0.175E-01
RMM:   3    -0.365244819753E+03    0.94394E-03   -0.41711E-03  7655   0.149E-01    0.127E-01
RMM:   4    -0.365244486434E+03    0.33332E-03   -0.11492E-03  7783   0.594E-02    0.734E-02
RMM:   5    -0.365244423749E+03    0.62684E-04   -0.41395E-04  7706   0.405E-02    0.496E-02
RMM:   6    -0.365244420612E+03    0.31374E-05   -0.18758E-04  6984   0.236E-02    0.354E-02
RMM:   7    -0.365244407855E+03    0.12757E-04   -0.76464E-05  5457   0.158E-02    0.202E-02
RMM:   8    -0.365244404113E+03    0.37424E-05   -0.42795E-05  4033   0.130E-02
   7 F= -.36524440E+03 E0= -.36524837E+03  d E =-.613867E-02
       N       E                     dE             d eps       ncg     rms          rms(c)
DAV:   1    -0.365257068478E+03   -0.12661E-01   -0.48044E+00  5264   0.667E+00    0.121E+00
RMM:   2    -0.365265730069E+03   -0.86616E-02   -0.29327E-01  6767   0.146E+00    0.528E-01
RMM:   3    -0.365257463791E+03    0.82663E-02   -0.38242E-02  7684   0.452E-01    0.388E-01
RMM:   4    -0.365254468860E+03    0.29949E-02   -0.10492E-02  7842   0.180E-01    0.226E-01
RMM:   5    -0.365253900023E+03    0.56884E-03   -0.37900E-03  7827   0.121E-01    0.152E-01
RMM:   6    -0.365253912687E+03   -0.12664E-04   -0.17390E-03  8018   0.706E-02    0.107E-01
RMM:   7    -0.365253834614E+03    0.78073E-04   -0.73024E-04  7907   0.450E-02    0.593E-02
RMM:   8    -0.365253840837E+03   -0.62234E-05   -0.35376E-04  6894   0.274E-02    0.358E-02
RMM:   9    -0.365253848455E+03   -0.76182E-05   -0.15595E-04  6236   0.217E-02    0.240E-02
RMM:  10    -0.365253849946E+03   -0.14911E-05   -0.64409E-05  4980   0.148E-02
   8 F= -.36525385E+03 E0= -.36525781E+03  d E =-.155845E-01
       N       E                     dE             d eps       ncg     rms          rms(c)
DAV:   1    -0.365261828279E+03   -0.79798E-02   -0.53393E-01  5824   0.233E+00    0.642E-01
RMM:   2    -0.365260752027E+03    0.10763E-02   -0.44028E-02  7189   0.567E-01    0.239E-01
RMM:   3    -0.365259551558E+03    0.12005E-02   -0.76517E-03  7840   0.177E-01    0.179E-01
RMM:   4    -0.365258718686E+03    0.83287E-03   -0.23056E-03  7891   0.941E-02    0.904E-02
RMM:   5    -0.365258626555E+03    0.92130E-04   -0.72677E-04  7765   0.548E-02    0.650E-02
RMM:   6    -0.365258659334E+03   -0.32779E-04   -0.31180E-04  7307   0.292E-02    0.428E-02
RMM:   7    -0.365258671582E+03   -0.12247E-04   -0.11116E-04  6195   0.202E-02    0.230E-02
RMM:   8    -0.365258687410E+03   -0.15828E-04   -0.64220E-05  4566   0.144E-02    0.151E-02
RMM:   9    -0.365258698217E+03   -0.10807E-04   -0.30732E-05  3898   0.116E-02    0.103E-02
RMM:  10    -0.365258706859E+03   -0.86422E-05   -0.13793E-05  3349   0.105E-02
   9 F= -.36525871E+03 E0= -.36526261E+03  d E =-.485691E-02
       N       E                     dE             d eps       ncg     rms          rms(c)
DAV:   1    -0.365279095650E+03   -0.20397E-01   -0.28554E+00  5568   0.540E+00    0.148E+00
RMM:   2    -0.365273696184E+03    0.53995E-02   -0.23384E-01  6980   0.132E+00    0.547E-01
RMM:   3    -0.365267121697E+03    0.65745E-02   -0.39154E-02  7764   0.413E-01    0.403E-01
RMM:   4    -0.365262768912E+03    0.43528E-02   -0.11785E-02  7923   0.214E-01    0.206E-01
RMM:   5    -0.365262316541E+03    0.45237E-03   -0.36147E-03  7875   0.121E-01    0.151E-01
RMM:   6    -0.365262467512E+03   -0.15097E-03   -0.15441E-03  8178   0.647E-02    0.100E-01
RMM:   7    -0.365262518134E+03   -0.50622E-04   -0.60613E-04  7719   0.447E-02    0.553E-02
RMM:   8    -0.365262586882E+03   -0.68748E-04   -0.32840E-04  6784   0.281E-02    0.375E-02
RMM:   9    -0.365262630120E+03   -0.43238E-04   -0.15427E-04  5661   0.223E-02    0.285E-02
RMM:  10    -0.365262673999E+03   -0.43879E-04   -0.95262E-05  5172   0.175E-02    0.141E-02
RMM:  11    -0.365262691051E+03   -0.17052E-04   -0.44323E-05  4327   0.148E-02    0.675E-03
RMM:  12    -0.365262694447E+03   -0.33954E-05   -0.22447E-05  3909   0.135E-02
  10 F= -.36526269E+03 E0= -.36526650E+03  d E =-.884450E-02
       N       E                     dE             d eps       ncg     rms          rms(c)
DAV:   1    -0.365262987630E+03   -0.29658E-03   -0.35448E-02  5856   0.601E-01    0.167E-01
RMM:   2    -0.365262934727E+03    0.52904E-04   -0.29419E-03  7330   0.147E-01    0.624E-02
RMM:   3    -0.365262851956E+03    0.82771E-04   -0.51589E-04  7785   0.458E-02    0.475E-02
RMM:   4    -0.365262791303E+03    0.60653E-04   -0.14920E-04  7080   0.245E-02    0.240E-02
RMM:   5    -0.365262779338E+03    0.11965E-04   -0.35373E-05  3547   0.155E-02    0.185E-02
RMM:   6    -0.365262775710E+03    0.36273E-05   -0.16595E-05  2978   0.106E-02
  11 F= -.36526278E+03 E0= -.36526659E+03  d E =-.892576E-02
       N       E                     dE             d eps       ncg     rms          rms(c)
DAV:   1    -0.365263759252E+03   -0.97991E-03   -0.31251E-01  5248   0.163E+00    0.143E-01
RMM:   2    -0.365264802295E+03   -0.10430E-02   -0.12805E-02  6811   0.328E-01    0.801E-02
RMM:   3    -0.365264620435E+03    0.18186E-03   -0.13780E-03  7614   0.922E-02    0.605E-02
RMM:   4    -0.365264580611E+03    0.39824E-04   -0.30647E-04  7263   0.269E-02    0.392E-02
RMM:   5    -0.365264574101E+03    0.65103E-05   -0.12580E-04  6600   0.193E-02    0.245E-02
RMM:   6    -0.365264567250E+03    0.68511E-05   -0.59452E-05  5454   0.146E-02
  12 F= -.36526457E+03 E0= -.36526838E+03  d E =-.179154E-02
       N       E                     dE             d eps       ncg     rms          rms(c)
DAV:   1    -0.365260516300E+03    0.40578E-02   -0.28117E+00  5152   0.490E+00    0.438E-01
RMM:   2    -0.365269939273E+03   -0.94230E-02   -0.11657E-01  7022   0.983E-01    0.246E-01
RMM:   3    -0.365268467761E+03    0.14715E-02   -0.13155E-02  7670   0.273E-01    0.188E-01
RMM:   4    -0.365268124651E+03    0.34311E-03   -0.29194E-03  8442   0.822E-02    0.124E-01
RMM:   5    -0.365268084385E+03    0.40266E-04   -0.12403E-03  7907   0.605E-02    0.770E-02
RMM:   6    -0.365268039263E+03    0.45122E-04   -0.59192E-04  7824   0.460E-02    0.377E-02
RMM:   7    -0.365268022027E+03    0.17236E-04   -0.22172E-04  6734   0.217E-02    0.222E-02
RMM:   8    -0.365268019675E+03    0.23526E-05   -0.66538E-05  4796   0.150E-02
  13 F= -.36526802E+03 E0= -.36527184E+03  d E =-.524396E-02
       N       E                     dE             d eps       ncg     rms          rms(c)
DAV:   1    -0.365235658659E+03    0.32363E-01   -0.11255E+01  5152   0.980E+00    0.882E-01
RMM:   2    -0.365273454422E+03   -0.37796E-01   -0.46829E-01  7003   0.197E+00    0.486E-01
RMM:   3    -0.365268138072E+03    0.53164E-02   -0.53212E-02  7693   0.552E-01    0.381E-01
RMM:   4    -0.365266731526E+03    0.14065E-02   -0.11596E-02  8523   0.165E-01    0.253E-01
RMM:   5    -0.365266572540E+03    0.15899E-03   -0.48914E-03  8009   0.120E-01    0.158E-01
RMM:   6    -0.365266381108E+03    0.19143E-03   -0.23845E-03  7997   0.940E-02    0.758E-02
RMM:   7    -0.365266321574E+03    0.59533E-04   -0.92529E-04  8606   0.438E-02    0.447E-02
RMM:   8    -0.365266319807E+03    0.17670E-05   -0.30541E-04  6577   0.238E-02    0.300E-02
RMM:   9    -0.365266324632E+03   -0.48245E-05   -0.16195E-04  6118   0.196E-02    0.157E-02
RMM:  10    -0.365266324480E+03    0.15202E-06   -0.62494E-05  4865   0.142E-02
  14 F= -.36526632E+03 E0= -.36527018E+03  d E =-.354877E-02
       N       E                     dE             d eps       ncg     rms          rms(c)
DAV:   1    -0.365255603391E+03    0.10721E-01   -0.51381E+00  5152   0.661E+00    0.580E-01
RMM:   2    -0.365272388500E+03   -0.16785E-01   -0.21104E-01  6903   0.133E+00    0.325E-01
RMM:   3    -0.365269478604E+03    0.29099E-02   -0.22908E-02  7669   0.369E-01    0.243E-01
RMM:   4    -0.365268847060E+03    0.63154E-03   -0.50542E-03  8306   0.109E-01    0.158E-01
RMM:   5    -0.365268773116E+03    0.73944E-04   -0.21287E-03  7970   0.817E-02    0.973E-02
RMM:   6    -0.365268723166E+03    0.49949E-04   -0.99331E-04  8177   0.585E-02    0.506E-02
RMM:   7    -0.365268706486E+03    0.16680E-04   -0.37009E-04  7511   0.281E-02    0.295E-02
RMM:   8    -0.365268710790E+03   -0.43041E-05   -0.11181E-04  5291   0.168E-02    0.194E-02
RMM:   9    -0.365268720141E+03   -0.93503E-05   -0.65975E-05  4707   0.139E-02
  15 F= -.36526872E+03 E0= -.36527255E+03  d E =-.594443E-02
       N       E                     dE             d eps       ncg     rms          rms(c)
DAV:   1    -0.365269749521E+03   -0.10387E-02   -0.26097E-01  5184   0.147E+00    0.142E-01
RMM:   2    -0.365270538294E+03   -0.78877E-03   -0.10768E-02  6983   0.298E-01    0.741E-02
RMM:   3    -0.365270435587E+03    0.10271E-03   -0.11674E-03  7635   0.811E-02    0.563E-02
RMM:   4    -0.365270404830E+03    0.30757E-04   -0.27102E-04  7113   0.240E-02    0.369E-02
RMM:   5    -0.365270399830E+03    0.50004E-05   -0.11221E-04  6427   0.170E-02    0.218E-02
RMM:   6    -0.365270394935E+03    0.48949E-05   -0.43573E-05  4445   0.136E-02
  16 F= -.36527039E+03 E0= -.36527427E+03  d E =-.167479E-02
       N       E                     dE             d eps       ncg     rms          rms(c)
DAV:   1    -0.365269078752E+03    0.13211E-02   -0.10611E+00  5152   0.296E+00    0.285E-01
RMM:   2    -0.365272306297E+03   -0.32275E-02   -0.43982E-02  6992   0.600E-01    0.150E-01
RMM:   3    -0.365271953621E+03    0.35268E-03   -0.49806E-03  7693   0.163E-01    0.114E-01
RMM:   4    -0.365271843308E+03    0.11031E-03   -0.11833E-03  8437   0.486E-02    0.755E-02
RMM:   5    -0.365271831240E+03    0.12068E-04   -0.50426E-04  7670   0.362E-02    0.450E-02
RMM:   6    -0.365271817486E+03    0.13754E-04   -0.21328E-04  7279   0.278E-02    0.203E-02
RMM:   7    -0.365271814634E+03    0.28519E-05   -0.76656E-05  5088   0.143E-02
  17 F= -.36527181E+03 E0= -.36527579E+03  d E =-.309449E-02
       N       E                     dE             d eps       ncg     rms          rms(c)
DAV:   1    -0.365274719317E+03   -0.29018E-02   -0.20617E-01  6128   0.150E+00    0.492E-01
RMM:   2    -0.365273770621E+03    0.94870E-03   -0.21944E-02  7641   0.395E-01    0.193E-01
RMM:   3    -0.365272678711E+03    0.10919E-02   -0.43232E-03  7912   0.120E-01    0.135E-01
RMM:   4    -0.365272219331E+03    0.45938E-03   -0.13182E-03  7875   0.722E-02    0.703E-02
RMM:   5    -0.365272151680E+03    0.67651E-04   -0.37346E-04  7589   0.418E-02    0.489E-02
RMM:   6    -0.365272173922E+03   -0.22243E-04   -0.16908E-04  6696   0.226E-02    0.365E-02
RMM:   7    -0.365272182564E+03   -0.86421E-05   -0.57161E-05  4808   0.154E-02
  18 F= -.36527218E+03 E0= -.36527620E+03  d E =-.367930E-03
       N       E                     dE             d eps       ncg     rms          rms(c)
DAV:   1    -0.365272196272E+03   -0.22350E-04   -0.84855E-04  6552   0.961E-02    0.267E-02
RMM:   2    -0.365272198440E+03   -0.21678E-05   -0.95621E-05  5694   0.262E-02
  19 F= -.36527220E+03 E0= -.36527622E+03  d E =-.383806E-03
       N       E                     dE             d eps       ncg     rms          rms(c)
DAV:   1    -0.365272409676E+03   -0.21340E-03   -0.74287E-02  5344   0.784E-01    0.683E-02
RMM:   2    -0.365272640911E+03   -0.23124E-03   -0.29159E-03  7175   0.158E-01    0.402E-02
RMM:   3    -0.365272634007E+03    0.69041E-05   -0.34459E-04  7092   0.410E-02    0.321E-02
RMM:   4    -0.365272628059E+03    0.59481E-05   -0.81992E-05  5358   0.142E-02
  20 F= -.36527263E+03 E0= -.36527669E+03  d E =-.429620E-03
       N       E                     dE             d eps       ncg     rms          rms(c)
DAV:   1    -0.365271570728E+03    0.10633E-02   -0.66499E-01  5152   0.234E+00    0.200E-01
RMM:   2    -0.365273511513E+03   -0.19408E-02   -0.25529E-02  7051   0.470E-01    0.108E-01
RMM:   3    -0.365273488031E+03    0.23482E-04   -0.30238E-03  7670   0.121E-01    0.863E-02
RMM:   4    -0.365273429083E+03    0.58948E-04   -0.67554E-04  8221   0.378E-02    0.603E-02
RMM:   5    -0.365273412341E+03    0.16742E-04   -0.27736E-04  7462   0.314E-02    0.300E-02
RMM:   6    -0.365273402729E+03    0.96121E-05   -0.11752E-04  6725   0.190E-02    0.154E-02
RMM:   7    -0.365273400469E+03    0.22594E-05   -0.28989E-05  3602   0.118E-02
  21 F= -.36527340E+03 E0= -.36527760E+03  d E =-.120203E-02
       N       E                     dE             d eps       ncg     rms          rms(c)
DAV:   1    -0.365273042639E+03    0.36009E-03   -0.16352E-01  5168   0.116E+00    0.981E-02
RMM:   2    -0.365273532376E+03   -0.48974E-03   -0.63706E-03  7036   0.233E-01    0.521E-02
RMM:   3    -0.365273526093E+03    0.62831E-05   -0.76333E-04  7481   0.608E-02    0.407E-02
RMM:   4    -0.365273517507E+03    0.85858E-05   -0.18829E-04  6395   0.193E-02    0.287E-02
RMM:   5    -0.365273513536E+03    0.39711E-05   -0.69546E-05  5669   0.135E-02
  22 F= -.36527351E+03 E0= -.36527778E+03  d E =-.131510E-02
       N       E                     dE             d eps       ncg     rms          rms(c)
DAV:   1    -0.365273792491E+03   -0.27498E-03   -0.57424E-02  5376   0.733E-01    0.144E-01
RMM:   2    -0.365273881376E+03   -0.88884E-04   -0.38220E-03  6876   0.166E-01    0.592E-02
RMM:   3    -0.365273798235E+03    0.83141E-04   -0.47258E-04  7488   0.513E-02    0.422E-02
RMM:   4    -0.365273753690E+03    0.44545E-04   -0.13677E-04  6728   0.211E-02    0.236E-02
RMM:   5    -0.365273745352E+03    0.83385E-05   -0.46671E-05  4493   0.138E-02
  23 F= -.36527375E+03 E0= -.36527803E+03  d E =-.231816E-03
       N       E                     dE             d eps       ncg     rms          rms(c)
DAV:   1    -0.365273945161E+03   -0.19147E-03   -0.11425E-01  5200   0.103E+00    0.202E-01
RMM:   2    -0.365274121285E+03   -0.17612E-03   -0.76151E-03  7055   0.235E-01    0.852E-02
RMM:   3    -0.365273939359E+03    0.18193E-03   -0.95541E-04  7579   0.721E-02    0.606E-02
RMM:   4    -0.365273852460E+03    0.86899E-04   -0.28251E-04  7492   0.302E-02    0.347E-02
RMM:   5    -0.365273838609E+03    0.13851E-04   -0.10904E-04  6791   0.195E-02    0.246E-02
RMM:   6    -0.365273833602E+03    0.50068E-05   -0.38575E-05  4006   0.119E-02
  24 F= -.36527383E+03 E0= -.36527813E+03  d E =-.320066E-03
       N       E                     dE             d eps       ncg     rms          rms(c)
DAV:   1    -0.365273957044E+03   -0.11844E-03   -0.23621E-02  5520   0.469E-01    0.963E-02
RMM:   2    -0.365273988295E+03   -0.31251E-04   -0.16567E-03  7318   0.110E-01    0.424E-02
RMM:   3    -0.365273963223E+03    0.25071E-04   -0.24652E-04  7076   0.343E-02    0.322E-02
RMM:   4    -0.365273942505E+03    0.20718E-04   -0.74605E-05  6408   0.166E-02    0.175E-02
RMM:   5    -0.365273939487E+03    0.30188E-05   -0.21840E-05  3242   0.107E-02
  25 F= -.36527394E+03 E0= -.36527824E+03  d E =-.105885E-03
       N       E                     dE             d eps       ncg     rms          rms(c)
DAV:   1    -0.365274026019E+03   -0.83514E-04   -0.67152E-02  5200   0.794E-01    0.152E-01
RMM:   2    -0.365274131136E+03   -0.10512E-03   -0.45115E-03  7064   0.181E-01    0.653E-02
RMM:   3    -0.365274043670E+03    0.87466E-04   -0.55938E-04  7541   0.543E-02    0.489E-02
RMM:   4    -0.365273998394E+03    0.45276E-04   -0.16628E-04  6952   0.231E-02    0.277E-02
RMM:   5    -0.365273994264E+03    0.41305E-05   -0.61160E-05  5194   0.148E-02
  26 F= -.36527399E+03 E0= -.36527830E+03  d E =-.160662E-03
       N       E                     dE             d eps       ncg     rms          rms(c)
DAV:   1    -0.365274046337E+03   -0.47943E-04   -0.36629E-03  5440   0.182E-01    0.307E-02
RMM:   2    -0.365274056306E+03   -0.99687E-05   -0.22725E-04  6879   0.396E-02    0.166E-02
RMM:   3    -0.365274045832E+03    0.10474E-04   -0.19409E-05  3243   0.126E-02    0.111E-02
RMM:   4    -0.365274047232E+03   -0.13999E-05   -0.94610E-06  2886   0.108E-02
  27 F= -.36527405E+03 E0= -.36527836E+03  d E =-.529680E-04
       N       E                     dE             d eps       ncg     rms          rms(c)
DAV:   1    -0.365274145353E+03   -0.99522E-04   -0.32906E-02  5328   0.545E-01    0.100E-01
RMM:   2    -0.365274185788E+03   -0.40435E-04   -0.19333E-03  7441   0.119E-01    0.447E-02
RMM:   3    -0.365274142528E+03    0.43260E-04   -0.25343E-04  7126   0.353E-02    0.317E-02
RMM:   4    -0.365274123128E+03    0.19399E-04   -0.77538E-05  6003   0.172E-02    0.172E-02
RMM:   5    -0.365274122047E+03    0.10813E-05   -0.24315E-05  3325   0.112E-02
  28 F= -.36527412E+03 E0= -.36527844E+03  d E =-.127784E-03
