<?xml version="1.0" encoding="ISO-8859-1"?>
<modeling>
 <generator>
  <i name="program" type="string">vasp </i>
  <i name="version" type="string">5.4.1  </i>
  <i name="subversion" type="string">05Feb16 (build Jan 29 2020 16:04:39) complex                          parallel </i>
  <i name="platform" type="string">IFC91_ompi </i>
  <i name="date" type="string">2020 06 15 </i>
  <i name="time" type="string">03:33:20 </i>
 </generator>
 <incar>
  <i type="string" name="SYSTEM"> automatically generated by mexm</i>
  <i type="int" name="ISTART">     0</i>
  <i type="string" name="PREC">accurate               ! avoid wrap aro</i>
  <i type="string" name="ALGO"> Fast                   ! blocked Davids</i>
  <i type="int" name="ISPIN">     1</i>
  <i type="int" name="ICHARG">     2</i>
  <i type="int" name="NELM">    70</i>
  <i type="int" name="IBRION">     2</i>
  <i name="EDIFF">      0.00001000</i>
  <i name="EDIFFG">     -0.01000000</i>
  <i type="int" name="NSW">   300</i>
  <i type="int" name="ISIF">     3</i>
  <i type="int" name="ISYM">     1</i>
  <i name="ENCUT">    300.00000000</i>
  <i name="POTIM">      0.15000000</i>
  <i type="string" name="LREAL"> Auto                  ! unpublished met</i>
  <i type="int" name="ISMEAR">     1</i>
  <i name="SIGMA">      0.15000000</i>
  <i type="logical" name="LWAVE"> F  </i>
  <i type="logical" name="LCHARG"> F  </i>
  <i type="logical" name="LVTOT"> F  </i>
  <v type="int" name="KPOINT_BSE">    -1     0     0     0</v>
  <i type="int" name="NELM">    70</i>
 </incar>
 <kpoints>
  <generation param="Gamma">
   <v type="int" name="divisions">       3        3        3 </v>
   <v name="usershift">      0.00000000       0.00000000       0.00000000 </v>
   <v name="genvec1">      0.33333333       0.00000000       0.00000000 </v>
   <v name="genvec2">      0.00000000       0.33333333       0.00000000 </v>
   <v name="genvec3">     -0.00000000       0.00000000       0.33333333 </v>
   <v name="shift">      0.00000000       0.00000000       0.00000000 </v>
  </generation>
  <varray name="kpointlist" >
   <v>       0.00000000       0.00000000       0.00000000 </v>
   <v>       0.33333333      -0.00000000       0.00000000 </v>
   <v>       0.00000000       0.33333333       0.00000000 </v>
   <v>       0.33333333       0.33333333       0.00000000 </v>
   <v>      -0.33333333       0.33333333       0.00000000 </v>
   <v>      -0.00000000      -0.00000000       0.33333333 </v>
   <v>       0.33333333       0.00000000       0.33333333 </v>
   <v>      -0.33333333      -0.00000000       0.33333333 </v>
   <v>       0.00000000       0.33333333       0.33333333 </v>
   <v>       0.33333333       0.33333333       0.33333333 </v>
   <v>      -0.33333333       0.33333333       0.33333333 </v>
   <v>       0.00000000      -0.33333333       0.33333333 </v>
   <v>       0.33333333      -0.33333333       0.33333333 </v>
   <v>      -0.33333333      -0.33333333       0.33333333 </v>
  </varray>
  <varray name="weights" >
   <v>       0.03703704 </v>
   <v>       0.07407407 </v>
   <v>       0.07407407 </v>
   <v>       0.07407407 </v>
   <v>       0.07407407 </v>
   <v>       0.07407407 </v>
   <v>       0.07407407 </v>
   <v>       0.07407407 </v>
   <v>       0.07407407 </v>
   <v>       0.07407407 </v>
   <v>       0.07407407 </v>
   <v>       0.07407407 </v>
   <v>       0.07407407 </v>
   <v>       0.07407407 </v>
  </varray>
 </kpoints>
 <parameters>
  <separator name="general" >
   <i type="string" name="SYSTEM">automatically generated by mexm</i>
   <i type="logical" name="LCOMPAT"> F  </i>
  </separator>
  <separator name="electronic" >
   <i type="string" name="PREC">accura</i>
   <i name="ENMAX">    300.00000000</i>
   <i name="ENAUG">    461.25700000</i>
   <i name="EDIFF">      0.00001000</i>
   <i type="int" name="IALGO">    68</i>
   <i type="int" name="IWAVPR">    11</i>
   <i type="int" name="NBANDS">   184</i>
   <i name="NELECT">    308.00000000</i>
   <i type="int" name="TURBO">     0</i>
   <i type="int" name="IRESTART">     0</i>
   <i type="int" name="NREBOOT">     0</i>
   <i type="int" name="NMIN">     0</i>
   <i name="EREF">      0.00000000</i>
   <separator name="electronic smearing" >
    <i type="int" name="ISMEAR">     1</i>
    <i name="SIGMA">      0.15000000</i>
    <i name="KSPACING">      0.50000000</i>
    <i type="logical" name="KGAMMA"> T  </i>
   </separator>
   <separator name="electronic projectors" >
    <i type="logical" name="LREAL"> T  </i>
    <v name="ROPT">     -0.00025000     -0.00025000     -0.00025000     -0.00025000</v>
    <i type="int" name="LMAXPAW">  -100</i>
    <i type="int" name="LMAXMIX">     2</i>
    <i type="logical" name="NLSPLINE"> F  </i>
   </separator>
   <separator name="electronic startup" >
    <i type="int" name="ISTART">     0</i>
    <i type="int" name="ICHARG">     2</i>
    <i type="int" name="INIWAV">     1</i>
   </separator>
   <separator name="electronic spin" >
    <i type="int" name="ISPIN">     1</i>
    <i type="logical" name="LNONCOLLINEAR"> F  </i>
    <v name="MAGMOM">      1.00000000      1.00000000      1.00000000      1.00000000      1.00000000      1.00000000      1.00000000      1.00000000      1.00000000      1.00000000      1.00000000      1.00000000      1.00000000      1.00000000      1.00000000      1.00000000      1.00000000      1.00000000      1.00000000      1.00000000
      1.00000000      1.00000000      1.00000000      1.00000000      1.00000000      1.00000000      1.00000000      1.00000000      1.00000000      1.00000000      1.00000000      1.00000000      1.00000000      1.00000000      1.00000000      1.00000000</v>
    <i name="NUPDOWN">     -1.00000000</i>
    <i type="logical" name="LSORBIT"> F  </i>
    <v name="SAXIS">      0.00000000      0.00000000      1.00000000</v>
    <i type="logical" name="LSPIRAL"> F  </i>
    <v name="QSPIRAL">      0.00000000      0.00000000      0.00000000</v>
    <i type="logical" name="LZEROZ"> F  </i>
   </separator>
   <separator name="electronic exchange-correlation" >
    <i type="logical" name="LASPH"> F  </i>
    <i type="logical" name="LMETAGGA"> F  </i>
   </separator>
   <separator name="electronic convergence" >
    <i type="int" name="NELM">    70</i>
    <i type="int" name="NELMDL">    -5</i>
    <i type="int" name="NELMIN">     2</i>
    <i name="ENINI">    300.00000000</i>
    <separator name="electronic convergence detail" >
     <i type="logical" name="LDIAG"> T  </i>
     <i type="logical" name="LSUBROT"> F  </i>
     <i name="WEIMIN">      0.00100000</i>
     <i name="EBREAK">      0.00000001</i>
     <i name="DEPER">      0.30000000</i>
     <i type="int" name="NRMM">     4</i>
     <i name="TIME">      0.40000000</i>
    </separator>
   </separator>
   <separator name="electronic mixer" >
    <i name="AMIX">      0.40000000</i>
    <i name="BMIX">      1.00000000</i>
    <i name="AMIN">      0.10000000</i>
    <i name="AMIX_MAG">      1.60000000</i>
    <i name="BMIX_MAG">      1.00000000</i>
    <separator name="electronic mixer details" >
     <i type="int" name="IMIX">     4</i>
     <i type="logical" name="MIXFIRST"> F  </i>
     <i type="int" name="MAXMIX">   -45</i>
     <i name="WC">    100.00000000</i>
     <i type="int" name="INIMIX">     1</i>
     <i type="int" name="MIXPRE">     1</i>
     <i type="int" name="MREMOVE">     5</i>
    </separator>
   </separator>
   <separator name="electronic dipolcorrection" >
    <i type="logical" name="LDIPOL"> F  </i>
    <i type="logical" name="LMONO"> F  </i>
    <i type="int" name="IDIPOL">     0</i>
    <i name="EPSILON">      1.00000000</i>
    <v name="DIPOL">   -100.00000000   -100.00000000   -100.00000000</v>
    <i name="EFIELD">      0.00000000</i>
   </separator>
  </separator>
  <separator name="grids" >
   <i type="int" name="NGX">    40</i>
   <i type="int" name="NGY">    60</i>
   <i type="int" name="NGZ">    60</i>
   <i type="int" name="NGXF">    80</i>
   <i type="int" name="NGYF">   120</i>
   <i type="int" name="NGZF">   120</i>
   <i type="logical" name="ADDGRID"> F  </i>
  </separator>
  <separator name="ionic" >
   <i type="int" name="NSW">   300</i>
   <i type="int" name="IBRION">     2</i>
   <i type="int" name="ISIF">     3</i>
   <i name="PSTRESS">      0.00000000</i>
   <i name="EDIFFG">     -0.01000000</i>
   <i type="int" name="NFREE">     1</i>
   <i name="POTIM">      0.15000000</i>
   <i name="SMASS">     -3.00000000</i>
   <i name="SCALEE">      1.00000000</i>
  </separator>
  <separator name="ionic md" >
   <i name="TEBEG">      0.00010000</i>
   <i name="TEEND">      0.00010000</i>
   <i type="int" name="NBLOCK">     1</i>
   <i type="int" name="KBLOCK">   300</i>
   <i type="int" name="NPACO">   256</i>
   <i name="APACO">     16.00000000</i>
  </separator>
  <separator name="symmetry" >
   <i type="int" name="ISYM">     1</i>
   <i name="SYMPREC">      0.00001000</i>
  </separator>
  <separator name="dos" >
   <i type="logical" name="LORBIT"> F  </i>
   <v name="RWIGS">     -1.00000000     -1.00000000     -1.00000000     -1.00000000</v>
   <i type="int" name="NEDOS">   301</i>
   <i name="EMIN">     10.00000000</i>
   <i name="EMAX">    -10.00000000</i>
   <i name="EFERMI">      0.00000000</i>
  </separator>
  <separator name="writing" >
   <i type="int" name="NWRITE">     2</i>
   <i type="logical" name="LWAVE"> F  </i>
   <i type="logical" name="LCHARG"> F  </i>
   <i type="logical" name="LPARD"> F  </i>
   <i type="logical" name="LVTOT"> F  </i>
   <i type="logical" name="LVHAR"> F  </i>
   <i type="logical" name="LELF"> F  </i>
   <i type="logical" name="LOPTICS"> F  </i>
   <v name="STM">      0.00000000      0.00000000      0.00000000      0.00000000      0.00000000      0.00000000      0.00000000</v>
  </separator>
  <separator name="performance" >
   <i type="int" name="NPAR">     4</i>
   <i type="int" name="NSIM">     4</i>
   <i type="int" name="NBLK">    -1</i>
   <i type="logical" name="LPLANE"> T  </i>
   <i type="logical" name="LSCALAPACK"> T  </i>
   <i type="logical" name="LSCAAWARE"> F  </i>
   <i type="logical" name="LSCALU"> F  </i>
   <i type="logical" name="LASYNC"> F  </i>
   <i type="logical" name="LORBITALREAL"> F  </i>
  </separator>
  <separator name="miscellaneous" >
   <i type="int" name="IDIOT">     3</i>
   <i type="logical" name="LMUSIC"> F  </i>
   <v name="POMASS">    180.94800000     91.22400000     92.91000000    178.49000000</v>
   <v name="DARWINR">      0.00000000      0.00000000      0.00000000      0.00000000</v>
   <v name="DARWINV">      1.00000000      1.00000000      1.00000000      1.00000000</v>
   <i type="logical" name="LCORR"> T  </i>
  </separator>
  <i type="logical" name="GGA_COMPAT"> T  </i>
  <i type="logical" name="LBERRY"> F  </i>
  <i type="int" name="ICORELEVEL">     0</i>
  <i type="logical" name="LDAU"> F  </i>
  <i type="int" name="I_CONSTRAINED_M">     0</i>
  <separator name="electronic exchange-correlation" >
   <i type="string" name="GGA">--</i>
   <i type="int" name="VOSKOWN">     0</i>
   <i type="logical" name="LHFCALC"> F  </i>
   <i type="string" name="PRECFOCK"></i>
   <i type="logical" name="LSYMGRAD"> F  </i>
   <i type="logical" name="LHFONE"> F  </i>
   <i type="logical" name="LRHFCALC"> F  </i>
   <i type="logical" name="LTHOMAS"> F  </i>
   <i type="logical" name="LMODELHF"> F  </i>
   <i name="ENCUT4O">     -1.00000000</i>
   <i type="int" name="EXXOEP">     0</i>
   <i type="int" name="FOURORBIT">     0</i>
   <i name="AEXX">      0.00000000</i>
   <i name="HFALPHA">      0.00000000</i>
   <i name="MCALPHA">      0.00000000</i>
   <i name="ALDAX">      1.00000000</i>
   <i name="AGGAX">      1.00000000</i>
   <i name="ALDAC">      1.00000000</i>
   <i name="AGGAC">      1.00000000</i>
   <i type="int" name="NKREDX">     1</i>
   <i type="int" name="NKREDY">     1</i>
   <i type="int" name="NKREDZ">     1</i>
   <i type="logical" name="SHIFTRED"> F  </i>
   <i type="logical" name="ODDONLY"> F  </i>
   <i type="logical" name="EVENONLY"> F  </i>
   <i type="int" name="LMAXFOCK">     0</i>
   <i type="int" name="NMAXFOCKAE">     0</i>
   <i type="logical" name="LFOCKAEDFT"> F  </i>
   <i name="HFSCREEN">      0.00000000</i>
   <i name="HFSCREENC">      0.00000000</i>
   <i type="int" name="NBANDSGWLOW">     0</i>
  </separator>
  <separator name="vdW DFT" >
   <i type="logical" name="LUSE_VDW"> F  </i>
   <i name="Zab_VDW">     -0.84910000</i>
   <i name="PARAM1">      0.12340000</i>
   <i name="PARAM2">      1.00000000</i>
   <i name="PARAM3">      0.00000000</i>
  </separator>
  <separator name="model GW" >
   <i type="int" name="MODEL_GW">     0</i>
   <i name="MODEL_EPS0">     12.01813033</i>
   <i name="MODEL_ALPHA">      1.00000000</i>
  </separator>
  <separator name="linear response parameters" >
   <i type="logical" name="LEPSILON"> F  </i>
   <i type="logical" name="LRPA"> F  </i>
   <i type="logical" name="LNABLA"> F  </i>
   <i type="logical" name="LVEL"> F  </i>
   <i type="int" name="KINTER">     0</i>
   <i name="CSHIFT">      0.10000000</i>
   <i name="OMEGAMAX">     -1.00000000</i>
   <i name="DEG_THRESHOLD">      0.00200000</i>
  </separator>
  <separator name="orbital magnetization" >
   <i type="logical" name="NUCIND"> F  </i>
   <v name="MAGPOS">      0.00000000      0.00000000      0.00000000</v>
   <i type="logical" name="LNICSALL"> T  </i>
   <i type="logical" name="ORBITALMAG"> F  </i>
   <i type="logical" name="LMAGBLOCH"> F  </i>
   <i type="logical" name="LCHIMAG"> F  </i>
   <i type="logical" name="LGAUGE"> T  </i>
   <i type="int" name="MAGATOM">     0</i>
   <v name="MAGDIPOL">      0.00000000      0.00000000      0.00000000</v>
   <v name="AVECCONST">      0.00000000      0.00000000      0.00000000</v>
  </separator>
  <separator name="response functions" >
   <i type="logical" name="LADDER"> F  </i>
   <i type="logical" name="LFXC"> F  </i>
   <i type="logical" name="LHARTREE"> T  </i>
   <i type="int" name="IBSE">     0</i>
   <v type="int" name="KPOINT">    -1     0     0     0</v>
   <i type="logical" name="LTCTE"> F  </i>
   <i type="logical" name="LTETE"> F  </i>
   <i type="logical" name="LTRIPLET"> F  </i>
   <i type="logical" name="LFXCEPS"> F  </i>
   <i type="logical" name="LFXHEG"> F  </i>
   <i type="int" name="NATURALO">     0</i>
   <i type="logical" name="L2ORDER"> F  </i>
   <i type="logical" name="LUSEW"> F  </i>
   <i name="ENCUTGW">     -2.00000000</i>
   <i name="ENCUTGWSOFT">     -2.00000000</i>
   <i name="ENCUTLF">     -1.00000000</i>
   <i type="int" name="LMAXMP2">    -1</i>
   <i name="SCISSOR">      0.00000000</i>
   <i type="int" name="NOMEGA">     0</i>
   <i type="int" name="NOMEGAR">     0</i>
   <i type="int" name="NBANDSGW">    -1</i>
   <i type="int" name="NBANDSO">    -1</i>
   <i type="int" name="NBANDSV">    -1</i>
   <i type="int" name="NELM">    70</i>
   <i type="int" name="NELMHF">     1</i>
   <i type="int" name="DIM">     3</i>
   <i type="int" name="ANTIRES">     0</i>
   <i name="OMEGAMAX">    -30.00000000</i>
   <i name="OMEGAMIN">    -30.00000000</i>
   <i name="OMEGATL">   -200.00000000</i>
   <i type="int" name="OMEGAGRID">     0</i>
   <i name="CSHIFT">     -0.10000000</i>
   <i type="logical" name="SELFENERGY"> F  </i>
   <i type="logical" name="LSPECTRAL"> F  </i>
   <i type="logical" name="LSPECTRALGW"> F  </i>
   <i type="logical" name="LSINGLES"> F  </i>
   <i type="logical" name="LFERMIGW"> F  </i>
   <i type="logical" name="ODDONLYGW"> F  </i>
   <i type="logical" name="EVENONLYGW"> F  </i>
   <i type="int" name="NKREDLFX">     1</i>
   <i type="int" name="NKREDLFY">     1</i>
   <i type="int" name="NKREDLFZ">     1</i>
   <i type="int" name="MAXMEM">  1800</i>
   <i type="int" name="TELESCOPE">     0</i>
   <i type="int" name="TAUPAR">     1</i>
   <i type="int" name="OMEGAPAR">    -1</i>
   <i name="LAMBDA">      1.00000000</i>
  </separator>
  <separator name="External order field" >
   <i name="OFIELD_KAPPA">      0.00000000</i>
   <v name="OFIELD_K">      0.00000000      0.00000000      0.00000000</v>
   <i name="OFIELD_Q6_NEAR">      0.00000000</i>
   <i name="OFIELD_Q6_FAR">      0.00000000</i>
   <i name="OFIELD_A">      0.00000000</i>
  </separator>
 </parameters>
 <atominfo>
  <atoms>      36 </atoms>
  <types>       4 </types>
  <array name="atoms" >
   <dimension dim="1">ion</dimension>
   <field type="string">element</field>
   <field type="int">atomtype</field>
   <set>
    <rc><c>Ta</c><c>   1</c></rc>
    <rc><c>Ta</c><c>   1</c></rc>
    <rc><c>Ta</c><c>   1</c></rc>
    <rc><c>Ta</c><c>   1</c></rc>
    <rc><c>Ta</c><c>   1</c></rc>
    <rc><c>Ta</c><c>   1</c></rc>
    <rc><c>Ta</c><c>   1</c></rc>
    <rc><c>Ta</c><c>   1</c></rc>
    <rc><c>Ta</c><c>   1</c></rc>
    <rc><c>Ta</c><c>   1</c></rc>
    <rc><c>Zr</c><c>   2</c></rc>
    <rc><c>Zr</c><c>   2</c></rc>
    <rc><c>Zr</c><c>   2</c></rc>
    <rc><c>Zr</c><c>   2</c></rc>
    <rc><c>Zr</c><c>   2</c></rc>
    <rc><c>Zr</c><c>   2</c></rc>
    <rc><c>Zr</c><c>   2</c></rc>
    <rc><c>Zr</c><c>   2</c></rc>
    <rc><c>Nb</c><c>   3</c></rc>
    <rc><c>Nb</c><c>   3</c></rc>
    <rc><c>Nb</c><c>   3</c></rc>
    <rc><c>Nb</c><c>   3</c></rc>
    <rc><c>Nb</c><c>   3</c></rc>
    <rc><c>Nb</c><c>   3</c></rc>
    <rc><c>Nb</c><c>   3</c></rc>
    <rc><c>Nb</c><c>   3</c></rc>
    <rc><c>Nb</c><c>   3</c></rc>
    <rc><c>Nb</c><c>   3</c></rc>
    <rc><c>Hf</c><c>   4</c></rc>
    <rc><c>Hf</c><c>   4</c></rc>
    <rc><c>Hf</c><c>   4</c></rc>
    <rc><c>Hf</c><c>   4</c></rc>
    <rc><c>Hf</c><c>   4</c></rc>
    <rc><c>Hf</c><c>   4</c></rc>
    <rc><c>Hf</c><c>   4</c></rc>
    <rc><c>Hf</c><c>   4</c></rc>
   </set>
  </array>
  <array name="atomtypes" >
   <dimension dim="1">type</dimension>
   <field type="int">atomspertype</field>
   <field type="string">element</field>
   <field>mass</field>
   <field>valence</field>
   <field type="string">pseudopotential</field>
   <set>
    <rc><c>  10</c><c>Ta</c><c>    180.94800000</c><c>      5.00000000</c><c>  PAW_PBE Ta 17Jan2003                  </c></rc>
    <rc><c>   8</c><c>Zr</c><c>     91.22400000</c><c>     12.00000000</c><c>  PAW_PBE Zr_sv 04Jan2005               </c></rc>
    <rc><c>  10</c><c>Nb</c><c>     92.91000000</c><c>     13.00000000</c><c>  PAW_PBE Nb_sv 25May2007               </c></rc>
    <rc><c>   8</c><c>Hf</c><c>    178.49000000</c><c>      4.00000000</c><c>  PAW_PBE Hf 20Jan2003                  </c></rc>
   </set>
  </array>
 </atominfo>
 <structure name="initialpos" >
  <crystal>
   <varray name="basis" >
    <v>       6.88561870      -0.00948278       0.00432985 </v>
    <v>      -0.01389743      10.24526544       0.01430647 </v>
    <v>       0.00674420       0.01391738      10.22171562 </v>
   </varray>
   <i name="volume">    721.08782006 </i>
   <varray name="rec_basis" >
    <v>       0.14523056       0.00019714      -0.00009609 </v>
    <v>       0.00013451       0.09760643      -0.00013298 </v>
    <v>      -0.00006171      -0.00013669       0.09783116 </v>
   </varray>
  </crystal>
  <varray name="positions" >
   <v>       0.24524600       0.16224500       0.51476600 </v>
   <v>       0.02614000       0.32060400       0.33283900 </v>
   <v>       0.00103800       0.33751200       0.67531700 </v>
   <v>       0.25148100       0.48299100       0.83759400 </v>
   <v>       0.25109700       0.85555700       0.52044000 </v>
   <v>       0.74837600       0.85020000       0.51550700 </v>
   <v>       0.24715800       0.84361600       0.83265700 </v>
   <v>       0.24390100       0.81477600       0.14336900 </v>
   <v>       0.49160700       0.34387700       0.66505900 </v>
   <v>       0.50693400       0.32809900       0.99821200 </v>
   <v>       0.99280400       0.00359500       0.00963900 </v>
   <v>       0.00436700       0.99724000       0.32758600 </v>
   <v>       0.98570800       0.32386500       0.99733000 </v>
   <v>       0.00637400       0.66196400       0.66655700 </v>
   <v>       0.49909200       0.99510200       0.32572500 </v>
   <v>       0.75419300       0.50367700       0.17175400 </v>
   <v>       0.50364700       0.66533400       0.98269300 </v>
   <v>       0.75877100       0.84150400       0.82250300 </v>
   <v>       0.25118500       0.17403200       0.16285200 </v>
   <v>       0.00451500       0.00245900       0.66817100 </v>
   <v>       0.22564200       0.48791600       0.50058100 </v>
   <v>       0.00463300       0.66629400       0.98791600 </v>
   <v>       0.75075300       0.18391300       0.18404000 </v>
   <v>       0.49812400       0.00011100       0.66617500 </v>
   <v>       0.73488100       0.16990800       0.82154200 </v>
   <v>       0.76283700       0.81035900       0.15941300 </v>
   <v>       0.74564100       0.48825100       0.82617800 </v>
   <v>       0.26250100       0.16839200       0.82797800 </v>
   <v>       0.24730100       0.50612000       0.15819300 </v>
   <v>       0.01481400       0.68413800       0.34371500 </v>
   <v>       0.50902900       0.00336600       0.01294600 </v>
   <v>       0.75331700       0.16723400       0.50441300 </v>
   <v>       0.76549300       0.48709600       0.49379000 </v>
   <v>       0.48873300       0.67915400       0.34305000 </v>
   <v>       0.48890800       0.66025300       0.66208900 </v>
   <v>       0.47374900       0.32925000       0.33741200 </v>
  </varray>
 </structure>
 <calculation>
  <scstep>
   <time name="dav">    1.14    1.15</time>
   <time name="total">    1.21    1.56</time>
   <energy>
    <i name="alphaZ">   1623.85439446 </i>
    <i name="ewald"> -21031.60048373 </i>
    <i name="hartreedc">  -7550.74384867 </i>
    <i name="XCdc">   -123.67858199 </i>
    <i name="pawpsdc">  23251.63727768 </i>
    <i name="pawaedc"> -21698.96794248 </i>
    <i name="eentropy">     -0.00091469 </i>
    <i name="bandstr">   -164.15571381 </i>
    <i name="atom">  27738.18387242 </i>
    <i name="e_fr_energy">   2044.52805918 </i>
    <i name="e_wo_entrp">   2044.52897388 </i>
    <i name="e_0_energy">   2044.52836408 </i>
   </energy>
  </scstep>
  <scstep>
   <time name="dav">    1.12    1.13</time>
   <time name="total">    1.13    1.33</time>
   <energy>
    <i name="e_fr_energy">    -79.84660900 </i>
    <i name="e_wo_entrp">    -79.85014152 </i>
    <i name="e_0_energy">    -79.84778650 </i>
   </energy>
  </scstep>
  <scstep>
   <time name="dav">    1.46    1.60</time>
   <time name="total">    1.46    1.64</time>
   <energy>
    <i name="e_fr_energy">   -345.92051989 </i>
    <i name="e_wo_entrp">   -345.91475656 </i>
    <i name="e_0_energy">   -345.91859878 </i>
   </energy>
  </scstep>
  <scstep>
   <time name="dav">    1.41    1.42</time>
   <time name="total">    1.41    1.45</time>
   <energy>
    <i name="e_fr_energy">   -377.05860874 </i>
    <i name="e_wo_entrp">   -377.07428043 </i>
    <i name="e_0_energy">   -377.06383264 </i>
   </energy>
  </scstep>
  <scstep>
   <time name="dav">    1.49    1.50</time>
   <time name="total">    1.53    1.56</time>
   <energy>
    <i name="e_fr_energy">   -380.24236657 </i>
    <i name="e_wo_entrp">   -380.25846844 </i>
    <i name="e_0_energy">   -380.24773386 </i>
   </energy>
  </scstep>
  <scstep>
   <time name="diag">    0.08    0.08</time>
   <time name="diis">    0.84    0.85</time>
   <time name="orth">    0.01    0.01</time>
   <time name="total">    1.01    1.04</time>
   <energy>
    <i name="e_fr_energy">   -369.28561841 </i>
    <i name="e_wo_entrp">   -369.30017908 </i>
    <i name="e_0_energy">   -369.29047197 </i>
   </energy>
  </scstep>
  <scstep>
   <time name="diag">    0.08    0.08</time>
   <time name="diis">    0.74    0.75</time>
   <time name="orth">    0.01    0.01</time>
   <time name="total">    0.90    0.94</time>
   <energy>
    <i name="e_fr_energy">   -367.77375672 </i>
    <i name="e_wo_entrp">   -367.78589396 </i>
    <i name="e_0_energy">   -367.77780247 </i>
   </energy>
  </scstep>
  <scstep>
   <time name="diag">    0.08    0.08</time>
   <time name="diis">    0.82    0.83</time>
   <time name="orth">    0.01    0.01</time>
   <time name="total">    0.99    1.03</time>
   <energy>
    <i name="e_fr_energy">   -365.33639630 </i>
    <i name="e_wo_entrp">   -365.34953622 </i>
    <i name="e_0_energy">   -365.34077628 </i>
   </energy>
  </scstep>
  <scstep>
   <time name="diag">    0.13    0.14</time>
   <time name="diis">    0.81    0.82</time>
   <time name="orth">    0.01    0.01</time>
   <time name="total">    1.03    1.08</time>
   <energy>
    <i name="e_fr_energy">   -365.21213476 </i>
    <i name="e_wo_entrp">   -365.21918307 </i>
    <i name="e_0_energy">   -365.21448420 </i>
   </energy>
  </scstep>
  <scstep>
   <time name="diag">    0.08    0.08</time>
   <time name="diis">    0.82    0.85</time>
   <time name="orth">    0.01    0.01</time>
   <time name="total">    0.99    1.05</time>
   <energy>
    <i name="e_fr_energy">   -365.13843973 </i>
    <i name="e_wo_entrp">   -365.15207697 </i>
    <i name="e_0_energy">   -365.14298548 </i>
   </energy>
  </scstep>
  <scstep>
   <time name="diag">    0.12    0.13</time>
   <time name="diis">    0.87    0.89</time>
   <time name="orth">    0.01    0.01</time>
   <time name="total">    1.08    1.16</time>
   <energy>
    <i name="e_fr_energy">   -365.10938034 </i>
    <i name="e_wo_entrp">   -365.12062216 </i>
    <i name="e_0_energy">   -365.11312761 </i>
   </energy>
  </scstep>
  <scstep>
   <time name="diag">    0.08    0.08</time>
   <time name="diis">    0.81    0.82</time>
   <time name="orth">    0.01    0.01</time>
   <time name="total">    0.97    1.02</time>
   <energy>
    <i name="e_fr_energy">   -365.10973730 </i>
    <i name="e_wo_entrp">   -365.12069999 </i>
    <i name="e_0_energy">   -365.11339153 </i>
   </energy>
  </scstep>
  <scstep>
   <time name="diag">    0.08    0.08</time>
   <time name="diis">    0.82    0.83</time>
   <time name="orth">    0.01    0.01</time>
   <time name="total">    0.99    1.03</time>
   <energy>
    <i name="e_fr_energy">   -365.10837818 </i>
    <i name="e_wo_entrp">   -365.11933485 </i>
    <i name="e_0_energy">   -365.11203040 </i>
   </energy>
  </scstep>
  <scstep>
   <time name="diag">    0.08    0.08</time>
   <time name="diis">    0.92    0.92</time>
   <time name="orth">    0.01    0.01</time>
   <time name="total">    1.08    1.12</time>
   <energy>
    <i name="e_fr_energy">   -365.10872640 </i>
    <i name="e_wo_entrp">   -365.11999719 </i>
    <i name="e_0_energy">   -365.11248333 </i>
   </energy>
  </scstep>
  <scstep>
   <time name="diag">    0.08    0.08</time>
   <time name="diis">    0.80    0.81</time>
   <time name="orth">    0.01    0.01</time>
   <time name="total">    0.99    1.04</time>
   <energy>
    <i name="e_fr_energy">   -365.10874476 </i>
    <i name="e_wo_entrp">   -365.11977268 </i>
    <i name="e_0_energy">   -365.11242074 </i>
   </energy>
  </scstep>
  <scstep>
   <time name="diag">    0.11    0.11</time>
   <time name="diis">    0.74    0.75</time>
   <time name="orth">    0.01    0.01</time>
   <time name="total">    0.93    0.97</time>
   <energy>
    <i name="e_fr_energy">   -365.10881580 </i>
    <i name="e_wo_entrp">   -365.11991219 </i>
    <i name="e_0_energy">   -365.11251460 </i>
   </energy>
  </scstep>
  <scstep>
   <time name="diag">    0.08    0.08</time>
   <time name="diis">    0.64    0.64</time>
   <time name="orth">    0.01    0.01</time>
   <time name="total">    0.80    0.84</time>
   <energy>
    <i name="e_fr_energy">   -365.10885122 </i>
    <i name="e_wo_entrp">   -365.11994919 </i>
    <i name="e_0_energy">   -365.11255055 </i>
   </energy>
  </scstep>
  <scstep>
   <time name="diag">    0.08    0.08</time>
   <time name="diis">    0.61    0.61</time>
   <time name="orth">    0.01    0.01</time>
   <time name="total">    0.80    0.87</time>
   <energy>
    <i name="e_fr_energy">   -365.10886930 </i>
    <i name="e_wo_entrp">   -365.11996162 </i>
    <i name="e_0_energy">   -365.11256674 </i>
   </energy>
  </scstep>
  <scstep>
   <time name="diag">    0.10    0.10</time>
   <time name="diis">    0.51    0.52</time>
   <time name="orth">    0.01    0.01</time>
   <time name="total">    0.69    0.76</time>
   <energy>
    <i name="e_fr_energy">   -365.10887566 </i>
    <i name="e_wo_entrp">   -365.11998271 </i>
    <i name="e_0_energy">   -365.11257801 </i>
   </energy>
  </scstep>
  <scstep>
   <time name="diag">    0.08    0.08</time>
   <time name="diis">    0.51    0.51</time>
   <time name="orth">    0.01    0.01</time>
   <time name="total">    0.64    0.68</time>
   <energy>
    <i name="alphaZ">   1623.85439446 </i>
    <i name="ewald"> -21031.60048373 </i>
    <i name="hartreedc">  -7296.51066854 </i>
    <i name="XCdc">   -125.64394305 </i>
    <i name="pawpsdc">  35712.18447531 </i>
    <i name="pawaedc"> -34136.82748485 </i>
    <i name="eentropy">      0.01110926 </i>
    <i name="bandstr">  -2848.76014880 </i>
    <i name="atom">  27738.18387242 </i>
    <i name="e_fr_energy">   -365.10887753 </i>
    <i name="e_wo_entrp">   -365.11998679 </i>
    <i name="e_0_energy">   -365.11258061 </i>
   </energy>
  </scstep>
  <structure>
   <crystal>
    <varray name="basis" >
     <v>       6.88561870      -0.00948278       0.00432985 </v>
     <v>      -0.01389743      10.24526544       0.01430647 </v>
     <v>       0.00674420       0.01391738      10.22171562 </v>
    </varray>
    <i name="volume">    721.08782006 </i>
    <varray name="rec_basis" >
     <v>       0.14523056       0.00019714      -0.00009609 </v>
     <v>       0.00013451       0.09760643      -0.00013298 </v>
     <v>      -0.00006171      -0.00013669       0.09783116 </v>
    </varray>
   </crystal>
   <varray name="positions" >
    <v>       0.24524600       0.16224500       0.51476600 </v>
    <v>       0.02614000       0.32060400       0.33283900 </v>
    <v>       0.00103800       0.33751200       0.67531700 </v>
    <v>       0.25148100       0.48299100       0.83759400 </v>
    <v>       0.25109700       0.85555700       0.52044000 </v>
    <v>       0.74837600       0.85020000       0.51550700 </v>
    <v>       0.24715800       0.84361600       0.83265700 </v>
    <v>       0.24390100       0.81477600       0.14336900 </v>
    <v>       0.49160700       0.34387700       0.66505900 </v>
    <v>       0.50693400       0.32809900       0.99821200 </v>
    <v>       0.99280400       0.00359500       0.00963900 </v>
    <v>       0.00436700       0.99724000       0.32758600 </v>
    <v>       0.98570800       0.32386500       0.99733000 </v>
    <v>       0.00637400       0.66196400       0.66655700 </v>
    <v>       0.49909200       0.99510200       0.32572500 </v>
    <v>       0.75419300       0.50367700       0.17175400 </v>
    <v>       0.50364700       0.66533400       0.98269300 </v>
    <v>       0.75877100       0.84150400       0.82250300 </v>
    <v>       0.25118500       0.17403200       0.16285200 </v>
    <v>       0.00451500       0.00245900       0.66817100 </v>
    <v>       0.22564200       0.48791600       0.50058100 </v>
    <v>       0.00463300       0.66629400       0.98791600 </v>
    <v>       0.75075300       0.18391300       0.18404000 </v>
    <v>       0.49812400       0.00011100       0.66617500 </v>
    <v>       0.73488100       0.16990800       0.82154200 </v>
    <v>       0.76283700       0.81035900       0.15941300 </v>
    <v>       0.74564100       0.48825100       0.82617800 </v>
    <v>       0.26250100       0.16839200       0.82797800 </v>
    <v>       0.24730100       0.50612000       0.15819300 </v>
    <v>       0.01481400       0.68413800       0.34371500 </v>
    <v>       0.50902900       0.00336600       0.01294600 </v>
    <v>       0.75331700       0.16723400       0.50441300 </v>
    <v>       0.76549300       0.48709600       0.49379000 </v>
    <v>       0.48873300       0.67915400       0.34305000 </v>
    <v>       0.48890800       0.66025300       0.66208900 </v>
    <v>       0.47374900       0.32925000       0.33741200 </v>
   </varray>
  </structure>
  <varray name="forces" >
   <v>      -0.03769330      -0.02522042      -0.07591363 </v>
   <v>       0.03174340      -0.02290231       0.01598117 </v>
   <v>       0.24969157      -0.31124213       0.15823045 </v>
   <v>      -0.00480302       0.13567547       0.06002649 </v>
   <v>      -0.00045122      -0.00334724      -0.02874747 </v>
   <v>       0.01121389      -0.06479213      -0.04348973 </v>
   <v>       0.01516223      -0.03361994       0.00612664 </v>
   <v>       0.00251950       0.00326940       0.00236698 </v>
   <v>      -0.18804420      -0.38590788       0.27794714 </v>
   <v>      -0.36743901      -0.28659944      -0.27457100 </v>
   <v>       0.22211718       0.17015259      -0.19792070 </v>
   <v>      -0.00032345      -0.00103657      -0.01421708 </v>
   <v>       0.30149726      -0.16473826      -0.17385116 </v>
   <v>       0.00897700       0.00468083      -0.01179628 </v>
   <v>      -0.00441479       0.01515863      -0.00732469 </v>
   <v>      -0.00183453      -0.02283996      -0.00617280 </v>
   <v>      -0.04072289       0.02924802       0.00244033 </v>
   <v>      -0.03043750      -0.03179608       0.00815347 </v>
   <v>      -0.01559484       0.05246797       0.11972390 </v>
   <v>       0.29526922       0.34520709       0.24095715 </v>
   <v>      -0.00931488      -0.01830316       0.05566322 </v>
   <v>       0.06182883       0.01485344      -0.00493563 </v>
   <v>       0.00278437      -0.03044507       0.00317120 </v>
   <v>      -0.29405923       0.39025317       0.30956100 </v>
   <v>       0.06307904      -0.01372052      -0.03685415 </v>
   <v>      -0.01249062      -0.02632519       0.00870930 </v>
   <v>      -0.00814423      -0.01516527      -0.04547745 </v>
   <v>      -0.00779604       0.10284381      -0.12611487 </v>
   <v>       0.00362325      -0.05537260      -0.03917771 </v>
   <v>      -0.02444780       0.03206282       0.01166885 </v>
   <v>      -0.22272447       0.12728738      -0.23181436 </v>
   <v>       0.00749808       0.01754331       0.02789017 </v>
   <v>       0.00416013      -0.00184563      -0.01017344 </v>
   <v>       0.02169492       0.03554917       0.00978375 </v>
   <v>      -0.00307631       0.04099265       0.00347908 </v>
   <v>      -0.02904754      -0.00202592       0.00667186 </v>
  </varray>
  <varray name="stress" >
   <v>      -8.91730679       0.07997062      -0.33645214 </v>
   <v>       0.07997067      -7.08555817      -0.55185119 </v>
   <v>      -0.33645212      -0.55185117      -6.58293931 </v>
  </varray>
  <energy>
   <i name="e_fr_energy">   -365.10887753 </i>
   <i name="e_wo_entrp">   -365.11258061 </i>
   <i name="e_0_energy">      0.01110926 </i>
  </energy>
  <time name="totalsc">   22.51   24.14</time>
 </calculation>
 <calculation>
  <scstep>
   <time name="dav">    1.11    1.12</time>
   <time name="total">    1.21    1.38</time>
   <energy>
    <i name="alphaZ">   1630.50867636 </i>
    <i name="ewald"> -21056.84401858 </i>
    <i name="hartreedc">  -7309.89222813 </i>
    <i name="XCdc">   -124.34641920 </i>
    <i name="pawpsdc">  35712.13400886 </i>
    <i name="pawaedc"> -34136.77519006 </i>
    <i name="eentropy">      0.01073941 </i>
    <i name="bandstr">  -2818.15624592 </i>
    <i name="atom">  27738.18387242 </i>
    <i name="e_fr_energy">   -365.17680485 </i>
    <i name="e_wo_entrp">   -365.18754426 </i>
    <i name="e_0_energy">   -365.18038466 </i>
   </energy>
  </scstep>
  <scstep>
   <time name="diag">    0.08    0.09</time>
   <time name="diis">    0.87    0.89</time>
   <time name="orth">    0.01    0.01</time>
   <time name="total">    1.19    1.24</time>
   <energy>
    <i name="e_fr_energy">   -365.15856810 </i>
    <i name="e_wo_entrp">   -365.17090526 </i>
    <i name="e_0_energy">   -365.16268049 </i>
   </energy>
  </scstep>
  <scstep>
   <time name="diag">    0.08    0.08</time>
   <time name="diis">    0.81    0.82</time>
   <time name="orth">    0.01    0.01</time>
   <time name="total">    0.97    1.01</time>
   <energy>
    <i name="e_fr_energy">   -365.14878007 </i>
    <i name="e_wo_entrp">   -365.15912965 </i>
    <i name="e_0_energy">   -365.15222993 </i>
   </energy>
  </scstep>
  <scstep>
   <time name="diag">    0.08    0.08</time>
   <time name="diis">    0.88    0.89</time>
   <time name="orth">    0.01    0.01</time>
   <time name="total">    1.04    1.09</time>
   <energy>
    <i name="e_fr_energy">   -365.14322792 </i>
    <i name="e_wo_entrp">   -365.15462165 </i>
    <i name="e_0_energy">   -365.14702583 </i>
   </energy>
  </scstep>
  <scstep>
   <time name="diag">    0.08    0.08</time>
   <time name="diis">    0.81    0.82</time>
   <time name="orth">    0.01    0.01</time>
   <time name="total">    0.98    1.03</time>
   <energy>
    <i name="e_fr_energy">   -365.14240277 </i>
    <i name="e_wo_entrp">   -365.15351247 </i>
    <i name="e_0_energy">   -365.14610601 </i>
   </energy>
  </scstep>
  <scstep>
   <time name="diag">    0.08    0.08</time>
   <time name="diis">    0.88    0.92</time>
   <time name="orth">    0.01    0.01</time>
   <time name="total">    1.04    1.14</time>
   <energy>
    <i name="e_fr_energy">   -365.14259049 </i>
    <i name="e_wo_entrp">   -365.15383425 </i>
    <i name="e_0_energy">   -365.14633841 </i>
   </energy>
  </scstep>
  <scstep>
   <time name="diag">    0.11    0.11</time>
   <time name="diis">    0.87    0.88</time>
   <time name="orth">    0.01    0.01</time>
   <time name="total">    1.07    1.11</time>
   <energy>
    <i name="e_fr_energy">   -365.14266342 </i>
    <i name="e_wo_entrp">   -365.15380665 </i>
    <i name="e_0_energy">   -365.14637783 </i>
   </energy>
  </scstep>
  <scstep>
   <time name="diag">    0.08    0.08</time>
   <time name="diis">    0.72    0.72</time>
   <time name="orth">    0.01    0.01</time>
   <time name="total">    0.88    0.92</time>
   <energy>
    <i name="e_fr_energy">   -365.14273859 </i>
    <i name="e_wo_entrp">   -365.15388108 </i>
    <i name="e_0_energy">   -365.14645275 </i>
   </energy>
  </scstep>
  <scstep>
   <time name="diag">    0.08    0.08</time>
   <time name="diis">    0.67    0.68</time>
   <time name="orth">    0.01    0.01</time>
   <time name="total">    0.84    0.87</time>
   <energy>
    <i name="e_fr_energy">   -365.14279592 </i>
    <i name="e_wo_entrp">   -365.15395796 </i>
    <i name="e_0_energy">   -365.14651660 </i>
   </energy>
  </scstep>
  <scstep>
   <time name="diag">    0.08    0.08</time>
   <time name="diis">    0.58    0.60</time>
   <time name="orth">    0.01    0.01</time>
   <time name="total">    0.73    0.79</time>
   <energy>
    <i name="e_fr_energy">   -365.14285239 </i>
    <i name="e_wo_entrp">   -365.15400105 </i>
    <i name="e_0_energy">   -365.14656861 </i>
   </energy>
  </scstep>
  <scstep>
   <time name="diag">    0.08    0.08</time>
   <time name="diis">    0.49    0.49</time>
   <time name="orth">    0.01    0.01</time>
   <time name="total">    0.65    0.70</time>
   <energy>
    <i name="e_fr_energy">   -365.14287856 </i>
    <i name="e_wo_entrp">   -365.15403301 </i>
    <i name="e_0_energy">   -365.14659671 </i>
   </energy>
  </scstep>
  <scstep>
   <time name="diag">    0.08    0.08</time>
   <time name="diis">    0.43    0.44</time>
   <time name="orth">    0.01    0.01</time>
   <time name="total">    0.56    0.60</time>
   <energy>
    <i name="alphaZ">   1630.50867636 </i>
    <i name="ewald"> -21056.84401858 </i>
    <i name="hartreedc">  -7291.86976364 </i>
    <i name="XCdc">   -125.13620103 </i>
    <i name="pawpsdc">  35892.09114319 </i>
    <i name="pawaedc"> -34316.43677448 </i>
    <i name="eentropy">      0.01114255 </i>
    <i name="bandstr">  -2835.65096050 </i>
    <i name="atom">  27738.18387242 </i>
    <i name="e_fr_energy">   -365.14288372 </i>
    <i name="e_wo_entrp">   -365.15402627 </i>
    <i name="e_0_energy">   -365.14659791 </i>
   </energy>
  </scstep>
  <structure>
   <crystal>
    <varray name="basis" >
     <v>       6.87450855      -0.00937142       0.00390647 </v>
     <v>      -0.01372763      10.23212896       0.01326729 </v>
     <v>       0.00611125       0.01287900      10.20953876 </v>
    </varray>
    <i name="volume">    718.14498283 </i>
    <varray name="rec_basis" >
     <v>       0.14546526       0.00019527      -0.00008732 </v>
     <v>       0.00013330       0.09773171      -0.00012337 </v>
     <v>      -0.00005583      -0.00012708       0.09794781 </v>
    </varray>
   </crystal>
   <varray name="positions" >
    <v>       0.24516681       0.16220945       0.51465860 </v>
    <v>       0.02620663       0.32057168       0.33286164 </v>
    <v>       0.00156172       0.33707251       0.67554143 </v>
    <v>       0.25147121       0.48318254       0.83767873 </v>
    <v>       0.25109608       0.85555233       0.52039930 </v>
    <v>       0.74839945       0.85010858       0.51544554 </v>
    <v>       0.24718976       0.84356852       0.83266573 </v>
    <v>       0.24390630       0.81478062       0.14337234 </v>
    <v>       0.49121026       0.34333095       0.66545347 </v>
    <v>       0.50616125       0.32769395       0.99782413 </v>
    <v>       0.99327163       0.00383618       0.00935823 </v>
    <v>       0.00436634       0.99723856       0.32756587 </v>
    <v>       0.98634149       0.32363321       0.99708390 </v>
    <v>       0.00639290       0.66197065       0.66654028 </v>
    <v>       0.49908277       0.99512342       0.32571460 </v>
    <v>       0.75418909       0.50364474       0.17174531 </v>
    <v>       0.50356148       0.66537523       0.98269643 </v>
    <v>       0.75870692       0.84145901       0.82251463 </v>
    <v>       0.25115220       0.17410586       0.16302143 </v>
    <v>       0.00513627       0.00294676       0.66851122 </v>
    <v>       0.22562229       0.48789002       0.50065986 </v>
    <v>       0.00476301       0.66631511       0.98790893 </v>
    <v>       0.75075876       0.18386999       0.18404455 </v>
    <v>       0.49750660       0.00066112       0.66661280 </v>
    <v>       0.73501360       0.16988881       0.82148979 </v>
    <v>       0.76281066       0.81032177       0.15942539 </v>
    <v>       0.74562390       0.48822965       0.82611365 </v>
    <v>       0.26248508       0.16853751       0.82779924 </v>
    <v>       0.24730851       0.50604186       0.15813763 </v>
    <v>       0.01476269       0.68418322       0.34373148 </v>
    <v>       0.50856154       0.00354582       0.01261772 </v>
    <v>       0.75333277       0.16725874       0.50445245 </v>
    <v>       0.76550175       0.48709342       0.49377560 </v>
    <v>       0.48877869       0.67920424       0.34306376 </v>
    <v>       0.48890165       0.66031090       0.66209385 </v>
    <v>       0.47368793       0.32924707       0.33742148 </v>
   </varray>
  </structure>
  <varray name="forces" >
   <v>      -0.02509022      -0.01778090      -0.08614443 </v>
   <v>       0.00539654      -0.00164605       0.01416528 </v>
   <v>       0.21266274      -0.27701176       0.12853686 </v>
   <v>      -0.00739184       0.14847379       0.05953788 </v>
   <v>      -0.00127873      -0.00634396      -0.02832348 </v>
   <v>       0.00917016      -0.04955424      -0.03155250 </v>
   <v>       0.02301476      -0.03585920       0.00819119 </v>
   <v>       0.00957210       0.02190541       0.01150814 </v>
   <v>      -0.15384354      -0.35227444       0.24060218 </v>
   <v>      -0.32651459      -0.25196744      -0.23946065 </v>
   <v>       0.19618429       0.15327897      -0.17892018 </v>
   <v>      -0.01085966      -0.01072852      -0.02044735 </v>
   <v>       0.27446045      -0.14325604      -0.14656363 </v>
   <v>      -0.00380469       0.00395764      -0.01566350 </v>
   <v>       0.00142066       0.00700726      -0.01360721 </v>
   <v>      -0.00491793      -0.03519716      -0.02065051 </v>
   <v>      -0.02360563       0.02693604       0.00557666 </v>
   <v>      -0.03169522      -0.02326762       0.00504684 </v>
   <v>      -0.01118834       0.03202969       0.11397978 </v>
   <v>       0.24326294       0.31100574       0.22436096 </v>
   <v>      -0.00632373      -0.00888690       0.05523147 </v>
   <v>       0.03806334       0.00348908      -0.00467405 </v>
   <v>      -0.00034202      -0.03706992      -0.00740654 </v>
   <v>      -0.24038157       0.35233515       0.28386064 </v>
   <v>       0.07587691      -0.02235825      -0.02855612 </v>
   <v>      -0.01750499      -0.00482874      -0.00098397 </v>
   <v>      -0.00435468      -0.01131923      -0.03538175 </v>
   <v>      -0.02633687       0.07556312      -0.10379048 </v>
   <v>       0.00561279      -0.05788103      -0.03754721 </v>
   <v>      -0.02990527       0.02112448       0.01366998 </v>
   <v>      -0.19896428       0.11532370      -0.21327805 </v>
   <v>       0.00419175       0.00874676       0.02522230 </v>
   <v>      -0.00202598      -0.00353676       0.00301545 </v>
   <v>       0.02872082       0.02153517       0.01512746 </v>
   <v>       0.00641071       0.03582780      -0.00485384 </v>
   <v>      -0.00769120       0.01222837       0.01017239 </v>
  </varray>
  <varray name="stress" >
   <v>      -3.08558903       0.07606330      -0.22231466 </v>
   <v>       0.07606336      -1.34979964      -0.44621720 </v>
   <v>      -0.22231471      -0.44621718      -1.07991933 </v>
  </varray>
  <energy>
   <i name="e_fr_energy">   -365.14288372 </i>
   <i name="e_wo_entrp">   -365.14659791 </i>
   <i name="e_0_energy">      0.01114255 </i>
  </energy>
  <time name="totalsc">   12.88   13.69</time>
 </calculation>
 <calculation>
  <scstep>
   <time name="dav">    1.16    1.17</time>
   <time name="total">    1.24    1.39</time>
   <energy>
    <i name="alphaZ">   1643.96116393 </i>
    <i name="ewald"> -21107.16167795 </i>
    <i name="hartreedc">  -7319.22953521 </i>
    <i name="XCdc">   -122.52286665 </i>
    <i name="pawpsdc">  35892.21177042 </i>
    <i name="pawaedc"> -34316.53899167 </i>
    <i name="eentropy">      0.01036199 </i>
    <i name="bandstr">  -2774.22069682 </i>
    <i name="atom">  27738.18387242 </i>
    <i name="e_fr_energy">   -365.30659956 </i>
    <i name="e_wo_entrp">   -365.31696154 </i>
    <i name="e_0_energy">   -365.31005355 </i>
   </energy>
  </scstep>
  <scstep>
   <time name="diag">    0.08    0.08</time>
   <time name="diis">    0.78    0.79</time>
   <time name="orth">    0.01    0.01</time>
   <time name="total">    0.94    1.03</time>
   <energy>
    <i name="e_fr_energy">   -365.23214268 </i>
    <i name="e_wo_entrp">   -365.24558239 </i>
    <i name="e_0_energy">   -365.23662259 </i>
   </energy>
  </scstep>
  <scstep>
   <time name="diag">    0.08    0.08</time>
   <time name="diis">    0.89    0.90</time>
   <time name="orth">    0.01    0.01</time>
   <time name="total">    1.05    1.09</time>
   <energy>
    <i name="e_fr_energy">   -365.19337535 </i>
    <i name="e_wo_entrp">   -365.20295901 </i>
    <i name="e_0_energy">   -365.19656991 </i>
   </energy>
  </scstep>
  <scstep>
   <time name="diag">    0.08    0.08</time>
   <time name="diis">    0.86    0.88</time>
   <time name="orth">    0.01    0.01</time>
   <time name="total">    1.02    1.08</time>
   <energy>
    <i name="e_fr_energy">   -365.17074918 </i>
    <i name="e_wo_entrp">   -365.18241071 </i>
    <i name="e_0_energy">   -365.17463635 </i>
   </energy>
  </scstep>
  <scstep>
   <time name="diag">    0.08    0.09</time>
   <time name="diis">    0.77    0.86</time>
   <time name="orth">    0.01    0.01</time>
   <time name="total">    0.93    1.07</time>
   <energy>
    <i name="e_fr_energy">   -365.16754279 </i>
    <i name="e_wo_entrp">   -365.17865917 </i>
    <i name="e_0_energy">   -365.17124825 </i>
   </energy>
  </scstep>
  <scstep>
   <time name="diag">    0.08    0.08</time>
   <time name="diis">    0.86    0.87</time>
   <time name="orth">    0.01    0.01</time>
   <time name="total">    1.03    1.07</time>
   <energy>
    <i name="e_fr_energy">   -365.16820792 </i>
    <i name="e_wo_entrp">   -365.17961869 </i>
    <i name="e_0_energy">   -365.17201151 </i>
   </energy>
  </scstep>
  <scstep>
   <time name="diag">    0.08    0.08</time>
   <time name="diis">    0.90    0.91</time>
   <time name="orth">    0.01    0.01</time>
   <time name="total">    1.07    1.11</time>
   <energy>
    <i name="e_fr_energy">   -365.16845420 </i>
    <i name="e_wo_entrp">   -365.17960638 </i>
    <i name="e_0_energy">   -365.17217160 </i>
   </energy>
  </scstep>
  <scstep>
   <time name="diag">    0.08    0.08</time>
   <time name="diis">    0.95    0.96</time>
   <time name="orth">    0.01    0.01</time>
   <time name="total">    1.12    1.16</time>
   <energy>
    <i name="e_fr_energy">   -365.16872611 </i>
    <i name="e_wo_entrp">   -365.17990339 </i>
    <i name="e_0_energy">   -365.17245187 </i>
   </energy>
  </scstep>
  <scstep>
   <time name="diag">    0.08    0.08</time>
   <time name="diis">    0.79    0.79</time>
   <time name="orth">    0.01    0.01</time>
   <time name="total">    0.95    1.00</time>
   <energy>
    <i name="e_fr_energy">   -365.16891624 </i>
    <i name="e_wo_entrp">   -365.18012912 </i>
    <i name="e_0_energy">   -365.17265387 </i>
   </energy>
  </scstep>
  <scstep>
   <time name="diag">    0.09    0.09</time>
   <time name="diis">    0.81    0.81</time>
   <time name="orth">    0.01    0.01</time>
   <time name="total">    0.98    1.04</time>
   <energy>
    <i name="e_fr_energy">   -365.16912015 </i>
    <i name="e_wo_entrp">   -365.18030393 </i>
    <i name="e_0_energy">   -365.17284807 </i>
   </energy>
  </scstep>
  <scstep>
   <time name="diag">    0.08    0.08</time>
   <time name="diis">    0.67    0.67</time>
   <time name="orth">    0.01    0.01</time>
   <time name="total">    0.83    0.87</time>
   <energy>
    <i name="e_fr_energy">   -365.16919108 </i>
    <i name="e_wo_entrp">   -365.18038684 </i>
    <i name="e_0_energy">   -365.17292300 </i>
   </energy>
  </scstep>
  <scstep>
   <time name="diag">    0.08    0.08</time>
   <time name="diis">    0.60    0.61</time>
   <time name="orth">    0.01    0.01</time>
   <time name="total">    0.76    0.80</time>
   <energy>
    <i name="e_fr_energy">   -365.16920285 </i>
    <i name="e_wo_entrp">   -365.18037723 </i>
    <i name="e_0_energy">   -365.17292764 </i>
   </energy>
  </scstep>
  <scstep>
   <time name="diag">    0.14    0.14</time>
   <time name="diis">    0.47    0.48</time>
   <time name="orth">    0.01    0.01</time>
   <time name="total">    0.66    0.70</time>
   <energy>
    <i name="alphaZ">   1643.96116393 </i>
    <i name="ewald"> -21107.16167795 </i>
    <i name="hartreedc">  -7283.29623673 </i>
    <i name="XCdc">   -124.09859232 </i>
    <i name="pawpsdc">  36265.00763946 </i>
    <i name="pawaedc"> -34688.57023254 </i>
    <i name="eentropy">      0.01118169 </i>
    <i name="bandstr">  -2809.20632609 </i>
    <i name="atom">  27738.18387242 </i>
    <i name="e_fr_energy">   -365.16920812 </i>
    <i name="e_wo_entrp">   -365.18038981 </i>
    <i name="e_0_energy">   -365.17293535 </i>
   </energy>
  </scstep>
  <structure>
   <crystal>
    <varray name="basis" >
     <v>       6.85223255      -0.00914815       0.00305758 </v>
     <v>      -0.01338719      10.20579017       0.01118370 </v>
     <v>       0.00484219       0.01079702      10.18512399 </v>
    </varray>
    <i name="volume">    712.26842281 </i>
    <varray name="rec_basis" >
     <v>       0.14593812       0.00019151      -0.00006958 </v>
     <v>       0.00013086       0.09798388      -0.00010393 </v>
     <v>      -0.00004395      -0.00010765       0.09818254 </v>
    </varray>
   </crystal>
   <varray name="positions" >
    <v>       0.24500775       0.16213805       0.51444299 </v>
    <v>       0.02634046       0.32050679       0.33290710 </v>
    <v>       0.00261353       0.33619023       0.67599191 </v>
    <v>       0.25145155       0.48356708       0.83784885 </v>
    <v>       0.25109423       0.85554293       0.52031761 </v>
    <v>       0.74844652       0.84992503       0.51532215 </v>
    <v>       0.24725356       0.84347322       0.83268324 </v>
    <v>       0.24391695       0.81478989       0.14337905 </v>
    <v>       0.49041361       0.34223480       0.66624520 </v>
    <v>       0.50460931       0.32688072       0.99704538 </v>
    <v>       0.99421068       0.00432030       0.00879470 </v>
    <v>       0.00436500       0.99723567       0.32752547 </v>
    <v>       0.98761365       0.32316780       0.99658989 </v>
    <v>       0.00643085       0.66198400       0.66650672 </v>
    <v>       0.49906424       0.99516642       0.32569374 </v>
    <v>       0.75418123       0.50357998       0.17172785 </v>
    <v>       0.50338975       0.66545801       0.98270333 </v>
    <v>       0.75857824       0.84136869       0.82253798 </v>
    <v>       0.25108637       0.17425417       0.16336154 </v>
    <v>       0.00638399       0.00392605       0.66919433 </v>
    <v>       0.22558273       0.48783788       0.50081815 </v>
    <v>       0.00502409       0.66635749       0.98789474 </v>
    <v>       0.75077033       0.18378365       0.18405367 </v>
    <v>       0.49626677       0.00176563       0.66749169 </v>
    <v>       0.73527988       0.16985028       0.82138499 </v>
    <v>       0.76275776       0.81024703       0.15945027 </v>
    <v>       0.74558955       0.48818677       0.82598446 </v>
    <v>       0.26245308       0.16882959       0.82744042 </v>
    <v>       0.24732359       0.50588498       0.15802648 </v>
    <v>       0.01465964       0.68427402       0.34376457 </v>
    <v>       0.50762270       0.00390678       0.01195874 </v>
    <v>       0.75336445       0.16730843       0.50453164 </v>
    <v>       0.76551933       0.48708824       0.49374668 </v>
    <v>       0.48887044       0.67930511       0.34309140 </v>
    <v>       0.48888888       0.66042713       0.66210359 </v>
    <v>       0.47356529       0.32924119       0.33744049 </v>
   </varray>
  </structure>
  <varray name="forces" >
   <v>       0.00082931      -0.00161330      -0.11054842 </v>
   <v>      -0.04869664       0.04204505       0.01073489 </v>
   <v>       0.13506731      -0.20415576       0.06646017 </v>
   <v>      -0.01358226       0.17617927       0.05764321 </v>
   <v>      -0.00291150      -0.01429016      -0.02888230 </v>
   <v>       0.00496312      -0.02108249      -0.00980269 </v>
   <v>       0.03847347      -0.04274355       0.01163680 </v>
   <v>       0.02408457       0.06019254       0.03103388 </v>
   <v>      -0.08205588      -0.28038666       0.16245434 </v>
   <v>      -0.24010662      -0.17910990      -0.16542259 </v>
   <v>       0.14337936       0.11735257      -0.13958054 </v>
   <v>      -0.03234997      -0.03032582      -0.03233797 </v>
   <v>       0.21578084      -0.09758841      -0.08888685 </v>
   <v>      -0.03032352       0.00285317      -0.02351658 </v>
   <v>       0.01355258      -0.00913097      -0.02613197 </v>
   <v>      -0.01091735      -0.06040518      -0.05103829 </v>
   <v>       0.01242263       0.02145434       0.01189260 </v>
   <v>      -0.03413313      -0.00570084      -0.00171962 </v>
   <v>      -0.00296341      -0.00770636       0.10324307 </v>
   <v>       0.13523006       0.23812515       0.18933007 </v>
   <v>      -0.00000508       0.00982611       0.05406522 </v>
   <v>      -0.01145207      -0.01872360      -0.00358035 </v>
   <v>      -0.00636009      -0.05029216      -0.03003087 </v>
   <v>      -0.12843122       0.27164814       0.23049544 </v>
   <v>       0.10288785      -0.03886433      -0.00907996 </v>
   <v>      -0.02808834       0.03884436      -0.02052194 </v>
   <v>       0.00381532      -0.00416101      -0.01513415 </v>
   <v>      -0.06561537       0.01815678      -0.05311985 </v>
   <v>       0.00936949      -0.06240801      -0.03242110 </v>
   <v>      -0.04095723      -0.00095657       0.01744456 </v>
   <v>      -0.15008336       0.08983726      -0.17422086 </v>
   <v>      -0.00217713      -0.01009855       0.01850609 </v>
   <v>      -0.01368900      -0.00592448       0.02985467 </v>
   <v>       0.04208712      -0.00743397       0.02590107 </v>
   <v>       0.02625967       0.02597963      -0.02174519 </v>
   <v>       0.03669646       0.04060769       0.01702599 </v>
  </varray>
  <varray name="stress" >
   <v>       9.03080485       0.06845416       0.01175058 </v>
   <v>       0.06845410      10.63148941      -0.19492292 </v>
   <v>       0.01175056      -0.19492290      10.29523603 </v>
  </varray>
  <energy>
   <i name="e_fr_energy">   -365.16920812 </i>
   <i name="e_wo_entrp">   -365.17293535 </i>
   <i name="e_0_energy">      0.01118169 </i>
  </energy>
  <time name="totalsc">   14.35   15.28</time>
 </calculation>
 <calculation>
  <scstep>
   <time name="dav">    1.08    1.10</time>
   <time name="total">    1.16    1.33</time>
   <energy>
    <i name="alphaZ">   1641.71596113 </i>
    <i name="ewald"> -21091.28576000 </i>
    <i name="hartreedc">  -7286.19587691 </i>
    <i name="XCdc">   -124.52349364 </i>
    <i name="pawpsdc">  36265.62720449 </i>
    <i name="pawaedc"> -34689.15054782 </i>
    <i name="eentropy">      0.01168212 </i>
    <i name="bandstr">  -2819.57704863 </i>
    <i name="atom">  27738.18387242 </i>
    <i name="e_fr_energy">   -365.19400683 </i>
    <i name="e_wo_entrp">   -365.20568894 </i>
    <i name="e_0_energy">   -365.19790086 </i>
   </energy>
  </scstep>
  <scstep>
   <time name="diag">    0.09    0.09</time>
   <time name="diis">    0.77    0.77</time>
   <time name="orth">    0.01    0.01</time>
   <time name="total">    0.93    0.96</time>
   <energy>
    <i name="e_fr_energy">   -365.20298342 </i>
    <i name="e_wo_entrp">   -365.21392570 </i>
    <i name="e_0_energy">   -365.20663085 </i>
   </energy>
  </scstep>
  <scstep>
   <time name="diag">    0.08    0.08</time>
   <time name="diis">    0.82    0.83</time>
   <time name="orth">    0.01    0.01</time>
   <time name="total">    1.01    1.04</time>
   <energy>
    <i name="e_fr_energy">   -365.19668669 </i>
    <i name="e_wo_entrp">   -365.20829164 </i>
    <i name="e_0_energy">   -365.20055501 </i>
   </energy>
  </scstep>
  <scstep>
   <time name="diag">    0.13    0.13</time>
   <time name="diis">    0.81    0.82</time>
   <time name="orth">    0.01    0.01</time>
   <time name="total">    1.04    1.08</time>
   <energy>
    <i name="e_fr_energy">   -365.19596707 </i>
    <i name="e_wo_entrp">   -365.20743752 </i>
    <i name="e_0_energy">   -365.19979056 </i>
   </energy>
  </scstep>
  <scstep>
   <time name="diag">    0.15    0.15</time>
   <time name="diis">    0.88    0.89</time>
   <time name="orth">    0.01    0.01</time>
   <time name="total">    1.11    1.16</time>
   <energy>
    <i name="e_fr_energy">   -365.19579240 </i>
    <i name="e_wo_entrp">   -365.20720256 </i>
    <i name="e_0_energy">   -365.19959579 </i>
   </energy>
  </scstep>
  <scstep>
   <time name="diag">    0.08    0.08</time>
   <time name="diis">    0.90    0.97</time>
   <time name="orth">    0.01    0.01</time>
   <time name="total">    1.06    1.18</time>
   <energy>
    <i name="e_fr_energy">   -365.19576576 </i>
    <i name="e_wo_entrp">   -365.20721003 </i>
    <i name="e_0_energy">   -365.19958052 </i>
   </energy>
  </scstep>
  <scstep>
   <time name="diag">    0.08    0.09</time>
   <time name="diis">    0.84    0.84</time>
   <time name="orth">    0.01    0.01</time>
   <time name="total">    1.00    1.04</time>
   <energy>
    <i name="e_fr_energy">   -365.19573648 </i>
    <i name="e_wo_entrp">   -365.20717265 </i>
    <i name="e_0_energy">   -365.19954853 </i>
   </energy>
  </scstep>
  <scstep>
   <time name="diag">    0.08    0.08</time>
   <time name="diis">    0.63    0.63</time>
   <time name="orth">    0.01    0.01</time>
   <time name="total">    0.79    0.82</time>
   <energy>
    <i name="e_fr_energy">   -365.19573201 </i>
    <i name="e_wo_entrp">   -365.20717218 </i>
    <i name="e_0_energy">   -365.19954540 </i>
   </energy>
  </scstep>
  <scstep>
   <time name="diag">    0.08    0.08</time>
   <time name="diis">    0.49    0.49</time>
   <time name="orth">    0.01    0.01</time>
   <time name="total">    0.62    0.65</time>
   <energy>
    <i name="alphaZ">   1641.71596113 </i>
    <i name="ewald"> -21091.28576000 </i>
    <i name="hartreedc">  -7292.64515473 </i>
    <i name="XCdc">   -124.24561979 </i>
    <i name="pawpsdc">  36201.22786650 </i>
    <i name="pawaedc"> -34624.63347707 </i>
    <i name="eentropy">      0.01143291 </i>
    <i name="bandstr">  -2813.52485221 </i>
    <i name="atom">  27738.18387242 </i>
    <i name="e_fr_energy">   -365.19573083 </i>
    <i name="e_wo_entrp">   -365.20716374 </i>
    <i name="e_0_energy">   -365.19954180 </i>
   </energy>
  </scstep>
  <structure>
   <crystal>
    <varray name="basis" >
     <v>       6.85307404      -0.00900899       0.00275623 </v>
     <v>      -0.01317325      10.21204175       0.01012230 </v>
     <v>       0.00439080       0.00973684      10.19155476 </v>
    </varray>
    <i name="volume">    713.24251765 </i>
    <varray name="rec_basis" >
     <v>       0.14592019       0.00018830      -0.00006305 </v>
     <v>       0.00012877       0.09792387      -0.00009361 </v>
     <v>      -0.00003959      -0.00009731       0.09812057 </v>
    </varray>
   </crystal>
   <varray name="positions" >
    <v>       0.24494895       0.16210920       0.51423025 </v>
    <v>       0.02630554       0.32053183       0.33293702 </v>
    <v>       0.00324996       0.33561448       0.67624156 </v>
    <v>       0.25142053       0.48392113       0.83798144 </v>
    <v>       0.25108839       0.85552250       0.52025244 </v>
    <v>       0.74847308       0.84983052       0.51526378 </v>
    <v>       0.24734542       0.84338658       0.83270370 </v>
    <v>       0.24396353       0.81486459       0.14341828 </v>
    <v>       0.48996617       0.34148740       0.66673809 </v>
    <v>       0.50359736       0.32636039       0.99655444 </v>
    <v>       0.99481979       0.00464296       0.00841554 </v>
    <v>       0.00430747       0.99719870       0.32747189 </v>
    <v>       0.98847614       0.32287636       0.99629734 </v>
    <v>       0.00639185       0.66199242       0.66646615 </v>
    <v>       0.49908108       0.99517197       0.32565487 </v>
    <v>       0.75415892       0.50348404       0.17166083 </v>
    <v>       0.50334652       0.66551477       0.98272000 </v>
    <v>       0.75846929       0.84132766       0.82254480 </v>
    <v>       0.25105609       0.17430117       0.16361282 </v>
    <v>       0.00709591       0.00457891       0.66967734 </v>
    <v>       0.22556770       0.48782967       0.50094220 </v>
    <v>       0.00510292       0.66635140       0.98788517 </v>
    <v>       0.75076343       0.18369147       0.18402160 </v>
    <v>       0.49557071       0.00250517       0.66809770 </v>
    <v>       0.73556203       0.16978987       0.82133451 </v>
    <v>       0.76268833       0.81026462       0.15943533 </v>
    <v>       0.74558324       0.48816561       0.82591756 </v>
    <v>       0.26232541       0.16896173       0.82724151 </v>
    <v>       0.24734569       0.50575175       0.15794600 </v>
    <v>       0.01454839       0.68430722       0.34379781 </v>
    <v>       0.50700251       0.00414979       0.01150248 </v>
    <v>       0.75337260       0.16731529       0.50458361 </v>
    <v>       0.76550184       0.48707921       0.49377111 </v>
    <v>       0.48897934       0.67933459       0.34313257 </v>
    <v>       0.48893037       0.66050198       0.66208147 </v>
    <v>       0.47358349       0.32928702       0.33746780 </v>
   </varray>
  </structure>
  <varray name="forces" >
   <v>       0.00721121       0.00325759      -0.10548521 </v>
   <v>      -0.05330092       0.04744432       0.00876432 </v>
   <v>       0.09949035      -0.14184276       0.03938636 </v>
   <v>      -0.01162291       0.16302897       0.04737225 </v>
   <v>      -0.00025023       0.01220242      -0.00069734 </v>
   <v>      -0.00173318       0.01193090       0.02255158 </v>
   <v>       0.03799834      -0.04328415       0.00458178 </v>
   <v>       0.01591141       0.05820796       0.02420543 </v>
   <v>      -0.05221376      -0.22259199       0.12543838 </v>
   <v>      -0.18011337      -0.14016961      -0.13208673 </v>
   <v>       0.11575691       0.08969740      -0.10711190 </v>
   <v>      -0.04018299      -0.03905138      -0.03147373 </v>
   <v>       0.17282234      -0.07266863      -0.06030302 </v>
   <v>      -0.03373917       0.00394536      -0.02977953 </v>
   <v>       0.01830529      -0.01896655      -0.02810410 </v>
   <v>      -0.01154473      -0.07243794      -0.06714945 </v>
   <v>       0.02132510       0.02062062       0.01357171 </v>
   <v>      -0.03203379       0.01067622      -0.01646236 </v>
   <v>       0.00042652      -0.00797640       0.10077091 </v>
   <v>       0.09003613       0.17681732       0.14728171 </v>
   <v>      -0.01191681      -0.00285385       0.05240244 </v>
   <v>      -0.02311607      -0.01694480       0.00498997 </v>
   <v>      -0.00653901      -0.04022657      -0.03615608 </v>
   <v>      -0.07992671       0.20826884       0.18113462 </v>
   <v>       0.10492539      -0.03406352      -0.00672382 </v>
   <v>      -0.02020551       0.04589389      -0.03716025 </v>
   <v>       0.00296185      -0.02251049      -0.01378376 </v>
   <v>      -0.07556171      -0.00190054      -0.03507542 </v>
   <v>       0.00721497      -0.05853417      -0.03518392 </v>
   <v>      -0.03928782      -0.00271427       0.01929062 </v>
   <v>      -0.12246006       0.07491752      -0.14491833 </v>
   <v>      -0.00106988      -0.01755788       0.01800285 </v>
   <v>      -0.00495258      -0.02228296       0.05116601 </v>
   <v>       0.04258951      -0.01274433       0.02888863 </v>
   <v>       0.02789358       0.01986089      -0.02519330 </v>
   <v>       0.03690231       0.04455257       0.02304868 </v>
  </varray>
  <varray name="stress" >
   <v>       7.41475350       0.06620500       0.09707480 </v>
   <v>       0.06620503       8.80959139      -0.15852934 </v>
   <v>       0.09707482      -0.15852928       8.28043712 </v>
  </varray>
  <energy>
   <i name="e_fr_energy">   -365.19573083 </i>
   <i name="e_wo_entrp">   -365.19954180 </i>
   <i name="e_0_energy">      0.01143291 </i>
  </energy>
  <time name="totalsc">   10.33   10.99</time>
 </calculation>
 <calculation>
  <scstep>
   <time name="dav">    0.96    0.97</time>
   <time name="total">    1.06    1.20</time>
   <energy>
    <i name="alphaZ">   1635.00672255 </i>
    <i name="ewald"> -21042.17138349 </i>
    <i name="hartreedc">  -7302.59745336 </i>
    <i name="XCdc">   -125.51531325 </i>
    <i name="pawpsdc">  36201.14191103 </i>
    <i name="pawaedc"> -34624.59059160 </i>
    <i name="eentropy">      0.01278662 </i>
    <i name="bandstr">  -2844.68793968 </i>
    <i name="atom">  27738.18387242 </i>
    <i name="e_fr_energy">   -365.21738875 </i>
    <i name="e_wo_entrp">   -365.23017537 </i>
    <i name="e_0_energy">   -365.22165096 </i>
   </energy>
  </scstep>
  <scstep>
   <time name="diag">    0.08    0.08</time>
   <time name="diis">    0.76    0.76</time>
   <time name="orth">    0.01    0.01</time>
   <time name="total">    0.92    0.95</time>
   <energy>
    <i name="e_fr_energy">   -365.29292945 </i>
    <i name="e_wo_entrp">   -365.30280436 </i>
    <i name="e_0_energy">   -365.29622108 </i>
   </energy>
  </scstep>
  <scstep>
   <time name="diag">    0.14    0.14</time>
   <time name="diis">    0.82    0.82</time>
   <time name="orth">    0.01    0.01</time>
   <time name="total">    1.04    1.07</time>
   <energy>
    <i name="e_fr_energy">   -365.24564172 </i>
    <i name="e_wo_entrp">   -365.25828210 </i>
    <i name="e_0_energy">   -365.24985518 </i>
   </energy>
  </scstep>
  <scstep>
   <time name="diag">    0.08    0.08</time>
   <time name="diis">    0.86    0.87</time>
   <time name="orth">    0.02    0.02</time>
   <time name="total">    1.06    1.09</time>
   <energy>
    <i name="e_fr_energy">   -365.23853703 </i>
    <i name="e_wo_entrp">   -365.25049979 </i>
    <i name="e_0_energy">   -365.24252462 </i>
   </energy>
  </scstep>
  <scstep>
   <time name="diag">    0.08    0.08</time>
   <time name="diis">    0.82    0.82</time>
   <time name="orth">    0.01    0.01</time>
   <time name="total">    0.97    1.01</time>
   <energy>
    <i name="e_fr_energy">   -365.23712337 </i>
    <i name="e_wo_entrp">   -365.24895451 </i>
    <i name="e_0_energy">   -365.24106708 </i>
   </energy>
  </scstep>
  <scstep>
   <time name="diag">    0.08    0.08</time>
   <time name="diis">    0.84    0.85</time>
   <time name="orth">    0.01    0.01</time>
   <time name="total">    1.00    1.04</time>
   <energy>
    <i name="e_fr_energy">   -365.23692931 </i>
    <i name="e_wo_entrp">   -365.24878779 </i>
    <i name="e_0_energy">   -365.24088213 </i>
   </energy>
  </scstep>
  <scstep>
   <time name="diag">    0.13    0.13</time>
   <time name="diis">    0.91    0.92</time>
   <time name="orth">    0.01    0.01</time>
   <time name="total">    1.12    1.16</time>
   <energy>
    <i name="e_fr_energy">   -365.23674869 </i>
    <i name="e_wo_entrp">   -365.24862514 </i>
    <i name="e_0_energy">   -365.24070751 </i>
   </energy>
  </scstep>
  <scstep>
   <time name="diag">    0.08    0.08</time>
   <time name="diis">    0.82    0.88</time>
   <time name="orth">    0.01    0.01</time>
   <time name="total">    0.98    1.09</time>
   <energy>
    <i name="e_fr_energy">   -365.23677086 </i>
    <i name="e_wo_entrp">   -365.24864631 </i>
    <i name="e_0_energy">   -365.24072934 </i>
   </energy>
  </scstep>
  <scstep>
   <time name="diag">    0.08    0.08</time>
   <time name="diis">    0.76    0.77</time>
   <time name="orth">    0.01    0.01</time>
   <time name="total">    0.93    0.98</time>
   <energy>
    <i name="e_fr_energy">   -365.23680951 </i>
    <i name="e_wo_entrp">   -365.24866678 </i>
    <i name="e_0_energy">   -365.24076193 </i>
   </energy>
  </scstep>
  <scstep>
   <time name="diag">    0.08    0.08</time>
   <time name="diis">    0.68    0.69</time>
   <time name="orth">    0.01    0.01</time>
   <time name="total">    0.85    0.91</time>
   <energy>
    <i name="e_fr_energy">   -365.23682279 </i>
    <i name="e_wo_entrp">   -365.24868987 </i>
    <i name="e_0_energy">   -365.24077848 </i>
   </energy>
  </scstep>
  <scstep>
   <time name="diag">    0.08    0.08</time>
   <time name="diis">    0.60    0.61</time>
   <time name="orth">    0.01    0.01</time>
   <time name="total">    0.83    0.88</time>
   <energy>
    <i name="e_fr_energy">   -365.23682737 </i>
    <i name="e_wo_entrp">   -365.24869308 </i>
    <i name="e_0_energy">   -365.24078261 </i>
   </energy>
  </scstep>
  <scstep>
   <time name="diag">    0.08    0.08</time>
   <time name="diis">    0.51    0.52</time>
   <time name="orth">    0.01    0.01</time>
   <time name="total">    0.64    0.67</time>
   <energy>
    <i name="alphaZ">   1635.00672255 </i>
    <i name="ewald"> -21042.17138349 </i>
    <i name="hartreedc">  -7321.44072076 </i>
    <i name="XCdc">   -124.70375393 </i>
    <i name="pawpsdc">  36008.16439158 </i>
    <i name="pawaedc"> -34431.99440922 </i>
    <i name="eentropy">      0.01186621 </i>
    <i name="bandstr">  -2826.29340932 </i>
    <i name="atom">  27738.18387242 </i>
    <i name="e_fr_energy">   -365.23682396 </i>
    <i name="e_wo_entrp">   -365.24869017 </i>
    <i name="e_0_energy">   -365.24077936 </i>
   </energy>
  </scstep>
  <structure>
   <crystal>
    <varray name="basis" >
     <v>       6.85559852      -0.00859153       0.00185219 </v>
     <v>      -0.01253142      10.23079648       0.00693809 </v>
     <v>       0.00303662       0.00655631      10.21084706 </v>
    </varray>
    <i name="volume">    716.16930331 </i>
    <varray name="rec_basis" >
     <v>       0.14586642       0.00017870      -0.00004349 </v>
     <v>       0.00012251       0.09774429      -0.00006280 </v>
     <v>      -0.00002654      -0.00006645       0.09793512 </v>
    </varray>
   </crystal>
   <varray name="positions" >
    <v>       0.24477253       0.16202264       0.51359244 </v>
    <v>       0.02620079       0.32060692       0.33302673 </v>
    <v>       0.00515909       0.33388836       0.67698992 </v>
    <v>       0.25132749       0.48498267       0.83837908 </v>
    <v>       0.25107084       0.85546121       0.52005704 </v>
    <v>       0.74855273       0.84954717       0.51508876 </v>
    <v>       0.24762099       0.84312684       0.83276501 </v>
    <v>       0.24410324       0.81508857       0.14353593 </v>
    <v>       0.48862417       0.33924676       0.66821555 </v>
    <v>       0.50056182       0.32480027       0.99508230 </v>
    <v>       0.99664679       0.00561020       0.00727895 </v>
    <v>       0.00413488       0.99708783       0.32731124 </v>
    <v>       0.99106325       0.32200247       0.99542021 </v>
    <v>       0.00627488       0.66201764       0.66634450 </v>
    <v>       0.49913159       0.99518861       0.32553834 </v>
    <v>       0.75409200       0.50319638       0.17145986 </v>
    <v>       0.50321686       0.66568496       0.98277000 </v>
    <v>       0.75814250       0.84120465       0.82256523 </v>
    <v>       0.25096532       0.17444216       0.16436619 </v>
    <v>       0.00923146       0.00653643       0.67112571 </v>
    <v>       0.22552265       0.48780513       0.50131410 </v>
    <v>       0.00533936       0.66633312       0.98785646 </v>
    <v>       0.75074273       0.18341509       0.18392543 </v>
    <v>       0.49348283       0.00472267       0.66991478 </v>
    <v>       0.73640838       0.16960873       0.82118317 </v>
    <v>       0.76248006       0.81031736       0.15939055 </v>
    <v>       0.74556429       0.48810215       0.82571698 </v>
    <v>       0.26194242       0.16935783       0.82664517 </v>
    <v>       0.24741199       0.50535227       0.15770465 </v>
    <v>       0.01421469       0.68440678       0.34389746 </v>
    <v>       0.50514203       0.00487827       0.01013458 </v>
    <v>       0.75339705       0.16733591       0.50473941 </v>
    <v>       0.76544940       0.48705213       0.49384437 </v>
    <v>       0.48930601       0.67942298       0.34325602 </v>
    <v>       0.48905482       0.66072640       0.66201520 </v>
    <v>       0.47363807       0.32942445       0.33754969 </v>
   </varray>
  </structure>
  <varray name="forces" >
   <v>       0.02671717       0.01932457      -0.09196158 </v>
   <v>      -0.06781175       0.06365398       0.00482405 </v>
   <v>      -0.00388620       0.04274373      -0.04567664 </v>
   <v>      -0.00901793       0.12372829       0.01837961 </v>
   <v>       0.00757171       0.08138352       0.07649910 </v>
   <v>      -0.01937597       0.09381158       0.10250387 </v>
   <v>       0.03582465      -0.04963344      -0.01644092 </v>
   <v>      -0.00870140       0.05234999       0.00438910 </v>
   <v>       0.03785996      -0.04966646       0.01320630 </v>
   <v>      -0.00134193      -0.02068429      -0.03147308 </v>
   <v>       0.03441374       0.00486023      -0.01301080 </v>
   <v>      -0.06340877      -0.06484249      -0.02720311 </v>
   <v>       0.04440194       0.00562607       0.02555790 </v>
   <v>      -0.04485838       0.00987918      -0.04973334 </v>
   <v>       0.03403861      -0.04723139      -0.03089186 </v>
   <v>      -0.01181094      -0.10613382      -0.11284073 </v>
   <v>       0.04852520       0.01919991       0.01660779 </v>
   <v>      -0.02560818       0.05958558      -0.05896856 </v>
   <v>       0.00969345      -0.00864876       0.09049546 </v>
   <v>      -0.04583595      -0.00027878       0.02884807 </v>
   <v>      -0.04680724      -0.03759281       0.04493453 </v>
   <v>      -0.05689775      -0.01050680       0.03073972 </v>
   <v>      -0.00789511      -0.01328886      -0.05827064 </v>
   <v>       0.06424403       0.02226765       0.04272767 </v>
   <v>       0.10865162      -0.01959123       0.00129804 </v>
   <v>       0.00243586       0.06636791      -0.08403546 </v>
   <v>       0.00229273      -0.07791302      -0.00843134 </v>
   <v>      -0.10681554      -0.06193450       0.02524327 </v>
   <v>       0.00054043      -0.04816481      -0.04267750 </v>
   <v>      -0.03502959      -0.00810486       0.02859434 </v>
   <v>      -0.04176539       0.02939497      -0.05872259 </v>
   <v>       0.00219544      -0.03904161       0.01706301 </v>
   <v>       0.02178158      -0.06591131       0.11200398 </v>
   <v>       0.04375183      -0.02855636       0.03996435 </v>
   <v>       0.03486772       0.00811433      -0.03438540 </v>
   <v>       0.03706036       0.05543412       0.04084342 </v>
  </varray>
  <varray name="stress" >
   <v>       2.07237254       0.05084674       0.35743496 </v>
   <v>       0.05084679       2.80863412       0.07323265 </v>
   <v>       0.35743497       0.07323266       1.57165625 </v>
  </varray>
  <energy>
   <i name="e_fr_energy">   -365.23682396 </i>
   <i name="e_wo_entrp">   -365.24077936 </i>
   <i name="e_0_energy">      0.01186621 </i>
  </energy>
  <time name="totalsc">   13.14   13.93</time>
 </calculation>
 <calculation>
  <scstep>
   <time name="dav">    0.96    1.04</time>
   <time name="total">    1.04    1.30</time>
   <energy>
    <i name="alphaZ">   1633.57172074 </i>
    <i name="ewald"> -21031.34308367 </i>
    <i name="hartreedc">  -7323.80631989 </i>
    <i name="XCdc">   -124.97591755 </i>
    <i name="pawpsdc">  36007.67826089 </i>
    <i name="pawaedc"> -34431.54121098 </i>
    <i name="eentropy">      0.01213383 </i>
    <i name="bandstr">  -2833.01692733 </i>
    <i name="atom">  27738.18387242 </i>
    <i name="e_fr_energy">   -365.23747155 </i>
    <i name="e_wo_entrp">   -365.24960538 </i>
    <i name="e_0_energy">   -365.24151616 </i>
   </energy>
  </scstep>
  <scstep>
   <time name="diag">    0.09    0.09</time>
   <time name="diis">    0.76    0.76</time>
   <time name="orth">    0.01    0.01</time>
   <time name="total">    0.93    0.96</time>
   <energy>
    <i name="e_fr_energy">   -365.24087200 </i>
    <i name="e_wo_entrp">   -365.25236307 </i>
    <i name="e_0_energy">   -365.24470236 </i>
   </energy>
  </scstep>
  <scstep>
   <time name="diag">    0.08    0.08</time>
   <time name="diis">    0.86    0.86</time>
   <time name="orth">    0.01    0.01</time>
   <time name="total">    1.02    1.06</time>
   <energy>
    <i name="e_fr_energy">   -365.23865639 </i>
    <i name="e_wo_entrp">   -365.25073695 </i>
    <i name="e_0_energy">   -365.24268324 </i>
   </energy>
  </scstep>
  <scstep>
   <time name="diag">    0.08    0.08</time>
   <time name="diis">    0.92    0.93</time>
   <time name="orth">    0.01    0.01</time>
   <time name="total">    1.09    1.13</time>
   <energy>
    <i name="e_fr_energy">   -365.23835728 </i>
    <i name="e_wo_entrp">   -365.25029478 </i>
    <i name="e_0_energy">   -365.24233645 </i>
   </energy>
  </scstep>
  <scstep>
   <time name="diag">    0.12    0.12</time>
   <time name="diis">    0.86    0.87</time>
   <time name="orth">    0.01    0.01</time>
   <time name="total">    1.08    1.13</time>
   <energy>
    <i name="e_fr_energy">   -365.23829142 </i>
    <i name="e_wo_entrp">   -365.25020268 </i>
    <i name="e_0_energy">   -365.24226184 </i>
   </energy>
  </scstep>
  <scstep>
   <time name="diag">    0.13    0.14</time>
   <time name="diis">    0.78    0.79</time>
   <time name="orth">    0.01    0.01</time>
   <time name="total">    1.00    1.04</time>
   <energy>
    <i name="e_fr_energy">   -365.23828204 </i>
    <i name="e_wo_entrp">   -365.25019654 </i>
    <i name="e_0_energy">   -365.24225354 </i>
   </energy>
  </scstep>
  <scstep>
[...]
       <r>    7.1060    1.0000 </r>
       <r>    7.1350    1.0000 </r>
       <r>    7.1544    1.0000 </r>
       <r>    7.1829    1.0000 </r>
       <r>    7.2093    1.0000 </r>
       <r>    7.2641    1.0000 </r>
       <r>    7.3112    1.0000 </r>
       <r>    7.3578    1.0002 </r>
       <r>    7.3841    1.0005 </r>
       <r>    7.4261    1.0018 </r>
       <r>    7.4597    1.0044 </r>
       <r>    7.4766    1.0065 </r>
       <r>    7.5406    1.0214 </r>
       <r>    7.5618    1.0279 </r>
       <r>    7.6025    1.0355 </r>
       <r>    7.6273    1.0301 </r>
       <r>    7.6501    1.0125 </r>
       <r>    7.6718    0.9795 </r>
       <r>    7.7138    0.8595 </r>
       <r>    7.7234    0.8214 </r>
       <r>    7.7644    0.6201 </r>
       <r>    7.8306    0.2601 </r>
       <r>    7.8770    0.0769 </r>
       <r>    7.9162   -0.0055 </r>
       <r>    7.9708   -0.0354 </r>
       <r>    7.9856   -0.0340 </r>
       <r>    8.0172   -0.0258 </r>
       <r>    8.0894   -0.0074 </r>
       <r>    8.1202   -0.0036 </r>
       <r>    8.1588   -0.0012 </r>
       <r>    8.1712   -0.0009 </r>
       <r>    8.2098   -0.0002 </r>
       <r>    8.2686   -0.0000 </r>
       <r>    8.3109   -0.0000 </r>
       <r>    8.3501   -0.0000 </r>
       <r>    8.3754   -0.0000 </r>
       <r>    8.4223   -0.0000 </r>
       <r>    8.4782   -0.0000 </r>
       <r>    8.5265   -0.0000 </r>
       <r>    8.5923   -0.0000 </r>
       <r>    8.6613   -0.0000 </r>
       <r>    8.8370   -0.0000 </r>
       <r>    9.1040   -0.0000 </r>
       <r>    9.1545   -0.0000 </r>
       <r>    9.7075   -0.0000 </r>
       <r>    9.7425   -0.0000 </r>
       <r>    9.8000   -0.0000 </r>
       <r>    9.8266   -0.0000 </r>
       <r>    9.8752   -0.0000 </r>
      </set>
     </set>
    </set>
   </array>
  </eigenvalues>
  <separator name="orbital magnetization" >
   <v name="MAGDIPOLOUT">      0.00000000      0.00000000      0.00000000</v>
  </separator>
  <dos>
   <i name="efermi">      7.78598227 </i>
   <total>
    <array>
     <dimension dim="1">gridpoints</dimension>
     <dimension dim="2">spin</dimension>
     <field>energy</field>
     <field>total</field>
     <field>integrated</field>
     <set>
      <set comment="spin 1">
       <r>   -49.2593     0.0000     0.0000 </r>
       <r>   -49.0526     0.0000     0.0000 </r>
       <r>   -48.8460     0.0000     0.0000 </r>
       <r>   -48.6393     0.0000     0.0000 </r>
       <r>   -48.4327     0.0000     0.0000 </r>
       <r>   -48.2260     0.0000     0.0000 </r>
       <r>   -48.0194     0.0000     0.0000 </r>
       <r>   -47.8127    -0.0000    -0.0000 </r>
       <r>   -47.6061    -0.0000    -0.0000 </r>
       <r>   -47.3994    -0.0000    -0.0000 </r>
       <r>   -47.1928    -0.0000    -0.0000 </r>
       <r>   -46.9861    -0.0000    -0.0000 </r>
       <r>   -46.7794    -0.0898    -0.0186 </r>
       <r>   -46.5728    -1.4139    -0.3108 </r>
       <r>   -46.3661    40.7867     8.1179 </r>
       <r>   -46.1595    45.0154    17.4203 </r>
       <r>   -45.9528    13.4468    20.1991 </r>
       <r>   -45.7462    -0.9559    20.0016 </r>
       <r>   -45.5395    -0.0077    20.0000 </r>
       <r>   -45.3329    -0.0000    20.0000 </r>
       <r>   -45.1262    -0.0000    20.0000 </r>
       <r>   -44.9196     0.0000    20.0000 </r>
       <r>   -44.7129     0.0000    20.0000 </r>
       <r>   -44.5063     0.0000    20.0000 </r>
       <r>   -44.2996     0.0000    20.0000 </r>
       <r>   -44.0930     0.0000    20.0000 </r>
       <r>   -43.8863     0.0000    20.0000 </r>
       <r>   -43.6797     0.0000    20.0000 </r>
       <r>   -43.4730     0.0000    20.0000 </r>
       <r>   -43.2664     0.0000    20.0000 </r>
       <r>   -43.0597     0.0000    20.0000 </r>
       <r>   -42.8531     0.0000    20.0000 </r>
       <r>   -42.6464     0.0000    20.0000 </r>
       <r>   -42.4398     0.0000    20.0000 </r>
       <r>   -42.2331     0.0000    20.0000 </r>
       <r>   -42.0265     0.0000    20.0000 </r>
       <r>   -41.8198    -0.0000    20.0000 </r>
       <r>   -41.6132    -0.0000    20.0000 </r>
       <r>   -41.4065    -0.0000    20.0000 </r>
       <r>   -41.1999    -0.0000    20.0000 </r>
       <r>   -40.9932    -0.0001    20.0000 </r>
       <r>   -40.7866    -0.0794    19.9836 </r>
       <r>   -40.5799    -0.0378    19.9758 </r>
       <r>   -40.3733    18.8109    23.8631 </r>
       <r>   -40.1666    46.8400    33.5426 </r>
       <r>   -39.9600    12.5645    36.1391 </r>
       <r>   -39.7533    -0.6505    36.0046 </r>
       <r>   -39.5467    -0.0224    36.0000 </r>
       <r>   -39.3400    -0.0000    36.0000 </r>
       <r>   -39.1334    -0.0000    36.0000 </r>
       <r>   -38.9267     0.0000    36.0000 </r>
       <r>   -38.7201     0.0000    36.0000 </r>
       <r>   -38.5134     0.0000    36.0000 </r>
       <r>   -38.3068     0.0000    36.0000 </r>
       <r>   -38.1001     0.0000    36.0000 </r>
       <r>   -37.8934     0.0000    36.0000 </r>
       <r>   -37.6868     0.0000    36.0000 </r>
       <r>   -37.4801     0.0000    36.0000 </r>
       <r>   -37.2735     0.0000    36.0000 </r>
       <r>   -37.0668     0.0000    36.0000 </r>
       <r>   -36.8602     0.0000    36.0000 </r>
       <r>   -36.6535     0.0000    36.0000 </r>
       <r>   -36.4469     0.0000    36.0000 </r>
       <r>   -36.2402     0.0000    36.0000 </r>
       <r>   -36.0336     0.0000    36.0000 </r>
       <r>   -35.8269     0.0000    36.0000 </r>
       <r>   -35.6203     0.0000    36.0000 </r>
       <r>   -35.4136     0.0000    36.0000 </r>
       <r>   -35.2070     0.0000    36.0000 </r>
       <r>   -35.0003     0.0000    36.0000 </r>
       <r>   -34.7937     0.0000    36.0000 </r>
       <r>   -34.5870     0.0000    36.0000 </r>
       <r>   -34.3804     0.0000    36.0000 </r>
       <r>   -34.1737     0.0000    36.0000 </r>
       <r>   -33.9671     0.0000    36.0000 </r>
       <r>   -33.7604     0.0000    36.0000 </r>
       <r>   -33.5538     0.0000    36.0000 </r>
       <r>   -33.3471     0.0000    36.0000 </r>
       <r>   -33.1405     0.0000    36.0000 </r>
       <r>   -32.9338     0.0000    36.0000 </r>
       <r>   -32.7272     0.0000    36.0000 </r>
       <r>   -32.5205     0.0000    36.0000 </r>
       <r>   -32.3139     0.0000    36.0000 </r>
       <r>   -32.1072     0.0000    36.0000 </r>
       <r>   -31.9006     0.0000    36.0000 </r>
       <r>   -31.6939     0.0000    36.0000 </r>
       <r>   -31.4873     0.0000    36.0000 </r>
       <r>   -31.2806     0.0000    36.0000 </r>
       <r>   -31.0740     0.0000    36.0000 </r>
       <r>   -30.8673     0.0000    36.0000 </r>
       <r>   -30.6607     0.0000    36.0000 </r>
       <r>   -30.4540     0.0000    36.0000 </r>
       <r>   -30.2474     0.0000    36.0000 </r>
       <r>   -30.0407     0.0000    36.0000 </r>
       <r>   -29.8341     0.0000    36.0000 </r>
       <r>   -29.6274     0.0000    36.0000 </r>
       <r>   -29.4208     0.0000    36.0000 </r>
       <r>   -29.2141     0.0000    36.0000 </r>
       <r>   -29.0074     0.0000    36.0000 </r>
       <r>   -28.8008     0.0000    36.0000 </r>
       <r>   -28.5941     0.0000    36.0000 </r>
       <r>   -28.3875     0.0000    36.0000 </r>
       <r>   -28.1808     0.0000    36.0000 </r>
       <r>   -27.9742     0.0000    36.0000 </r>
       <r>   -27.7675     0.0000    36.0000 </r>
       <r>   -27.5609     0.0000    36.0000 </r>
       <r>   -27.3542     0.0000    36.0000 </r>
       <r>   -27.1476     0.0000    36.0000 </r>
       <r>   -26.9409     0.0000    36.0000 </r>
       <r>   -26.7343     0.0000    36.0000 </r>
       <r>   -26.5276     0.0000    36.0000 </r>
       <r>   -26.3210     0.0000    36.0000 </r>
       <r>   -26.1143     0.0000    36.0000 </r>
       <r>   -25.9077     0.0000    36.0000 </r>
       <r>   -25.7010     0.0000    36.0000 </r>
       <r>   -25.4944     0.0000    36.0000 </r>
       <r>   -25.2877     0.0000    36.0000 </r>
       <r>   -25.0811     0.0000    36.0000 </r>
       <r>   -24.8744     0.0000    36.0000 </r>
       <r>   -24.6678     0.0000    36.0000 </r>
       <r>   -24.4611     0.0000    36.0000 </r>
       <r>   -24.2545     0.0000    36.0000 </r>
       <r>   -24.0478    -0.0000    36.0000 </r>
       <r>   -23.8412    -0.0000    36.0000 </r>
       <r>   -23.6345    -0.0000    36.0000 </r>
       <r>   -23.4279    -0.0000    36.0000 </r>
       <r>   -23.2212    -0.0025    35.9995 </r>
       <r>   -23.0146    -0.6192    35.8715 </r>
       <r>   -22.8079     6.1460    37.1416 </r>
       <r>   -22.6013    59.7552    49.4901 </r>
       <r>   -22.3946   122.7715    74.8609 </r>
       <r>   -22.1880    75.7556    90.5159 </r>
       <r>   -21.9813    27.9057    96.2827 </r>
       <r>   -21.7747    -1.3151    96.0109 </r>
       <r>   -21.5680    -0.0529    96.0000 </r>
       <r>   -21.3614    -0.0000    96.0000 </r>
       <r>   -21.1547    -0.0000    96.0000 </r>
       <r>   -20.9481     0.0000    96.0000 </r>
       <r>   -20.7414     0.0000    96.0000 </r>
       <r>   -20.5348     0.0000    96.0000 </r>
       <r>   -20.3281     0.0000    96.0000 </r>
       <r>   -20.1214    -0.0000    96.0000 </r>
       <r>   -19.9148    -0.0000    96.0000 </r>
       <r>   -19.7081    -0.0000    96.0000 </r>
       <r>   -19.5015    -0.0000    96.0000 </r>
       <r>   -19.2948    -0.0000    96.0000 </r>
       <r>   -19.0882    -0.0210    95.9957 </r>
       <r>   -18.8815    -1.2221    95.7431 </r>
       <r>   -18.6749    18.9421    99.6575 </r>
       <r>   -18.4682    68.2121   113.7536 </r>
       <r>   -18.2616    86.8973   131.7111 </r>
       <r>   -18.0549    56.1558   143.3157 </r>
       <r>   -17.8483     3.7754   144.0959 </r>
       <r>   -17.6416    -0.4624   144.0003 </r>
       <r>   -17.4350    -0.0017   144.0000 </r>
       <r>   -17.2283    -0.0000   144.0000 </r>
       <r>   -17.0217    -0.0000   144.0000 </r>
       <r>   -16.8150     0.0000   144.0000 </r>
       <r>   -16.6084     0.0000   144.0000 </r>
       <r>   -16.4017     0.0000   144.0000 </r>
       <r>   -16.1951     0.0000   144.0000 </r>
       <r>   -15.9884     0.0000   144.0000 </r>
       <r>   -15.7818     0.0000   144.0000 </r>
       <r>   -15.5751     0.0000   144.0000 </r>
       <r>   -15.3685     0.0000   144.0000 </r>
       <r>   -15.1618     0.0000   144.0000 </r>
       <r>   -14.9552     0.0000   144.0000 </r>
       <r>   -14.7485     0.0000   144.0000 </r>
       <r>   -14.5419     0.0000   144.0000 </r>
       <r>   -14.3352     0.0000   144.0000 </r>
       <r>   -14.1286     0.0000   144.0000 </r>
       <r>   -13.9219     0.0000   144.0000 </r>
       <r>   -13.7153     0.0000   144.0000 </r>
       <r>   -13.5086     0.0000   144.0000 </r>
       <r>   -13.3020     0.0000   144.0000 </r>
       <r>   -13.0953     0.0000   144.0000 </r>
       <r>   -12.8887     0.0000   144.0000 </r>
       <r>   -12.6820     0.0000   144.0000 </r>
       <r>   -12.4754     0.0000   144.0000 </r>
       <r>   -12.2687     0.0000   144.0000 </r>
       <r>   -12.0621     0.0000   144.0000 </r>
       <r>   -11.8554     0.0000   144.0000 </r>
       <r>   -11.6488     0.0000   144.0000 </r>
       <r>   -11.4421     0.0000   144.0000 </r>
       <r>   -11.2354     0.0000   144.0000 </r>
       <r>   -11.0288     0.0000   144.0000 </r>
       <r>   -10.8221     0.0000   144.0000 </r>
       <r>   -10.6155     0.0000   144.0000 </r>
       <r>   -10.4088     0.0000   144.0000 </r>
       <r>   -10.2022     0.0000   144.0000 </r>
       <r>    -9.9955     0.0000   144.0000 </r>
       <r>    -9.7889     0.0000   144.0000 </r>
       <r>    -9.5822     0.0000   144.0000 </r>
       <r>    -9.3756     0.0000   144.0000 </r>
       <r>    -9.1689     0.0000   144.0000 </r>
       <r>    -8.9623     0.0000   144.0000 </r>
       <r>    -8.7556     0.0000   144.0000 </r>
       <r>    -8.5490     0.0000   144.0000 </r>
       <r>    -8.3423     0.0000   144.0000 </r>
       <r>    -8.1357     0.0000   144.0000 </r>
       <r>    -7.9290     0.0000   144.0000 </r>
       <r>    -7.7224     0.0000   144.0000 </r>
       <r>    -7.5157     0.0000   144.0000 </r>
       <r>    -7.3091     0.0000   144.0000 </r>
       <r>    -7.1024     0.0000   144.0000 </r>
       <r>    -6.8958     0.0000   144.0000 </r>
       <r>    -6.6891     0.0000   144.0000 </r>
       <r>    -6.4825     0.0000   144.0000 </r>
       <r>    -6.2758     0.0000   144.0000 </r>
       <r>    -6.0692     0.0000   144.0000 </r>
       <r>    -5.8625     0.0000   144.0000 </r>
       <r>    -5.6559     0.0000   144.0000 </r>
       <r>    -5.4492     0.0000   144.0000 </r>
       <r>    -5.2426     0.0000   144.0000 </r>
       <r>    -5.0359     0.0000   144.0000 </r>
       <r>    -4.8293     0.0000   144.0000 </r>
       <r>    -4.6226     0.0000   144.0000 </r>
       <r>    -4.4160     0.0000   144.0000 </r>
       <r>    -4.2093     0.0000   144.0000 </r>
       <r>    -4.0027     0.0000   144.0000 </r>
       <r>    -3.7960     0.0000   144.0000 </r>
       <r>    -3.5894     0.0000   144.0000 </r>
       <r>    -3.3827     0.0000   144.0000 </r>
       <r>    -3.1761     0.0000   144.0000 </r>
       <r>    -2.9694     0.0000   144.0000 </r>
       <r>    -2.7628     0.0000   144.0000 </r>
       <r>    -2.5561     0.0000   144.0000 </r>
       <r>    -2.3494     0.0000   144.0000 </r>
       <r>    -2.1428     0.0000   144.0000 </r>
       <r>    -1.9361     0.0000   144.0000 </r>
       <r>    -1.7295     0.0000   144.0000 </r>
       <r>    -1.5228     0.0000   144.0000 </r>
       <r>    -1.3162     0.0000   144.0000 </r>
       <r>    -1.1095     0.0000   144.0000 </r>
       <r>    -0.9029     0.0000   144.0000 </r>
       <r>    -0.6962     0.0000   144.0000 </r>
       <r>    -0.4896     0.0000   144.0000 </r>
       <r>    -0.2829    -0.0000   144.0000 </r>
       <r>    -0.0763    -0.0000   144.0000 </r>
       <r>     0.1304    -0.0000   144.0000 </r>
       <r>     0.3370    -0.0000   144.0000 </r>
       <r>     0.5437    -0.0000   144.0000 </r>
       <r>     0.7503    -0.0026   143.9995 </r>
       <r>     0.9570     0.0148   144.0025 </r>
       <r>     1.1636     0.3652   144.0780 </r>
       <r>     1.3703     1.3337   144.3536 </r>
       <r>     1.5769     1.7144   144.7079 </r>
       <r>     1.7836     2.1216   145.1463 </r>
       <r>     1.9902     3.6949   145.9099 </r>
       <r>     2.1969     3.1985   146.5709 </r>
       <r>     2.4035     2.5171   147.0910 </r>
       <r>     2.6102     4.7202   148.0665 </r>
       <r>     2.8168     4.0997   148.9137 </r>
       <r>     3.0235     3.7763   149.6940 </r>
       <r>     3.2301     8.6039   151.4721 </r>
       <r>     3.4368     7.6989   153.0630 </r>
       <r>     3.6434     7.4846   154.6097 </r>
       <r>     3.8501     7.8495   156.2318 </r>
       <r>     4.0567    14.1750   159.1611 </r>
       <r>     4.2634    17.5100   162.7796 </r>
       <r>     4.4700    22.8925   167.5104 </r>
       <r>     4.6767    23.6598   172.3997 </r>
       <r>     4.8833    32.8230   179.1826 </r>
       <r>     5.0900    36.9158   186.8113 </r>
       <r>     5.2966    38.0885   194.6823 </r>
       <r>     5.5033    39.3553   202.8151 </r>
       <r>     5.7099    36.7793   210.4156 </r>
       <r>     5.9166    34.8560   217.6186 </r>
       <r>     6.1232    29.0100   223.6136 </r>
       <r>     6.3299    13.7813   226.4615 </r>
       <r>     6.5366    54.7645   237.7786 </r>
       <r>     6.7432    64.8949   251.1892 </r>
       <r>     6.9499    55.2878   262.6145 </r>
       <r>     7.1565    51.0909   273.1725 </r>
       <r>     7.3632    55.4880   284.6392 </r>
       <r>     7.5698    58.4718   296.7225 </r>
       <r>     7.7765    52.3994   307.5509 </r>
       <r>     7.9831    45.8697   317.0299 </r>
       <r>     8.1898    44.7937   326.2865 </r>
       <r>     8.3964    43.3416   335.2431 </r>
       <r>     8.6031    34.2192   342.3146 </r>
       <r>     8.8097    25.9579   347.6788 </r>
       <r>     9.0164    20.4098   351.8965 </r>
       <r>     9.2230    15.9399   355.1905 </r>
       <r>     9.4297    13.8068   358.0437 </r>
       <r>     9.6363    22.9580   362.7880 </r>
       <r>     9.8430    19.5806   366.8344 </r>
       <r>    10.0496     5.9967   368.0736 </r>
       <r>    10.2563    -0.3479   368.0017 </r>
       <r>    10.4629    -0.0082   368.0000 </r>
       <r>    10.6696    -0.0000   368.0000 </r>
       <r>    10.8762    -0.0000   368.0000 </r>
       <r>    11.0829     0.0000   368.0000 </r>
       <r>    11.2895     0.0000   368.0000 </r>
       <r>    11.4962     0.0000   368.0000 </r>
       <r>    11.7028     0.0000   368.0000 </r>
       <r>    11.9095     0.0000   368.0000 </r>
       <r>    12.1161     0.0000   368.0000 </r>
       <r>    12.3228     0.0000   368.0000 </r>
       <r>    12.5294     0.0000   368.0000 </r>
       <r>    12.7361     0.0000   368.0000 </r>
      </set>
     </set>
    </array>
   </total>
  </dos>
 </calculation>
 <structure name="finalpos" >
  <crystal>
   <varray name="basis" >
    <v>       6.84755577      -0.00653618       0.00622688 </v>
    <v>      -0.00940106      10.25690005       0.00455315 </v>
    <v>       0.00954206       0.00421326      10.20728164 </v>
   </varray>
   <i name="volume">    716.90394488 </i>
   <varray name="rec_basis" >
    <v>       0.14603776       0.00013391      -0.00013658 </v>
    <v>       0.00009310       0.09749545      -0.00004033 </v>
    <v>      -0.00008913      -0.00004357       0.09796938 </v>
   </varray>
  </crystal>
  <varray name="positions" >
   <v>       0.24516857       0.16200151       0.51075923 </v>
   <v>       0.02411030       0.32160012       0.33298220 </v>
   <v>       0.00795433       0.33351107       0.67705024 </v>
   <v>       0.25133836       0.48855455       0.83953655 </v>
   <v>       0.25144669       0.85679745       0.52101402 </v>
   <v>       0.74711903       0.85242550       0.51630107 </v>
   <v>       0.24886794       0.84088560       0.83121829 </v>
   <v>       0.24305624       0.81420730       0.14470342 </v>
   <v>       0.48788394       0.33705706       0.66922656 </v>
   <v>       0.50019043       0.32313059       0.99381522 </v>
   <v>       0.99965727       0.00594745       0.00684189 </v>
   <v>       0.00251572       0.99581952       0.32655655 </v>
   <v>       0.99433849       0.32142772       0.99628080 </v>
   <v>       0.00403781       0.66348002       0.66535502 </v>
   <v>       0.49981881       0.99400864       0.32422845 </v>
   <v>       0.75325292       0.50029977       0.16926426 </v>
   <v>       0.50571760       0.66615801       0.98260366 </v>
   <v>       0.75548978       0.84366946       0.82203429 </v>
   <v>       0.25251609       0.17470454       0.16892807 </v>
   <v>       0.00883042       0.00732514       0.67193259 </v>
   <v>       0.22370349       0.48764364       0.50205885 </v>
   <v>       0.00371568       0.66667503       0.98810774 </v>
   <v>       0.74944419       0.18413488       0.18068738 </v>
   <v>       0.49329783       0.00655218       0.67145236 </v>
   <v>       0.74086137       0.16833662       0.82241046 </v>
   <v>       0.76403136       0.81147950       0.15640870 </v>
   <v>       0.74574017       0.48638061       0.82415059 </v>
   <v>       0.25875186       0.16891735       0.82669766 </v>
   <v>       0.24781341       0.50520554       0.15684690 </v>
   <v>       0.00969225       0.68353518       0.34446011 </v>
   <v>       0.50140907       0.00599995       0.00869225 </v>
   <v>       0.75306898       0.16661255       0.50475524 </v>
   <v>       0.76717548       0.48403241       0.49828274 </v>
   <v>       0.49274680       0.67802109       0.34346395 </v>
   <v>       0.48993492       0.66108754       0.66118236 </v>
   <v>       0.47529240       0.33237885       0.33971134 </v>
  </varray>
 </structure>
</modeling>
