       N       E                     dE             d eps       ncg     rms          rms(c)
DAV:   1     0.175854530361E+04    0.17585E+04   -0.10631E+05  5224   0.105E+03
DAV:   2    -0.828603543918E+02   -0.18414E+04   -0.17713E+04  5280   0.369E+02
DAV:   3    -0.340265788097E+03   -0.25741E+03   -0.24413E+03  8128   0.105E+02
DAV:   4    -0.372851753853E+03   -0.32586E+02   -0.31011E+02  8216   0.320E+01
DAV:   5    -0.376259148137E+03   -0.34074E+01   -0.33199E+01  7592   0.102E+01    0.657E+01
RMM:   6    -0.365832696948E+03    0.10426E+02   -0.28054E+01  7095   0.104E+01    0.312E+01
RMM:   7    -0.366258295929E+03   -0.42560E+00   -0.26350E+01  7194   0.787E+00    0.107E+01
RMM:   8    -0.361513195500E+03    0.47451E+01   -0.64728E+00  7412   0.399E+00    0.400E+00
RMM:   9    -0.361226714179E+03    0.28648E+00   -0.25909E+00  7407   0.193E+00    0.281E+00
RMM:  10    -0.361192123635E+03    0.34591E-01   -0.47441E-01  7394   0.124E+00    0.142E+00
RMM:  11    -0.361169037591E+03    0.23086E-01   -0.15422E-01  7367   0.598E-01    0.688E-01
RMM:  12    -0.361169399965E+03   -0.36237E-03   -0.63911E-02  7474   0.362E-01    0.413E-01
RMM:  13    -0.361168593641E+03    0.80632E-03   -0.23567E-02  7600   0.169E-01    0.233E-01
RMM:  14    -0.361169061386E+03   -0.46775E-03   -0.11149E-02  7574   0.109E-01    0.124E-01
RMM:  15    -0.361169480396E+03   -0.41901E-03   -0.54239E-03  7593   0.686E-02    0.502E-02
RMM:  16    -0.361169639764E+03   -0.15937E-03   -0.23476E-03  6498   0.411E-02    0.318E-02
RMM:  17    -0.361169702671E+03   -0.62908E-04   -0.10392E-03  5771   0.269E-02    0.154E-02
RMM:  18    -0.361169746758E+03   -0.44086E-04   -0.54788E-04  5716   0.211E-02    0.926E-03
RMM:  19    -0.361169763673E+03   -0.16915E-04   -0.22184E-04  4489   0.140E-02    0.456E-03
RMM:  20    -0.361169774277E+03   -0.10604E-04   -0.14180E-04  4427   0.120E-02    0.259E-03
RMM:  21    -0.361169778230E+03   -0.39530E-05   -0.58316E-05  3836   0.104E-02
   1 F= -.36116978E+03 E0= -.36117650E+03  d E =-.361170E+03
       N       E                     dE             d eps       ncg     rms          rms(c)
DAV:   1    -0.361232094941E+03   -0.62321E-01   -0.22453E+00  5712   0.463E+00    0.160E+00
RMM:   2    -0.361216178081E+03    0.15917E-01   -0.17098E-01  6656   0.108E+00    0.509E-01
RMM:   3    -0.361212724001E+03    0.34541E-02   -0.41456E-02  7507   0.408E-01    0.356E-01
RMM:   4    -0.361208785785E+03    0.39382E-02   -0.97591E-03  7521   0.194E-01    0.210E-01
RMM:   5    -0.361208654802E+03    0.13098E-03   -0.34271E-03  7499   0.101E-01    0.163E-01
RMM:   6    -0.361208756395E+03   -0.10159E-03   -0.11828E-03  7670   0.590E-02    0.900E-02
RMM:   7    -0.361208874121E+03   -0.11773E-03   -0.62776E-04  6813   0.423E-02    0.453E-02
RMM:   8    -0.361208920901E+03   -0.46780E-04   -0.30262E-04  6261   0.281E-02    0.340E-02
RMM:   9    -0.361208949691E+03   -0.28790E-04   -0.11644E-04  5158   0.200E-02    0.282E-02
RMM:  10    -0.361208983629E+03   -0.33938E-04   -0.62895E-05  4620   0.151E-02    0.130E-02
RMM:  11    -0.361208999079E+03   -0.15451E-04   -0.37078E-05  4118   0.132E-02    0.449E-03
RMM:  12    -0.361209001529E+03   -0.24498E-05   -0.14977E-05  3415   0.112E-02
   2 F= -.36120900E+03 E0= -.36121550E+03  d E =-.392233E-01
       N       E                     dE             d eps       ncg     rms          rms(c)
DAV:   1    -0.361440112148E+03   -0.23111E+00   -0.17861E+01  5288   0.131E+01    0.459E+00
RMM:   2    -0.361312324180E+03    0.12779E+00   -0.13591E+00  6580   0.304E+00    0.145E+00
RMM:   3    -0.361284915738E+03    0.27408E-01   -0.33229E-01  7501   0.115E+00    0.101E+00
RMM:   4    -0.361253174333E+03    0.31741E-01   -0.78366E-02  7539   0.552E-01    0.601E-01
RMM:   5    -0.361252181902E+03    0.99243E-03   -0.27593E-02  7544   0.276E-01    0.467E-01
RMM:   6    -0.361252733426E+03   -0.55152E-03   -0.89311E-03  7973   0.165E-01    0.262E-01
RMM:   7    -0.361253514532E+03   -0.78111E-03   -0.54301E-03  8091   0.115E-01    0.134E-01
RMM:   8    -0.361253791426E+03   -0.27689E-03   -0.23619E-03  7940   0.733E-02    0.100E-01
RMM:   9    -0.361253979425E+03   -0.18800E-03   -0.91460E-04  7350   0.483E-02    0.837E-02
RMM:  10    -0.361254183109E+03   -0.20368E-03   -0.41805E-04  6555   0.337E-02    0.412E-02
RMM:  11    -0.361254262597E+03   -0.79488E-04   -0.27800E-04  6388   0.275E-02    0.132E-02
RMM:  12    -0.361254276545E+03   -0.13949E-04   -0.12278E-04  5378   0.193E-02    0.101E-02
RMM:  13    -0.361254281419E+03   -0.48733E-05   -0.44729E-05  4414   0.145E-02
   3 F= -.36125428E+03 E0= -.36125993E+03  d E =-.845032E-01
       N       E                     dE             d eps       ncg     rms          rms(c)
DAV:   1    -0.361283666467E+03   -0.29390E-01   -0.18393E+00  5088   0.365E+00    0.663E-01
RMM:   2    -0.361285621227E+03   -0.19548E-02   -0.82237E-02  7105   0.732E-01    0.282E-01
RMM:   3    -0.361284047184E+03    0.15740E-02   -0.12044E-02  7348   0.214E-01    0.192E-01
RMM:   4    -0.361283484615E+03    0.56257E-03   -0.29755E-03  7522   0.881E-02    0.123E-01
RMM:   5    -0.361283368098E+03    0.11652E-03   -0.12010E-03  7440   0.578E-02    0.774E-02
RMM:   6    -0.361283343997E+03    0.24101E-04   -0.47198E-04  7165   0.345E-02    0.474E-02
RMM:   7    -0.361283337897E+03    0.60995E-05   -0.20717E-04  6401   0.226E-02    0.243E-02
RMM:   8    -0.361283334904E+03    0.29927E-05   -0.68422E-05  4858   0.144E-02
   4 F= -.36128333E+03 E0= -.36128898E+03  d E =-.290535E-01
       N       E                     dE             d eps       ncg     rms          rms(c)
DAV:   1    -0.361338318636E+03   -0.54981E-01   -0.16537E+01  4928   0.109E+01    0.195E+00
RMM:   2    -0.361355085490E+03   -0.16767E-01   -0.73752E-01  7060   0.220E+00    0.806E-01
RMM:   3    -0.361342970345E+03    0.12115E-01   -0.10402E-01  7379   0.636E-01    0.562E-01
RMM:   4    -0.361338404269E+03    0.45661E-02   -0.25460E-02  7530   0.263E-01    0.362E-01
RMM:   5    -0.361337575488E+03    0.82878E-03   -0.10461E-02  7454   0.167E-01    0.232E-01
RMM:   6    -0.361337425361E+03    0.15013E-03   -0.40218E-03  7682   0.102E-01    0.146E-01
RMM:   7    -0.361337447999E+03   -0.22638E-04   -0.18818E-03  7778   0.647E-02    0.761E-02
RMM:   8    -0.361337480938E+03   -0.32938E-04   -0.76598E-04  7013   0.368E-02    0.478E-02
RMM:   9    -0.361337492716E+03   -0.11779E-04   -0.31889E-04  6090   0.276E-02    0.355E-02
RMM:  10    -0.361337502375E+03   -0.96588E-05   -0.15800E-04  5655   0.195E-02    0.180E-02
RMM:  11    -0.361337500534E+03    0.18412E-05   -0.69028E-05  4818   0.151E-02
   5 F= -.36133750E+03 E0= -.36134316E+03  d E =-.832191E-01
       N       E                     dE             d eps       ncg     rms          rms(c)
DAV:   1    -0.361291561013E+03    0.45941E-01   -0.66105E+01  4816   0.218E+01    0.380E+00
RMM:   2    -0.361362128471E+03   -0.70567E-01   -0.29973E+00  7066   0.445E+00    0.153E+00
RMM:   3    -0.361323611819E+03    0.38517E-01   -0.38202E-01  7298   0.122E+00    0.109E+00
RMM:   4    -0.361307899750E+03    0.15712E-01   -0.98301E-02  7494   0.530E-01    0.705E-01
RMM:   5    -0.361304873740E+03    0.30260E-02   -0.39921E-02  7487   0.316E-01    0.464E-01
RMM:   6    -0.361303949756E+03    0.92398E-03   -0.15185E-02  7657   0.203E-01    0.298E-01
RMM:   7    -0.361304047678E+03   -0.97921E-04   -0.74325E-03  7903   0.125E-01    0.154E-01
RMM:   8    -0.361304146523E+03   -0.98845E-04   -0.30945E-03  7952   0.760E-02    0.974E-02
RMM:   9    -0.361304209353E+03   -0.62831E-04   -0.13374E-03  7220   0.482E-02    0.713E-02
RMM:  10    -0.361304268776E+03   -0.59423E-04   -0.56601E-04  6792   0.338E-02    0.385E-02
RMM:  11    -0.361304278133E+03   -0.93569E-05   -0.24624E-04  6029   0.246E-02    0.146E-02
RMM:  12    -0.361304281971E+03   -0.38375E-05   -0.12295E-04  5282   0.179E-02    0.814E-03
RMM:  13    -0.361304282561E+03   -0.59087E-06   -0.42192E-05  4215   0.134E-02
   6 F= -.36130428E+03 E0= -.36131014E+03  d E =-.500011E-01
       N       E                     dE             d eps       ncg     rms          rms(c)
DAV:   1    -0.361362744874E+03   -0.58463E-01   -0.30320E+01  5096   0.147E+01    0.270E+00
RMM:   2    -0.361382560011E+03   -0.19815E-01   -0.12852E+00  7073   0.286E+00    0.107E+00
RMM:   3    -0.361355657084E+03    0.26903E-01   -0.18301E-01  7392   0.829E-01    0.722E-01
RMM:   4    -0.361347684501E+03    0.79726E-02   -0.48651E-02  7623   0.361E-01    0.459E-01
RMM:   5    -0.361346363630E+03    0.13209E-02   -0.18115E-02  7603   0.223E-01    0.295E-01
RMM:   6    -0.361346512037E+03   -0.14841E-03   -0.72153E-03  7934   0.129E-01    0.194E-01
RMM:   7    -0.361346671370E+03   -0.15933E-03   -0.31006E-03  8023   0.844E-02    0.104E-01
RMM:   8    -0.361346833744E+03   -0.16237E-03   -0.14517E-03  7537   0.507E-02    0.674E-02
RMM:   9    -0.361346879431E+03   -0.45687E-04   -0.54268E-04  6843   0.356E-02    0.444E-02
RMM:  10    -0.361346933395E+03   -0.53964E-04   -0.24989E-04  6064   0.245E-02    0.241E-02
RMM:  11    -0.361346957371E+03   -0.23976E-04   -0.11667E-04  5562   0.187E-02    0.719E-03
RMM:  12    -0.361346961945E+03   -0.45739E-05   -0.44849E-05  4332   0.138E-02
   7 F= -.36134696E+03 E0= -.36135265E+03  d E =-.926805E-01
       N       E                     dE             d eps       ncg     rms          rms(c)
DAV:   1    -0.361355913752E+03   -0.89564E-02   -0.58093E-01  4912   0.221E+00    0.310E-01
RMM:   2    -0.361357004542E+03   -0.10908E-02   -0.24137E-02  7291   0.428E-01    0.140E-01
RMM:   3    -0.361356767630E+03    0.23691E-03   -0.33239E-03  7365   0.110E-01    0.102E-01
RMM:   4    -0.361356584747E+03    0.18288E-03   -0.82846E-04  7382   0.484E-02    0.618E-02
RMM:   5    -0.361356561238E+03    0.23509E-04   -0.35767E-04  7243   0.324E-02    0.360E-02
RMM:   6    -0.361356551085E+03    0.10153E-04   -0.13537E-04  6291   0.188E-02    0.218E-02
RMM:   7    -0.361356548709E+03    0.23755E-05   -0.43191E-05  3963   0.122E-02
   8 F= -.36135655E+03 E0= -.36136242E+03  d E =-.958676E-02
       N       E                     dE             d eps       ncg     rms          rms(c)
DAV:   1    -0.361370034048E+03   -0.13483E-01   -0.52255E+00  4816   0.662E+00    0.922E-01
RMM:   2    -0.361379948150E+03   -0.99141E-02   -0.21662E-01  7298   0.128E+00    0.418E-01
RMM:   3    -0.361377971188E+03    0.19770E-02   -0.30049E-02  7416   0.329E-01    0.303E-01
RMM:   4    -0.361376433130E+03    0.15381E-02   -0.75452E-03  7450   0.144E-01    0.182E-01
RMM:   5    -0.361376279892E+03    0.15324E-03   -0.33245E-03  7464   0.979E-02    0.106E-01
RMM:   6    -0.361376233652E+03    0.46240E-04   -0.12973E-03  7837   0.557E-02    0.648E-02
RMM:   7    -0.361376254960E+03   -0.21308E-04   -0.52931E-04  6595   0.310E-02    0.401E-02
RMM:   8    -0.361376255735E+03   -0.77464E-06   -0.23997E-04  5873   0.235E-02    0.235E-02
RMM:   9    -0.361376260537E+03   -0.48022E-05   -0.11780E-04  5244   0.178E-02    0.147E-02
RMM:  10    -0.361376259655E+03    0.88208E-06   -0.49166E-05  4584   0.143E-02
   9 F= -.36137626E+03 E0= -.36138270E+03  d E =-.292977E-01
       N       E                     dE             d eps       ncg     rms          rms(c)
DAV:   1    -0.361348623807E+03    0.27637E-01   -0.20889E+01  4816   0.132E+01    0.182E+00
RMM:   2    -0.361389554104E+03   -0.40930E-01   -0.86929E-01  7294   0.257E+00    0.835E-01
RMM:   3    -0.361382132338E+03    0.74218E-02   -0.12062E-01  7498   0.668E-01    0.605E-01
RMM:   4    -0.361376079397E+03    0.60529E-02   -0.29618E-02  7478   0.286E-01    0.369E-01
RMM:   5    -0.361375421035E+03    0.65836E-03   -0.13112E-02  7427   0.196E-01    0.214E-01
RMM:   6    -0.361375211414E+03    0.20962E-03   -0.51616E-03  7958   0.111E-01    0.130E-01
RMM:   7    -0.361375332209E+03   -0.12079E-03   -0.23118E-03  8150   0.620E-02    0.789E-02
RMM:   8    -0.361375337692E+03   -0.54835E-05   -0.86392E-04  7290   0.383E-02    0.488E-02
RMM:   9    -0.361375368527E+03   -0.30835E-04   -0.43301E-04  6547   0.304E-02    0.319E-02
RMM:  10    -0.361375375411E+03   -0.68849E-05   -0.18492E-04  5834   0.205E-02    0.160E-02
RMM:  11    -0.361375376730E+03   -0.13183E-05   -0.80344E-05  5057   0.158E-02
  10 F= -.36137538E+03 E0= -.36138295E+03  d E =-.284148E-01
       N       E                     dE             d eps       ncg     rms          rms(c)
DAV:   1    -0.361376829850E+03   -0.14544E-02   -0.56798E+00  4816   0.689E+00    0.962E-01
RMM:   2    -0.361386722368E+03   -0.98925E-02   -0.23288E-01  7290   0.134E+00    0.427E-01
RMM:   3    -0.361384253123E+03    0.24692E-02   -0.31173E-02  7305   0.338E-01    0.310E-01
RMM:   4    -0.361382572033E+03    0.16811E-02   -0.78655E-03  7493   0.150E-01    0.185E-01
RMM:   5    -0.361382428224E+03    0.14381E-03   -0.34462E-03  7569   0.991E-02    0.110E-01
RMM:   6    -0.361382411802E+03    0.16421E-04   -0.12884E-03  7893   0.569E-02    0.670E-02
RMM:   7    -0.361382455849E+03   -0.44047E-04   -0.51733E-04  6657   0.310E-02    0.407E-02
RMM:   8    -0.361382472202E+03   -0.16354E-04   -0.23453E-04  5970   0.239E-02    0.238E-02
RMM:   9    -0.361382487946E+03   -0.15744E-04   -0.10354E-04  4968   0.171E-02    0.147E-02
RMM:  10    -0.361382498593E+03   -0.10647E-04   -0.53020E-05  4629   0.147E-02    0.715E-03
RMM:  11    -0.361382501763E+03   -0.31694E-05   -0.20400E-05  3411   0.115E-02
  11 F= -.36138250E+03 E0= -.36138949E+03  d E =-.355398E-01
       N       E                     dE             d eps       ncg     rms          rms(c)
DAV:   1    -0.361405295725E+03   -0.22797E-01   -0.15436E+00  5284   0.394E+00    0.132E+00
RMM:   2    -0.361395615782E+03    0.96799E-02   -0.12729E-01  6761   0.931E-01    0.425E-01
RMM:   3    -0.361392684385E+03    0.29314E-02   -0.28891E-02  7510   0.340E-01    0.297E-01
RMM:   4    -0.361390102101E+03    0.25823E-02   -0.68258E-03  7530   0.166E-01    0.171E-01
RMM:   5    -0.361389963814E+03    0.13829E-03   -0.22796E-03  7499   0.828E-02    0.135E-01
RMM:   6    -0.361390036113E+03   -0.72300E-04   -0.80410E-04  7567   0.469E-02    0.788E-02
RMM:   7    -0.361390115820E+03   -0.79707E-04   -0.38758E-04  6618   0.352E-02    0.372E-02
RMM:   8    -0.361390154180E+03   -0.38360E-04   -0.22540E-04  6444   0.238E-02    0.288E-02
RMM:   9    -0.361390174456E+03   -0.20276E-04   -0.70559E-05  4475   0.176E-02    0.223E-02
RMM:  10    -0.361390198461E+03   -0.24005E-04   -0.43114E-05  4229   0.131E-02    0.108E-02
RMM:  11    -0.361390210300E+03   -0.11838E-04   -0.25876E-05  3803   0.121E-02    0.395E-03
RMM:  12    -0.361390212997E+03   -0.26974E-05   -0.12654E-05  3399   0.106E-02
  12 F= -.36139021E+03 E0= -.36139714E+03  d E =-.771123E-02
       N       E                     dE             d eps       ncg     rms          rms(c)
DAV:   1    -0.361395399236E+03   -0.51889E-02   -0.43686E-01  5364   0.210E+00    0.704E-01
RMM:   2    -0.361392637279E+03    0.27620E-02   -0.35954E-02  6789   0.495E-01    0.225E-01
RMM:   3    -0.361391827334E+03    0.80995E-03   -0.82039E-03  7509   0.180E-01    0.157E-01
RMM:   4    -0.361391109685E+03    0.71765E-03   -0.19433E-03  7504   0.883E-02    0.902E-02
RMM:   5    -0.361391080380E+03    0.29306E-04   -0.65985E-04  7422   0.443E-02    0.712E-02
RMM:   6    -0.361391113185E+03   -0.32806E-04   -0.23813E-04  6818   0.256E-02    0.421E-02
RMM:   7    -0.361391145553E+03   -0.32368E-04   -0.11274E-04  5892   0.198E-02    0.200E-02
RMM:   8    -0.361391160727E+03   -0.15174E-04   -0.65308E-05  4497   0.146E-02    0.150E-02
RMM:   9    -0.361391170340E+03   -0.96136E-05   -0.29726E-05  3786   0.123E-02
  13 F= -.36139117E+03 E0= -.36139807E+03  d E =-.866858E-02
       N       E                     dE             d eps       ncg     rms          rms(c)
DAV:   1    -0.361393822392E+03   -0.26617E-02   -0.32351E-01  4864   0.161E+00    0.129E-01
RMM:   2    -0.361394471600E+03   -0.64921E-03   -0.10086E-02  7067   0.292E-01    0.717E-02
RMM:   3    -0.361394422053E+03    0.49548E-04   -0.13896E-03  7195   0.775E-02    0.543E-02
RMM:   4    -0.361394390936E+03    0.31117E-04   -0.36830E-04  7501   0.293E-02    0.317E-02
RMM:   5    -0.361394386862E+03    0.40740E-05   -0.12949E-04  5671   0.191E-02    0.145E-02
RMM:   6    -0.361394389172E+03   -0.23098E-05   -0.63456E-05  4452   0.134E-02
  14 F= -.36139439E+03 E0= -.36140127E+03  d E =-.321883E-02
       N       E                     dE             d eps       ncg     rms          rms(c)
DAV:   1    -0.361395955420E+03   -0.15686E-02   -0.29098E+00  4816   0.483E+00    0.389E-01
RMM:   2    -0.361401810071E+03   -0.58547E-02   -0.90910E-02  7049   0.876E-01    0.215E-01
RMM:   3    -0.361401401063E+03    0.40901E-03   -0.12712E-02  7283   0.232E-01    0.162E-01
RMM:   4    -0.361401109905E+03    0.29116E-03   -0.31777E-03  8188   0.862E-02    0.949E-02
RMM:   5    -0.361401083982E+03    0.25923E-04   -0.13353E-03  7695   0.572E-02    0.449E-02
RMM:   6    -0.361401091368E+03   -0.73860E-05   -0.52091E-04  7377   0.340E-02    0.229E-02
RMM:   7    -0.361401097112E+03   -0.57444E-05   -0.17571E-04  5510   0.175E-02    0.152E-02
RMM:   8    -0.361401100552E+03   -0.34405E-05   -0.71174E-05  4515   0.148E-02
  15 F= -.36140110E+03 E0= -.36140794E+03  d E =-.993021E-02
       N       E                     dE             d eps       ncg     rms          rms(c)
DAV:   1    -0.361380976991E+03    0.20120E-01   -0.11640E+01  4816   0.966E+00    0.790E-01
RMM:   2    -0.361404519309E+03   -0.23542E-01   -0.36555E-01  7030   0.176E+00    0.435E-01
RMM:   3    -0.361402681791E+03    0.18375E-02   -0.50807E-02  7294   0.467E-01    0.327E-01
RMM:   4    -0.361401466527E+03    0.12153E-02   -0.12429E-02  8212   0.172E-01    0.193E-01
RMM:   5    -0.361401352128E+03    0.11440E-03   -0.52870E-03  8027   0.115E-01    0.922E-02
RMM:   6    -0.361401368387E+03   -0.16259E-04   -0.20433E-03  8330   0.684E-02    0.457E-02
RMM:   7    -0.361401403534E+03   -0.35147E-04   -0.78648E-04  7546   0.330E-02    0.302E-02
RMM:   8    -0.361401415411E+03   -0.11877E-04   -0.26994E-04  6507   0.230E-02    0.194E-02
RMM:   9    -0.361401423206E+03   -0.77954E-05   -0.12902E-04  5495   0.179E-02    0.875E-03
RMM:  10    -0.361401427699E+03   -0.44930E-05   -0.60918E-05  4414   0.137E-02
  16 F= -.36140143E+03 E0= -.36140826E+03  d E =-.102574E-01
       N       E                     dE             d eps       ncg     rms          rms(c)
DAV:   1    -0.361398588822E+03    0.28344E-02   -0.29129E+00  4816   0.483E+00    0.385E-01
RMM:   2    -0.361404313680E+03   -0.57249E-02   -0.89880E-02  6918   0.874E-01    0.214E-01
RMM:   3    -0.361403792474E+03    0.52121E-03   -0.12028E-02  7281   0.232E-01    0.160E-01
RMM:   4    -0.361403466446E+03    0.32603E-03   -0.29255E-03  8112   0.842E-02    0.933E-02
RMM:   5    -0.361403435814E+03    0.30632E-04   -0.12331E-03  7683   0.561E-02    0.442E-02
RMM:   6    -0.361403440059E+03   -0.42449E-05   -0.46582E-04  7295   0.326E-02    0.223E-02
RMM:   7    -0.361403444441E+03   -0.43819E-05   -0.14386E-04  5209   0.169E-02    0.148E-02
RMM:   8    -0.361403448380E+03   -0.39392E-05   -0.67849E-05  4379   0.145E-02
  17 F= -.36140345E+03 E0= -.36141027E+03  d E =-.122780E-01
       N       E                     dE             d eps       ncg     rms          rms(c)
DAV:   1    -0.361409237916E+03   -0.57935E-02   -0.85437E-01  5040   0.279E+00    0.663E-01
RMM:   2    -0.361407913256E+03    0.13247E-02   -0.48137E-02  7207   0.588E-01    0.240E-01
RMM:   3    -0.361406917602E+03    0.99565E-03   -0.87270E-03  7443   0.179E-01    0.169E-01
RMM:   4    -0.361406218650E+03    0.69895E-03   -0.23104E-03  7535   0.922E-02    0.972E-02
RMM:   5    -0.361406130502E+03    0.88149E-04   -0.76400E-04  7362   0.521E-02    0.725E-02
RMM:   6    -0.361406116884E+03    0.13618E-04   -0.31055E-04  6964   0.290E-02    0.436E-02
RMM:   7    -0.361406108951E+03    0.79324E-05   -0.13048E-04  5812   0.215E-02    0.208E-02
RMM:   8    -0.361406107393E+03    0.15587E-05   -0.71002E-05  4899   0.153E-02
  18 F= -.36140611E+03 E0= -.36141315E+03  d E =-.265901E-02
       N       E                     dE             d eps       ncg     rms          rms(c)
DAV:   1    -0.361408164471E+03   -0.20555E-02   -0.46204E-01  5088   0.205E+00    0.482E-01
RMM:   2    -0.361407488316E+03    0.67616E-03   -0.25983E-02  7211   0.431E-01    0.173E-01
RMM:   3    -0.361406957002E+03    0.53131E-03   -0.46924E-03  7444   0.131E-01    0.122E-01
RMM:   4    -0.361406598168E+03    0.35883E-03   -0.12720E-03  7533   0.673E-02    0.708E-02
RMM:   5    -0.361406556983E+03    0.41185E-04   -0.42869E-04  7283   0.382E-02    0.536E-02
RMM:   6    -0.361406551453E+03    0.55299E-05   -0.17776E-04  6555   0.216E-02    0.333E-02
RMM:   7    -0.361406545988E+03    0.54652E-05   -0.72844E-05  4768   0.166E-02
  19 F= -.36140655E+03 E0= -.36141375E+03  d E =-.309761E-02
       N       E                     dE             d eps       ncg     rms          rms(c)
DAV:   1    -0.361407897632E+03   -0.13462E-02   -0.24441E-01  4880   0.143E+00    0.204E-01
RMM:   2    -0.361408229591E+03   -0.33196E-03   -0.93666E-03  7302   0.271E-01    0.940E-02
RMM:   3    -0.361408161168E+03    0.68423E-04   -0.13194E-03  7317   0.717E-02    0.607E-02
RMM:   4    -0.361408116344E+03    0.44824E-04   -0.39890E-04  7248   0.338E-02    0.393E-02
RMM:   5    -0.361408107499E+03    0.88453E-05   -0.15659E-04  6155   0.197E-02    0.245E-02
RMM:   6    -0.361408104429E+03    0.30699E-05   -0.58718E-05  4327   0.130E-02
  20 F= -.36140810E+03 E0= -.36141538E+03  d E =-.155844E-02
       N       E                     dE             d eps       ncg     rms          rms(c)
DAV:   1    -0.361408652556E+03   -0.54506E-03   -0.21980E+00  4816   0.430E+00    0.599E-01
RMM:   2    -0.361411413971E+03   -0.27614E-02   -0.81671E-02  7306   0.804E-01    0.266E-01
RMM:   3    -0.361410708678E+03    0.70529E-03   -0.10452E-02  7293   0.206E-01    0.164E-01
RMM:   4    -0.361410416122E+03    0.29256E-03   -0.32146E-03  7609   0.979E-02    0.107E-01
RMM:   5    -0.361410374967E+03    0.41155E-04   -0.12945E-03  7684   0.547E-02    0.689E-02
RMM:   6    -0.361410356353E+03    0.18614E-04   -0.49422E-04  7412   0.343E-02    0.430E-02
RMM:   7    -0.361410375423E+03   -0.19070E-04   -0.16694E-04  5383   0.214E-02    0.215E-02
RMM:   8    -0.361410389320E+03   -0.13896E-04   -0.10818E-04  5187   0.187E-02    0.115E-02
RMM:   9    -0.361410396726E+03   -0.74063E-05   -0.49862E-05  4524   0.145E-02
  21 F= -.36141040E+03 E0= -.36141786E+03  d E =-.385074E-02
       N       E                     dE             d eps       ncg     rms          rms(c)
DAV:   1    -0.361410391096E+03   -0.17768E-05   -0.25707E-02  5056   0.466E-01    0.632E-02
RMM:   2    -0.361410431973E+03   -0.40877E-04   -0.97500E-04  7275   0.874E-02    0.280E-02
RMM:   3    -0.361410429478E+03    0.24948E-05   -0.13423E-04  5909   0.236E-02    0.169E-02
RMM:   4    -0.361410430140E+03   -0.66217E-06   -0.54905E-05  4223   0.135E-02
  22 F= -.36141043E+03 E0= -.36141791E+03  d E =-.388415E-02
       N       E                     dE             d eps       ncg     rms          rms(c)
DAV:   1    -0.361411175464E+03   -0.74599E-03   -0.57979E-02  4920   0.714E-01    0.134E-01
RMM:   2    -0.361411147610E+03    0.27854E-04   -0.26340E-03  7301   0.140E-01    0.542E-02
RMM:   3    -0.361411117385E+03    0.30225E-04   -0.42451E-04  7248   0.385E-02    0.365E-02
RMM:   4    -0.361411087949E+03    0.29436E-04   -0.12653E-04  6406   0.201E-02    0.218E-02
RMM:   5    -0.361411086943E+03    0.10061E-05   -0.41312E-05  3688   0.114E-02
  23 F= -.36141109E+03 E0= -.36141860E+03  d E =-.656802E-03
       N       E                     dE             d eps       ncg     rms          rms(c)
DAV:   1    -0.361412952130E+03   -0.18642E-02   -0.52145E-01  4816   0.214E+00    0.408E-01
RMM:   2    -0.361412688943E+03    0.26319E-03   -0.24012E-02  7304   0.419E-01    0.164E-01
RMM:   3    -0.361412374841E+03    0.31410E-03   -0.39626E-03  7294   0.117E-01    0.110E-01
RMM:   4    -0.361412105998E+03    0.26884E-03   -0.12229E-03  7303   0.617E-02    0.646E-02
RMM:   5    -0.361412089792E+03    0.16207E-04   -0.47346E-04  7336   0.333E-02    0.468E-02
RMM:   6    -0.361412095442E+03   -0.56502E-05   -0.16765E-04  5856   0.208E-02    0.280E-02
RMM:   7    -0.361412107684E+03   -0.12242E-04   -0.86920E-05  4936   0.163E-02    0.117E-02
RMM:   8    -0.361412113718E+03   -0.60336E-05   -0.40938E-05  4365   0.137E-02
  24 F= -.36141211E+03 E0= -.36141973E+03  d E =-.168358E-02
       N       E                     dE             d eps       ncg     rms          rms(c)
DAV:   1    -0.361413273396E+03   -0.11657E-02   -0.87647E-02  5144   0.921E-01    0.255E-01
RMM:   2    -0.361412974555E+03    0.29884E-03   -0.56782E-03  7216   0.204E-01    0.893E-02
RMM:   3    -0.361412873703E+03    0.10085E-03   -0.11936E-03  7470   0.675E-02    0.639E-02
RMM:   4    -0.361412768271E+03    0.10543E-03   -0.33645E-04  7516   0.356E-02    0.373E-02
RMM:   5    -0.361412755379E+03    0.12892E-04   -0.12171E-04  6494   0.195E-02    0.279E-02
RMM:   6    -0.361412747508E+03    0.78712E-05   -0.39744E-05  3720   0.118E-02
  25 F= -.36141275E+03 E0= -.36142044E+03  d E =-.633790E-03
       N       E                     dE             d eps       ncg     rms          rms(c)
DAV:   1    -0.361414706906E+03   -0.19515E-02   -0.28371E-01  5040   0.166E+00    0.448E-01
RMM:   2    -0.361413694903E+03    0.10120E-02   -0.17669E-02  7159   0.361E-01    0.154E-01
RMM:   3    -0.361413361606E+03    0.33330E-03   -0.35042E-03  7441   0.120E-01    0.110E-01
RMM:   4    -0.361413043981E+03    0.31763E-03   -0.98766E-04  7536   0.618E-02    0.654E-02
RMM:   5    -0.361413012499E+03    0.31482E-04   -0.36877E-04  7231   0.334E-02    0.496E-02
RMM:   6    -0.361413003643E+03    0.88555E-05   -0.13529E-04  6531   0.198E-02    0.283E-02
RMM:   7    -0.361412998399E+03    0.52441E-05   -0.61660E-05  4592   0.154E-02
  26 F= -.36141300E+03 E0= -.36142085E+03  d E =-.884681E-03
       N       E                     dE             d eps       ncg     rms          rms(c)
DAV:   1    -0.361413069247E+03   -0.65604E-04   -0.71019E-03  5384   0.261E-01    0.759E-02
RMM:   2    -0.361413040022E+03    0.29226E-04   -0.47079E-04  7043   0.570E-02    0.291E-02
RMM:   3    -0.361413031410E+03    0.86114E-05   -0.10327E-04  5921   0.202E-02    0.205E-02
RMM:   4    -0.361413019948E+03    0.11462E-04   -0.23905E-05  2904   0.130E-02    0.128E-02
RMM:   5    -0.361413018774E+03    0.11747E-05   -0.89985E-06  2683   0.106E-02
  27 F= -.36141302E+03 E0= -.36142084E+03  d E =-.905056E-03
       N       E                     dE             d eps       ncg     rms          rms(c)
DAV:   1    -0.361413250043E+03   -0.23010E-03   -0.50321E-02  5120   0.697E-01    0.187E-01
RMM:   2    -0.361413067611E+03    0.18243E-03   -0.31369E-03  7171   0.153E-01    0.649E-02
RMM:   3    -0.361413013936E+03    0.53675E-04   -0.61310E-04  7432   0.502E-02    0.466E-02
RMM:   4    -0.361412960223E+03    0.53713E-04   -0.16954E-04  6976   0.258E-02    0.278E-02
RMM:   5    -0.361412958403E+03    0.18207E-05   -0.53005E-05  4817   0.147E-02
  28 F= -.36141296E+03 E0= -.36142072E+03  d E =-.844685E-03
       N       E                     dE             d eps       ncg     rms          rms(c)
DAV:   1    -0.361413171188E+03   -0.21096E-03   -0.22840E-02  5240   0.469E-01    0.135E-01
RMM:   2    -0.361413097063E+03    0.74125E-04   -0.14431E-03  6978   0.101E-01    0.471E-02
RMM:   3    -0.361413072320E+03    0.24743E-04   -0.29951E-04  7330   0.349E-02    0.319E-02
RMM:   4    -0.361413041672E+03    0.30648E-04   -0.72814E-05  6044   0.179E-02    0.175E-02
RMM:   5    -0.361413035882E+03    0.57897E-05   -0.20448E-05  2712   0.114E-02
  29 F= -.36141304E+03 E0= -.36142084E+03  d E =-.922164E-03
       N       E                     dE             d eps       ncg     rms          rms(c)
DAV:   1    -0.361413232474E+03   -0.19080E-03   -0.53980E-02  4960   0.655E-01    0.381E-02
RMM:   2    -0.361413355253E+03   -0.12278E-03   -0.14632E-03  6505   0.109E-01    0.214E-02
RMM:   3    -0.361413346093E+03    0.91604E-05   -0.14645E-04  5612   0.336E-02    0.167E-02
RMM:   4    -0.361413345391E+03    0.70217E-06   -0.52113E-05  4229   0.118E-02
  30 F= -.36141335E+03 E0= -.36142118E+03  d E =-.309509E-03
       N       E                     dE             d eps       ncg     rms          rms(c)
DAV:   1    -0.361413043932E+03    0.30216E-03   -0.48607E-01  4928   0.196E+00    0.111E-01
RMM:   2    -0.361414173855E+03   -0.11299E-02   -0.13086E-02  6573   0.327E-01    0.620E-02
RMM:   3    -0.361414132438E+03    0.41417E-04   -0.15594E-03  7127   0.943E-02    0.508E-02
RMM:   4    -0.361414123024E+03    0.94136E-05   -0.34336E-04  7591   0.265E-02    0.335E-02
RMM:   5    -0.361414122252E+03    0.77270E-06   -0.11865E-04  6324   0.194E-02    0.149E-02
RMM:   6    -0.361414121430E+03    0.82136E-06   -0.39763E-05  3869   0.127E-02
  31 F= -.36141412E+03 E0= -.36142205E+03  d E =-.108555E-02
       N       E                     dE             d eps       ncg     rms          rms(c)
DAV:   1    -0.361410668894E+03    0.34534E-02   -0.19450E+00  4928   0.393E+00    0.220E-01
RMM:   2    -0.361415162627E+03   -0.44937E-02   -0.52180E-02  6476   0.652E-01    0.120E-01
RMM:   3    -0.361414962879E+03    0.19975E-03   -0.59909E-03  7230   0.190E-01    0.985E-02
RMM:   4    -0.361414925348E+03    0.37530E-04   -0.12697E-03  8442   0.509E-02    0.654E-02
RMM:   5    -0.361414923938E+03    0.14102E-05   -0.46557E-04  7599   0.384E-02    0.321E-02
RMM:   6    -0.361414919287E+03    0.46518E-05   -0.18372E-04  6767   0.226E-02    0.138E-02
RMM:   7    -0.361414921124E+03   -0.18375E-05   -0.43578E-05  3910   0.132E-02
  32 F= -.36141492E+03 E0= -.36142302E+03  d E =-.188524E-02
       N       E                     dE             d eps       ncg     rms          rms(c)
DAV:   1    -0.361415282495E+03   -0.36321E-03   -0.19410E-01  4816   0.126E+00    0.157E-01
RMM:   2    -0.361415530049E+03   -0.24755E-03   -0.65485E-03  7299   0.229E-01    0.757E-02
RMM:   3    -0.361415480779E+03    0.49271E-04   -0.89775E-04  7264   0.593E-02    0.481E-02
RMM:   4    -0.361415460703E+03    0.20076E-04   -0.28436E-04  7127   0.283E-02    0.298E-02
RMM:   5    -0.361415458444E+03    0.22585E-05   -0.10208E-04  5468   0.162E-02    0.180E-02
RMM:   6    -0.361415459055E+03   -0.61054E-06   -0.41797E-05  3819   0.111E-02
  33 F= -.36141546E+03 E0= -.36142357E+03  d E =-.537931E-03
       N       E                     dE             d eps       ncg     rms          rms(c)
DAV:   1    -0.361415454060E+03    0.43841E-05   -0.15913E-01  4816   0.114E+00    0.142E-01
RMM:   2    -0.361415657572E+03   -0.20351E-03   -0.54048E-03  7301   0.207E-01    0.686E-02
RMM:   3    -0.361415619443E+03    0.38129E-04   -0.76358E-04  7217   0.541E-02    0.432E-02
RMM:   4    -0.361415607448E+03    0.11994E-04   -0.25409E-04  6948   0.265E-02    0.269E-02
RMM:   5    -0.361415606501E+03    0.94713E-06   -0.82830E-05  4477   0.149E-02
  34 F= -.36141561E+03 E0= -.36142372E+03  d E =-.685377E-03
       N       E                     dE             d eps       ncg     rms          rms(c)
DAV:   1    -0.361416398526E+03   -0.79108E-03   -0.12362E-01  5320   0.107E+00    0.279E-01
RMM:   2    -0.361416110990E+03    0.28754E-03   -0.70399E-03  7097   0.219E-01    0.968E-02
RMM:   3    -0.361415980687E+03    0.13030E-03   -0.15542E-03  7506   0.753E-02    0.671E-02
RMM:   4    -0.361415857459E+03    0.12323E-03   -0.40678E-04  7480   0.385E-02    0.382E-02
RMM:   5    -0.361415843409E+03    0.14050E-04   -0.13830E-04  6627   0.213E-02    0.289E-02
RMM:   6    -0.361415836510E+03    0.68993E-05   -0.41441E-05  3744   0.119E-02
  35 F= -.36141584E+03 E0= -.36142402E+03  d E =-.230009E-03
       N       E                     dE             d eps       ncg     rms          rms(c)
DAV:   1    -0.361415865035E+03   -0.21625E-04   -0.74350E-03  5424   0.261E-01    0.644E-02
RMM:   2    -0.361415849357E+03    0.15678E-04   -0.42663E-04  7047   0.544E-02    0.223E-02
RMM:   3    -0.361415837439E+03    0.11918E-04   -0.83725E-05  5938   0.184E-02    0.163E-02
RMM:   4    -0.361415829547E+03    0.78920E-05   -0.19496E-05  2967   0.122E-02
  36 F= -.36141583E+03 E0= -.36142403E+03  d E =-.223046E-03
       N       E                     dE             d eps       ncg     rms          rms(c)
DAV:   1    -0.361415963111E+03   -0.12567E-03   -0.21633E-02  4888   0.419E-01    0.491E-02
RMM:   2    -0.361415974883E+03   -0.11772E-04   -0.74810E-04  7147   0.780E-02    0.263E-02
RMM:   3    -0.361415966726E+03    0.81571E-05   -0.11071E-04  4881   0.221E-02    0.182E-02
RMM:   4    -0.361415959314E+03    0.74118E-05   -0.50262E-05  4173   0.133E-02
  37 F= -.36141596E+03 E0= -.36142419E+03  d E =-.129768E-03
       N       E                     dE             d eps       ncg     rms          rms(c)
DAV:   1    -0.361416077580E+03   -0.11085E-03   -0.19396E-01  4816   0.125E+00    0.145E-01
RMM:   2    -0.361416203506E+03   -0.12593E-03   -0.67269E-03  7228   0.232E-01    0.758E-02
RMM:   3    -0.361416173590E+03    0.29916E-04   -0.12534E-03  7144   0.649E-02    0.517E-02
RMM:   4    -0.361416117412E+03    0.56178E-04   -0.41973E-04  7370   0.340E-02    0.226E-02
RMM:   5    -0.361416120826E+03   -0.34146E-05   -0.15694E-04  5344   0.184E-02    0.119E-02
RMM:   6    -0.361416121846E+03   -0.10199E-05   -0.51087E-05  4256   0.123E-02
  38 F= -.36141612E+03 E0= -.36142443E+03  d E =-.292299E-03
       N       E                     dE             d eps       ncg     rms          rms(c)
DAV:   1    -0.361416570952E+03   -0.45013E-03   -0.48832E-02  5316   0.693E-01    0.217E-01
RMM:   2    -0.361416310673E+03    0.26028E-03   -0.36406E-03  7036   0.157E-01    0.701E-02
RMM:   3    -0.361416241407E+03    0.69266E-04   -0.83068E-04  7534   0.568E-02    0.486E-02
RMM:   4    -0.361416178847E+03    0.62560E-04   -0.20294E-04  6850   0.284E-02    0.283E-02
RMM:   5    -0.361416177548E+03    0.12991E-05   -0.63554E-05  4962   0.153E-02
  39 F= -.36141618E+03 E0= -.36142449E+03  d E =-.557014E-04
       N       E                     dE             d eps       ncg     rms          rms(c)
DAV:   1    -0.361416184069E+03   -0.52226E-05   -0.11835E-04  5792   0.327E-02    0.115E-02
RMM:   2    -0.361416187619E+03   -0.35500E-05   -0.19311E-05  2771   0.114E-02
  40 F= -.36141619E+03 E0= -.36142450E+03  d E =-.657730E-04
       N       E                     dE             d eps       ncg     rms          rms(c)
DAV:   1    -0.361416245778E+03   -0.61709E-04   -0.23284E-02  4880   0.435E-01    0.473E-02
RMM:   2    -0.361416289115E+03   -0.43337E-04   -0.85041E-04  7280   0.829E-02    0.253E-02
RMM:   3    -0.361416284370E+03    0.47455E-05   -0.92198E-05  4483   0.215E-02
  41 F= -.36141628E+03 E0= -.36142461E+03  d E =-.967507E-04
