       N       E                     dE             d eps       ncg     rms          rms(c)
DAV:   1     0.222708233804E+04    0.22271E+04   -0.12357E+05  5976   0.107E+03
DAV:   2    -0.505392195343E+02   -0.22776E+04   -0.21951E+04  6184   0.405E+02
DAV:   3    -0.336245659916E+03   -0.28571E+03   -0.27146E+03  9288   0.993E+01
DAV:   4    -0.369672976984E+03   -0.33427E+02   -0.32010E+02  9248   0.315E+01
DAV:   5    -0.373028954847E+03   -0.33560E+01   -0.33080E+01  8600   0.986E+00    0.631E+01
RMM:   6    -0.362628551158E+03    0.10400E+02   -0.27263E+01  7670   0.105E+01    0.294E+01
RMM:   7    -0.364850784793E+03   -0.22222E+01   -0.26461E+01  8017   0.819E+00    0.127E+01
RMM:   8    -0.358449865333E+03    0.64009E+01   -0.70860E+00  8064   0.410E+00    0.448E+00
RMM:   9    -0.358253233797E+03    0.19663E+00   -0.24752E+00  8145   0.196E+00    0.310E+00
RMM:  10    -0.358201524937E+03    0.51709E-01   -0.46844E-01  8139   0.109E+00    0.169E+00
RMM:  11    -0.358154469279E+03    0.47056E-01   -0.15168E-01  8067   0.615E-01    0.797E-01
RMM:  12    -0.358151604924E+03    0.28644E-02   -0.68501E-02  8171   0.375E-01    0.466E-01
RMM:  13    -0.358148527690E+03    0.30772E-02   -0.17368E-02  8225   0.205E-01    0.258E-01
RMM:  14    -0.358148513446E+03    0.14244E-04   -0.76042E-03  8460   0.105E-01    0.145E-01
RMM:  15    -0.358148663579E+03   -0.15013E-03   -0.32977E-03  8527   0.659E-02    0.670E-02
RMM:  16    -0.358148689459E+03   -0.25881E-04   -0.13262E-03  7362   0.373E-02    0.392E-02
RMM:  17    -0.358148689626E+03   -0.16685E-06   -0.55733E-04  6566   0.263E-02    0.181E-02
RMM:  18    -0.358148701827E+03   -0.12201E-04   -0.25665E-04  6100   0.188E-02    0.956E-03
RMM:  19    -0.358148705846E+03   -0.40190E-05   -0.10091E-04  5165   0.132E-02    0.539E-03
RMM:  20    -0.358148706702E+03   -0.85569E-06   -0.44369E-05  4542   0.107E-02
   1 F= -.35814871E+03 E0= -.35815573E+03  d E =-.358149E+03
       N       E                     dE             d eps       ncg     rms          rms(c)
DAV:   1    -0.358213824589E+03   -0.65119E-01   -0.26199E+00  6672   0.518E+00    0.183E+00
RMM:   2    -0.358194845377E+03    0.18979E-01   -0.28201E-01  7554   0.139E+00    0.614E-01
RMM:   3    -0.358185523981E+03    0.93214E-02   -0.53175E-02  8126   0.434E-01    0.424E-01
RMM:   4    -0.358181026650E+03    0.44973E-02   -0.13974E-02  8271   0.250E-01    0.252E-01
RMM:   5    -0.358180378324E+03    0.64833E-03   -0.41572E-03  8307   0.121E-01    0.199E-01
RMM:   6    -0.358180512553E+03   -0.13423E-03   -0.19108E-03  8522   0.704E-02    0.118E-01
RMM:   7    -0.358180619255E+03   -0.10670E-03   -0.81429E-04  8208   0.529E-02    0.603E-02
RMM:   8    -0.358180701774E+03   -0.82518E-04   -0.39987E-04  7435   0.288E-02    0.440E-02
RMM:   9    -0.358180746252E+03   -0.44478E-04   -0.15821E-04  5650   0.224E-02    0.362E-02
RMM:  10    -0.358180805929E+03   -0.59677E-04   -0.10245E-04  5595   0.173E-02    0.182E-02
RMM:  11    -0.358180834343E+03   -0.28415E-04   -0.63592E-05  4844   0.148E-02    0.696E-03
RMM:  12    -0.358180838785E+03   -0.44413E-05   -0.27578E-05  4372   0.128E-02
   2 F= -.35818084E+03 E0= -.35818782E+03  d E =-.321321E-01
       N       E                     dE             d eps       ncg     rms          rms(c)
DAV:   1    -0.358382386347E+03   -0.20155E+00   -0.13571E+01  6288   0.118E+01    0.425E+00
RMM:   2    -0.358281603238E+03    0.10078E+00   -0.14399E+00  7426   0.315E+00    0.139E+00
RMM:   3    -0.358234596829E+03    0.47006E-01   -0.27454E-01  8095   0.987E-01    0.966E-01
RMM:   4    -0.358210963990E+03    0.23633E-01   -0.71960E-02  8274   0.563E-01    0.582E-01
RMM:   5    -0.358207676498E+03    0.32875E-02   -0.21966E-02  8371   0.273E-01    0.462E-01
RMM:   6    -0.358208222653E+03   -0.54615E-03   -0.96182E-03  8622   0.161E-01    0.271E-01
RMM:   7    -0.358208684766E+03   -0.46211E-03   -0.44393E-03  8905   0.119E-01    0.140E-01
RMM:   8    -0.358209070929E+03   -0.38616E-03   -0.21410E-03  9139   0.648E-02    0.103E-01
RMM:   9    -0.358209256086E+03   -0.18516E-03   -0.75383E-04  8135   0.445E-02    0.845E-02
RMM:  10    -0.358209511122E+03   -0.25504E-03   -0.47448E-04  7819   0.341E-02    0.442E-02
RMM:  11    -0.358209615151E+03   -0.10403E-03   -0.30855E-04  6625   0.271E-02    0.178E-02
RMM:  12    -0.358209629228E+03   -0.14077E-04   -0.14876E-04  6400   0.193E-02    0.105E-02
RMM:  13    -0.358209633332E+03   -0.41037E-05   -0.41521E-05  5005   0.133E-02
   3 F= -.35820963E+03 E0= -.35821644E+03  d E =-.609266E-01
       N       E                     dE             d eps       ncg     rms          rms(c)
DAV:   1    -0.358229853105E+03   -0.20224E-01   -0.20479E+00  5680   0.395E+00    0.516E-01
RMM:   2    -0.358238561867E+03   -0.87088E-02   -0.10238E-01  7625   0.822E-01    0.324E-01
RMM:   3    -0.358234621302E+03    0.39406E-02   -0.11378E-02  7937   0.243E-01    0.191E-01
RMM:   4    -0.358234231900E+03    0.38940E-03   -0.26079E-03  8168   0.783E-02    0.122E-01
RMM:   5    -0.358234108126E+03    0.12377E-03   -0.96335E-04  8161   0.546E-02    0.779E-02
RMM:   6    -0.358234076877E+03    0.31249E-04   -0.43820E-04  8235   0.381E-02    0.430E-02
RMM:   7    -0.358234058073E+03    0.18804E-04   -0.17051E-04  6916   0.195E-02    0.278E-02
RMM:   8    -0.358234053404E+03    0.46693E-05   -0.63442E-05  5193   0.139E-02
   4 F= -.35823405E+03 E0= -.35824090E+03  d E =-.244201E-01
       N       E                     dE             d eps       ncg     rms          rms(c)
DAV:   1    -0.358244703783E+03   -0.10646E-01   -0.18452E+01  5488   0.119E+01    0.153E+00
RMM:   2    -0.358320637337E+03   -0.75934E-01   -0.91961E-01  7514   0.248E+00    0.927E-01
RMM:   3    -0.358289871513E+03    0.30766E-01   -0.10442E-01  8040   0.742E-01    0.581E-01
RMM:   4    -0.358286093879E+03    0.37776E-02   -0.23084E-02  8229   0.235E-01    0.369E-01
RMM:   5    -0.358285067197E+03    0.10267E-02   -0.86712E-03  8168   0.164E-01    0.238E-01
RMM:   6    -0.358284824448E+03    0.24275E-03   -0.39738E-03  8286   0.117E-01    0.130E-01
RMM:   7    -0.358284712399E+03    0.11205E-03   -0.16117E-03  9188   0.590E-02    0.852E-02
RMM:   8    -0.358284720690E+03   -0.82904E-05   -0.64611E-04  8203   0.333E-02    0.539E-02
RMM:   9    -0.358284733691E+03   -0.13002E-04   -0.28037E-04  7408   0.250E-02    0.333E-02
RMM:  10    -0.358284735613E+03   -0.19221E-05   -0.12173E-04  6249   0.181E-02    0.185E-02
RMM:  11    -0.358284735541E+03    0.71777E-07   -0.71004E-05  5413   0.149E-02
   5 F= -.35828474E+03 E0= -.35829164E+03  d E =-.751022E-01
       N       E                     dE             d eps       ncg     rms          rms(c)
DAV:   1    -0.358110805155E+03    0.17393E+00   -0.74141E+01  5568   0.239E+01    0.299E+00
RMM:   2    -0.358400211348E+03   -0.28941E+00   -0.37077E+00  7395   0.498E+00    0.169E+00
RMM:   3    -0.358307897672E+03    0.92314E-01   -0.42871E-01  8116   0.154E+00    0.119E+00
RMM:   4    -0.358290363666E+03    0.17534E-01   -0.90994E-02  8361   0.488E-01    0.747E-01
RMM:   5    -0.358286402432E+03    0.39612E-02   -0.35791E-02  8296   0.330E-01    0.488E-01
RMM:   6    -0.358285249836E+03    0.11526E-02   -0.16073E-02  8384   0.234E-01    0.265E-01
RMM:   7    -0.358284874212E+03    0.37562E-03   -0.67957E-03  9397   0.123E-01    0.170E-01
RMM:   8    -0.358284925835E+03   -0.51624E-04   -0.27497E-03  9401   0.705E-02    0.109E-01
RMM:   9    -0.358284996527E+03   -0.70691E-04   -0.11658E-03  8827   0.486E-02    0.698E-02
RMM:  10    -0.358285033076E+03   -0.36549E-04   -0.51311E-04  8104   0.332E-02    0.384E-02
RMM:  11    -0.358285047130E+03   -0.14054E-04   -0.26479E-04  7208   0.251E-02    0.249E-02
RMM:  12    -0.358285041205E+03    0.59251E-05   -0.11432E-04  6382   0.179E-02    0.132E-02
RMM:  13    -0.358285040289E+03    0.91576E-06   -0.47540E-05  5225   0.135E-02
   6 F= -.35828504E+03 E0= -.35829177E+03  d E =-.754070E-01
       N       E                     dE             d eps       ncg     rms          rms(c)
DAV:   1    -0.358266422537E+03    0.18619E-01   -0.18586E+01  5488   0.119E+01    0.155E+00
RMM:   2    -0.358339052439E+03   -0.72630E-01   -0.91839E-01  7632   0.245E+00    0.909E-01
RMM:   3    -0.358305818261E+03    0.33234E-01   -0.95912E-02  7957   0.703E-01    0.548E-01
RMM:   4    -0.358302670286E+03    0.31480E-02   -0.24148E-02  8337   0.240E-01    0.346E-01
RMM:   5    -0.358301663737E+03    0.10065E-02   -0.82968E-03  8323   0.163E-01    0.219E-01
RMM:   6    -0.358301692053E+03   -0.28317E-04   -0.38828E-03  8430   0.108E-01    0.135E-01
RMM:   7    -0.358301594418E+03    0.97635E-04   -0.14395E-03  9021   0.602E-02    0.845E-02
RMM:   8    -0.358301659063E+03   -0.64645E-04   -0.65563E-04  8230   0.339E-02    0.528E-02
RMM:   9    -0.358301694790E+03   -0.35726E-04   -0.26266E-04  7420   0.269E-02    0.300E-02
RMM:  10    -0.358301719600E+03   -0.24810E-04   -0.10471E-04  6088   0.173E-02    0.170E-02
RMM:  11    -0.358301730565E+03   -0.10966E-04   -0.64192E-05  5183   0.144E-02    0.117E-02
RMM:  12    -0.358301733558E+03   -0.29921E-05   -0.23951E-05  4092   0.119E-02
   7 F= -.35830173E+03 E0= -.35830858E+03  d E =-.921002E-01
       N       E                     dE             d eps       ncg     rms          rms(c)
DAV:   1    -0.358313537303E+03   -0.11807E-01   -0.83699E-01  5856   0.274E+00    0.615E-01
RMM:   2    -0.358314346172E+03   -0.80887E-03   -0.57190E-02  7037   0.624E-01    0.254E-01
RMM:   3    -0.358312665941E+03    0.16802E-02   -0.80475E-03  8050   0.198E-01    0.180E-01
RMM:   4    -0.358311944903E+03    0.72104E-03   -0.22811E-03  8249   0.846E-02    0.104E-01
RMM:   5    -0.358311768109E+03    0.17679E-03   -0.80651E-04  8205   0.536E-02    0.727E-02
RMM:   6    -0.358311753017E+03    0.15091E-04   -0.31136E-04  7699   0.300E-02    0.450E-02
RMM:   7    -0.358311741663E+03    0.11354E-04   -0.13899E-04  6707   0.209E-02    0.257E-02
RMM:   8    -0.358311736940E+03    0.47231E-05   -0.69588E-05  5216   0.142E-02
   8 F= -.35831174E+03 E0= -.35831862E+03  d E =-.100034E-01
       N       E                     dE             d eps       ncg     rms          rms(c)
DAV:   1    -0.358342020248E+03   -0.30279E-01   -0.75274E+00  5704   0.822E+00    0.181E+00
RMM:   2    -0.358349993779E+03   -0.79735E-02   -0.51042E-01  6982   0.186E+00    0.753E-01
RMM:   3    -0.358334591356E+03    0.15402E-01   -0.70841E-02  8039   0.589E-01    0.530E-01
RMM:   4    -0.358328398677E+03    0.61927E-02   -0.19951E-02  8255   0.250E-01    0.311E-01
RMM:   5    -0.358326877088E+03    0.15216E-02   -0.70662E-03  8279   0.157E-01    0.217E-01
RMM:   6    -0.358326857307E+03    0.19781E-04   -0.27957E-03  8421   0.887E-02    0.135E-01
RMM:   7    -0.358326855769E+03    0.15386E-05   -0.12968E-03  8720   0.607E-02    0.767E-02
RMM:   8    -0.358326876451E+03   -0.20683E-04   -0.61534E-04  7885   0.350E-02    0.488E-02
RMM:   9    -0.358326892709E+03   -0.16258E-04   -0.26349E-04  6863   0.258E-02    0.374E-02
RMM:  10    -0.358326907833E+03   -0.15124E-04   -0.11886E-04  5682   0.184E-02    0.215E-02
RMM:  11    -0.358326907072E+03    0.76114E-06   -0.77238E-05  5433   0.159E-02
   9 F= -.35832691E+03 E0= -.35833383E+03  d E =-.251735E-01
       N       E                     dE             d eps       ncg     rms          rms(c)
DAV:   1    -0.358339333863E+03   -0.12426E-01   -0.84038E-01  6080   0.283E+00    0.787E-01
RMM:   2    -0.358337452411E+03    0.18815E-02   -0.68371E-02  7092   0.684E-01    0.287E-01
RMM:   3    -0.358335723327E+03    0.17291E-02   -0.11582E-02  8079   0.220E-01    0.202E-01
RMM:   4    -0.358334720142E+03    0.10032E-02   -0.30514E-03  8272   0.106E-01    0.118E-01
RMM:   5    -0.358334573046E+03    0.14710E-03   -0.10423E-03  8170   0.597E-02    0.902E-02
RMM:   6    -0.358334599396E+03   -0.26350E-04   -0.42543E-04  7839   0.344E-02    0.544E-02
RMM:   7    -0.358334626450E+03   -0.27054E-04   -0.18409E-04  7066   0.251E-02    0.285E-02
RMM:   8    -0.358334645668E+03   -0.19218E-04   -0.87384E-05  5549   0.159E-02    0.187E-02
RMM:   9    -0.358334657488E+03   -0.11820E-04   -0.42445E-05  4471   0.129E-02    0.144E-02
RMM:  10    -0.358334671416E+03   -0.13928E-04   -0.25307E-05  4122   0.113E-02    0.796E-03
RMM:  11    -0.358334678898E+03   -0.74821E-05   -0.13229E-05  3594   0.107E-02
  10 F= -.35833468E+03 E0= -.35834152E+03  d E =-.777183E-02
       N       E                     dE             d eps       ncg     rms          rms(c)
DAV:   1    -0.358356747312E+03   -0.22076E-01   -0.27980E+00  5756   0.516E+00    0.144E+00
RMM:   2    -0.358350922304E+03    0.58250E-02   -0.22709E-01  6917   0.126E+00    0.521E-01
RMM:   3    -0.358345017994E+03    0.59043E-02   -0.36580E-02  7964   0.401E-01    0.364E-01
RMM:   4    -0.358341699037E+03    0.33190E-02   -0.96851E-03  8281   0.190E-01    0.215E-01
RMM:   5    -0.358341204311E+03    0.49473E-03   -0.31640E-03  8201   0.105E-01    0.165E-01
RMM:   6    -0.358341270146E+03   -0.65835E-04   -0.13671E-03  8570   0.609E-02    0.100E-01
RMM:   7    -0.358341345334E+03   -0.75189E-04   -0.62283E-04  8097   0.459E-02    0.524E-02
RMM:   8    -0.358341400076E+03   -0.54741E-04   -0.31265E-04  7151   0.262E-02    0.360E-02
RMM:   9    -0.358341429751E+03   -0.29675E-04   -0.12602E-04  5447   0.207E-02    0.298E-02
RMM:  10    -0.358341468171E+03   -0.38420E-04   -0.80319E-05  5360   0.152E-02    0.166E-02
RMM:  11    -0.358341491493E+03   -0.23322E-04   -0.45314E-05  4815   0.137E-02    0.693E-03
RMM:  12    -0.358341495195E+03   -0.37013E-05   -0.20559E-05  4169   0.124E-02
  11 F= -.35834150E+03 E0= -.35834817E+03  d E =-.145881E-01
       N       E                     dE             d eps       ncg     rms          rms(c)
DAV:   1    -0.358342389119E+03   -0.89763E-03   -0.12915E-01  6160   0.111E+00    0.308E-01
RMM:   2    -0.358342085005E+03    0.30411E-03   -0.10341E-02  6852   0.267E-01    0.111E-01
RMM:   3    -0.358341826024E+03    0.25898E-03   -0.17188E-03  7992   0.858E-02    0.757E-02
RMM:   4    -0.358341682545E+03    0.14348E-03   -0.45291E-04  8172   0.408E-02    0.446E-02
RMM:   5    -0.358341665676E+03    0.16869E-04   -0.14803E-04  7027   0.227E-02    0.340E-02
RMM:   6    -0.358341677252E+03   -0.11576E-04   -0.56599E-05  4956   0.135E-02    0.224E-02
RMM:   7    -0.358341687790E+03   -0.10539E-04   -0.26873E-05  3685   0.122E-02    0.119E-02
RMM:   8    -0.358341695440E+03   -0.76497E-05   -0.21482E-05  3577   0.113E-02
  12 F= -.35834170E+03 E0= -.35834833E+03  d E =-.147884E-01
       N       E                     dE             d eps       ncg     rms          rms(c)
DAV:   1    -0.358343307087E+03   -0.16193E-02   -0.47715E-01  5512   0.196E+00    0.165E-01
RMM:   2    -0.358344902551E+03   -0.15955E-02   -0.18675E-02  6907   0.381E-01    0.876E-02
RMM:   3    -0.358344718229E+03    0.18432E-03   -0.19790E-03  7979   0.114E-01    0.747E-02
RMM:   4    -0.358344677944E+03    0.40286E-04   -0.43349E-04  8478   0.294E-02    0.503E-02
RMM:   5    -0.358344670057E+03    0.78863E-05   -0.15492E-04  7071   0.214E-02    0.319E-02
RMM:   6    -0.358344659024E+03    0.11034E-04   -0.72606E-05  6901   0.183E-02    0.118E-02
RMM:   7    -0.358344657117E+03    0.19068E-05   -0.18414E-05  3443   0.970E-03
  13 F= -.35834466E+03 E0= -.35835129E+03  d E =-.296168E-02
       N       E                     dE             d eps       ncg     rms          rms(c)
DAV:   1    -0.358338801529E+03    0.58575E-02   -0.42946E+00  5488   0.588E+00    0.493E-01
RMM:   2    -0.358353139378E+03   -0.14338E-01   -0.16788E-01  6689   0.115E+00    0.256E-01
RMM:   3    -0.358351553254E+03    0.15861E-02   -0.17800E-02  7990   0.346E-01    0.224E-01
RMM:   4    -0.358351192188E+03    0.36107E-03   -0.37523E-03  9444   0.868E-02    0.150E-01
RMM:   5    -0.358351136175E+03    0.56013E-04   -0.13694E-03  8513   0.610E-02    0.977E-02
RMM:   6    -0.358351051410E+03    0.84765E-04   -0.69104E-04  8242   0.552E-02    0.358E-02
RMM:   7    -0.358351048229E+03    0.31810E-05   -0.24110E-04  7655   0.220E-02    0.255E-02
RMM:   8    -0.358351043180E+03    0.50491E-05   -0.60971E-05  5237   0.147E-02
  14 F= -.35835104E+03 E0= -.35835768E+03  d E =-.934774E-02
       N       E                     dE             d eps       ncg     rms          rms(c)
DAV:   1    -0.358302413685E+03    0.48635E-01   -0.17181E+01  5488   0.118E+01    0.999E-01
RMM:   2    -0.358360412890E+03   -0.57999E-01   -0.67619E-01  6642   0.231E+00    0.510E-01
RMM:   3    -0.358354701699E+03    0.57112E-02   -0.73037E-02  8027   0.704E-01    0.461E-01
RMM:   4    -0.358353210912E+03    0.14908E-02   -0.15223E-02  9502   0.176E-01    0.312E-01
RMM:   5    -0.358352960208E+03    0.25070E-03   -0.53333E-03  8638   0.124E-01    0.206E-01
RMM:   6    -0.358352604391E+03    0.35582E-03   -0.29085E-03  8197   0.117E-01    0.727E-02
RMM:   7    -0.358352604056E+03    0.33531E-06   -0.99295E-04  9515   0.447E-02    0.531E-02
RMM:   8    -0.358352594586E+03    0.94697E-05   -0.29421E-04  7655   0.263E-02    0.362E-02
RMM:   9    -0.358352601262E+03   -0.66763E-05   -0.17538E-04  7182   0.205E-02    0.222E-02
RMM:  10    -0.358352595769E+03    0.54936E-05   -0.62540E-05  5572   0.141E-02
  15 F= -.35835260E+03 E0= -.35835924E+03  d E =-.109003E-01
       N       E                     dE             d eps       ncg     rms          rms(c)
DAV:   1    -0.358345589587E+03    0.70117E-02   -0.30252E+00  5488   0.494E+00    0.404E-01
RMM:   2    -0.358355334288E+03   -0.97447E-02   -0.11602E-01  6587   0.953E-01    0.213E-01
RMM:   3    -0.358354101863E+03    0.12324E-02   -0.11725E-02  7986   0.289E-01    0.179E-01
RMM:   4    -0.358353843286E+03    0.25858E-03   -0.24713E-03  9233   0.713E-02    0.117E-01
RMM:   5    -0.358353805566E+03    0.37720E-04   -0.92049E-04  8508   0.512E-02    0.740E-02
RMM:   6    -0.358353770919E+03    0.34647E-04   -0.42988E-04  8468   0.422E-02    0.289E-02
RMM:   7    -0.358353774770E+03   -0.38513E-05   -0.14474E-04  6863   0.178E-02    0.204E-02
RMM:   8    -0.358353776819E+03   -0.20485E-05   -0.34885E-05  4311   0.136E-02
  16 F= -.35835378E+03 E0= -.35836041E+03  d E =-.120814E-01
       N       E                     dE             d eps       ncg     rms          rms(c)
DAV:   1    -0.358355147810E+03   -0.13730E-02   -0.72429E-01  5496   0.244E+00    0.202E-01
RMM:   2    -0.358357419791E+03   -0.22720E-02   -0.29960E-02  7037   0.487E-01    0.111E-01
RMM:   3    -0.358357139446E+03    0.28034E-03   -0.28376E-03  7975   0.139E-01    0.786E-02
RMM:   4    -0.358357109049E+03    0.30397E-04   -0.63857E-04  9125   0.371E-02    0.519E-02
RMM:   5    -0.358357102839E+03    0.62094E-05   -0.24882E-04  7495   0.250E-02    0.317E-02
RMM:   6    -0.358357100543E+03    0.22962E-05   -0.10481E-04  7127   0.196E-02    0.137E-02
RMM:   7    -0.358357100591E+03   -0.48254E-07   -0.31756E-05  4070   0.113E-02
  17 F= -.35835710E+03 E0= -.35836381E+03  d E =-.332377E-02
       N       E                     dE             d eps       ncg     rms          rms(c)
DAV:   1    -0.358353380006E+03    0.37205E-02   -0.22248E+00  5488   0.428E+00    0.356E-01
RMM:   2    -0.358360403392E+03   -0.70234E-02   -0.92675E-02  7180   0.853E-01    0.195E-01
RMM:   3    -0.358359626270E+03    0.77712E-03   -0.91422E-03  8006   0.241E-01    0.138E-01
RMM:   4    -0.358359536896E+03    0.89374E-04   -0.20902E-03  9351   0.668E-02    0.908E-02
RMM:   5    -0.358359524051E+03    0.12845E-04   -0.83655E-04  8675   0.443E-02    0.552E-02
RMM:   6    -0.358359513879E+03    0.10172E-04   -0.34774E-04  8395   0.330E-02    0.245E-02
RMM:   7    -0.358359513931E+03   -0.51910E-07   -0.12198E-04  6300   0.171E-02    0.147E-02
RMM:   8    -0.358359517690E+03   -0.37590E-05   -0.48032E-05  4630   0.134E-02
  18 F= -.35835952E+03 E0= -.35836637E+03  d E =-.574087E-02
       N       E                     dE             d eps       ncg     rms          rms(c)
DAV:   1    -0.358361165696E+03   -0.16518E-02   -0.31384E-01  5888   0.166E+00    0.359E-01
RMM:   2    -0.358361177600E+03   -0.11903E-04   -0.17838E-02  6969   0.359E-01    0.142E-01
RMM:   3    -0.358360755357E+03    0.42224E-03   -0.26769E-03  7985   0.117E-01    0.983E-02
RMM:   4    -0.358360534216E+03    0.22114E-03   -0.74979E-04  8195   0.502E-02    0.581E-02
RMM:   5    -0.358360480607E+03    0.53608E-04   -0.27051E-04  7903   0.297E-02    0.419E-02
RMM:   6    -0.358360471188E+03    0.94193E-05   -0.98425E-05  6921   0.168E-02
  19 F= -.35836047E+03 E0= -.35836731E+03  d E =-.953498E-03
       N       E                     dE             d eps       ncg     rms          rms(c)
DAV:   1    -0.358361709305E+03   -0.12287E-02   -0.45257E-01  5776   0.199E+00    0.423E-01
RMM:   2    -0.358361707188E+03    0.21170E-05   -0.25442E-02  6961   0.429E-01    0.167E-01
RMM:   3    -0.358361089810E+03    0.61738E-03   -0.37377E-03  7958   0.140E-01    0.114E-01
RMM:   4    -0.358360795084E+03    0.29473E-03   -0.10677E-03  8221   0.596E-02    0.698E-02
RMM:   5    -0.358360725139E+03    0.69945E-04   -0.39407E-04  8307   0.354E-02    0.512E-02
RMM:   6    -0.358360718965E+03    0.61734E-05   -0.14844E-04  7057   0.202E-02    0.312E-02
RMM:   7    -0.358360712449E+03    0.65160E-05   -0.71684E-05  5856   0.155E-02
  20 F= -.35836071E+03 E0= -.35836753E+03  d E =-.119476E-02
       N       E                     dE             d eps       ncg     rms          rms(c)
DAV:   1    -0.358361054521E+03   -0.33556E-03   -0.54163E-02  6032   0.665E-01    0.970E-02
RMM:   2    -0.358361156586E+03   -0.10207E-03   -0.24613E-03  7823   0.135E-01    0.478E-02
RMM:   3    -0.358361123070E+03    0.33516E-04   -0.31151E-04  7775   0.397E-02    0.362E-02
RMM:   4    -0.358361104707E+03    0.18362E-04   -0.92696E-05  6435   0.163E-02    0.219E-02
RMM:   5    -0.358361099911E+03    0.47963E-05   -0.35739E-05  4497   0.112E-02
  21 F= -.35836110E+03 E0= -.35836789E+03  d E =-.387462E-03
       N       E                     dE             d eps       ncg     rms          rms(c)
DAV:   1    -0.358361377997E+03   -0.27329E-03   -0.48584E-01  5496   0.200E+00    0.270E-01
RMM:   2    -0.358362367636E+03   -0.98964E-03   -0.21197E-02  7616   0.396E-01    0.126E-01
RMM:   3    -0.358362006558E+03    0.36108E-03   -0.22116E-03  7772   0.113E-01    0.945E-02
RMM:   4    -0.358361881899E+03    0.12466E-03   -0.64681E-04  8250   0.421E-02    0.578E-02
RMM:   5    -0.358361859835E+03    0.22064E-04   -0.27950E-04  8210   0.293E-02    0.391E-02
RMM:   6    -0.358361860953E+03   -0.11176E-05   -0.11085E-04  6612   0.189E-02    0.227E-02
RMM:   7    -0.358361865850E+03   -0.48971E-05   -0.46409E-05  4479   0.129E-02
  22 F= -.35836187E+03 E0= -.35836857E+03  d E =-.115340E-02
       N       E                     dE             d eps       ncg     rms          rms(c)
DAV:   1    -0.358359561528E+03    0.22994E-02   -0.19450E+00  5488   0.399E+00    0.544E-01
RMM:   2    -0.358363490794E+03   -0.39293E-02   -0.84755E-02  7573   0.792E-01    0.248E-01
RMM:   3    -0.358362044240E+03    0.14466E-02   -0.86614E-03  7740   0.227E-01    0.186E-01
RMM:   4    -0.358361540434E+03    0.50381E-03   -0.25549E-03  8342   0.834E-02    0.113E-01
RMM:   5    -0.358361446625E+03    0.93809E-04   -0.10759E-03  8622   0.579E-02    0.759E-02
RMM:   6    -0.358361444101E+03    0.25243E-05   -0.43217E-04  8629   0.365E-02    0.443E-02
RMM:   7    -0.358361457309E+03   -0.13208E-04   -0.17803E-04  6971   0.215E-02    0.288E-02
RMM:   8    -0.358361469759E+03   -0.12450E-04   -0.80018E-05  5670   0.159E-02    0.176E-02
RMM:   9    -0.358361478986E+03   -0.92271E-05   -0.34643E-05  4531   0.125E-02
  23 F= -.35836148E+03 E0= -.35836797E+03  d E =-.766537E-03
       N       E                     dE             d eps       ncg     rms          rms(c)
DAV:   1    -0.358361359435E+03    0.11032E-03   -0.74934E-01  5488   0.248E+00    0.338E-01
RMM:   2    -0.358362953249E+03   -0.15938E-02   -0.32860E-02  7483   0.493E-01    0.154E-01
RMM:   3    -0.358362355034E+03    0.59822E-03   -0.33253E-03  7671   0.145E-01    0.119E-01
RMM:   4    -0.358362135088E+03    0.21995E-03   -0.94578E-04  8099   0.518E-02    0.733E-02
RMM:   5    -0.358362078187E+03    0.56901E-04   -0.38334E-04  8173   0.353E-02    0.491E-02
RMM:   6    -0.358362056110E+03    0.22077E-04   -0.15326E-04  7439   0.230E-02    0.274E-02
RMM:   7    -0.358362049434E+03    0.66762E-05   -0.63828E-05  5510   0.140E-02
  24 F= -.35836205E+03 E0= -.35836866E+03  d E =-.133698E-02
       N       E                     dE             d eps       ncg     rms          rms(c)
DAV:   1    -0.358362040598E+03    0.15512E-04   -0.55166E-03  5808   0.213E-01    0.276E-02
RMM:   2    -0.358362053049E+03   -0.12450E-04   -0.26226E-04  7561   0.433E-02    0.150E-02
RMM:   3    -0.358362047063E+03    0.59862E-05   -0.28013E-05  3860   0.133E-02
  25 F= -.35836205E+03 E0= -.35836868E+03  d E =-.133461E-02
       N       E                     dE             d eps       ncg     rms          rms(c)
DAV:   1    -0.358362241596E+03   -0.18855E-03   -0.18692E-02  5600   0.390E-01    0.431E-02
RMM:   2    -0.358362282604E+03   -0.41008E-04   -0.71154E-04  7794   0.761E-02    0.220E-02
RMM:   3    -0.358362275877E+03    0.67269E-05   -0.75616E-05  5686   0.211E-02
  26 F= -.35836228E+03 E0= -.35836890E+03  d E =-.228815E-03
       N       E                     dE             d eps       ncg     rms          rms(c)
DAV:   1    -0.358362501436E+03   -0.21883E-03   -0.16822E-01  5496   0.116E+00    0.125E-01
RMM:   2    -0.358362874589E+03   -0.37315E-03   -0.64885E-03  7927   0.228E-01    0.676E-02
RMM:   3    -0.358362815880E+03    0.58709E-04   -0.74017E-04  7976   0.597E-02    0.475E-02
RMM:   4    -0.358362794898E+03    0.20982E-04   -0.20845E-04  7706   0.243E-02    0.274E-02
RMM:   5    -0.358362792359E+03    0.25390E-05   -0.91066E-05  6216   0.152E-02
  27 F= -.35836279E+03 E0= -.35836941E+03  d E =-.745297E-03
       N       E                     dE             d eps       ncg     rms          rms(c)
DAV:   1    -0.358361834639E+03    0.96026E-03   -0.67295E-01  5496   0.233E+00    0.240E-01
RMM:   2    -0.358363401629E+03   -0.15670E-02   -0.25387E-02  7909   0.455E-01    0.129E-01
RMM:   3    -0.358363192738E+03    0.20889E-03   -0.28276E-03  8008   0.120E-01    0.926E-02
RMM:   4    -0.358363103856E+03    0.88881E-04   -0.75886E-04  8848   0.459E-02    0.546E-02
RMM:   5    -0.358363093086E+03    0.10770E-04   -0.36348E-04  8221   0.317E-02    0.344E-02
RMM:   6    -0.358363088823E+03    0.42638E-05   -0.12311E-04  6744   0.194E-02    0.182E-02
RMM:   7    -0.358363092525E+03   -0.37028E-05   -0.46358E-05  4831   0.136E-02
  28 F= -.35836309E+03 E0= -.35836971E+03  d E =-.104546E-02
       N       E                     dE             d eps       ncg     rms          rms(c)
DAV:   1    -0.358364252869E+03   -0.11640E-02   -0.13724E-01  6264   0.115E+00    0.334E-01
RMM:   2    -0.358363895672E+03    0.35720E-03   -0.10751E-02  7409   0.273E-01    0.121E-01
RMM:   3    -0.358363578294E+03    0.31738E-03   -0.20600E-03  8185   0.889E-02    0.908E-02
RMM:   4    -0.358363355058E+03    0.22324E-03   -0.55947E-04  8174   0.448E-02    0.502E-02
RMM:   5    -0.358363311075E+03    0.43982E-04   -0.19454E-04  7389   0.283E-02    0.364E-02
RMM:   6    -0.358363303707E+03    0.73681E-05   -0.78248E-05  5728   0.151E-02
  29 F= -.35836330E+03 E0= -.35836994E+03  d E =-.211182E-03
       N       E                     dE             d eps       ncg     rms          rms(c)
DAV:   1    -0.358363306780E+03    0.42953E-05   -0.23130E-03  6440   0.152E-01    0.373E-02
RMM:   2    -0.358363303821E+03    0.29594E-05   -0.18689E-04  6874   0.363E-02    0.161E-02
RMM:   3    -0.358363293697E+03    0.10124E-04   -0.20447E-05  3491   0.119E-02    0.124E-02
RMM:   4    -0.358363290106E+03    0.35901E-05   -0.91080E-06  3017   0.103E-02
  30 F= -.35836329E+03 E0= -.35836993E+03  d E =-.197581E-03
       N       E                     dE             d eps       ncg     rms          rms(c)
DAV:   1    -0.358363410644E+03   -0.11695E-03   -0.31956E-02  5520   0.513E-01    0.575E-02
RMM:   2    -0.358363475242E+03   -0.64599E-04   -0.12864E-03  7944   0.101E-01    0.314E-02
RMM:   3    -0.358363466016E+03    0.92266E-05   -0.15060E-04  7091   0.276E-02    0.222E-02
RMM:   4    -0.358363458983E+03    0.70332E-05   -0.47037E-05  5015   0.129E-02
  31 F= -.35836346E+03 E0= -.35837009E+03  d E =-.168876E-03
       N       E                     dE             d eps       ncg     rms          rms(c)
DAV:   1    -0.358363166432E+03    0.29958E-03   -0.28623E-01  5488   0.153E+00    0.166E-01
RMM:   2    -0.358363757869E+03   -0.59144E-03   -0.11361E-02  7943   0.302E-01    0.880E-02
RMM:   3    -0.358363695395E+03    0.62474E-04   -0.13276E-03  7994   0.807E-02    0.626E-02
RMM:   4    -0.358363641925E+03    0.53470E-04   -0.39579E-04  8472   0.332E-02    0.359E-02
RMM:   5    -0.358363640968E+03    0.95725E-06   -0.17115E-04  6796   0.223E-02    0.220E-02
RMM:   6    -0.358363639151E+03    0.18164E-05   -0.65757E-05  5101   0.139E-02
  32 F= -.35836364E+03 E0= -.35837020E+03  d E =-.349045E-03
       N       E                     dE             d eps       ncg     rms          rms(c)
DAV:   1    -0.358363644685E+03   -0.37171E-05   -0.39448E-03  5824   0.181E-01    0.213E-02
RMM:   2    -0.358363655604E+03   -0.10920E-04   -0.15961E-04  6621   0.359E-02    0.107E-02
RMM:   3    -0.358363652478E+03    0.31263E-05   -0.10120E-05  3108   0.118E-02
  33 F= -.35836365E+03 E0= -.35837022E+03  d E =-.362372E-03
       N       E                     dE             d eps       ncg     rms          rms(c)
DAV:   1    -0.358363617454E+03    0.38150E-04   -0.44687E-02  5496   0.616E-01    0.548E-02
RMM:   2    -0.358363745037E+03   -0.12758E-03   -0.17974E-03  7102   0.121E-01    0.262E-02
RMM:   3    -0.358363733134E+03    0.11904E-04   -0.15893E-04  7129   0.350E-02    0.197E-02
RMM:   4    -0.358363730427E+03    0.27062E-05   -0.37555E-05  4394   0.110E-02
  34 F= -.35836373E+03 E0= -.35837031E+03  d E =-.779493E-04
       N       E                     dE             d eps       ncg     rms          rms(c)
DAV:   1    -0.358363674917E+03    0.58217E-04   -0.34762E-02  5496   0.541E-01    0.481E-02
RMM:   2    -0.358363780662E+03   -0.10575E-03   -0.14427E-03  7613   0.108E-01    0.283E-02
RMM:   3    -0.358363774602E+03    0.60601E-05   -0.16559E-04  6959   0.298E-02    0.215E-02
RMM:   4    -0.358363771238E+03    0.33642E-05   -0.40353E-05  4369   0.111E-02
  35 F= -.35836377E+03 E0= -.35837036E+03  d E =-.118760E-03
       N       E                     dE             d eps       ncg     rms          rms(c)
DAV:   1    -0.358363390136E+03    0.38447E-03   -0.13906E-01  5488   0.108E+00    0.945E-02
RMM:   2    -0.358363796795E+03   -0.40666E-03   -0.56106E-03  7535   0.214E-01    0.505E-02
RMM:   3    -0.358363777476E+03    0.19320E-04   -0.59032E-04  7877   0.586E-02    0.375E-02
RMM:   4    -0.358363770082E+03    0.73937E-05   -0.14942E-04  6782   0.184E-02    0.248E-02
RMM:   5    -0.358363770644E+03   -0.56175E-06   -0.57808E-05  5221   0.119E-02
  36 F= -.35836377E+03 E0= -.35837037E+03  d E =-.118166E-03
       N       E                     dE             d eps       ncg     rms          rms(c)
DAV:   1    -0.358363678098E+03    0.91984E-04   -0.45282E-02  5488   0.620E-01    0.553E-02
RMM:   2    -0.358363814822E+03   -0.13672E-03   -0.18200E-03  6772   0.122E-01    0.252E-02
RMM:   3    -0.358363797167E+03    0.17656E-04   -0.14144E-04  7068   0.361E-02    0.201E-02
RMM:   4    -0.358363793146E+03    0.40205E-05   -0.31386E-05  4129   0.102E-02
  37 F= -.35836379E+03 E0= -.35837038E+03  d E =-.140668E-03
       N       E                     dE             d eps       ncg     rms          rms(c)
DAV:   1    -0.358363915814E+03   -0.11865E-03   -0.42150E-02  5744   0.615E-01    0.126E-01
RMM:   2    -0.358363944239E+03   -0.28425E-04   -0.25880E-03  6713   0.135E-01    0.494E-02
RMM:   3    -0.358363885058E+03    0.59181E-04   -0.32170E-04  7856   0.428E-02    0.353E-02
RMM:   4    -0.358363853272E+03    0.31786E-04   -0.82221E-05  6169   0.174E-02    0.205E-02
RMM:   5    -0.358363844935E+03    0.83372E-05   -0.22424E-05  3397   0.127E-02
  38 F= -.35836384E+03 E0= -.35837045E+03  d E =-.517887E-04
