<?xml version="1.0" encoding="ISO-8859-1"?>
<modeling>
 <generator>
  <i name="program" type="string">vasp </i>
  <i name="version" type="string">5.4.1  </i>
  <i name="subversion" type="string">05Feb16 (build Jan 29 2020 16:04:39) complex                          parallel </i>
  <i name="platform" type="string">IFC91_ompi </i>
  <i name="date" type="string">2020 06 15 </i>
  <i name="time" type="string">02:35:28 </i>
 </generator>
 <incar>
  <i type="string" name="SYSTEM"> automatically generated by mexm</i>
  <i type="int" name="ISTART">     0</i>
  <i type="string" name="PREC">accurate               ! avoid wrap aro</i>
  <i type="string" name="ALGO"> Fast                   ! blocked Davids</i>
  <i type="int" name="ISPIN">     1</i>
  <i type="int" name="ICHARG">     2</i>
  <i type="int" name="NELM">    70</i>
  <i type="int" name="IBRION">     2</i>
  <i name="EDIFF">      0.00001000</i>
  <i name="EDIFFG">     -0.01000000</i>
  <i type="int" name="NSW">   300</i>
  <i type="int" name="ISIF">     3</i>
  <i type="int" name="ISYM">     1</i>
  <i name="ENCUT">    300.00000000</i>
  <i name="POTIM">      0.15000000</i>
  <i type="string" name="LREAL"> Auto                  ! unpublished met</i>
  <i type="int" name="ISMEAR">     1</i>
  <i name="SIGMA">      0.15000000</i>
  <i type="logical" name="LWAVE"> F  </i>
  <i type="logical" name="LCHARG"> F  </i>
  <i type="logical" name="LVTOT"> F  </i>
  <v type="int" name="KPOINT_BSE">    -1     0     0     0</v>
  <i type="int" name="NELM">    70</i>
 </incar>
 <kpoints>
  <generation param="Gamma">
   <v type="int" name="divisions">       3        3        3 </v>
   <v name="usershift">      0.00000000       0.00000000       0.00000000 </v>
   <v name="genvec1">      0.33333333      -0.00000000      -0.00000000 </v>
   <v name="genvec2">      0.00000000       0.33333333       0.00000000 </v>
   <v name="genvec3">      0.00000000       0.00000000       0.33333333 </v>
   <v name="shift">      0.00000000       0.00000000       0.00000000 </v>
  </generation>
  <varray name="kpointlist" >
   <v>       0.00000000       0.00000000       0.00000000 </v>
   <v>       0.33333333      -0.00000000       0.00000000 </v>
   <v>       0.00000000       0.33333333       0.00000000 </v>
   <v>       0.33333333       0.33333333      -0.00000000 </v>
   <v>      -0.33333333       0.33333333       0.00000000 </v>
   <v>       0.00000000      -0.00000000       0.33333333 </v>
   <v>       0.33333333      -0.00000000       0.33333333 </v>
   <v>      -0.33333333      -0.00000000       0.33333333 </v>
   <v>       0.00000000       0.33333333       0.33333333 </v>
   <v>       0.33333333       0.33333333       0.33333333 </v>
   <v>      -0.33333333       0.33333333       0.33333333 </v>
   <v>       0.00000000      -0.33333333       0.33333333 </v>
   <v>       0.33333333      -0.33333333       0.33333333 </v>
   <v>      -0.33333333      -0.33333333       0.33333333 </v>
  </varray>
  <varray name="weights" >
   <v>       0.03703704 </v>
   <v>       0.07407407 </v>
   <v>       0.07407407 </v>
   <v>       0.07407407 </v>
   <v>       0.07407407 </v>
   <v>       0.07407407 </v>
   <v>       0.07407407 </v>
   <v>       0.07407407 </v>
   <v>       0.07407407 </v>
   <v>       0.07407407 </v>
   <v>       0.07407407 </v>
   <v>       0.07407407 </v>
   <v>       0.07407407 </v>
   <v>       0.07407407 </v>
  </varray>
 </kpoints>
 <parameters>
  <separator name="general" >
   <i type="string" name="SYSTEM">automatically generated by mexm</i>
   <i type="logical" name="LCOMPAT"> F  </i>
  </separator>
  <separator name="electronic" >
   <i type="string" name="PREC">accura</i>
   <i name="ENMAX">    300.00000000</i>
   <i name="ENAUG">    461.25700000</i>
   <i name="EDIFF">      0.00001000</i>
   <i type="int" name="IALGO">    68</i>
   <i type="int" name="IWAVPR">    11</i>
   <i type="int" name="NBANDS">   196</i>
   <i name="NELECT">    322.00000000</i>
   <i type="int" name="TURBO">     0</i>
   <i type="int" name="IRESTART">     0</i>
   <i type="int" name="NREBOOT">     0</i>
   <i type="int" name="NMIN">     0</i>
   <i name="EREF">      0.00000000</i>
   <separator name="electronic smearing" >
    <i type="int" name="ISMEAR">     1</i>
    <i name="SIGMA">      0.15000000</i>
    <i name="KSPACING">      0.50000000</i>
    <i type="logical" name="KGAMMA"> T  </i>
   </separator>
   <separator name="electronic projectors" >
    <i type="logical" name="LREAL"> T  </i>
    <v name="ROPT">     -0.00025000     -0.00025000     -0.00025000     -0.00025000</v>
    <i type="int" name="LMAXPAW">  -100</i>
    <i type="int" name="LMAXMIX">     2</i>
    <i type="logical" name="NLSPLINE"> F  </i>
   </separator>
   <separator name="electronic startup" >
    <i type="int" name="ISTART">     0</i>
    <i type="int" name="ICHARG">     2</i>
    <i type="int" name="INIWAV">     1</i>
   </separator>
   <separator name="electronic spin" >
    <i type="int" name="ISPIN">     1</i>
    <i type="logical" name="LNONCOLLINEAR"> F  </i>
    <v name="MAGMOM">      1.00000000      1.00000000      1.00000000      1.00000000      1.00000000      1.00000000      1.00000000      1.00000000      1.00000000      1.00000000      1.00000000      1.00000000      1.00000000      1.00000000      1.00000000      1.00000000      1.00000000      1.00000000      1.00000000      1.00000000
      1.00000000      1.00000000      1.00000000      1.00000000      1.00000000      1.00000000      1.00000000      1.00000000      1.00000000      1.00000000      1.00000000      1.00000000      1.00000000      1.00000000      1.00000000      1.00000000</v>
    <i name="NUPDOWN">     -1.00000000</i>
    <i type="logical" name="LSORBIT"> F  </i>
    <v name="SAXIS">      0.00000000      0.00000000      1.00000000</v>
    <i type="logical" name="LSPIRAL"> F  </i>
    <v name="QSPIRAL">      0.00000000      0.00000000      0.00000000</v>
    <i type="logical" name="LZEROZ"> F  </i>
   </separator>
   <separator name="electronic exchange-correlation" >
    <i type="logical" name="LASPH"> F  </i>
    <i type="logical" name="LMETAGGA"> F  </i>
   </separator>
   <separator name="electronic convergence" >
    <i type="int" name="NELM">    70</i>
    <i type="int" name="NELMDL">    -5</i>
    <i type="int" name="NELMIN">     2</i>
    <i name="ENINI">    300.00000000</i>
    <separator name="electronic convergence detail" >
     <i type="logical" name="LDIAG"> T  </i>
     <i type="logical" name="LSUBROT"> F  </i>
     <i name="WEIMIN">      0.00100000</i>
     <i name="EBREAK">      0.00000001</i>
     <i name="DEPER">      0.30000000</i>
     <i type="int" name="NRMM">     4</i>
     <i name="TIME">      0.40000000</i>
    </separator>
   </separator>
   <separator name="electronic mixer" >
    <i name="AMIX">      0.40000000</i>
    <i name="BMIX">      1.00000000</i>
    <i name="AMIN">      0.10000000</i>
    <i name="AMIX_MAG">      1.60000000</i>
    <i name="BMIX_MAG">      1.00000000</i>
    <separator name="electronic mixer details" >
     <i type="int" name="IMIX">     4</i>
     <i type="logical" name="MIXFIRST"> F  </i>
     <i type="int" name="MAXMIX">   -45</i>
     <i name="WC">    100.00000000</i>
     <i type="int" name="INIMIX">     1</i>
     <i type="int" name="MIXPRE">     1</i>
     <i type="int" name="MREMOVE">     5</i>
    </separator>
   </separator>
   <separator name="electronic dipolcorrection" >
    <i type="logical" name="LDIPOL"> F  </i>
    <i type="logical" name="LMONO"> F  </i>
    <i type="int" name="IDIPOL">     0</i>
    <i name="EPSILON">      1.00000000</i>
    <v name="DIPOL">   -100.00000000   -100.00000000   -100.00000000</v>
    <i name="EFIELD">      0.00000000</i>
   </separator>
  </separator>
  <separator name="grids" >
   <i type="int" name="NGX">    40</i>
   <i type="int" name="NGY">    60</i>
   <i type="int" name="NGZ">    60</i>
   <i type="int" name="NGXF">    80</i>
   <i type="int" name="NGYF">   120</i>
   <i type="int" name="NGZF">   120</i>
   <i type="logical" name="ADDGRID"> F  </i>
  </separator>
  <separator name="ionic" >
   <i type="int" name="NSW">   300</i>
   <i type="int" name="IBRION">     2</i>
   <i type="int" name="ISIF">     3</i>
   <i name="PSTRESS">      0.00000000</i>
   <i name="EDIFFG">     -0.01000000</i>
   <i type="int" name="NFREE">     1</i>
   <i name="POTIM">      0.15000000</i>
   <i name="SMASS">     -3.00000000</i>
   <i name="SCALEE">      1.00000000</i>
  </separator>
  <separator name="ionic md" >
   <i name="TEBEG">      0.00010000</i>
   <i name="TEEND">      0.00010000</i>
   <i type="int" name="NBLOCK">     1</i>
   <i type="int" name="KBLOCK">   300</i>
   <i type="int" name="NPACO">   256</i>
   <i name="APACO">     16.00000000</i>
  </separator>
  <separator name="symmetry" >
   <i type="int" name="ISYM">     1</i>
   <i name="SYMPREC">      0.00001000</i>
  </separator>
  <separator name="dos" >
   <i type="logical" name="LORBIT"> F  </i>
   <v name="RWIGS">     -1.00000000     -1.00000000     -1.00000000     -1.00000000</v>
   <i type="int" name="NEDOS">   301</i>
   <i name="EMIN">     10.00000000</i>
   <i name="EMAX">    -10.00000000</i>
   <i name="EFERMI">      0.00000000</i>
  </separator>
  <separator name="writing" >
   <i type="int" name="NWRITE">     2</i>
   <i type="logical" name="LWAVE"> F  </i>
   <i type="logical" name="LCHARG"> F  </i>
   <i type="logical" name="LPARD"> F  </i>
   <i type="logical" name="LVTOT"> F  </i>
   <i type="logical" name="LVHAR"> F  </i>
   <i type="logical" name="LELF"> F  </i>
   <i type="logical" name="LOPTICS"> F  </i>
   <v name="STM">      0.00000000      0.00000000      0.00000000      0.00000000      0.00000000      0.00000000      0.00000000</v>
  </separator>
  <separator name="performance" >
   <i type="int" name="NPAR">     4</i>
   <i type="int" name="NSIM">     4</i>
   <i type="int" name="NBLK">    -1</i>
   <i type="logical" name="LPLANE"> T  </i>
   <i type="logical" name="LSCALAPACK"> T  </i>
   <i type="logical" name="LSCAAWARE"> F  </i>
   <i type="logical" name="LSCALU"> F  </i>
   <i type="logical" name="LASYNC"> F  </i>
   <i type="logical" name="LORBITALREAL"> F  </i>
  </separator>
  <separator name="miscellaneous" >
   <i type="int" name="IDIOT">     3</i>
   <i type="logical" name="LMUSIC"> F  </i>
   <v name="POMASS">    178.49000000     91.22400000     92.91000000    180.94800000</v>
   <v name="DARWINR">      0.00000000      0.00000000      0.00000000      0.00000000</v>
   <v name="DARWINV">      1.00000000      1.00000000      1.00000000      1.00000000</v>
   <i type="logical" name="LCORR"> T  </i>
  </separator>
  <i type="logical" name="GGA_COMPAT"> T  </i>
  <i type="logical" name="LBERRY"> F  </i>
  <i type="int" name="ICORELEVEL">     0</i>
  <i type="logical" name="LDAU"> F  </i>
  <i type="int" name="I_CONSTRAINED_M">     0</i>
  <separator name="electronic exchange-correlation" >
   <i type="string" name="GGA">--</i>
   <i type="int" name="VOSKOWN">     0</i>
   <i type="logical" name="LHFCALC"> F  </i>
   <i type="string" name="PRECFOCK"></i>
   <i type="logical" name="LSYMGRAD"> F  </i>
   <i type="logical" name="LHFONE"> F  </i>
   <i type="logical" name="LRHFCALC"> F  </i>
   <i type="logical" name="LTHOMAS"> F  </i>
   <i type="logical" name="LMODELHF"> F  </i>
   <i name="ENCUT4O">     -1.00000000</i>
   <i type="int" name="EXXOEP">     0</i>
   <i type="int" name="FOURORBIT">     0</i>
   <i name="AEXX">      0.00000000</i>
   <i name="HFALPHA">      0.00000000</i>
   <i name="MCALPHA">      0.00000000</i>
   <i name="ALDAX">      1.00000000</i>
   <i name="AGGAX">      1.00000000</i>
   <i name="ALDAC">      1.00000000</i>
   <i name="AGGAC">      1.00000000</i>
   <i type="int" name="NKREDX">     1</i>
   <i type="int" name="NKREDY">     1</i>
   <i type="int" name="NKREDZ">     1</i>
   <i type="logical" name="SHIFTRED"> F  </i>
   <i type="logical" name="ODDONLY"> F  </i>
   <i type="logical" name="EVENONLY"> F  </i>
   <i type="int" name="LMAXFOCK">     0</i>
   <i type="int" name="NMAXFOCKAE">     0</i>
   <i type="logical" name="LFOCKAEDFT"> F  </i>
   <i name="HFSCREEN">      0.00000000</i>
   <i name="HFSCREENC">      0.00000000</i>
   <i type="int" name="NBANDSGWLOW">     0</i>
  </separator>
  <separator name="vdW DFT" >
   <i type="logical" name="LUSE_VDW"> F  </i>
   <i name="Zab_VDW">     -0.84910000</i>
   <i name="PARAM1">      0.12340000</i>
   <i name="PARAM2">      1.00000000</i>
   <i name="PARAM3">      0.00000000</i>
  </separator>
  <separator name="model GW" >
   <i type="int" name="MODEL_GW">     0</i>
   <i name="MODEL_EPS0">     12.18781092</i>
   <i name="MODEL_ALPHA">      1.00000000</i>
  </separator>
  <separator name="linear response parameters" >
   <i type="logical" name="LEPSILON"> F  </i>
   <i type="logical" name="LRPA"> F  </i>
   <i type="logical" name="LNABLA"> F  </i>
   <i type="logical" name="LVEL"> F  </i>
   <i type="int" name="KINTER">     0</i>
   <i name="CSHIFT">      0.10000000</i>
   <i name="OMEGAMAX">     -1.00000000</i>
   <i name="DEG_THRESHOLD">      0.00200000</i>
  </separator>
  <separator name="orbital magnetization" >
   <i type="logical" name="NUCIND"> F  </i>
   <v name="MAGPOS">      0.00000000      0.00000000      0.00000000</v>
   <i type="logical" name="LNICSALL"> T  </i>
   <i type="logical" name="ORBITALMAG"> F  </i>
   <i type="logical" name="LMAGBLOCH"> F  </i>
   <i type="logical" name="LCHIMAG"> F  </i>
   <i type="logical" name="LGAUGE"> T  </i>
   <i type="int" name="MAGATOM">     0</i>
   <v name="MAGDIPOL">      0.00000000      0.00000000      0.00000000</v>
   <v name="AVECCONST">      0.00000000      0.00000000      0.00000000</v>
  </separator>
  <separator name="response functions" >
   <i type="logical" name="LADDER"> F  </i>
   <i type="logical" name="LFXC"> F  </i>
   <i type="logical" name="LHARTREE"> T  </i>
   <i type="int" name="IBSE">     0</i>
   <v type="int" name="KPOINT">    -1     0     0     0</v>
   <i type="logical" name="LTCTE"> F  </i>
   <i type="logical" name="LTETE"> F  </i>
   <i type="logical" name="LTRIPLET"> F  </i>
   <i type="logical" name="LFXCEPS"> F  </i>
   <i type="logical" name="LFXHEG"> F  </i>
   <i type="int" name="NATURALO">     0</i>
   <i type="logical" name="L2ORDER"> F  </i>
   <i type="logical" name="LUSEW"> F  </i>
   <i name="ENCUTGW">     -2.00000000</i>
   <i name="ENCUTGWSOFT">     -2.00000000</i>
   <i name="ENCUTLF">     -1.00000000</i>
   <i type="int" name="LMAXMP2">    -1</i>
   <i name="SCISSOR">      0.00000000</i>
   <i type="int" name="NOMEGA">     0</i>
   <i type="int" name="NOMEGAR">     0</i>
   <i type="int" name="NBANDSGW">    -1</i>
   <i type="int" name="NBANDSO">    -1</i>
   <i type="int" name="NBANDSV">    -1</i>
   <i type="int" name="NELM">    70</i>
   <i type="int" name="NELMHF">     1</i>
   <i type="int" name="DIM">     3</i>
   <i type="int" name="ANTIRES">     0</i>
   <i name="OMEGAMAX">    -30.00000000</i>
   <i name="OMEGAMIN">    -30.00000000</i>
   <i name="OMEGATL">   -200.00000000</i>
   <i type="int" name="OMEGAGRID">     0</i>
   <i name="CSHIFT">     -0.10000000</i>
   <i type="logical" name="SELFENERGY"> F  </i>
   <i type="logical" name="LSPECTRAL"> F  </i>
   <i type="logical" name="LSPECTRALGW"> F  </i>
   <i type="logical" name="LSINGLES"> F  </i>
   <i type="logical" name="LFERMIGW"> F  </i>
   <i type="logical" name="ODDONLYGW"> F  </i>
   <i type="logical" name="EVENONLYGW"> F  </i>
   <i type="int" name="NKREDLFX">     1</i>
   <i type="int" name="NKREDLFY">     1</i>
   <i type="int" name="NKREDLFZ">     1</i>
   <i type="int" name="MAXMEM">  1800</i>
   <i type="int" name="TELESCOPE">     0</i>
   <i type="int" name="TAUPAR">     1</i>
   <i type="int" name="OMEGAPAR">    -1</i>
   <i name="LAMBDA">      1.00000000</i>
  </separator>
  <separator name="External order field" >
   <i name="OFIELD_KAPPA">      0.00000000</i>
   <v name="OFIELD_K">      0.00000000      0.00000000      0.00000000</v>
   <i name="OFIELD_Q6_NEAR">      0.00000000</i>
   <i name="OFIELD_Q6_FAR">      0.00000000</i>
   <i name="OFIELD_A">      0.00000000</i>
  </separator>
 </parameters>
 <atominfo>
  <atoms>      36 </atoms>
  <types>       4 </types>
  <array name="atoms" >
   <dimension dim="1">ion</dimension>
   <field type="string">element</field>
   <field type="int">atomtype</field>
   <set>
    <rc><c>Hf</c><c>   1</c></rc>
    <rc><c>Hf</c><c>   1</c></rc>
    <rc><c>Hf</c><c>   1</c></rc>
    <rc><c>Hf</c><c>   1</c></rc>
    <rc><c>Hf</c><c>   1</c></rc>
    <rc><c>Hf</c><c>   1</c></rc>
    <rc><c>Hf</c><c>   1</c></rc>
    <rc><c>Hf</c><c>   1</c></rc>
    <rc><c>Zr</c><c>   2</c></rc>
    <rc><c>Zr</c><c>   2</c></rc>
    <rc><c>Zr</c><c>   2</c></rc>
    <rc><c>Zr</c><c>   2</c></rc>
    <rc><c>Zr</c><c>   2</c></rc>
    <rc><c>Zr</c><c>   2</c></rc>
    <rc><c>Zr</c><c>   2</c></rc>
    <rc><c>Zr</c><c>   2</c></rc>
    <rc><c>Zr</c><c>   2</c></rc>
    <rc><c>Zr</c><c>   2</c></rc>
    <rc><c>Nb</c><c>   3</c></rc>
    <rc><c>Nb</c><c>   3</c></rc>
    <rc><c>Nb</c><c>   3</c></rc>
    <rc><c>Nb</c><c>   3</c></rc>
    <rc><c>Nb</c><c>   3</c></rc>
    <rc><c>Nb</c><c>   3</c></rc>
    <rc><c>Nb</c><c>   3</c></rc>
    <rc><c>Nb</c><c>   3</c></rc>
    <rc><c>Nb</c><c>   3</c></rc>
    <rc><c>Nb</c><c>   3</c></rc>
    <rc><c>Ta</c><c>   4</c></rc>
    <rc><c>Ta</c><c>   4</c></rc>
    <rc><c>Ta</c><c>   4</c></rc>
    <rc><c>Ta</c><c>   4</c></rc>
    <rc><c>Ta</c><c>   4</c></rc>
    <rc><c>Ta</c><c>   4</c></rc>
    <rc><c>Ta</c><c>   4</c></rc>
    <rc><c>Ta</c><c>   4</c></rc>
   </set>
  </array>
  <array name="atomtypes" >
   <dimension dim="1">type</dimension>
   <field type="int">atomspertype</field>
   <field type="string">element</field>
   <field>mass</field>
   <field>valence</field>
   <field type="string">pseudopotential</field>
   <set>
    <rc><c>   8</c><c>Hf</c><c>    178.49000000</c><c>      4.00000000</c><c>  PAW_PBE Hf 20Jan2003                  </c></rc>
    <rc><c>  10</c><c>Zr</c><c>     91.22400000</c><c>     12.00000000</c><c>  PAW_PBE Zr_sv 04Jan2005               </c></rc>
    <rc><c>  10</c><c>Nb</c><c>     92.91000000</c><c>     13.00000000</c><c>  PAW_PBE Nb_sv 25May2007               </c></rc>
    <rc><c>   8</c><c>Ta</c><c>    180.94800000</c><c>      5.00000000</c><c>  PAW_PBE Ta 17Jan2003                  </c></rc>
   </set>
  </array>
 </atominfo>
 <structure name="initialpos" >
  <crystal>
   <varray name="basis" >
    <v>       6.97291412       0.04214124       0.01103414 </v>
    <v>       0.06263322      10.21351484       0.00499829 </v>
    <v>       0.01675573       0.00470398      10.26844611 </v>
   </varray>
   <i name="volume">    731.26865523 </i>
   <varray name="rec_basis" >
    <v>       0.14341775      -0.00087938      -0.00023362 </v>
    <v>      -0.00059167       0.09791314      -0.00004389 </v>
    <v>      -0.00015382      -0.00004672       0.09738599 </v>
   </varray>
  </crystal>
  <varray name="positions" >
   <v>       0.00287600       0.33346300       0.00543600 </v>
   <v>       0.97548700       0.66372300       0.99209200 </v>
   <v>       0.23805900       0.81058800       0.17529300 </v>
   <v>       0.76800800       0.16701700       0.49849600 </v>
   <v>       0.48032900       0.99610200       0.66815400 </v>
   <v>       0.76504900       0.84329300       0.18229600 </v>
   <v>       0.77434900       0.84242500       0.49714400 </v>
   <v>       0.23218200       0.50108600       0.50038200 </v>
   <v>       0.74601100       0.16805900       0.82802300 </v>
   <v>       0.02471700       0.00013400       0.99371000 </v>
   <v>       0.23133600       0.17986300       0.50192700 </v>
   <v>       0.25602300       0.50209800       0.17157500 </v>
   <v>       0.48567700       0.99749200       0.99200200 </v>
   <v>       0.74642600       0.16107200       0.17344200 </v>
   <v>       0.47082100       0.99268100       0.34159200 </v>
   <v>       0.73595100       0.48862300       0.82038300 </v>
   <v>       0.52176900       0.67521200       0.99672400 </v>
   <v>       0.49779100       0.67889400       0.65777100 </v>
   <v>       0.26037500       0.49321700       0.82866300 </v>
   <v>       0.98759500       0.33980200       0.31973400 </v>
   <v>       0.99780600       0.33315900       0.67540200 </v>
   <v>       0.97365200       0.65539200       0.33727300 </v>
   <v>       0.22509600       0.82483100       0.49880800 </v>
   <v>       0.23540200       0.82028200       0.82834400 </v>
   <v>       0.49215500       0.32531600       0.01053900 </v>
   <v>       0.73950000       0.49626800       0.17848100 </v>
   <v>       0.76973600       0.84392100       0.81514400 </v>
   <v>       0.99817300       0.67466900       0.67207900 </v>
   <v>       0.26132800       0.18122300       0.17422000 </v>
   <v>       0.03814400       0.00432200       0.33193900 </v>
   <v>       0.02736800       0.99445400       0.67409300 </v>
   <v>       0.25576100       0.18349100       0.82371200 </v>
   <v>       0.51019700       0.34428000       0.34193500 </v>
   <v>       0.75931400       0.49576700       0.50147400 </v>
   <v>       0.49853700       0.32797200       0.64838000 </v>
   <v>       0.51700900       0.65980900       0.34333000 </v>
  </varray>
 </structure>
 <calculation>
  <scstep>
   <time name="dav">    1.21    1.21</time>
   <time name="total">    1.42    1.74</time>
   <energy>
    <i name="alphaZ">   1673.86345570 </i>
    <i name="ewald"> -23262.87562612 </i>
    <i name="hartreedc">  -7476.20772227 </i>
    <i name="XCdc">    109.47193002 </i>
    <i name="pawpsdc">  24881.20780484 </i>
    <i name="pawaedc"> -23439.17733493 </i>
    <i name="eentropy">     -0.00275642 </i>
    <i name="bandstr">   -304.45137481 </i>
    <i name="atom">  30045.25396203 </i>
    <i name="e_fr_energy">   2227.08233804 </i>
    <i name="e_wo_entrp">   2227.08509446 </i>
    <i name="e_0_energy">   2227.08325685 </i>
   </energy>
  </scstep>
  <scstep>
   <time name="dav">    1.12    1.13</time>
   <time name="total">    1.13    1.22</time>
   <energy>
    <i name="e_fr_energy">    -50.53921953 </i>
    <i name="e_wo_entrp">    -50.53253337 </i>
    <i name="e_0_energy">    -50.53699081 </i>
   </energy>
  </scstep>
  <scstep>
   <time name="dav">    1.69    1.70</time>
   <time name="total">    1.69    1.74</time>
   <energy>
    <i name="e_fr_energy">   -336.24565992 </i>
    <i name="e_wo_entrp">   -336.23260112 </i>
    <i name="e_0_energy">   -336.24130699 </i>
   </energy>
  </scstep>
  <scstep>
   <time name="dav">    1.63    1.80</time>
   <time name="total">    1.63    1.82</time>
   <energy>
    <i name="e_fr_energy">   -369.67297698 </i>
    <i name="e_wo_entrp">   -369.66731939 </i>
    <i name="e_0_energy">   -369.67109112 </i>
   </energy>
  </scstep>
  <scstep>
   <time name="dav">    1.46    1.47</time>
   <time name="total">    1.50    1.53</time>
   <energy>
    <i name="e_fr_energy">   -373.02895485 </i>
    <i name="e_wo_entrp">   -373.02612748 </i>
    <i name="e_0_energy">   -373.02801239 </i>
   </energy>
  </scstep>
  <scstep>
   <time name="diag">    0.12    0.14</time>
   <time name="diis">    0.78    0.87</time>
   <time name="orth">    0.01    0.01</time>
   <time name="total">    0.99    1.15</time>
   <energy>
    <i name="e_fr_energy">   -362.62855116 </i>
    <i name="e_wo_entrp">   -362.64857329 </i>
    <i name="e_0_energy">   -362.63522520 </i>
   </energy>
  </scstep>
  <scstep>
   <time name="diag">    0.14    0.14</time>
   <time name="diis">    0.81    0.82</time>
   <time name="orth">    0.02    0.02</time>
   <time name="total">    1.03    1.06</time>
   <energy>
    <i name="e_fr_energy">   -364.85078479 </i>
    <i name="e_wo_entrp">   -364.84623084 </i>
    <i name="e_0_energy">   -364.84926681 </i>
   </energy>
  </scstep>
  <scstep>
   <time name="diag">    0.09    0.09</time>
   <time name="diis">    0.82    0.83</time>
   <time name="orth">    0.03    0.03</time>
   <time name="total">    1.05    1.07</time>
   <energy>
    <i name="e_fr_energy">   -358.44986533 </i>
    <i name="e_wo_entrp">   -358.47257563 </i>
    <i name="e_0_energy">   -358.45743543 </i>
   </energy>
  </scstep>
  <scstep>
   <time name="diag">    0.15    0.15</time>
   <time name="diis">    0.87    0.88</time>
   <time name="orth">    0.01    0.01</time>
   <time name="total">    1.10    1.13</time>
   <energy>
    <i name="e_fr_energy">   -358.25323380 </i>
    <i name="e_wo_entrp">   -358.27648707 </i>
    <i name="e_0_energy">   -358.26098489 </i>
   </energy>
  </scstep>
  <scstep>
   <time name="diag">    0.09    0.09</time>
   <time name="diis">    0.86    0.87</time>
   <time name="orth">    0.01    0.01</time>
   <time name="total">    1.03    1.06</time>
   <energy>
    <i name="e_fr_energy">   -358.20152494 </i>
    <i name="e_wo_entrp">   -358.22379578 </i>
    <i name="e_0_energy">   -358.20894855 </i>
   </energy>
  </scstep>
  <scstep>
   <time name="diag">    0.19    0.19</time>
   <time name="diis">    0.91    0.92</time>
   <time name="orth">    0.01    0.02</time>
   <time name="total">    1.26    1.31</time>
   <energy>
    <i name="e_fr_energy">   -358.15446928 </i>
    <i name="e_wo_entrp">   -358.17563916 </i>
    <i name="e_0_energy">   -358.16152591 </i>
   </energy>
  </scstep>
  <scstep>
   <time name="diag">    0.09    0.09</time>
   <time name="diis">    0.78    0.85</time>
   <time name="orth">    0.01    0.02</time>
   <time name="total">    0.95    1.05</time>
   <energy>
    <i name="e_fr_energy">   -358.15160492 </i>
    <i name="e_wo_entrp">   -358.17269373 </i>
    <i name="e_0_energy">   -358.15863453 </i>
   </energy>
  </scstep>
  <scstep>
   <time name="diag">    0.09    0.09</time>
   <time name="diis">    0.84    0.84</time>
   <time name="orth">    0.01    0.01</time>
   <time name="total">    1.01    1.05</time>
   <energy>
    <i name="e_fr_energy">   -358.14852769 </i>
    <i name="e_wo_entrp">   -358.16955575 </i>
    <i name="e_0_energy">   -358.15553704 </i>
   </energy>
  </scstep>
  <scstep>
   <time name="diag">    0.09    0.09</time>
   <time name="diis">    0.86    0.87</time>
   <time name="orth">    0.02    0.02</time>
   <time name="total">    1.04    1.08</time>
   <energy>
    <i name="e_fr_energy">   -358.14851345 </i>
    <i name="e_wo_entrp">   -358.16956146 </i>
    <i name="e_0_energy">   -358.15552945 </i>
   </energy>
  </scstep>
  <scstep>
   <time name="diag">    0.09    0.09</time>
   <time name="diis">    0.87    0.88</time>
   <time name="orth">    0.02    0.02</time>
   <time name="total">    1.05    1.11</time>
   <energy>
    <i name="e_fr_energy">   -358.14866358 </i>
    <i name="e_wo_entrp">   -358.16979907 </i>
    <i name="e_0_energy">   -358.15570874 </i>
   </energy>
  </scstep>
  <scstep>
   <time name="diag">    0.09    0.10</time>
   <time name="diis">    0.76    0.76</time>
   <time name="orth">    0.02    0.02</time>
   <time name="total">    0.94    0.98</time>
   <energy>
    <i name="e_fr_energy">   -358.14868946 </i>
    <i name="e_wo_entrp">   -358.16976869 </i>
    <i name="e_0_energy">   -358.15571587 </i>
   </energy>
  </scstep>
  <scstep>
   <time name="diag">    0.09    0.09</time>
   <time name="diis">    0.69    0.69</time>
   <time name="orth">    0.02    0.02</time>
   <time name="total">    0.86    0.90</time>
   <energy>
    <i name="e_fr_energy">   -358.14868963 </i>
    <i name="e_wo_entrp">   -358.16978391 </i>
    <i name="e_0_energy">   -358.15572105 </i>
   </energy>
  </scstep>
  <scstep>
   <time name="diag">    0.09    0.09</time>
   <time name="diis">    0.72    0.73</time>
   <time name="orth">    0.01    0.01</time>
   <time name="total">    0.90    0.93</time>
   <energy>
    <i name="e_fr_energy">   -358.14870183 </i>
    <i name="e_wo_entrp">   -358.16977146 </i>
    <i name="e_0_energy">   -358.15572504 </i>
   </energy>
  </scstep>
  <scstep>
   <time name="diag">    0.09    0.09</time>
   <time name="diis">    0.57    0.57</time>
   <time name="orth">    0.01    0.01</time>
   <time name="total">    0.74    0.78</time>
   <energy>
    <i name="e_fr_energy">   -358.14870585 </i>
    <i name="e_wo_entrp">   -358.16976445 </i>
    <i name="e_0_energy">   -358.15572538 </i>
   </energy>
  </scstep>
  <scstep>
   <time name="diag">    0.09    0.09</time>
   <time name="diis">    0.48    0.51</time>
   <time name="orth">    0.02    0.03</time>
   <time name="total">    0.79    0.87</time>
   <energy>
    <i name="alphaZ">   1673.86345570 </i>
    <i name="ewald"> -23262.87562612 </i>
    <i name="hartreedc">  -7196.74416306 </i>
    <i name="XCdc">    104.53472183 </i>
    <i name="pawpsdc">  37503.27620531 </i>
    <i name="pawaedc"> -36033.72390234 </i>
    <i name="eentropy">      0.02106618 </i>
    <i name="bandstr">  -3191.75442623 </i>
    <i name="atom">  30045.25396203 </i>
    <i name="e_fr_energy">   -358.14870670 </i>
    <i name="e_wo_entrp">   -358.16977289 </i>
    <i name="e_0_energy">   -358.15572876 </i>
   </energy>
  </scstep>
  <structure>
   <crystal>
    <varray name="basis" >
     <v>       6.97291412       0.04214124       0.01103414 </v>
     <v>       0.06263322      10.21351484       0.00499829 </v>
     <v>       0.01675573       0.00470398      10.26844611 </v>
    </varray>
    <i name="volume">    731.26865523 </i>
    <varray name="rec_basis" >
     <v>       0.14341775      -0.00087938      -0.00023362 </v>
     <v>      -0.00059167       0.09791314      -0.00004389 </v>
     <v>      -0.00015382      -0.00004672       0.09738599 </v>
    </varray>
   </crystal>
   <varray name="positions" >
    <v>       0.00287600       0.33346300       0.00543600 </v>
    <v>       0.97548700       0.66372300       0.99209200 </v>
    <v>       0.23805900       0.81058800       0.17529300 </v>
    <v>       0.76800800       0.16701700       0.49849600 </v>
    <v>       0.48032900       0.99610200       0.66815400 </v>
    <v>       0.76504900       0.84329300       0.18229600 </v>
    <v>       0.77434900       0.84242500       0.49714400 </v>
    <v>       0.23218200       0.50108600       0.50038200 </v>
    <v>       0.74601100       0.16805900       0.82802300 </v>
    <v>       0.02471700       0.00013400       0.99371000 </v>
    <v>       0.23133600       0.17986300       0.50192700 </v>
    <v>       0.25602300       0.50209800       0.17157500 </v>
    <v>       0.48567700       0.99749200       0.99200200 </v>
    <v>       0.74642600       0.16107200       0.17344200 </v>
    <v>       0.47082100       0.99268100       0.34159200 </v>
    <v>       0.73595100       0.48862300       0.82038300 </v>
    <v>       0.52176900       0.67521200       0.99672400 </v>
    <v>       0.49779100       0.67889400       0.65777100 </v>
    <v>       0.26037500       0.49321700       0.82866300 </v>
    <v>       0.98759500       0.33980200       0.31973400 </v>
    <v>       0.99780600       0.33315900       0.67540200 </v>
    <v>       0.97365200       0.65539200       0.33727300 </v>
    <v>       0.22509600       0.82483100       0.49880800 </v>
    <v>       0.23540200       0.82028200       0.82834400 </v>
    <v>       0.49215500       0.32531600       0.01053900 </v>
    <v>       0.73950000       0.49626800       0.17848100 </v>
    <v>       0.76973600       0.84392100       0.81514400 </v>
    <v>       0.99817300       0.67466900       0.67207900 </v>
    <v>       0.26132800       0.18122300       0.17422000 </v>
    <v>       0.03814400       0.00432200       0.33193900 </v>
    <v>       0.02736800       0.99445400       0.67409300 </v>
    <v>       0.25576100       0.18349100       0.82371200 </v>
    <v>       0.51019700       0.34428000       0.34193500 </v>
    <v>       0.75931400       0.49576700       0.50147400 </v>
    <v>       0.49853700       0.32797200       0.64838000 </v>
    <v>       0.51700900       0.65980900       0.34333000 </v>
   </varray>
  </structure>
  <varray name="forces" >
   <v>       0.18208685       0.21190843      -0.17831779 </v>
   <v>       0.26967779      -0.24200722      -0.14738763 </v>
   <v>      -0.01580984       0.02531679       0.00110448 </v>
   <v>       0.02364439      -0.00360540      -0.00656782 </v>
   <v>      -0.01405612       0.00139597      -0.01525147 </v>
   <v>      -0.00292470      -0.00186124       0.01446268 </v>
   <v>       0.00075200       0.02031834       0.01109935 </v>
   <v>      -0.01638614       0.01175873      -0.02151614 </v>
   <v>       0.00767552      -0.03581229       0.02310486 </v>
   <v>       0.02261262       0.00201693       0.00152610 </v>
   <v>      -0.01095603      -0.00141287       0.00665860 </v>
   <v>      -0.01704087       0.02499058       0.01185200 </v>
   <v>      -0.01493223      -0.00725423      -0.00261507 </v>
   <v>      -0.00586629       0.00315293       0.02424396 </v>
   <v>       0.01217886       0.01016689      -0.01921006 </v>
   <v>      -0.02558902      -0.04667463      -0.00201177 </v>
   <v>      -0.24617042      -0.22681121      -0.12430746 </v>
   <v>      -0.16168337      -0.22695504       0.17882269 </v>
   <v>      -0.18753403      -0.18297278      -0.08293979 </v>
   <v>      -0.00715058      -0.01474495      -0.00467904 </v>
   <v>       0.38597132       0.38782818       0.17222127 </v>
   <v>       0.03481248       0.02679784       0.00523827 </v>
   <v>      -0.02031472      -0.00502230       0.00839168 </v>
   <v>      -0.03435199       0.12295767      -0.03578341 </v>
   <v>      -0.14139480       0.33353083      -0.33501395 </v>
   <v>       0.01754008      -0.02146880      -0.02456901 </v>
   <v>      -0.00458557      -0.01746278      -0.00720732 </v>
   <v>       0.22690172      -0.30265171       0.14846254 </v>
   <v>       0.00411324      -0.02939510      -0.00791110 </v>
   <v>       0.02225373       0.00052422       0.00931426 </v>
   <v>       0.01821315       0.00584541       0.02741226 </v>
   <v>      -0.04211192      -0.11071061      -0.03634813 </v>
   <v>      -0.00501354      -0.00305312      -0.01111850 </v>
   <v>       0.01975549      -0.00946086       0.00515504 </v>
   <v>      -0.26922376       0.31013247       0.41468819 </v>
   <v>      -0.00509329      -0.00930507      -0.00100275 </v>
  </varray>
  <varray name="stress" >
   <v>      -8.58770022      -0.29342065      -0.20100604 </v>
   <v>      -0.29342061      -6.30984614       0.16206347 </v>
   <v>      -0.20100607       0.16206357      -6.68968176 </v>
  </varray>
  <energy>
   <i name="e_fr_energy">   -358.14870670 </i>
   <i name="e_wo_entrp">   -358.15572876 </i>
   <i name="e_0_energy">      0.02106618 </i>
  </energy>
  <time name="totalsc">   23.89   25.45</time>
 </calculation>
 <calculation>
  <scstep>
   <time name="dav">    1.20    1.21</time>
   <time name="total">    1.34    1.44</time>
   <energy>
    <i name="alphaZ">   1680.51139701 </i>
    <i name="ewald"> -23288.71891669 </i>
    <i name="hartreedc">  -7211.13705186 </i>
    <i name="XCdc">    105.91204586 </i>
    <i name="pawpsdc">  37503.26803710 </i>
    <i name="pawaedc"> -36033.71445180 </i>
    <i name="eentropy">      0.02136481 </i>
    <i name="bandstr">  -3159.61021105 </i>
    <i name="atom">  30045.25396203 </i>
    <i name="e_fr_energy">   -358.21382459 </i>
    <i name="e_wo_entrp">   -358.23518940 </i>
    <i name="e_0_energy">   -358.22094619 </i>
   </energy>
  </scstep>
  <scstep>
   <time name="diag">    0.13    0.13</time>
   <time name="diis">    0.80    0.80</time>
   <time name="orth">    0.02    0.02</time>
   <time name="total">    1.01    1.04</time>
   <energy>
    <i name="e_fr_energy">   -358.19484538 </i>
    <i name="e_wo_entrp">   -358.21538111 </i>
    <i name="e_0_energy">   -358.20169062 </i>
   </energy>
  </scstep>
  <scstep>
   <time name="diag">    0.09    0.09</time>
   <time name="diis">    0.86    0.86</time>
   <time name="orth">    0.01    0.01</time>
   <time name="total">    1.03    1.07</time>
   <energy>
    <i name="e_fr_energy">   -358.18552398 </i>
    <i name="e_wo_entrp">   -358.20653354 </i>
    <i name="e_0_energy">   -358.19252717 </i>
   </energy>
  </scstep>
  <scstep>
   <time name="diag">    0.09    0.09</time>
   <time name="diis">    0.84    0.85</time>
   <time name="orth">    0.01    0.01</time>
   <time name="total">    1.01    1.05</time>
   <energy>
    <i name="e_fr_energy">   -358.18102665 </i>
    <i name="e_wo_entrp">   -358.20218768 </i>
    <i name="e_0_energy">   -358.18808033 </i>
   </energy>
  </scstep>
  <scstep>
   <time name="diag">    0.09    0.09</time>
   <time name="diis">    0.84    0.85</time>
   <time name="orth">    0.01    0.02</time>
   <time name="total">    1.01    1.04</time>
   <energy>
    <i name="e_fr_energy">   -358.18037832 </i>
    <i name="e_wo_entrp">   -358.20119494 </i>
    <i name="e_0_energy">   -358.18731720 </i>
   </energy>
  </scstep>
  <scstep>
   <time name="diag">    0.12    0.12</time>
   <time name="diis">    0.91    0.92</time>
   <time name="orth">    0.01    0.01</time>
   <time name="total">    1.12    1.15</time>
   <energy>
    <i name="e_fr_energy">   -358.18051255 </i>
    <i name="e_wo_entrp">   -358.20148648 </i>
    <i name="e_0_energy">   -358.18750386 </i>
   </energy>
  </scstep>
  <scstep>
   <time name="diag">    0.09    0.09</time>
   <time name="diis">    0.83    0.84</time>
   <time name="orth">    0.01    0.01</time>
   <time name="total">    1.00    1.02</time>
   <energy>
    <i name="e_fr_energy">   -358.18061926 </i>
    <i name="e_wo_entrp">   -358.20155036 </i>
    <i name="e_0_energy">   -358.18759629 </i>
   </energy>
  </scstep>
  <scstep>
   <time name="diag">    0.09    0.09</time>
   <time name="diis">    0.82    0.82</time>
   <time name="orth">    0.02    0.02</time>
   <time name="total">    1.02    1.04</time>
   <energy>
    <i name="e_fr_energy">   -358.18070177 </i>
    <i name="e_wo_entrp">   -358.20163388 </i>
    <i name="e_0_energy">   -358.18767914 </i>
   </energy>
  </scstep>
  <scstep>
   <time name="diag">    0.10    0.10</time>
   <time name="diis">    0.59    0.59</time>
   <time name="orth">    0.02    0.02</time>
   <time name="total">    0.78    0.80</time>
   <energy>
    <i name="e_fr_energy">   -358.18074625 </i>
    <i name="e_wo_entrp">   -358.20169640 </i>
    <i name="e_0_energy">   -358.18772963 </i>
   </energy>
  </scstep>
  <scstep>
   <time name="diag">    0.11    0.13</time>
   <time name="diis">    0.62    0.64</time>
   <time name="orth">    0.02    0.02</time>
   <time name="total">    0.85    0.92</time>
   <energy>
    <i name="e_fr_energy">   -358.18080593 </i>
    <i name="e_wo_entrp">   -358.20175028 </i>
    <i name="e_0_energy">   -358.18778738 </i>
   </energy>
  </scstep>
  <scstep>
   <time name="diag">    0.10    0.10</time>
   <time name="diis">    0.54    0.54</time>
   <time name="orth">    0.02    0.02</time>
   <time name="total">    0.72    0.76</time>
   <energy>
    <i name="e_fr_energy">   -358.18083434 </i>
    <i name="e_wo_entrp">   -358.20176597 </i>
    <i name="e_0_energy">   -358.18781155 </i>
   </energy>
  </scstep>
  <scstep>
   <time name="diag">    0.09    0.09</time>
   <time name="diis">    0.47    0.47</time>
   <time name="orth">    0.01    0.01</time>
   <time name="total">    0.61    0.63</time>
   <energy>
    <i name="alphaZ">   1680.51139701 </i>
    <i name="ewald"> -23288.71891669 </i>
    <i name="hartreedc">  -7192.10765754 </i>
    <i name="XCdc">    105.04487995 </i>
    <i name="pawpsdc">  37681.66789728 </i>
    <i name="pawaedc"> -36211.75025264 </i>
    <i name="eentropy">      0.02094827 </i>
    <i name="bandstr">  -3178.10309646 </i>
    <i name="atom">  30045.25396203 </i>
    <i name="e_fr_energy">   -358.18083878 </i>
    <i name="e_wo_entrp">   -358.20178706 </i>
    <i name="e_0_energy">   -358.18782154 </i>
   </energy>
  </scstep>
  <structure>
   <crystal>
    <varray name="basis" >
     <v>       6.96192373       0.04171736       0.01076467 </v>
     <v>       0.06198444      10.20168637       0.00529356 </v>
     <v>       0.01635035       0.00500298      10.25584111 </v>
    </varray>
    <i name="volume">    728.37582682 </i>
    <varray name="rec_basis" >
     <v>       0.14364404      -0.00087265      -0.00022858 </v>
     <v>      -0.00058732       0.09802660      -0.00004688 </v>
     <v>      -0.00015047      -0.00004968       0.09750567 </v>
    </varray>
   </crystal>
   <varray name="positions" >
    <v>       0.00325186       0.33376184       0.00518412 </v>
    <v>       0.97605034       0.66337784       0.99188383 </v>
    <v>       0.23802586       0.81062401       0.17529457 </v>
    <v>       0.76805715       0.16701169       0.49848669 </v>
    <v>       0.48029986       0.99610411       0.66813253 </v>
    <v>       0.76504290       0.84329038       0.18231639 </v>
    <v>       0.77435026       0.84245378       0.49715963 </v>
    <v>       0.23214791       0.50110282       0.50035170 </v>
    <v>       0.74602731       0.16800817       0.82805557 </v>
    <v>       0.02476391       0.00013666       0.99371210 </v>
    <v>       0.23131325       0.17986109       0.50193641 </v>
    <v>       0.25598727       0.50213355       0.17159173 </v>
    <v>       0.48564611       0.99748185       0.99199835 </v>
    <v>       0.74641370       0.16107650       0.17347618 </v>
    <v>       0.47084621       0.99269532       0.34156489 </v>
    <v>       0.73589849       0.48855708       0.82038025 </v>
    <v>       0.52126134       0.67489278       0.99654950 </v>
    <v>       0.49745768       0.67857366       0.65802355 </v>
    <v>       0.25998835       0.49295937       0.82854664 </v>
    <v>       0.98758036       0.33978117       0.31972743 </v>
    <v>       0.99860163       0.33370517       0.67564362 </v>
    <v>       0.97372390       0.65542967       0.33728029 </v>
    <v>       0.22505387       0.82482405       0.49881988 </v>
    <v>       0.23532925       0.82045656       0.82829356 </v>
    <v>       0.49185840       0.32579006       0.01006690 </v>
    <v>       0.73953676       0.49623744       0.17844635 </v>
    <v>       0.76972673       0.84389630       0.81513386 </v>
    <v>       0.99864732       0.67423808       0.67228795 </v>
    <v>       0.26133694       0.18118131       0.17420886 </v>
    <v>       0.03819015       0.00432255       0.33195208 </v>
    <v>       0.02740564       0.99446211       0.67413159 </v>
    <v>       0.25567512       0.18333450       0.82366094 </v>
    <v>       0.51018667       0.34427572       0.34191934 </v>
    <v>       0.75935511       0.49575342       0.50148123 </v>
    <v>       0.49797283       0.32841352       0.64896487 </v>
    <v>       0.51699855       0.65979586       0.34332860 </v>
   </varray>
  </structure>
  <varray name="forces" >
   <v>       0.15531931       0.18858688      -0.16130780 </v>
   <v>       0.24938914      -0.22211109      -0.12541786 </v>
   <v>      -0.00642150       0.02113967      -0.01000874 </v>
   <v>       0.01155949       0.01179216       0.00920897 </v>
   <v>      -0.00027824      -0.00006542      -0.02446593 </v>
   <v>      -0.01115618      -0.01513804      -0.01084124 </v>
   <v>      -0.00982606       0.00619447       0.02479173 </v>
   <v>      -0.00961137       0.01410033      -0.02757569 </v>
   <v>       0.01048638      -0.02914535       0.02655954 </v>
   <v>       0.01043541       0.00255955       0.00870547 </v>
   <v>       0.00057555       0.00717970       0.00678774 </v>
   <v>      -0.01732542       0.03428886       0.01041989 </v>
   <v>      -0.00520991      -0.01803167       0.00349779 </v>
   <v>      -0.00611978       0.00675201       0.00801519 </v>
   <v>       0.02569555       0.01594435      -0.01560711 </v>
   <v>      -0.01426142      -0.04437644       0.00287713 </v>
   <v>      -0.23455928      -0.20674896      -0.10984420 </v>
   <v>      -0.14439232      -0.20667075       0.16356381 </v>
   <v>      -0.17202089      -0.15656787      -0.07497649 </v>
   <v>      -0.00569268      -0.02881313      -0.00411115 </v>
   <v>       0.35324772       0.34887994       0.15599403 </v>
   <v>       0.03906278       0.03745068       0.00170117 </v>
   <v>      -0.00435548      -0.02073931       0.01081982 </v>
   <v>      -0.01271645       0.12567577      -0.01999035 </v>
   <v>      -0.12430263       0.31030247      -0.32142258 </v>
   <v>       0.01510498      -0.01332255      -0.03940541 </v>
   <v>      -0.01800378      -0.02736938       0.00584636 </v>
   <v>       0.19701193      -0.27420303       0.12927903 </v>
   <v>       0.00873885      -0.02547689      -0.02072448 </v>
   <v>       0.00284636       0.00634885       0.00321381 </v>
   <v>       0.00198261       0.01023724       0.01699793 </v>
   <v>      -0.03493186      -0.11764104      -0.01680774 </v>
   <v>      -0.00342158      -0.01470562      -0.01596807 </v>
   <v>       0.01753649      -0.00608826       0.01385962 </v>
   <v>      -0.25395690       0.27626228       0.39357694 </v>
   <v>      -0.01042880       0.00351959       0.00275887 </v>
  </varray>
  <varray name="stress" >
   <v>      -3.19976184      -0.27993784      -0.16064678 </v>
   <v>      -0.27993785      -1.21030913       0.11080634 </v>
   <v>      -0.16064676       0.11080632      -1.50566555 </v>
  </varray>
  <energy>
   <i name="e_fr_energy">   -358.18083878 </i>
   <i name="e_wo_entrp">   -358.18782154 </i>
   <i name="e_0_energy">      0.02094827 </i>
  </energy>
  <time name="totalsc">   13.25   13.85</time>
 </calculation>
 <calculation>
  <scstep>
   <time name="dav">    1.14    1.15</time>
   <time name="total">    1.27    1.36</time>
   <energy>
    <i name="alphaZ">   1695.78260377 </i>
    <i name="ewald"> -23347.25910757 </i>
    <i name="hartreedc">  -7225.48223970 </i>
    <i name="XCdc">    108.19522455 </i>
    <i name="pawpsdc">  37681.82094315 </i>
    <i name="pawaedc"> -36211.89013866 </i>
    <i name="eentropy">      0.02153680 </i>
    <i name="bandstr">  -3104.82517072 </i>
    <i name="atom">  30045.25396203 </i>
    <i name="e_fr_energy">   -358.38238635 </i>
    <i name="e_wo_entrp">   -358.40392315 </i>
    <i name="e_0_energy">   -358.38956528 </i>
   </energy>
  </scstep>
  <scstep>
   <time name="diag">    0.09    0.09</time>
   <time name="diis">    0.87    0.88</time>
   <time name="orth">    0.01    0.01</time>
   <time name="total">    1.04    1.07</time>
   <energy>
    <i name="e_fr_energy">   -358.28160324 </i>
    <i name="e_wo_entrp">   -358.30115321 </i>
    <i name="e_0_energy">   -358.28811990 </i>
   </energy>
  </scstep>
  <scstep>
   <time name="diag">    0.09    0.10</time>
   <time name="diis">    0.85    0.85</time>
   <time name="orth">    0.02    0.02</time>
   <time name="total">    1.03    1.05</time>
   <energy>
    <i name="e_fr_energy">   -358.23459683 </i>
    <i name="e_wo_entrp">   -358.25512200 </i>
    <i name="e_0_energy">   -358.24143855 </i>
   </energy>
  </scstep>
  <scstep>
   <time name="diag">    0.09    0.09</time>
   <time name="diis">    0.92    0.92</time>
   <time name="orth">    0.01    0.01</time>
   <time name="total">    1.09    1.12</time>
   <energy>
    <i name="e_fr_energy">   -358.21096399 </i>
    <i name="e_wo_entrp">   -358.23186654 </i>
    <i name="e_0_energy">   -358.21793150 </i>
   </energy>
  </scstep>
  <scstep>
   <time name="diag">    0.14    0.14</time>
   <time name="diis">    0.92    0.92</time>
   <time name="orth">    0.02    0.02</time>
   <time name="total">    1.15    1.21</time>
   <energy>
    <i name="e_fr_energy">   -358.20767650 </i>
    <i name="e_wo_entrp">   -358.22778780 </i>
    <i name="e_0_energy">   -358.21438026 </i>
   </energy>
  </scstep>
  <scstep>
   <time name="diag">    0.09    0.09</time>
   <time name="diis">    0.88    0.88</time>
   <time name="orth">    0.01    0.01</time>
   <time name="total">    1.06    1.08</time>
   <energy>
    <i name="e_fr_energy">   -358.20822265 </i>
    <i name="e_wo_entrp">   -358.22867502 </i>
    <i name="e_0_energy">   -358.21504011 </i>
   </energy>
  </scstep>
  <scstep>
   <time name="diag">    0.09    0.09</time>
   <time name="diis">    0.95    0.95</time>
   <time name="orth">    0.01    0.01</time>
   <time name="total">    1.12    1.15</time>
   <energy>
    <i name="e_fr_energy">   -358.20868477 </i>
    <i name="e_wo_entrp">   -358.22908970 </i>
    <i name="e_0_energy">   -358.21548641 </i>
   </energy>
  </scstep>
  <scstep>
   <time name="diag">    0.12    0.12</time>
   <time name="diis">    0.96    0.97</time>
   <time name="orth">    0.01    0.01</time>
   <time name="total">    1.17    1.21</time>
   <energy>
    <i name="e_fr_energy">   -358.20907093 </i>
    <i name="e_wo_entrp">   -358.22945117 </i>
    <i name="e_0_energy">   -358.21586434 </i>
   </energy>
  </scstep>
  <scstep>
   <time name="diag">    0.09    0.12</time>
   <time name="diis">    0.84    0.84</time>
   <time name="orth">    0.02    0.02</time>
   <time name="total">    1.01    1.10</time>
   <energy>
    <i name="e_fr_energy">   -358.20925609 </i>
    <i name="e_wo_entrp">   -358.22967540 </i>
    <i name="e_0_energy">   -358.21606252 </i>
   </energy>
  </scstep>
  <scstep>
   <time name="diag">    0.09    0.09</time>
   <time name="diis">    0.81    0.81</time>
   <time name="orth">    0.02    0.02</time>
   <time name="total">    0.98    1.01</time>
   <energy>
    <i name="e_fr_energy">   -358.20951112 </i>
    <i name="e_wo_entrp">   -358.22992619 </i>
    <i name="e_0_energy">   -358.21631614 </i>
   </energy>
  </scstep>
  <scstep>
   <time name="diag">    0.09    0.09</time>
   <time name="diis">    0.77    0.77</time>
   <time name="orth">    0.01    0.01</time>
   <time name="total">    0.94    0.96</time>
   <energy>
    <i name="e_fr_energy">   -358.20961515 </i>
    <i name="e_wo_entrp">   -358.22999072 </i>
    <i name="e_0_energy">   -358.21640701 </i>
   </energy>
  </scstep>
  <scstep>
   <time name="diag">    0.09    0.09</time>
   <time name="diis">    0.66    0.66</time>
   <time name="orth">    0.01    0.01</time>
   <time name="total">    0.83    0.85</time>
   <energy>
    <i name="e_fr_energy">   -358.20962923 </i>
    <i name="e_wo_entrp">   -358.23005042 </i>
    <i name="e_0_energy">   -358.21643629 </i>
   </energy>
  </scstep>
  <scstep>
   <time name="diag">    0.09    0.09</time>
   <time name="diis">    0.52    0.53</time>
   <time name="orth">    0.01    0.02</time>
   <time name="total">    0.66    0.68</time>
   <energy>
    <i name="alphaZ">   1695.78260377 </i>
    <i name="ewald"> -23347.25910757 </i>
    <i name="hartreedc">  -7182.32340861 </i>
    <i name="XCdc">    106.22726157 </i>
    <i name="pawpsdc">  38101.77780622 </i>
    <i name="pawaedc"> -36630.85105903 </i>
    <i name="eentropy">      0.02040540 </i>
    <i name="bandstr">  -3146.83809710 </i>
    <i name="atom">  30045.25396203 </i>
    <i name="e_fr_energy">   -358.20963333 </i>
    <i name="e_wo_entrp">   -358.23003873 </i>
    <i name="e_0_energy">   -358.21643513 </i>
   </energy>
  </scstep>
  <structure>
   <crystal>
    <varray name="basis" >
     <v>       6.93689656       0.04075209       0.01015103 </v>
     <v>       0.06050705      10.17475074       0.00596596 </v>
     <v>       0.01542721       0.00568388      10.22713718 </v>
    </varray>
    <i name="volume">    721.81650854 </i>
    <varray name="rec_basis" >
     <v>       0.14416204      -0.00085717      -0.00021699 </v>
     <v>      -0.00057732       0.09828597      -0.00005375 </v>
     <v>      -0.00014275      -0.00005648       0.09777932 </v>
    </varray>
   </crystal>
   <varray name="positions" >
    <v>       0.00410912       0.33444321       0.00460984 </v>
    <v>       0.97733509       0.66259100       0.99140925 </v>
    <v>       0.23795028       0.81070611       0.17529816 </v>
    <v>       0.76816923       0.16699960       0.49846548 </v>
    <v>       0.48023339       0.99610891       0.66808359 </v>
    <v>       0.76502900       0.84328440       0.18236289 </v>
    <v>       0.77435316       0.84251939       0.49719526 </v>
    <v>       0.23207016       0.50114116       0.50028262 </v>
    <v>       0.74606450       0.16789229       0.82812984 </v>
    <v>       0.02487089       0.00014274       0.99371689 </v>
    <v>       0.23126138       0.17985672       0.50195786 </v>
    <v>       0.25590579       0.50221460       0.17162986 </v>
    <v>       0.48557564       0.99745871       0.99199003 </v>
    <v>       0.74638566       0.16108676       0.17355411 </v>
    <v>       0.47090372       0.99272796       0.34150308 </v>
    <v>       0.73577870       0.48840679       0.82037399 </v>
    <v>       0.52010340       0.67416498       0.99615162 </v>
    <v>       0.49669744       0.67784329       0.65859938 </v>
    <v>       0.25910643       0.49237200       0.82828134 </v>
    <v>       0.98754697       0.33973368       0.31971245 </v>
    <v>       0.00041641       0.33495038       0.67619450 </v>
    <v>       0.97388790       0.65551557       0.33729690 </v>
    <v>       0.22495778       0.82480821       0.49884695 </v>
    <v>       0.23516336       0.82085452       0.82817854 </v>
    <v>       0.49118195       0.32687085       0.00899049 </v>
    <v>       0.73962060       0.49616778       0.17836734 </v>
    <v>       0.76970558       0.84383998       0.81511075 </v>
    <v>       0.99972908       0.67325569       0.67276441 </v>
    <v>       0.26135732       0.18108628       0.17418347 </v>
    <v>       0.03829542       0.00432379       0.33198190 </v>
    <v>       0.02749149       0.99448060       0.67421958 </v>
    <v>       0.25547922       0.18297770       0.82354452 </v>
    <v>       0.51016311       0.34426597       0.34188364 </v>
    <v>       0.75944887       0.49572247       0.50149771 </v>
    <v>       0.49668626       0.32942003       0.65029831 </v>
    <v>       0.51697471       0.65976590       0.34332542 </v>
   </varray>
  </structure>
  <varray name="forces" >
   <v>       0.09218260       0.13239269      -0.12022970 </v>
   <v>       0.20272225      -0.17455619      -0.07459520 </v>
   <v>       0.01533624       0.01164299      -0.03562992 </v>
   <v>      -0.01589201       0.04657922       0.04490438 </v>
   <v>       0.03356628      -0.00477004      -0.04540067 </v>
   <v>      -0.02862947      -0.04618240      -0.06874438 </v>
   <v>      -0.03459348      -0.02691611       0.05651583 </v>
   <v>       0.00844576       0.02046131      -0.04330608 </v>
   <v>       0.01783486      -0.01376721       0.03291840 </v>
   <v>      -0.01860191       0.00366732       0.02528969 </v>
   <v>       0.02647801       0.02592486       0.00662124 </v>
   <v>      -0.01878935       0.05439091       0.00905267 </v>
   <v>       0.01821009      -0.04197284       0.01788336 </v>
   <v>      -0.00693988       0.01566319      -0.02788951 </v>
   <v>       0.05686416       0.02906066      -0.00698625 </v>
   <v>       0.01360964      -0.03820893       0.01499716 </v>
   <v>      -0.20667906      -0.15966373      -0.07564143 </v>
   <v>      -0.10391257      -0.15894997       0.12802938 </v>
   <v>      -0.13510637      -0.08843651      -0.05311570 </v>
   <v>      -0.00250790      -0.06208458      -0.00195176 </v>
   <v>       0.27132546       0.25396132       0.11282747 </v>
   <v>       0.04778232       0.06189815      -0.00586370 </v>
   <v>       0.03293206      -0.05425284       0.01639939 </v>
   <v>       0.03770725       0.13241068       0.01456791 </v>
   <v>      -0.08528496       0.25458691      -0.28723419 </v>
   <v>       0.01133168       0.00535298      -0.07379301 </v>
   <v>      -0.04851431      -0.05070152       0.03502228 </v>
   <v>       0.12704580      -0.20698450       0.08405329 </v>
   <v>       0.01900738      -0.01619816      -0.04939338 </v>
   <v>      -0.04306975       0.02068299      -0.01080782 </v>
   <v>      -0.03758550       0.01976039      -0.00841748 </v>
   <v>      -0.01818871      -0.13660997       0.02954327 </v>
   <v>      -0.00002723      -0.04114043      -0.02680214 </v>
   <v>       0.01099193       0.00189158       0.03219134 </v>
   <v>      -0.21538390       0.19883305       0.34310908 </v>
   <v>      -0.02366742       0.03223474       0.01187618 </v>
  </varray>
  <varray name="stress" >
   <v>       9.53595423      -0.24761287      -0.07028624 </v>
   <v>      -0.24761282      10.84450117      -0.01272792 </v>
   <v>      -0.07028627      -0.01272787      10.72918015 </v>
  </varray>
  <energy>
   <i name="e_fr_energy">   -358.20963333 </i>
   <i name="e_wo_entrp">   -358.21643513 </i>
   <i name="e_0_energy">      0.02040540 </i>
  </energy>
  <time name="totalsc">   15.12   15.72</time>
 </calculation>
 <calculation>
  <scstep>
   <time name="dav">    1.06    1.07</time>
   <time name="total">    1.19    1.32</time>
   <energy>
    <i name="alphaZ">   1694.28003781 </i>
    <i name="ewald"> -23334.13338159 </i>
    <i name="hartreedc">  -7186.41336276 </i>
    <i name="XCdc">    105.92745575 </i>
    <i name="pawpsdc">  38102.94187345 </i>
    <i name="pawaedc"> -36631.95418446 </i>
    <i name="eentropy">      0.02055736 </i>
    <i name="bandstr">  -3154.15281068 </i>
    <i name="atom">  30045.25396203 </i>
    <i name="e_fr_energy">   -358.22985311 </i>
    <i name="e_wo_entrp">   -358.25041046 </i>
    <i name="e_0_energy">   -358.23670556 </i>
   </energy>
  </scstep>
  <scstep>
   <time name="diag">    0.09    0.09</time>
   <time name="diis">    0.78    0.79</time>
   <time name="orth">    0.02    0.02</time>
   <time name="total">    0.96    0.98</time>
   <energy>
    <i name="e_fr_energy">   -358.23856187 </i>
    <i name="e_wo_entrp">   -358.25883627 </i>
    <i name="e_0_energy">   -358.24532000 </i>
   </energy>
  </scstep>
  <scstep>
   <time name="diag">    0.09    0.09</time>
   <time name="diis">    0.81    0.82</time>
   <time name="orth">    0.01    0.01</time>
   <time name="total">    0.99    1.01</time>
   <energy>
    <i name="e_fr_energy">   -358.23462130 </i>
    <i name="e_wo_entrp">   -358.25525418 </i>
    <i name="e_0_energy">   -358.24149893 </i>
   </energy>
  </scstep>
  <scstep>
   <time name="diag">    0.09    0.09</time>
   <time name="diis">    0.85    0.86</time>
   <time name="orth">    0.01    0.01</time>
   <time name="total">    1.03    1.05</time>
   <energy>
    <i name="e_fr_energy">   -358.23423190 </i>
    <i name="e_wo_entrp">   -358.25480206 </i>
    <i name="e_0_energy">   -358.24108862 </i>
   </energy>
  </scstep>
  <scstep>
   <time name="diag">    0.09    0.09</time>
   <time name="diis">    0.83    0.84</time>
   <time name="orth">    0.01    0.01</time>
   <time name="total">    1.00    1.03</time>
   <energy>
    <i name="e_fr_energy">   -358.23410813 </i>
    <i name="e_wo_entrp">   -358.25463196 </i>
    <i name="e_0_energy">   -358.24094940 </i>
   </energy>
  </scstep>
  <scstep>
   <time name="diag">    0.09    0.09</time>
   <time name="diis">    0.92    0.93</time>
   <time name="orth">    0.01    0.01</time>
   <time name="total">    1.11    1.14</time>
   <energy>
    <i name="e_fr_energy">   -358.23407688 </i>
    <i name="e_wo_entrp">   -358.25465281 </i>
    <i name="e_0_energy">   -358.24093552 </i>
   </energy>
  </scstep>
  <scstep>
   <time name="diag">    0.09    0.09</time>
   <time name="diis">    0.73    0.73</time>
   <time name="orth">    0.01    0.01</time>
   <time name="total">    0.90    0.92</time>
   <energy>
    <i name="e_fr_energy">   -358.23405807 </i>
    <i name="e_wo_entrp">   -358.25461127 </i>
    <i name="e_0_energy">   -358.24090914 </i>
   </energy>
  </scstep>
  <scstep>
   <time name="diag">    0.09    0.09</time>
   <time name="diis">    0.55    0.55</time>
   <time name="orth">    0.02    0.02</time>
   <time name="total">    0.68    0.71</time>
   <energy>
    <i name="alphaZ">   1694.28003781 </i>
    <i name="ewald"> -23334.13338159 </i>
    <i name="hartreedc">  -7191.13256477 </i>
    <i name="XCdc">    106.13228949 </i>
    <i name="pawpsdc">  38059.54836148 </i>
    <i name="pawaedc"> -36588.39586953 </i>
    <i name="eentropy">      0.02053983 </i>
    <i name="bandstr">  -3149.80742814 </i>
    <i name="atom">  30045.25396203 </i>
    <i name="e_fr_energy">   -358.23405340 </i>
    <i name="e_wo_entrp">   -358.25459323 </i>
    <i name="e_0_energy">   -358.24090001 </i>
   </energy>
  </scstep>
  <structure>
   <crystal>
    <varray name="basis" >
     <v>       6.93697583       0.04029681       0.00991354 </v>
     <v>       0.05981144      10.17952228       0.00616820 </v>
     <v>       0.01506960       0.00588847      10.23128301 </v>
    </varray>
    <i name="volume">    722.45664883 </i>
    <varray name="rec_basis" >
     <v>       0.14416026      -0.00084691      -0.00021185 </v>
     <v>      -0.00057059       0.09823982      -0.00005570 </v>
     <v>      -0.00013934      -0.00005841       0.09773969 </v>
    </varray>
   </crystal>
   <varray name="positions" >
    <v>       0.00450732       0.33478322       0.00431513 </v>
    <v>       0.97802388       0.66217641       0.99118894 </v>
    <v>       0.23794752       0.81074299       0.17526585 </v>
    <v>       0.76818229       0.16703974       0.49850087 </v>
    <v>       0.48025887       0.99610578       0.66802548 </v>
    <v>       0.76498554       0.84323917       0.18231320 </v>
    <v>       0.77430635       0.84251494       0.49725960 </v>
    <v>       0.23205713       0.50117255       0.50022012 </v>
    <v>       0.74610098       0.16784252       0.82818420 </v>
    <v>       0.02487897       0.00014821       0.99374214 </v>
    <v>       0.23128133       0.17987963       0.50197081 </v>
    <v>       0.25585354       0.50229162       0.17165041 </v>
    <v>       0.48557881       0.99741171       0.99200417 </v>
    <v>       0.74636711       0.16110483       0.17355263 </v>
    <v>       0.47100033       0.99276537       0.34147687 </v>
    <v>       0.73575985       0.48832312       0.82038608 </v>
    <v>       0.51945225       0.67378531       0.99595512 </v>
    <v>       0.49631396       0.67746280       0.65890193 </v>
    <v>       0.25864106       0.49210351       0.82814779 </v>
    <v>       0.98753343       0.33966014       0.31970592 </v>
    <v>       0.00136419       0.33558232       0.67647417 </v>
    <v>       0.97400542       0.65560084       0.33729657 </v>
    <v>       0.22497328       0.82475186       0.49887088 </v>
    <v>       0.23516184       0.82110505       0.82815566 </v>
    <v>       0.49084828       0.32745349       0.00838036 </v>
    <v>       0.73966293       0.49615076       0.17827312 </v>
    <v>       0.76963214       0.84377462       0.81513638 </v>
    <v>       0.00024890       0.67274895       0.67299402 </v>
    <v>       0.26139028       0.18104086       0.17412909 </v>
    <v>       0.03826907       0.00434393       0.33198125 </v>
    <v>       0.02746658       0.99450529       0.67423958 </v>
    <v>       0.25539305       0.18273609       0.82353548 </v>
    <v>       0.51015600       0.34422412       0.34184723 </v>
    <v>       0.75949368       0.49571438       0.50153310 </v>
    <v>       0.49597868       0.32992695       0.65104226 </v>
    <v>       0.51693415       0.65978692       0.34333557 </v>
   </varray>
  </structure>
  <varray name="forces" >
   <v>       0.07360028       0.10020352      -0.09536770 </v>
   <v>       0.17295469      -0.14207871      -0.05945941 </v>
   <v>       0.01599190       0.00541176      -0.03280421 </v>
   <v>      -0.01903164       0.06972982       0.05949072 </v>
   <v>       0.03526639      -0.01250461      -0.04522968 </v>
   <v>      -0.02674969      -0.06173935      -0.07605702 </v>
   <v>      -0.02622650      -0.04363733       0.06671876 </v>
   <v>       0.01214634       0.01851493      -0.05333242 </v>
   <v>       0.01898594      -0.00085503       0.02683486 </v>
   <v>      -0.02379624       0.00043840       0.02301628 </v>
   <v>       0.02820016       0.03661978       0.01064936 </v>
   <v>      -0.01424950       0.05251239       0.02173515 </v>
   <v>       0.02032094      -0.04786788       0.01721212 </v>
   <v>      -0.00982904       0.02716106      -0.03624894 </v>
   <v>       0.05170746       0.03193127      -0.00431422 </v>
   <v>       0.02607369      -0.04133616       0.00991193 </v>
   <v>      -0.18621824      -0.13463752      -0.06346647 </v>
   <v>      -0.08641124      -0.12916464       0.10941216 </v>
   <v>      -0.11444650      -0.06526427      -0.04951574 </v>
   <v>      -0.01090067      -0.06626791      -0.00991631 </v>
   <v>       0.23420678       0.19995625       0.09524345 </v>
   <v>       0.03339593       0.06282246      -0.00224087 </v>
   <v>       0.02711452      -0.05924682       0.01921388 </v>
   <v>       0.03787089       0.13512198       0.01338404 </v>
   <v>      -0.08154422       0.21264673      -0.25965835 </v>
   <v>       0.00545317       0.00991239      -0.05984460 </v>
   <v>      -0.03991059      -0.05874981       0.02969387 </v>
   <v>       0.09722096      -0.14932247       0.06564348 </v>
   <v>       0.02583054       0.00081583      -0.05360765 </v>
   <v>      -0.04217914       0.02039587      -0.01157174 </v>
   <v>      -0.04054186       0.00305311      -0.00867641 </v>
   <v>      -0.00936477      -0.13243202       0.03520384 </v>
   <v>       0.01477857      -0.03572230      -0.02983622 </v>
   <v>       0.00901408       0.00169964       0.02363437 </v>
   <v>      -0.19652609       0.16071506       0.30784900 </v>
   <v>      -0.01220730       0.03116460       0.01630068 </v>
  </varray>
  <varray name="stress" >
   <v>       8.71114569      -0.24330459      -0.00730669 </v>
   <v>      -0.24330454       9.61381277      -0.04104491 </v>
   <v>      -0.00730666      -0.04104484       9.49073672 </v>
  </varray>
  <energy>
   <i name="e_fr_energy">   -358.23405340 </i>
   <i name="e_wo_entrp">   -358.24090001 </i>
   <i name="e_0_energy">      0.02053983 </i>
  </energy>
  <time name="totalsc">    9.63   10.00</time>
 </calculation>
 <calculation>
  <scstep>
   <time name="dav">    0.98    1.19</time>
   <time name="total">    1.12    1.45</time>
   <energy>
    <i name="alphaZ">   1689.78434635 </i>
    <i name="ewald"> -23293.56018680 </i>
    <i name="hartreedc">  -7204.34426787 </i>
    <i name="XCdc">    105.23337823 </i>
    <i name="pawpsdc">  38059.95082465 </i>
    <i name="pawaedc"> -36588.83516164 </i>
    <i name="eentropy">      0.02069202 </i>
    <i name="bandstr">  -3171.74829075 </i>
    <i name="atom">  30045.25396203 </i>
    <i name="e_fr_energy">   -358.24470378 </i>
    <i name="e_wo_entrp">   -358.26539581 </i>
    <i name="e_0_energy">   -358.25160112 </i>
   </energy>
  </scstep>
  <scstep>
   <time name="diag">    0.09    0.10</time>
   <time name="diis">    0.78    0.78</time>
   <time name="orth">    0.01    0.01</time>
   <time name="total">    0.96    0.98</time>
   <energy>
    <i name="e_fr_energy">   -358.32063734 </i>
    <i name="e_wo_entrp">   -358.34051477 </i>
    <i name="e_0_energy">   -358.32726315 </i>
   </energy>
  </scstep>
  <scstep>
   <time name="diag">    0.09    0.09</time>
   <time name="diis">    0.79    0.83</time>
   <time name="orth">    0.02    0.02</time>
   <time name="total">    0.97    1.02</time>
   <energy>
    <i name="e_fr_energy">   -358.28987151 </i>
    <i name="e_wo_entrp">   -358.31071283 </i>
    <i name="e_0_energy">   -358.29681862 </i>
   </energy>
  </scstep>
  <scstep>
   <time name="diag">    0.09    0.09</time>
   <time name="diis">    0.92    0.93</time>
   <time name="orth">    0.01    0.02</time>
   <time name="total">    1.10    1.12</time>
   <energy>
    <i name="e_fr_energy">   -358.28609388 </i>
    <i name="e_wo_entrp">   -358.30691033 </i>
    <i name="e_0_energy">   -358.29303270 </i>
   </energy>
  </scstep>
  <scstep>
   <time name="diag">    0.09    0.09</time>
   <time name="diis">    0.83    0.84</time>
   <time name="orth">    0.01    0.01</time>
   <time name="total">    1.00    1.03</time>
   <energy>
    <i name="e_fr_energy">   -358.28506720 </i>
    <i name="e_wo_entrp">   -358.30565866 </i>
    <i name="e_0_energy">   -358.29193102 </i>
   </energy>
  </scstep>
  <scstep>
   <time name="diag">    0.09    0.09</time>
   <time name="diis">    0.93    0.94</time>
   <time name="orth">    0.02    0.02</time>
   <time name="total">    1.11    1.14</time>
   <energy>
    <i name="e_fr_energy">   -358.28482445 </i>
    <i name="e_wo_entrp">   -358.30560090 </i>
    <i name="e_0_energy">   -358.29174993 </i>
   </energy>
  </scstep>
  <scstep>
   <time name="diag">    0.09    0.10</time>
   <time name="diis">    0.98    0.98</time>
   <time name="orth">    0.01    0.01</time>
   <time name="total">    1.15    1.18</time>
   <energy>
    <i name="e_fr_energy">   -358.28471240 </i>
    <i name="e_wo_entrp">   -358.30541545 </i>
    <i name="e_0_energy">   -358.29161342 </i>
   </energy>
  </scstep>
  <scstep>
   <time name="diag">    0.09    0.10</time>
   <time name="diis">    0.87    0.89</time>
   <time name="orth">    0.02    0.02</time>
   <time name="total">    1.04    1.13</time>
   <energy>
    <i name="e_fr_energy">   -358.28472069 </i>
    <i name="e_wo_entrp">   -358.30540529 </i>
    <i name="e_0_energy">   -358.29161555 </i>
   </energy>
  </scstep>
  <scstep>
   <time name="diag">    0.16    0.16</time>
   <time name="diis">    0.77    0.77</time>
   <time name="orth">    0.01    0.01</time>
   <time name="total">    1.03    1.08</time>
   <energy>
    <i name="e_fr_energy">   -358.28473369 </i>
    <i name="e_wo_entrp">   -358.30545979 </i>
    <i name="e_0_energy">   -358.29164239 </i>
   </energy>
  </scstep>
  <scstep>
   <time name="diag">    0.09    0.09</time>
   <time name="diis">    0.64    0.65</time>
   <time name="orth">    0.02    0.02</time>
   <time name="total">    0.82    0.84</time>
   <energy>
    <i name="e_fr_energy">   -358.28473561 </i>
    <i name="e_wo_entrp">   -358.30542472 </i>
    <i name="e_0_energy">   -358.29163198 </i>
   </energy>
  </scstep>
  <scstep>
   <time name="diag">    0.09    0.09</time>
   <time name="diis">    0.57    0.58</time>
   <time name="orth">    0.01    0.01</time>
   <time name="total">    0.71    0.74</time>
   <energy>
    <i name="alphaZ">   1689.78434635 </i>
    <i name="ewald"> -23293.56018680 </i>
    <i name="hartreedc">  -7217.97829998 </i>
    <i name="XCdc">    105.82280162 </i>
    <i name="pawpsdc">  37929.69762433 </i>
    <i name="pawaedc"> -36458.80288198 </i>
    <i name="eentropy">      0.02072394 </i>
    <i name="bandstr">  -3158.52282504 </i>
    <i name="atom">  30045.25396203 </i>
    <i name="e_fr_energy">   -358.28473554 </i>
    <i name="e_wo_entrp">   -358.30545948 </i>
    <i name="e_0_energy">   -358.29164352 </i>
   </energy>
  </scstep>
  <structure>
   <crystal>
    <varray name="basis" >
     <v>       6.93721364       0.03893099       0.00920106 </v>
     <v>       0.05772459      10.19383691       0.00677492 </v>
     <v>       0.01399679       0.00650223      10.24372051 </v>
    </varray>
    <i name="volume">    724.37875338 </i>
    <varray name="rec_basis" >
     <v>       0.14415494      -0.00081617      -0.00019645 </v>
     <v>      -0.00055046       0.09810165      -0.00006152 </v>
     <v>      -0.00012912      -0.00006415       0.09762100 </v>
    </varray>
   </crystal>
   <varray name="positions" >
    <v>       0.00570194       0.33580285       0.00343135 </v>
    <v>       0.98009005       0.66093331       0.99052836 </v>
    <v>       0.23793926       0.81085360       0.17516897 </v>
    <v>       0.76822148       0.16716012       0.49860700 </v>
    <v>       0.48033531       0.99609637       0.66785122 </v>
    <v>       0.76485514       0.84310354       0.18216421 </v>
    <v>       0.77416596       0.84250160       0.49745252 </v>
    <v>       0.23201804       0.50126670       0.50003269 </v>
    <v>       0.74621042       0.16769329       0.82834723 </v>
    <v>       0.02490325       0.00016462       0.99381788 </v>
    <v>       0.23134118       0.17994831       0.50200964 </v>
    <v>       0.25569682       0.50252255       0.17171203 </v>
    <v>       0.48558828       0.99727077       0.99204656 </v>
    <v>       0.74631148       0.16115899       0.17354817 </v>
    <v>       0.47129017       0.99287757       0.34139828 </v>
    <v>       0.73570326       0.48807224       0.82042232 </v>
    <v>       0.51749868       0.67264677       0.99536582 </v>
    <v>       0.49516347       0.67632179       0.65980922 </v>
    <v>       0.25724484       0.49129837       0.82774728 </v>
    <v>       0.98749281       0.33943964       0.31968633 </v>
    <v>       0.00420776       0.33747736       0.67731287 </v>
    <v>       0.97435801       0.65585655       0.33729556 </v>
    <v>       0.22501978       0.82458290       0.49894265 </v>
    <v>       0.23515736       0.82185631       0.82808703 </v>
    <v>       0.48984737       0.32920060       0.00655068 </v>
    <v>       0.73978989       0.49609973       0.17799057 </v>
    <v>       0.76941182       0.84357861       0.81521321 </v>
    <v>       0.00180821       0.67122950       0.67368263 </v>
    <v>       0.26148915       0.18090466       0.17396605 </v>
    <v>       0.03819004       0.00440431       0.33197931 </v>
    <v>       0.02739186       0.99457932       0.67429955 </v>
    <v>       0.25513446       0.18201161       0.82350838 </v>
    <v>       0.51013465       0.34409863       0.34173804 </v>
    <v>       0.75962812       0.49569012       0.50163924 </v>
    <v>       0.49385624       0.33144683       0.65327316 </v>
    <v>       0.51681246       0.65984997       0.34336599 </v>
   </varray>
  </structure>
  <varray name="forces" >
   <v>       0.01807856      -0.00014639      -0.01968561 </v>
   <v>       0.09040200      -0.04716191      -0.01453144 </v>
   <v>       0.01704566      -0.01154323      -0.02577227 </v>
   <v>      -0.02868046       0.12985370       0.09624637 </v>
   <v>       0.04211409      -0.03528891      -0.04663046 </v>
   <v>      -0.02015359      -0.10290163      -0.09553857 </v>
   <v>      -0.00374401      -0.08929931       0.09597753 </v>
   <v>       0.02595278       0.01314840      -0.08299025 </v>
   <v>       0.02096310       0.03726034       0.01086233 </v>
   <v>      -0.04012965      -0.00690634       0.01726016 </v>
   <v>       0.03327979       0.06574756       0.01903931 </v>
   <v>       0.00124872       0.04591444       0.06026651 </v>
   <v>       0.02738940      -0.06432140       0.01727091 </v>
   <v>      -0.01717663       0.05930053      -0.05936584 </v>
   <v>       0.03955993       0.04084070       0.00217287 </v>
   <v>       0.06394108      -0.04843692      -0.00161040 </v>
   <v>      -0.12778508      -0.06154501      -0.02765961 </v>
   <v>      -0.03236275      -0.04273004       0.05418567 </v>
   <v>      -0.05192241       0.01280202      -0.03220853 </v>
   <v>      -0.03533626      -0.07977359      -0.03319678 </v>
   <v>       0.12040556       0.03633043       0.04247728 </v>
   <v>      -0.01222719       0.06584921       0.00640074 </v>
   <v>       0.01141510      -0.07117459       0.02329469 </v>
   <v>       0.03737747       0.14554535       0.01213256 </v>
   <v>      -0.06603960       0.08981459      -0.18041063 </v>
   <v>      -0.01258889       0.02376153      -0.01975666 </v>
   <v>      -0.01583492      -0.08084093       0.01542547 </v>
   <v>       0.00921486       0.01609644       0.01248555 </v>
   <v>       0.04307912       0.04614123      -0.06573374 </v>
   <v>      -0.04551172       0.02154061      -0.01546226 </v>
   <v>      -0.05136024      -0.04317077      -0.01122691 </v>
   <v>       0.01602389      -0.12170666       0.05590703 </v>
   <v>       0.05783495      -0.02309988      -0.04163246 </v>
   <v>      -0.00024064       0.00149966      -0.00321220 </v>
   <v>      -0.13725011       0.05047146       0.20463105 </v>
   <v>       0.02301810       0.02812935       0.03058862 </v>
  </varray>
  <varray name="stress" >
   <v>       5.55071366      -0.23214110       0.19367609 </v>
   <v>      -0.23214111       5.13976312      -0.06966222 </v>
   <v>       0.19367613      -0.06966227       4.97943531 </v>
  </varray>
  <energy>
   <i name="e_fr_energy">   -358.28473554 </i>
   <i name="e_wo_entrp">   -358.29164352 </i>
   <i name="e_0_energy">      0.02072394 </i>
  </energy>
  <time name="totalsc">   12.68   13.48</time>
 </calculation>
 <calculation>
  <scstep>
   <time name="dav">    1.02    1.02</time>
   <time name="total">    1.15    1.25</time>
   <energy>
    <i name="alphaZ">   1680.84667249 </i>
    <i name="ewald"> -23206.94137380 </i>
    <i name="hartreedc">  -7249.50015718 </i>
    <i name="XCdc">    104.06218772 </i>
    <i name="pawpsdc">  37928.76246349 </i>
    <i name="pawaedc"> -36457.92657434 </i>
    <i name="eentropy">      0.01983305 </i>
    <i name="bandstr">  -3202.68781861 </i>
    <i name="atom">  30045.25396203 </i>
    <i name="e_fr_energy">   -358.11080516 </i>
    <i name="e_wo_entrp">   -358.13063820 </i>
    <i name="e_0_energy">   -358.11741617 </i>
   </energy>
  </scstep>
  <scstep>
   <time name="diag">    0.09    0.09</time>
   <time name="diis">    0.76    0.76</time>
   <time name="orth">    0.01    0.01</time>
   <time name="total">    0.97    1.01</time>
   <energy>
    <i name="e_fr_energy">   -358.40021135 </i>
    <i name="e_wo_entrp">   -358.41965442 </i>
    <i name="e_0_energy">   -358.40669237 </i>
   </energy>
  </scstep>
  <scstep>
   <time name="diag">    0.09    0.09</time>
   <time name="diis">    0.91    0.92</time>
   <time name="orth">    0.02    0.02</time>
   <time name="total">    1.08    1.11</time>
   <energy>
    <i name="e_fr_energy">   -358.30789767 </i>
    <i name="e_wo_entrp">   -358.32782709 </i>
    <i name="e_0_energy">   -358.31454081 </i>
   </energy>
  </scstep>
  <scstep>
   <time name="diag">    0.09    0.09</time>
   <time name="diis">    0.87    0.87</time>
   <time name="orth">    0.02    0.02</time>
   <time name="total">    1.04    1.06</time>
   <energy>
    <i name="e_fr_energy">   -358.29036367 </i>
    <i name="e_wo_entrp">   -358.31089979 </i>
    <i name="e_0_energy">   -358.29720904 </i>
   </energy>
  </scstep>
  <scstep>
   <time name="diag">    0.09    0.09</time>
   <time name="diis">    0.85    0.86</time>
   <time name="orth">    0.02    0.02</time>
   <time name="total">    1.02    1.05</time>
   <energy>
    <i name="e_fr_energy">   -358.28640243 </i>
    <i name="e_wo_entrp">   -358.30624788 </i>
    <i name="e_0_energy">   -358.29301758 </i>
   </energy>
  </scstep>
  <scstep>
   <time name="diag">    0.16    0.16</time>
   <time name="diis">    0.86    0.87</time>
   <time name="orth">    0.01    0.01</time>
   <time name="total">    1.10    1.13</time>
   <energy>
    <i name="e_fr_energy">   -358.28524984 </i>
    <i name="e_wo_entrp">   -358.30565569 </i>
    <i name="e_0_energy">   -358.29205179 </i>
   </energy>
  </scstep>
  <scstep>
   <time name="diag">    0.09    0.09</time>
   <time name="diis">    0.96    0.96</time>
   <time name="orth">    0.01    0.01</time>
   <time name="total">    1.13    1.15</time>
   <energy>
    <i name="e_fr_energy">   -358.28487421 </i>
    <i name="e_wo_entrp">   -358.30500999 </i>
    <i name="e_0_energy">   -358.29158614 </i>
   </energy>
  </scstep>
  <scstep>
   <time name="diag">    0.09    0.09</time>
   <time name="diis">    0.99    1.00</time>
   <time name="orth">    0.01    0.01</time>
   <time name="total">    1.16    1.19</time>
   <energy>
    <i name="e_fr_energy">   -358.28492584 </i>
    <i name="e_wo_entrp">   -358.30514399 </i>
    <i name="e_0_energy">   -358.29166522 </i>
   </energy>
  </scstep>
  <scstep>
[...]
       <r>    7.4936    1.0000 </r>
       <r>    7.5012    1.0001 </r>
       <r>    7.5451    1.0003 </r>
       <r>    7.5786    1.0009 </r>
       <r>    7.6087    1.0021 </r>
       <r>    7.6477    1.0057 </r>
       <r>    7.6576    1.0072 </r>
       <r>    7.6930    1.0145 </r>
       <r>    7.7054    1.0179 </r>
       <r>    7.7710    1.0351 </r>
       <r>    7.8143    1.0240 </r>
       <r>    7.8309    1.0075 </r>
       <r>    7.8803    0.8957 </r>
       <r>    7.8928    0.8508 </r>
       <r>    7.9336    0.6606 </r>
       <r>    7.9752    0.4293 </r>
       <r>    7.9958    0.3179 </r>
       <r>    8.0428    0.1117 </r>
       <r>    8.0519    0.0823 </r>
       <r>    8.0902   -0.0018 </r>
       <r>    8.1421   -0.0353 </r>
       <r>    8.1720   -0.0319 </r>
       <r>    8.1893   -0.0272 </r>
       <r>    8.2217   -0.0174 </r>
       <r>    8.2740   -0.0062 </r>
       <r>    8.2903   -0.0042 </r>
       <r>    8.3701   -0.0004 </r>
       <r>    8.4179   -0.0001 </r>
       <r>    8.4552   -0.0000 </r>
       <r>    8.4782   -0.0000 </r>
       <r>    8.5286   -0.0000 </r>
       <r>    8.5760   -0.0000 </r>
       <r>    8.6303   -0.0000 </r>
       <r>    8.7085   -0.0000 </r>
       <r>    8.7852   -0.0000 </r>
       <r>    8.8743   -0.0000 </r>
       <r>    8.9296   -0.0000 </r>
       <r>    9.0709   -0.0000 </r>
       <r>    9.2231   -0.0000 </r>
       <r>    9.2572   -0.0000 </r>
       <r>    9.7920   -0.0000 </r>
       <r>    9.8764   -0.0000 </r>
       <r>    9.9319   -0.0000 </r>
       <r>    9.9577   -0.0000 </r>
       <r>   10.0267   -0.0000 </r>
       <r>   10.0998   -0.0000 </r>
       <r>   10.1575   -0.0000 </r>
       <r>   10.2946   -0.0000 </r>
       <r>   10.3167   -0.0000 </r>
      </set>
     </set>
    </set>
   </array>
  </eigenvalues>
  <separator name="orbital magnetization" >
   <v name="MAGDIPOLOUT">      0.00000000      0.00000000      0.00000000</v>
  </separator>
  <dos>
   <i name="efermi">      7.96266067 </i>
   <total>
    <array>
     <dimension dim="1">gridpoints</dimension>
     <dimension dim="2">spin</dimension>
     <field>energy</field>
     <field>total</field>
     <field>integrated</field>
     <set>
      <set comment="spin 1">
       <r>   -49.1458     0.0000     0.0000 </r>
       <r>   -48.9380     0.0000     0.0000 </r>
       <r>   -48.7301     0.0000     0.0000 </r>
       <r>   -48.5223     0.0000     0.0000 </r>
       <r>   -48.3145     0.0000     0.0000 </r>
       <r>   -48.1066     0.0000     0.0000 </r>
       <r>   -47.8988     0.0000     0.0000 </r>
       <r>   -47.6909    -0.0000    -0.0000 </r>
       <r>   -47.4831    -0.0000    -0.0000 </r>
       <r>   -47.2753    -0.0000    -0.0000 </r>
       <r>   -47.0674    -0.0000    -0.0000 </r>
       <r>   -46.8596    -0.0000    -0.0000 </r>
       <r>   -46.6518    -0.0726    -0.0151 </r>
       <r>   -46.4439    -1.5647    -0.3403 </r>
       <r>   -46.2361    39.5194     7.8733 </r>
       <r>   -46.0283    53.2151    18.9333 </r>
       <r>   -45.8204     5.6750    20.1127 </r>
       <r>   -45.6126    -0.5405    20.0004 </r>
       <r>   -45.4048    -0.0020    20.0000 </r>
       <r>   -45.1969    -0.0000    20.0000 </r>
       <r>   -44.9891    -0.0000    20.0000 </r>
       <r>   -44.7812     0.0000    20.0000 </r>
       <r>   -44.5734     0.0000    20.0000 </r>
       <r>   -44.3656     0.0000    20.0000 </r>
       <r>   -44.1577     0.0000    20.0000 </r>
       <r>   -43.9499     0.0000    20.0000 </r>
       <r>   -43.7421     0.0000    20.0000 </r>
       <r>   -43.5342     0.0000    20.0000 </r>
       <r>   -43.3264     0.0000    20.0000 </r>
       <r>   -43.1186     0.0000    20.0000 </r>
       <r>   -42.9107     0.0000    20.0000 </r>
       <r>   -42.7029     0.0000    20.0000 </r>
       <r>   -42.4950     0.0000    20.0000 </r>
       <r>   -42.2872     0.0000    20.0000 </r>
       <r>   -42.0794     0.0000    20.0000 </r>
       <r>   -41.8715     0.0000    20.0000 </r>
       <r>   -41.6637    -0.0000    20.0000 </r>
       <r>   -41.4559    -0.0000    20.0000 </r>
       <r>   -41.2480    -0.0000    20.0000 </r>
       <r>   -41.0402    -0.0000    20.0000 </r>
       <r>   -40.8324    -0.0000    20.0000 </r>
       <r>   -40.6245    -0.0610    19.9873 </r>
       <r>   -40.4167    -1.8076    19.6116 </r>
       <r>   -40.2088    39.9922    27.9235 </r>
       <r>   -40.0010    53.7303    39.0906 </r>
       <r>   -39.7932     4.8724    40.1032 </r>
       <r>   -39.5853    -0.4950    40.0003 </r>
       <r>   -39.3775    -0.0016    40.0000 </r>
       <r>   -39.1697    -0.0000    40.0000 </r>
       <r>   -38.9618    -0.0000    40.0000 </r>
       <r>   -38.7540     0.0000    40.0000 </r>
       <r>   -38.5462     0.0000    40.0000 </r>
       <r>   -38.3383     0.0000    40.0000 </r>
       <r>   -38.1305     0.0000    40.0000 </r>
       <r>   -37.9227     0.0000    40.0000 </r>
       <r>   -37.7148     0.0000    40.0000 </r>
       <r>   -37.5070     0.0000    40.0000 </r>
       <r>   -37.2991     0.0000    40.0000 </r>
       <r>   -37.0913     0.0000    40.0000 </r>
       <r>   -36.8835     0.0000    40.0000 </r>
       <r>   -36.6756     0.0000    40.0000 </r>
       <r>   -36.4678     0.0000    40.0000 </r>
       <r>   -36.2600     0.0000    40.0000 </r>
       <r>   -36.0521     0.0000    40.0000 </r>
       <r>   -35.8443     0.0000    40.0000 </r>
       <r>   -35.6365     0.0000    40.0000 </r>
       <r>   -35.4286     0.0000    40.0000 </r>
       <r>   -35.2208     0.0000    40.0000 </r>
       <r>   -35.0129     0.0000    40.0000 </r>
       <r>   -34.8051     0.0000    40.0000 </r>
       <r>   -34.5973     0.0000    40.0000 </r>
       <r>   -34.3894     0.0000    40.0000 </r>
       <r>   -34.1816     0.0000    40.0000 </r>
       <r>   -33.9738     0.0000    40.0000 </r>
       <r>   -33.7659     0.0000    40.0000 </r>
       <r>   -33.5581     0.0000    40.0000 </r>
       <r>   -33.3503     0.0000    40.0000 </r>
       <r>   -33.1424     0.0000    40.0000 </r>
       <r>   -32.9346     0.0000    40.0000 </r>
       <r>   -32.7267     0.0000    40.0000 </r>
       <r>   -32.5189     0.0000    40.0000 </r>
       <r>   -32.3111     0.0000    40.0000 </r>
       <r>   -32.1032     0.0000    40.0000 </r>
       <r>   -31.8954     0.0000    40.0000 </r>
       <r>   -31.6876     0.0000    40.0000 </r>
       <r>   -31.4797     0.0000    40.0000 </r>
       <r>   -31.2719     0.0000    40.0000 </r>
       <r>   -31.0641     0.0000    40.0000 </r>
       <r>   -30.8562     0.0000    40.0000 </r>
       <r>   -30.6484     0.0000    40.0000 </r>
       <r>   -30.4406     0.0000    40.0000 </r>
       <r>   -30.2327     0.0000    40.0000 </r>
       <r>   -30.0249     0.0000    40.0000 </r>
       <r>   -29.8170     0.0000    40.0000 </r>
       <r>   -29.6092     0.0000    40.0000 </r>
       <r>   -29.4014     0.0000    40.0000 </r>
       <r>   -29.1935     0.0000    40.0000 </r>
       <r>   -28.9857     0.0000    40.0000 </r>
       <r>   -28.7779     0.0000    40.0000 </r>
       <r>   -28.5700     0.0000    40.0000 </r>
       <r>   -28.3622     0.0000    40.0000 </r>
       <r>   -28.1544     0.0000    40.0000 </r>
       <r>   -27.9465     0.0000    40.0000 </r>
       <r>   -27.7387     0.0000    40.0000 </r>
       <r>   -27.5308     0.0000    40.0000 </r>
       <r>   -27.3230     0.0000    40.0000 </r>
       <r>   -27.1152     0.0000    40.0000 </r>
       <r>   -26.9073     0.0000    40.0000 </r>
       <r>   -26.6995     0.0000    40.0000 </r>
       <r>   -26.4917     0.0000    40.0000 </r>
       <r>   -26.2838     0.0000    40.0000 </r>
       <r>   -26.0760     0.0000    40.0000 </r>
       <r>   -25.8682     0.0000    40.0000 </r>
       <r>   -25.6603     0.0000    40.0000 </r>
       <r>   -25.4525     0.0000    40.0000 </r>
       <r>   -25.2446     0.0000    40.0000 </r>
       <r>   -25.0368     0.0000    40.0000 </r>
       <r>   -24.8290     0.0000    40.0000 </r>
       <r>   -24.6211     0.0000    40.0000 </r>
       <r>   -24.4133     0.0000    40.0000 </r>
       <r>   -24.2055     0.0000    40.0000 </r>
       <r>   -23.9976    -0.0000    40.0000 </r>
       <r>   -23.7898    -0.0000    40.0000 </r>
       <r>   -23.5820    -0.0000    40.0000 </r>
       <r>   -23.3741    -0.0000    40.0000 </r>
       <r>   -23.1663    -0.0024    39.9995 </r>
       <r>   -22.9585    -0.6705    39.8602 </r>
       <r>   -22.7506     8.1338    41.5507 </r>
       <r>   -22.5428    46.7294    51.2627 </r>
       <r>   -22.3349    88.3024    69.6151 </r>
       <r>   -22.1271    91.4055    88.6125 </r>
       <r>   -21.9193    49.3578    98.8708 </r>
       <r>   -21.7114     5.9913   100.1160 </r>
       <r>   -21.5036    -0.5568   100.0003 </r>
       <r>   -21.2958    -0.0015   100.0000 </r>
       <r>   -21.0879    -0.0000   100.0000 </r>
       <r>   -20.8801    -0.0000   100.0000 </r>
       <r>   -20.6723     0.0000   100.0000 </r>
       <r>   -20.4644     0.0000   100.0000 </r>
       <r>   -20.2566     0.0000   100.0000 </r>
       <r>   -20.0487    -0.0000   100.0000 </r>
       <r>   -19.8409    -0.0000   100.0000 </r>
       <r>   -19.6331    -0.0000   100.0000 </r>
       <r>   -19.4252    -0.0000   100.0000 </r>
       <r>   -19.2174    -0.0000   100.0000 </r>
       <r>   -19.0096    -0.0159    99.9967 </r>
       <r>   -18.8017    -1.0483    99.7788 </r>
       <r>   -18.5939    15.4635   102.9927 </r>
       <r>   -18.3861    71.7752   117.9102 </r>
       <r>   -18.1782   104.3319   139.5941 </r>
       <r>   -17.9704    94.6337   159.2624 </r>
       <r>   -17.7625     4.1764   160.1304 </r>
       <r>   -17.5547    -0.6258   160.0003 </r>
       <r>   -17.3469    -0.0016   160.0000 </r>
       <r>   -17.1390    -0.0000   160.0000 </r>
       <r>   -16.9312    -0.0000   160.0000 </r>
       <r>   -16.7234     0.0000   160.0000 </r>
       <r>   -16.5155     0.0000   160.0000 </r>
       <r>   -16.3077     0.0000   160.0000 </r>
       <r>   -16.0999     0.0000   160.0000 </r>
       <r>   -15.8920     0.0000   160.0000 </r>
       <r>   -15.6842     0.0000   160.0000 </r>
       <r>   -15.4764     0.0000   160.0000 </r>
       <r>   -15.2685     0.0000   160.0000 </r>
       <r>   -15.0607     0.0000   160.0000 </r>
       <r>   -14.8528     0.0000   160.0000 </r>
       <r>   -14.6450     0.0000   160.0000 </r>
       <r>   -14.4372     0.0000   160.0000 </r>
       <r>   -14.2293     0.0000   160.0000 </r>
       <r>   -14.0215     0.0000   160.0000 </r>
       <r>   -13.8137     0.0000   160.0000 </r>
       <r>   -13.6058     0.0000   160.0000 </r>
       <r>   -13.3980     0.0000   160.0000 </r>
       <r>   -13.1902     0.0000   160.0000 </r>
       <r>   -12.9823     0.0000   160.0000 </r>
       <r>   -12.7745     0.0000   160.0000 </r>
       <r>   -12.5666     0.0000   160.0000 </r>
       <r>   -12.3588     0.0000   160.0000 </r>
       <r>   -12.1510     0.0000   160.0000 </r>
       <r>   -11.9431     0.0000   160.0000 </r>
       <r>   -11.7353     0.0000   160.0000 </r>
       <r>   -11.5275     0.0000   160.0000 </r>
       <r>   -11.3196     0.0000   160.0000 </r>
       <r>   -11.1118     0.0000   160.0000 </r>
       <r>   -10.9040     0.0000   160.0000 </r>
       <r>   -10.6961     0.0000   160.0000 </r>
       <r>   -10.4883     0.0000   160.0000 </r>
       <r>   -10.2805     0.0000   160.0000 </r>
       <r>   -10.0726     0.0000   160.0000 </r>
       <r>    -9.8648     0.0000   160.0000 </r>
       <r>    -9.6569     0.0000   160.0000 </r>
       <r>    -9.4491     0.0000   160.0000 </r>
       <r>    -9.2413     0.0000   160.0000 </r>
       <r>    -9.0334     0.0000   160.0000 </r>
       <r>    -8.8256     0.0000   160.0000 </r>
       <r>    -8.6178     0.0000   160.0000 </r>
       <r>    -8.4099     0.0000   160.0000 </r>
       <r>    -8.2021     0.0000   160.0000 </r>
       <r>    -7.9943     0.0000   160.0000 </r>
       <r>    -7.7864     0.0000   160.0000 </r>
       <r>    -7.5786     0.0000   160.0000 </r>
       <r>    -7.3707     0.0000   160.0000 </r>
       <r>    -7.1629     0.0000   160.0000 </r>
       <r>    -6.9551     0.0000   160.0000 </r>
       <r>    -6.7472     0.0000   160.0000 </r>
       <r>    -6.5394     0.0000   160.0000 </r>
       <r>    -6.3316     0.0000   160.0000 </r>
       <r>    -6.1237     0.0000   160.0000 </r>
       <r>    -5.9159     0.0000   160.0000 </r>
       <r>    -5.7081     0.0000   160.0000 </r>
       <r>    -5.5002     0.0000   160.0000 </r>
       <r>    -5.2924     0.0000   160.0000 </r>
       <r>    -5.0845     0.0000   160.0000 </r>
       <r>    -4.8767     0.0000   160.0000 </r>
       <r>    -4.6689     0.0000   160.0000 </r>
       <r>    -4.4610     0.0000   160.0000 </r>
       <r>    -4.2532     0.0000   160.0000 </r>
       <r>    -4.0454     0.0000   160.0000 </r>
       <r>    -3.8375     0.0000   160.0000 </r>
       <r>    -3.6297     0.0000   160.0000 </r>
       <r>    -3.4219     0.0000   160.0000 </r>
       <r>    -3.2140     0.0000   160.0000 </r>
       <r>    -3.0062     0.0000   160.0000 </r>
       <r>    -2.7984     0.0000   160.0000 </r>
       <r>    -2.5905     0.0000   160.0000 </r>
       <r>    -2.3827     0.0000   160.0000 </r>
       <r>    -2.1748     0.0000   160.0000 </r>
       <r>    -1.9670     0.0000   160.0000 </r>
       <r>    -1.7592     0.0000   160.0000 </r>
       <r>    -1.5513     0.0000   160.0000 </r>
       <r>    -1.3435     0.0000   160.0000 </r>
       <r>    -1.1357     0.0000   160.0000 </r>
       <r>    -0.9278     0.0000   160.0000 </r>
       <r>    -0.7200     0.0000   160.0000 </r>
       <r>    -0.5122     0.0000   160.0000 </r>
       <r>    -0.3043     0.0000   160.0000 </r>
       <r>    -0.0965     0.0000   160.0000 </r>
       <r>     0.1114    -0.0000   160.0000 </r>
       <r>     0.3192    -0.0000   160.0000 </r>
       <r>     0.5270    -0.0000   160.0000 </r>
       <r>     0.7349    -0.0000   160.0000 </r>
       <r>     0.9427    -0.0001   160.0000 </r>
       <r>     1.1505    -0.0111   159.9977 </r>
       <r>     1.3584     0.1383   160.0264 </r>
       <r>     1.5662     0.7457   160.1814 </r>
       <r>     1.7740     1.5012   160.4934 </r>
       <r>     1.9819     1.8473   160.8773 </r>
       <r>     2.1897     3.0146   161.5039 </r>
       <r>     2.3976     4.3845   162.4151 </r>
       <r>     2.6054     1.8836   162.8066 </r>
       <r>     2.8132     4.9737   163.8403 </r>
       <r>     3.0211     3.5027   164.5683 </r>
       <r>     3.2289     4.3688   165.4763 </r>
       <r>     3.4367     6.2108   166.7671 </r>
       <r>     3.6446     8.0868   168.4478 </r>
       <r>     3.8524     8.7335   170.2630 </r>
       <r>     4.0602     8.1711   171.9612 </r>
       <r>     4.2681    11.9066   174.4358 </r>
       <r>     4.4759    17.7722   178.1295 </r>
       <r>     4.6837    20.1425   182.3159 </r>
       <r>     4.8916    24.5059   187.4091 </r>
       <r>     5.0994    33.3498   194.3404 </r>
       <r>     5.3073    36.9265   202.0150 </r>
       <r>     5.5151    41.6080   210.6627 </r>
       <r>     5.7229    40.6805   219.1175 </r>
       <r>     5.9308    35.6124   226.5191 </r>
       <r>     6.1386    34.5753   233.7051 </r>
       <r>     6.3464    28.3774   239.6029 </r>
       <r>     6.5543    20.6462   243.8939 </r>
       <r>     6.7621    54.8788   255.2997 </r>
       <r>     6.9699    62.1122   268.2089 </r>
       <r>     7.1778    58.0136   280.2662 </r>
       <r>     7.3856    53.0199   291.2857 </r>
       <r>     7.5935    51.9291   302.0784 </r>
       <r>     7.8013    57.5867   314.0470 </r>
       <r>     8.0091    48.7035   324.1694 </r>
       <r>     8.2170    50.1257   334.5873 </r>
       <r>     8.4248    50.7811   345.1414 </r>
       <r>     8.6326    41.3666   353.7389 </r>
       <r>     8.8405    29.1386   359.7950 </r>
       <r>     9.0483    25.6210   365.1199 </r>
       <r>     9.2561    19.0205   369.0731 </r>
       <r>     9.4640    12.7479   371.7225 </r>
       <r>     9.6718    17.1176   375.2802 </r>
       <r>     9.8797    29.3662   381.3836 </r>
       <r>    10.0875    29.9566   387.6096 </r>
       <r>    10.2953    17.8100   391.3112 </r>
       <r>    10.5032     3.5596   392.0510 </r>
       <r>    10.7110    -0.2415   392.0008 </r>
       <r>    10.9188    -0.0038   392.0000 </r>
       <r>    11.1267    -0.0000   392.0000 </r>
       <r>    11.3345    -0.0000   392.0000 </r>
       <r>    11.5423     0.0000   392.0000 </r>
       <r>    11.7502     0.0000   392.0000 </r>
       <r>    11.9580     0.0000   392.0000 </r>
       <r>    12.1658     0.0000   392.0000 </r>
       <r>    12.3737     0.0000   392.0000 </r>
       <r>    12.5815     0.0000   392.0000 </r>
       <r>    12.7894     0.0000   392.0000 </r>
       <r>    12.9972     0.0000   392.0000 </r>
       <r>    13.2050     0.0000   392.0000 </r>
      </set>
     </set>
    </array>
   </total>
  </dos>
 </calculation>
 <structure name="finalpos" >
  <crystal>
   <varray name="basis" >
    <v>       6.94873080       0.02788085       0.01011031 </v>
    <v>       0.04143293      10.22137795       0.00764915 </v>
    <v>       0.01536989       0.00735473      10.24011043 </v>
   </varray>
   <i name="volume">    727.29622467 </i>
   <varray name="rec_basis" >
    <v>       0.14391383      -0.00058320      -0.00021559 </v>
    <v>      -0.00039245       0.09783581      -0.00006968 </v>
    <v>      -0.00014180      -0.00007251       0.09765546 </v>
   </varray>
  </crystal>
  <varray name="positions" >
   <v>       0.01076168       0.33521578       0.00399084 </v>
   <v>       0.98705887       0.66064811       0.98943211 </v>
   <v>       0.23814297       0.81163123       0.17695160 </v>
   <v>       0.76819618       0.17186558       0.50198452 </v>
   <v>       0.48275118       0.99567752       0.66507511 </v>
   <v>       0.76319921       0.83864806       0.18137465 </v>
   <v>       0.77396197       0.84080996       0.49864931 </v>
   <v>       0.23314159       0.50039885       0.49800154 </v>
   <v>       0.74576902       0.16879357       0.82897639 </v>
   <v>       0.01929677      -0.00103633       0.99529559 </v>
   <v>       0.23281235       0.18170913       0.50159446 </v>
   <v>       0.25568900       0.50368765       0.17463214 </v>
   <v>       0.48815620       0.99217875       0.99156170 </v>
   <v>       0.74063210       0.16251778       0.17018384 </v>
   <v>       0.47364178       0.99531860       0.34236807 </v>
   <v>       0.74115711       0.48695112       0.82210073 </v>
   <v>       0.50963113       0.67200133       0.99288079 </v>
   <v>       0.49360587       0.67423097       0.66092786 </v>
   <v>       0.25418577       0.49087256       0.82685541 </v>
   <v>       0.98455395       0.33734642       0.31710123 </v>
   <v>       0.01155250       0.33727101       0.67950707 </v>
   <v>       0.97438702       0.65695317       0.33800704 </v>
   <v>       0.22333630       0.82480388       0.49842572 </v>
   <v>       0.23545910       0.82871276       0.82674454 </v>
   <v>       0.48391857       0.33258350      -0.00045641 </v>
   <v>       0.74048060       0.49912412       0.17690339 </v>
   <v>       0.76818693       0.84002786       0.81433446 </v>
   <v>       0.00390414       0.67175631       0.67400181 </v>
   <v>       0.26681421       0.17985078       0.17142383 </v>
   <v>       0.03476662       0.00654438       0.33086722 </v>
   <v>       0.02420410       0.99443817       0.67406504 </v>
   <v>       0.25602833       0.17584301       0.82690616 </v>
   <v>       0.51415402       0.34564961       0.33921410 </v>
   <v>       0.76040036       0.49526813       0.50144280 </v>
   <v>       0.48832555       0.33271871       0.66271654 </v>
   <v>       0.51774596       0.65898792       0.34595078 </v>
  </varray>
 </structure>
</modeling>
