       N       E                     dE             d eps       ncg     rms          rms(c)
DAV:   1     0.180252901878E+04    0.18025E+04   -0.10864E+05  5400   0.104E+03
DAV:   2    -0.977492794123E+02   -0.19003E+04   -0.18309E+04  5560   0.381E+02
DAV:   3    -0.349147092699E+03   -0.25140E+03   -0.23852E+03  8320   0.978E+01
DAV:   4    -0.378637043264E+03   -0.29490E+02   -0.28024E+02  8144   0.304E+01
DAV:   5    -0.381745735076E+03   -0.31087E+01   -0.30508E+01  7952   0.103E+01    0.653E+01
RMM:   6    -0.371283526920E+03    0.10462E+02   -0.23617E+01  6962   0.989E+00    0.315E+01
RMM:   7    -0.372911798156E+03   -0.16283E+01   -0.25960E+01  7368   0.856E+00    0.116E+01
RMM:   8    -0.366926231927E+03    0.59856E+01   -0.65261E+00  7432   0.367E+00    0.397E+00
RMM:   9    -0.366767838416E+03    0.15839E+00   -0.21747E+00  7545   0.192E+00    0.286E+00
RMM:  10    -0.366708422816E+03    0.59416E-01   -0.42220E-01  7515   0.118E+00    0.150E+00
RMM:  11    -0.366683525928E+03    0.24897E-01   -0.13773E-01  7482   0.611E-01    0.737E-01
RMM:  12    -0.366678021173E+03    0.55048E-02   -0.50785E-02  7614   0.341E-01    0.399E-01
RMM:  13    -0.366676797878E+03    0.12233E-02   -0.15919E-02  7590   0.187E-01    0.230E-01
RMM:  14    -0.366676943856E+03   -0.14598E-03   -0.67507E-03  7745   0.970E-02    0.144E-01
RMM:  15    -0.366677057818E+03   -0.11396E-03   -0.30717E-03  7685   0.650E-02    0.690E-02
RMM:  16    -0.366677071574E+03   -0.13756E-04   -0.12975E-03  6992   0.392E-02    0.362E-02
RMM:  17    -0.366677084893E+03   -0.13319E-04   -0.54766E-04  6219   0.255E-02    0.188E-02
RMM:  18    -0.366677096805E+03   -0.11913E-04   -0.23273E-04  5377   0.176E-02    0.934E-03
RMM:  19    -0.366677103362E+03   -0.65562E-05   -0.11405E-04  4379   0.133E-02    0.577E-03
RMM:  20    -0.366677104068E+03   -0.70670E-06   -0.42235E-05  3928   0.110E-02
   1 F= -.36667710E+03 E0= -.36668028E+03  d E =-.366677E+03
       N       E                     dE             d eps       ncg     rms          rms(c)
DAV:   1    -0.366678220491E+03   -0.11171E-02   -0.41864E-02  5520   0.592E-01    0.117E-01
RMM:   2    -0.366678258149E+03   -0.37658E-04   -0.24943E-03  7312   0.129E-01    0.510E-02
RMM:   3    -0.366678213246E+03    0.44903E-04   -0.37579E-04  7162   0.381E-02    0.366E-02
RMM:   4    -0.366678177382E+03    0.35864E-04   -0.10108E-04  6451   0.179E-02    0.202E-02
RMM:   5    -0.366678170435E+03    0.69471E-05   -0.33494E-05  3615   0.111E-02
   2 F= -.36667817E+03 E0= -.36668139E+03  d E =-.106637E-02
       N       E                     dE             d eps       ncg     rms          rms(c)
DAV:   1    -0.366681059350E+03   -0.28820E-02   -0.37606E-01  5232   0.177E+00    0.349E-01
RMM:   2    -0.366681264282E+03   -0.20493E-03   -0.21516E-02  7312   0.384E-01    0.152E-01
RMM:   3    -0.366680864637E+03    0.39964E-03   -0.32819E-03  7497   0.110E-01    0.110E-01
RMM:   4    -0.366680557735E+03    0.30690E-03   -0.86915E-04  7490   0.511E-02    0.617E-02
RMM:   5    -0.366680514026E+03    0.43709E-04   -0.36470E-04  7637   0.328E-02    0.402E-02
RMM:   6    -0.366680505633E+03    0.83929E-05   -0.14256E-04  6454   0.193E-02    0.270E-02
RMM:   7    -0.366680499773E+03    0.58600E-05   -0.58876E-05  4465   0.137E-02
   3 F= -.36668050E+03 E0= -.36668386E+03  d E =-.339570E-02
       N       E                     dE             d eps       ncg     rms          rms(c)
DAV:   1    -0.366683508487E+03   -0.30029E-02   -0.15052E+00  5056   0.355E+00    0.697E-01
RMM:   2    -0.366684222055E+03   -0.71357E-03   -0.85339E-02  7294   0.767E-01    0.301E-01
RMM:   3    -0.366682701731E+03    0.15203E-02   -0.13023E-02  7500   0.222E-01    0.217E-01
RMM:   4    -0.366681479389E+03    0.12223E-02   -0.34113E-03  7498   0.101E-01    0.121E-01
RMM:   5    -0.366681316468E+03    0.16292E-03   -0.14119E-03  7661   0.649E-02    0.783E-02
RMM:   6    -0.366681300518E+03    0.15950E-04   -0.57807E-04  7550   0.377E-02    0.525E-02
RMM:   7    -0.366681292918E+03    0.75995E-05   -0.24511E-04  6453   0.244E-02    0.284E-02
RMM:   8    -0.366681293012E+03   -0.93878E-07   -0.10320E-04  5083   0.176E-02    0.188E-02
RMM:   9    -0.366681293327E+03   -0.31524E-06   -0.64794E-05  4782   0.147E-02
   4 F= -.36668129E+03 E0= -.36668492E+03  d E =-.418926E-02
       N       E                     dE             d eps       ncg     rms          rms(c)
DAV:   1    -0.366681862477E+03   -0.56946E-03   -0.16225E-01  5152   0.116E+00    0.233E-01
RMM:   2    -0.366681918099E+03   -0.55622E-04   -0.93669E-03  7239   0.255E-01    0.102E-01
RMM:   3    -0.366681740827E+03    0.17727E-03   -0.14032E-03  7449   0.752E-02    0.750E-02
RMM:   4    -0.366681598781E+03    0.14205E-03   -0.34697E-04  7362   0.336E-02    0.425E-02
RMM:   5    -0.366681577820E+03    0.20961E-04   -0.13316E-04  6811   0.214E-02    0.270E-02
RMM:   6    -0.366681577107E+03    0.71249E-06   -0.48694E-05  4555   0.130E-02
   5 F= -.36668158E+03 E0= -.36668512E+03  d E =-.447304E-02
       N       E                     dE             d eps       ncg     rms          rms(c)
DAV:   1    -0.366682802828E+03   -0.12250E-02   -0.62318E-02  5448   0.772E-01    0.207E-01
RMM:   2    -0.366682610443E+03    0.19239E-03   -0.45882E-03  6377   0.183E-01    0.756E-02
RMM:   3    -0.366682524807E+03    0.85636E-04   -0.76689E-04  7424   0.591E-02    0.555E-02
RMM:   4    -0.366682433288E+03    0.91519E-04   -0.22318E-04  7230   0.285E-02    0.296E-02
RMM:   5    -0.366682430675E+03    0.26124E-05   -0.59784E-05  4669   0.167E-02
   6 F= -.36668243E+03 E0= -.36668599E+03  d E =-.853568E-03
       N       E                     dE             d eps       ncg     rms          rms(c)
DAV:   1    -0.366686521573E+03   -0.40883E-02   -0.56001E-01  5360   0.231E+00    0.628E-01
RMM:   2    -0.366684837589E+03    0.16840E-02   -0.41671E-02  6782   0.548E-01    0.225E-01
RMM:   3    -0.366684155354E+03    0.68223E-03   -0.74565E-03  7585   0.177E-01    0.170E-01
RMM:   4    -0.366683292910E+03    0.86244E-03   -0.21700E-03  7672   0.872E-02    0.890E-02
RMM:   5    -0.366683252606E+03    0.40304E-04   -0.66831E-04  7586   0.481E-02    0.650E-02
RMM:   6    -0.366683290368E+03   -0.37762E-04   -0.30968E-04  7084   0.283E-02    0.418E-02
RMM:   7    -0.366683313906E+03   -0.23537E-04   -0.12865E-04  6179   0.209E-02    0.218E-02
RMM:   8    -0.366683330170E+03   -0.16264E-04   -0.71541E-05  4455   0.149E-02    0.168E-02
RMM:   9    -0.366683342293E+03   -0.12123E-04   -0.38691E-05  4073   0.127E-02    0.116E-02
RMM:  10    -0.366683348783E+03   -0.64903E-05   -0.10450E-05  3131   0.103E-02
   7 F= -.36668335E+03 E0= -.36668698E+03  d E =-.177168E-02
       N       E                     dE             d eps       ncg     rms          rms(c)
DAV:   1    -0.366683459480E+03   -0.11719E-03   -0.10789E-02  5600   0.320E-01    0.909E-02
RMM:   2    -0.366683431877E+03    0.27602E-04   -0.84015E-04  6990   0.755E-02    0.340E-02
RMM:   3    -0.366683418026E+03    0.13852E-04   -0.16192E-04  6602   0.254E-02    0.265E-02
RMM:   4    -0.366683397085E+03    0.20940E-04   -0.42341E-05  3848   0.149E-02    0.146E-02
RMM:   5    -0.366683393275E+03    0.38100E-05   -0.11690E-05  2688   0.113E-02
   8 F= -.36668339E+03 E0= -.36668701E+03  d E =-.181617E-02
       N       E                     dE             d eps       ncg     rms          rms(c)
DAV:   1    -0.366683575953E+03   -0.17887E-03   -0.12105E-02  5136   0.327E-01    0.281E-02
RMM:   2    -0.366683608268E+03   -0.32316E-04   -0.49859E-04  6855   0.655E-02    0.158E-02
RMM:   3    -0.366683602225E+03    0.60438E-05   -0.42550E-05  3686   0.185E-02
   9 F= -.36668360E+03 E0= -.36668723E+03  d E =-.208949E-03
       N       E                     dE             d eps       ncg     rms          rms(c)
DAV:   1    -0.366683886816E+03   -0.27855E-03   -0.10878E-01  5056   0.975E-01    0.861E-02
RMM:   2    -0.366684169656E+03   -0.28284E-03   -0.44840E-03  7084   0.195E-01    0.478E-02
RMM:   3    -0.366684150818E+03    0.18838E-04   -0.55524E-04  7200   0.526E-02    0.357E-02
RMM:   4    -0.366684134095E+03    0.16723E-04   -0.15611E-04  6349   0.202E-02    0.189E-02
RMM:   5    -0.366684132983E+03    0.11119E-05   -0.53825E-05  4138   0.119E-02
  10 F= -.36668413E+03 E0= -.36668780E+03  d E =-.739708E-03
       N       E                     dE             d eps       ncg     rms          rms(c)
DAV:   1    -0.366683760788E+03    0.37331E-03   -0.43484E-01  4976   0.195E+00    0.167E-01
RMM:   2    -0.366684923108E+03   -0.11623E-02   -0.17689E-02  7038   0.390E-01    0.913E-02
RMM:   3    -0.366684860807E+03    0.62301E-04   -0.21113E-03  7403   0.105E-01    0.693E-02
RMM:   4    -0.366684793924E+03    0.66883E-04   -0.55767E-04  7899   0.377E-02    0.376E-02
RMM:   5    -0.366684794935E+03   -0.10111E-05   -0.22642E-04  6470   0.250E-02    0.219E-02
RMM:   6    -0.366684790059E+03    0.48759E-05   -0.91470E-05  5387   0.167E-02
  11 F= -.36668479E+03 E0= -.36668850E+03  d E =-.139678E-02
       N       E                     dE             d eps       ncg     rms          rms(c)
DAV:   1    -0.366680381095E+03    0.44138E-02   -0.17405E+00  4944   0.391E+00    0.333E-01
RMM:   2    -0.366685006618E+03   -0.46255E-02   -0.70644E-02  7022   0.779E-01    0.183E-01
RMM:   3    -0.366684721912E+03    0.28471E-03   -0.81603E-03  7449   0.209E-01    0.138E-01
RMM:   4    -0.366684447986E+03    0.27393E-03   -0.21148E-03  8046   0.738E-02    0.760E-02
RMM:   5    -0.366684449514E+03   -0.15285E-05   -0.93000E-04  7653   0.491E-02    0.445E-02
RMM:   6    -0.366684427635E+03    0.21879E-04   -0.33333E-04  7136   0.306E-02    0.204E-02
RMM:   7    -0.366684427202E+03    0.43324E-06   -0.85969E-05  4777   0.158E-02
  12 F= -.36668443E+03 E0= -.36668823E+03  d E =-.103393E-02
       N       E                     dE             d eps       ncg     rms          rms(c)
DAV:   1    -0.366683116540E+03    0.13111E-02   -0.84330E-01  4944   0.272E+00    0.232E-01
RMM:   2    -0.366685260211E+03   -0.21437E-02   -0.33445E-02  6855   0.540E-01    0.123E-01
RMM:   3    -0.366685079910E+03    0.18030E-03   -0.35331E-03  7426   0.145E-01    0.945E-02
RMM:   4    -0.366684926728E+03    0.15318E-03   -0.88969E-04  7863   0.498E-02    0.503E-02
RMM:   5    -0.366684922923E+03    0.38049E-05   -0.38570E-04  7223   0.325E-02    0.295E-02
RMM:   6    -0.366684912163E+03    0.10760E-04   -0.12925E-04  6439   0.203E-02    0.134E-02
RMM:   7    -0.366684911745E+03    0.41775E-06   -0.30394E-05  3828   0.114E-02
  13 F= -.36668491E+03 E0= -.36668865E+03  d E =-.151847E-02
       N       E                     dE             d eps       ncg     rms          rms(c)
DAV:   1    -0.366685190374E+03   -0.27821E-03   -0.83797E-02  5056   0.824E-01    0.848E-02
RMM:   2    -0.366685332849E+03   -0.14248E-03   -0.31288E-03  7176   0.162E-01    0.455E-02
RMM:   3    -0.366685315113E+03    0.17736E-04   -0.41871E-04  7007   0.438E-02    0.345E-02
RMM:   4    -0.366685292038E+03    0.23076E-04   -0.13884E-04  6214   0.193E-02    0.166E-02
RMM:   5    -0.366685289745E+03    0.22923E-05   -0.47411E-05  4001   0.117E-02
  14 F= -.36668529E+03 E0= -.36668904E+03  d E =-.378000E-03
       N       E                     dE             d eps       ncg     rms          rms(c)
DAV:   1    -0.366685095437E+03    0.19660E-03   -0.48618E-01  4960   0.198E+00    0.208E-01
RMM:   2    -0.366685912763E+03   -0.81733E-03   -0.18409E-02  7175   0.392E-01    0.112E-01
RMM:   3    -0.366685832831E+03    0.79932E-04   -0.26774E-03  7417   0.106E-01    0.845E-02
RMM:   4    -0.366685696803E+03    0.13603E-03   -0.80714E-04  7760   0.456E-02    0.415E-02
RMM:   5    -0.366685687946E+03    0.88567E-05   -0.30272E-04  6582   0.285E-02    0.209E-02
RMM:   6    -0.366685690475E+03   -0.25292E-05   -0.12283E-04  5167   0.172E-02    0.128E-02
RMM:   7    -0.366685690547E+03   -0.71806E-07   -0.48039E-05  4424   0.124E-02
  15 F= -.36668569E+03 E0= -.36668947E+03  d E =-.778802E-03
       N       E                     dE             d eps       ncg     rms          rms(c)
DAV:   1    -0.366685854931E+03   -0.16446E-03   -0.75947E-02  5312   0.780E-01    0.118E-01
RMM:   2    -0.366685960505E+03   -0.10557E-03   -0.31506E-03  7332   0.154E-01    0.558E-02
RMM:   3    -0.366685911936E+03    0.48569E-04   -0.43590E-04  7408   0.428E-02    0.396E-02
RMM:   4    -0.366685881958E+03    0.29978E-04   -0.11816E-04  6558   0.189E-02    0.215E-02
RMM:   5    -0.366685880772E+03    0.11861E-05   -0.38055E-05  3918   0.126E-02
  16 F= -.36668588E+03 E0= -.36668964E+03  d E =-.190225E-03
       N       E                     dE             d eps       ncg     rms          rms(c)
DAV:   1    -0.366685910042E+03   -0.28084E-04   -0.87846E-02  5104   0.839E-01    0.122E-01
RMM:   2    -0.366686047912E+03   -0.13787E-03   -0.36232E-03  7384   0.164E-01    0.601E-02
RMM:   3    -0.366685990172E+03    0.57740E-04   -0.50050E-04  7374   0.440E-02    0.418E-02
RMM:   4    -0.366685961853E+03    0.28319E-04   -0.13543E-04  6542   0.199E-02    0.238E-02
RMM:   5    -0.366685962236E+03   -0.38278E-06   -0.48684E-05  4428   0.131E-02
  17 F= -.36668596E+03 E0= -.36668970E+03  d E =-.271689E-03
       N       E                     dE             d eps       ncg     rms          rms(c)
DAV:   1    -0.366686088446E+03   -0.12659E-03   -0.16313E-02  5488   0.367E-01    0.743E-02
RMM:   2    -0.366686098124E+03   -0.96779E-05   -0.82910E-04  7375   0.754E-02    0.316E-02
RMM:   3    -0.366686090136E+03    0.79886E-05   -0.13757E-04  6462   0.227E-02    0.222E-02
RMM:   4    -0.366686080584E+03    0.95512E-05   -0.39722E-05  3992   0.142E-02
  18 F= -.36668608E+03 E0= -.36668982E+03  d E =-.118348E-03
       N       E                     dE             d eps       ncg     rms          rms(c)
DAV:   1    -0.366686357037E+03   -0.26690E-03   -0.14537E-01  5216   0.110E+00    0.200E-01
RMM:   2    -0.366686399055E+03   -0.42018E-04   -0.68704E-03  7150   0.225E-01    0.821E-02
RMM:   3    -0.366686300319E+03    0.98736E-04   -0.93186E-04  7440   0.663E-02    0.575E-02
RMM:   4    -0.366686229653E+03    0.70667E-04   -0.31251E-04  7570   0.300E-02    0.330E-02
RMM:   5    -0.366686214566E+03    0.15087E-04   -0.10092E-04  6439   0.190E-02    0.221E-02
RMM:   6    -0.366686209760E+03    0.48062E-05   -0.38804E-05  3773   0.111E-02
  19 F= -.36668621E+03 E0= -.36668995E+03  d E =-.247523E-03
       N       E                     dE             d eps       ncg     rms          rms(c)
DAV:   1    -0.366686240328E+03   -0.25762E-04   -0.54426E-03  5232   0.202E-01    0.202E-02
RMM:   2    -0.366686249501E+03   -0.91731E-05   -0.18662E-04  6961   0.406E-02    0.116E-02
RMM:   3    -0.366686247450E+03    0.20514E-05   -0.22925E-05  3391   0.125E-02
  20 F= -.36668625E+03 E0= -.36669000E+03  d E =-.376900E-04
