<?xml version="1.0" encoding="ISO-8859-1"?>
<modeling>
 <generator>
  <i name="program" type="string">vasp </i>
  <i name="version" type="string">5.4.1  </i>
  <i name="subversion" type="string">05Feb16 (build Jan 29 2020 16:04:39) complex                          parallel </i>
  <i name="platform" type="string">IFC91_ompi </i>
  <i name="date" type="string">2020 06 15 </i>
  <i name="time" type="string">10:42:58 </i>
 </generator>
 <incar>
  <i type="string" name="SYSTEM"> automatically generated by mexm</i>
  <i type="int" name="ISTART">     0</i>
  <i type="string" name="PREC">accurate               ! avoid wrap aro</i>
  <i type="string" name="ALGO"> Fast                   ! blocked Davids</i>
  <i type="int" name="ISPIN">     1</i>
  <i type="int" name="ICHARG">     2</i>
  <i type="int" name="NELM">    70</i>
  <i type="int" name="IBRION">     2</i>
  <i name="EDIFF">      0.00001000</i>
  <i name="EDIFFG">     -0.01000000</i>
  <i type="int" name="NSW">   300</i>
  <i type="int" name="ISIF">     3</i>
  <i type="int" name="ISYM">     1</i>
  <i name="ENCUT">    300.00000000</i>
  <i name="POTIM">      0.15000000</i>
  <i type="string" name="LREAL"> Auto                  ! unpublished met</i>
  <i type="int" name="ISMEAR">     1</i>
  <i name="SIGMA">      0.15000000</i>
  <i type="logical" name="LWAVE"> F  </i>
  <i type="logical" name="LCHARG"> F  </i>
  <i type="logical" name="LVTOT"> F  </i>
  <v type="int" name="KPOINT_BSE">    -1     0     0     0</v>
  <i type="int" name="NELM">    70</i>
 </incar>
 <kpoints>
  <generation param="Gamma">
   <v type="int" name="divisions">       3        3        3 </v>
   <v name="usershift">      0.00000000       0.00000000       0.00000000 </v>
   <v name="genvec1">      0.33333333       0.00000000      -0.00000000 </v>
   <v name="genvec2">     -0.00000000       0.33333333       0.00000000 </v>
   <v name="genvec3">      0.00000000       0.00000000       0.33333333 </v>
   <v name="shift">      0.00000000       0.00000000       0.00000000 </v>
  </generation>
  <varray name="kpointlist" >
   <v>       0.00000000       0.00000000       0.00000000 </v>
   <v>       0.33333333      -0.00000000      -0.00000000 </v>
   <v>       0.00000000       0.33333333       0.00000000 </v>
   <v>       0.33333333       0.33333333       0.00000000 </v>
   <v>      -0.33333333       0.33333333       0.00000000 </v>
   <v>      -0.00000000      -0.00000000       0.33333333 </v>
   <v>       0.33333333       0.00000000       0.33333333 </v>
   <v>      -0.33333333       0.00000000       0.33333333 </v>
   <v>      -0.00000000       0.33333333       0.33333333 </v>
   <v>       0.33333333       0.33333333       0.33333333 </v>
   <v>      -0.33333333       0.33333333       0.33333333 </v>
   <v>      -0.00000000      -0.33333333       0.33333333 </v>
   <v>       0.33333333      -0.33333333       0.33333333 </v>
   <v>      -0.33333333      -0.33333333       0.33333333 </v>
  </varray>
  <varray name="weights" >
   <v>       0.03703704 </v>
   <v>       0.07407407 </v>
   <v>       0.07407407 </v>
   <v>       0.07407407 </v>
   <v>       0.07407407 </v>
   <v>       0.07407407 </v>
   <v>       0.07407407 </v>
   <v>       0.07407407 </v>
   <v>       0.07407407 </v>
   <v>       0.07407407 </v>
   <v>       0.07407407 </v>
   <v>       0.07407407 </v>
   <v>       0.07407407 </v>
   <v>       0.07407407 </v>
  </varray>
 </kpoints>
 <parameters>
  <separator name="general" >
   <i type="string" name="SYSTEM">automatically generated by mexm</i>
   <i type="logical" name="LCOMPAT"> F  </i>
  </separator>
  <separator name="electronic" >
   <i type="string" name="PREC">accura</i>
   <i name="ENMAX">    300.00000000</i>
   <i name="ENAUG">    461.25700000</i>
   <i name="EDIFF">      0.00001000</i>
   <i type="int" name="IALGO">    68</i>
   <i type="int" name="IWAVPR">    11</i>
   <i type="int" name="NBANDS">   184</i>
   <i name="NELECT">    302.00000000</i>
   <i type="int" name="TURBO">     0</i>
   <i type="int" name="IRESTART">     0</i>
   <i type="int" name="NREBOOT">     0</i>
   <i type="int" name="NMIN">     0</i>
   <i name="EREF">      0.00000000</i>
   <separator name="electronic smearing" >
    <i type="int" name="ISMEAR">     1</i>
    <i name="SIGMA">      0.15000000</i>
    <i name="KSPACING">      0.50000000</i>
    <i type="logical" name="KGAMMA"> T  </i>
   </separator>
   <separator name="electronic projectors" >
    <i type="logical" name="LREAL"> T  </i>
    <v name="ROPT">     -0.00025000     -0.00025000     -0.00025000     -0.00025000</v>
    <i type="int" name="LMAXPAW">  -100</i>
    <i type="int" name="LMAXMIX">     2</i>
    <i type="logical" name="NLSPLINE"> F  </i>
   </separator>
   <separator name="electronic startup" >
    <i type="int" name="ISTART">     0</i>
    <i type="int" name="ICHARG">     2</i>
    <i type="int" name="INIWAV">     1</i>
   </separator>
   <separator name="electronic spin" >
    <i type="int" name="ISPIN">     1</i>
    <i type="logical" name="LNONCOLLINEAR"> F  </i>
    <v name="MAGMOM">      1.00000000      1.00000000      1.00000000      1.00000000      1.00000000      1.00000000      1.00000000      1.00000000      1.00000000      1.00000000      1.00000000      1.00000000      1.00000000      1.00000000      1.00000000      1.00000000      1.00000000      1.00000000      1.00000000      1.00000000
      1.00000000      1.00000000      1.00000000      1.00000000      1.00000000      1.00000000      1.00000000      1.00000000      1.00000000      1.00000000      1.00000000      1.00000000      1.00000000      1.00000000      1.00000000      1.00000000</v>
    <i name="NUPDOWN">     -1.00000000</i>
    <i type="logical" name="LSORBIT"> F  </i>
    <v name="SAXIS">      0.00000000      0.00000000      1.00000000</v>
    <i type="logical" name="LSPIRAL"> F  </i>
    <v name="QSPIRAL">      0.00000000      0.00000000      0.00000000</v>
    <i type="logical" name="LZEROZ"> F  </i>
   </separator>
   <separator name="electronic exchange-correlation" >
    <i type="logical" name="LASPH"> F  </i>
    <i type="logical" name="LMETAGGA"> F  </i>
   </separator>
   <separator name="electronic convergence" >
    <i type="int" name="NELM">    70</i>
    <i type="int" name="NELMDL">    -5</i>
    <i type="int" name="NELMIN">     2</i>
    <i name="ENINI">    300.00000000</i>
    <separator name="electronic convergence detail" >
     <i type="logical" name="LDIAG"> T  </i>
     <i type="logical" name="LSUBROT"> F  </i>
     <i name="WEIMIN">      0.00100000</i>
     <i name="EBREAK">      0.00000001</i>
     <i name="DEPER">      0.30000000</i>
     <i type="int" name="NRMM">     4</i>
     <i name="TIME">      0.40000000</i>
    </separator>
   </separator>
   <separator name="electronic mixer" >
    <i name="AMIX">      0.40000000</i>
    <i name="BMIX">      1.00000000</i>
    <i name="AMIN">      0.10000000</i>
    <i name="AMIX_MAG">      1.60000000</i>
    <i name="BMIX_MAG">      1.00000000</i>
    <separator name="electronic mixer details" >
     <i type="int" name="IMIX">     4</i>
     <i type="logical" name="MIXFIRST"> F  </i>
     <i type="int" name="MAXMIX">   -45</i>
     <i name="WC">    100.00000000</i>
     <i type="int" name="INIMIX">     1</i>
     <i type="int" name="MIXPRE">     1</i>
     <i type="int" name="MREMOVE">     5</i>
    </separator>
   </separator>
   <separator name="electronic dipolcorrection" >
    <i type="logical" name="LDIPOL"> F  </i>
    <i type="logical" name="LMONO"> F  </i>
    <i type="int" name="IDIPOL">     0</i>
    <i name="EPSILON">      1.00000000</i>
    <v name="DIPOL">   -100.00000000   -100.00000000   -100.00000000</v>
    <i name="EFIELD">      0.00000000</i>
   </separator>
  </separator>
  <separator name="grids" >
   <i type="int" name="NGX">    40</i>
   <i type="int" name="NGY">    60</i>
   <i type="int" name="NGZ">    60</i>
   <i type="int" name="NGXF">    80</i>
   <i type="int" name="NGYF">   120</i>
   <i type="int" name="NGZF">   120</i>
   <i type="logical" name="ADDGRID"> F  </i>
  </separator>
  <separator name="ionic" >
   <i type="int" name="NSW">   300</i>
   <i type="int" name="IBRION">     2</i>
   <i type="int" name="ISIF">     3</i>
   <i name="PSTRESS">      0.00000000</i>
   <i name="EDIFFG">     -0.01000000</i>
   <i type="int" name="NFREE">     1</i>
   <i name="POTIM">      0.15000000</i>
   <i name="SMASS">     -3.00000000</i>
   <i name="SCALEE">      1.00000000</i>
  </separator>
  <separator name="ionic md" >
   <i name="TEBEG">      0.00010000</i>
   <i name="TEEND">      0.00010000</i>
   <i type="int" name="NBLOCK">     1</i>
   <i type="int" name="KBLOCK">   300</i>
   <i type="int" name="NPACO">   256</i>
   <i name="APACO">     16.00000000</i>
  </separator>
  <separator name="symmetry" >
   <i type="int" name="ISYM">     1</i>
   <i name="SYMPREC">      0.00001000</i>
  </separator>
  <separator name="dos" >
   <i type="logical" name="LORBIT"> F  </i>
   <v name="RWIGS">     -1.00000000     -1.00000000     -1.00000000     -1.00000000</v>
   <i type="int" name="NEDOS">   301</i>
   <i name="EMIN">     10.00000000</i>
   <i name="EMAX">    -10.00000000</i>
   <i name="EFERMI">      0.00000000</i>
  </separator>
  <separator name="writing" >
   <i type="int" name="NWRITE">     2</i>
   <i type="logical" name="LWAVE"> F  </i>
   <i type="logical" name="LCHARG"> F  </i>
   <i type="logical" name="LPARD"> F  </i>
   <i type="logical" name="LVTOT"> F  </i>
   <i type="logical" name="LVHAR"> F  </i>
   <i type="logical" name="LELF"> F  </i>
   <i type="logical" name="LOPTICS"> F  </i>
   <v name="STM">      0.00000000      0.00000000      0.00000000      0.00000000      0.00000000      0.00000000      0.00000000</v>
  </separator>
  <separator name="performance" >
   <i type="int" name="NPAR">     4</i>
   <i type="int" name="NSIM">     4</i>
   <i type="int" name="NBLK">    -1</i>
   <i type="logical" name="LPLANE"> T  </i>
   <i type="logical" name="LSCALAPACK"> T  </i>
   <i type="logical" name="LSCAAWARE"> F  </i>
   <i type="logical" name="LSCALU"> F  </i>
   <i type="logical" name="LASYNC"> F  </i>
   <i type="logical" name="LORBITALREAL"> F  </i>
  </separator>
  <separator name="miscellaneous" >
   <i type="int" name="IDIOT">     3</i>
   <i type="logical" name="LMUSIC"> F  </i>
   <v name="POMASS">     92.91000000    178.49000000    180.94800000     91.22400000</v>
   <v name="DARWINR">      0.00000000      0.00000000      0.00000000      0.00000000</v>
   <v name="DARWINV">      1.00000000      1.00000000      1.00000000      1.00000000</v>
   <i type="logical" name="LCORR"> T  </i>
  </separator>
  <i type="logical" name="GGA_COMPAT"> T  </i>
  <i type="logical" name="LBERRY"> F  </i>
  <i type="int" name="ICORELEVEL">     0</i>
  <i type="logical" name="LDAU"> F  </i>
  <i type="int" name="I_CONSTRAINED_M">     0</i>
  <separator name="electronic exchange-correlation" >
   <i type="string" name="GGA">--</i>
   <i type="int" name="VOSKOWN">     0</i>
   <i type="logical" name="LHFCALC"> F  </i>
   <i type="string" name="PRECFOCK"></i>
   <i type="logical" name="LSYMGRAD"> F  </i>
   <i type="logical" name="LHFONE"> F  </i>
   <i type="logical" name="LRHFCALC"> F  </i>
   <i type="logical" name="LTHOMAS"> F  </i>
   <i type="logical" name="LMODELHF"> F  </i>
   <i name="ENCUT4O">     -1.00000000</i>
   <i type="int" name="EXXOEP">     0</i>
   <i type="int" name="FOURORBIT">     0</i>
   <i name="AEXX">      0.00000000</i>
   <i name="HFALPHA">      0.00000000</i>
   <i name="MCALPHA">      0.00000000</i>
   <i name="ALDAX">      1.00000000</i>
   <i name="AGGAX">      1.00000000</i>
   <i name="ALDAC">      1.00000000</i>
   <i name="AGGAC">      1.00000000</i>
   <i type="int" name="NKREDX">     1</i>
   <i type="int" name="NKREDY">     1</i>
   <i type="int" name="NKREDZ">     1</i>
   <i type="logical" name="SHIFTRED"> F  </i>
   <i type="logical" name="ODDONLY"> F  </i>
   <i type="logical" name="EVENONLY"> F  </i>
   <i type="int" name="LMAXFOCK">     0</i>
   <i type="int" name="NMAXFOCKAE">     0</i>
   <i type="logical" name="LFOCKAEDFT"> F  </i>
   <i name="HFSCREEN">      0.00000000</i>
   <i name="HFSCREENC">      0.00000000</i>
   <i type="int" name="NBANDSGWLOW">     0</i>
  </separator>
  <separator name="vdW DFT" >
   <i type="logical" name="LUSE_VDW"> F  </i>
   <i name="Zab_VDW">     -0.84910000</i>
   <i name="PARAM1">      0.12340000</i>
   <i name="PARAM2">      1.00000000</i>
   <i name="PARAM3">      0.00000000</i>
  </separator>
  <separator name="model GW" >
   <i type="int" name="MODEL_GW">     0</i>
   <i name="MODEL_EPS0">     12.43469480</i>
   <i name="MODEL_ALPHA">      1.00000000</i>
  </separator>
  <separator name="linear response parameters" >
   <i type="logical" name="LEPSILON"> F  </i>
   <i type="logical" name="LRPA"> F  </i>
   <i type="logical" name="LNABLA"> F  </i>
   <i type="logical" name="LVEL"> F  </i>
   <i type="int" name="KINTER">     0</i>
   <i name="CSHIFT">      0.10000000</i>
   <i name="OMEGAMAX">     -1.00000000</i>
   <i name="DEG_THRESHOLD">      0.00200000</i>
  </separator>
  <separator name="orbital magnetization" >
   <i type="logical" name="NUCIND"> F  </i>
   <v name="MAGPOS">      0.00000000      0.00000000      0.00000000</v>
   <i type="logical" name="LNICSALL"> T  </i>
   <i type="logical" name="ORBITALMAG"> F  </i>
   <i type="logical" name="LMAGBLOCH"> F  </i>
   <i type="logical" name="LCHIMAG"> F  </i>
   <i type="logical" name="LGAUGE"> T  </i>
   <i type="int" name="MAGATOM">     0</i>
   <v name="MAGDIPOL">      0.00000000      0.00000000      0.00000000</v>
   <v name="AVECCONST">      0.00000000      0.00000000      0.00000000</v>
  </separator>
  <separator name="response functions" >
   <i type="logical" name="LADDER"> F  </i>
   <i type="logical" name="LFXC"> F  </i>
   <i type="logical" name="LHARTREE"> T  </i>
   <i type="int" name="IBSE">     0</i>
   <v type="int" name="KPOINT">    -1     0     0     0</v>
   <i type="logical" name="LTCTE"> F  </i>
   <i type="logical" name="LTETE"> F  </i>
   <i type="logical" name="LTRIPLET"> F  </i>
   <i type="logical" name="LFXCEPS"> F  </i>
   <i type="logical" name="LFXHEG"> F  </i>
   <i type="int" name="NATURALO">     0</i>
   <i type="logical" name="L2ORDER"> F  </i>
   <i type="logical" name="LUSEW"> F  </i>
   <i name="ENCUTGW">     -2.00000000</i>
   <i name="ENCUTGWSOFT">     -2.00000000</i>
   <i name="ENCUTLF">     -1.00000000</i>
   <i type="int" name="LMAXMP2">    -1</i>
   <i name="SCISSOR">      0.00000000</i>
   <i type="int" name="NOMEGA">     0</i>
   <i type="int" name="NOMEGAR">     0</i>
   <i type="int" name="NBANDSGW">    -1</i>
   <i type="int" name="NBANDSO">    -1</i>
   <i type="int" name="NBANDSV">    -1</i>
   <i type="int" name="NELM">    70</i>
   <i type="int" name="NELMHF">     1</i>
   <i type="int" name="DIM">     3</i>
   <i type="int" name="ANTIRES">     0</i>
   <i name="OMEGAMAX">    -30.00000000</i>
   <i name="OMEGAMIN">    -30.00000000</i>
   <i name="OMEGATL">   -200.00000000</i>
   <i type="int" name="OMEGAGRID">     0</i>
   <i name="CSHIFT">     -0.10000000</i>
   <i type="logical" name="SELFENERGY"> F  </i>
   <i type="logical" name="LSPECTRAL"> F  </i>
   <i type="logical" name="LSPECTRALGW"> F  </i>
   <i type="logical" name="LSINGLES"> F  </i>
   <i type="logical" name="LFERMIGW"> F  </i>
   <i type="logical" name="ODDONLYGW"> F  </i>
   <i type="logical" name="EVENONLYGW"> F  </i>
   <i type="int" name="NKREDLFX">     1</i>
   <i type="int" name="NKREDLFY">     1</i>
   <i type="int" name="NKREDLFZ">     1</i>
   <i type="int" name="MAXMEM">  1800</i>
   <i type="int" name="TELESCOPE">     0</i>
   <i type="int" name="TAUPAR">     1</i>
   <i type="int" name="OMEGAPAR">    -1</i>
   <i name="LAMBDA">      1.00000000</i>
  </separator>
  <separator name="External order field" >
   <i name="OFIELD_KAPPA">      0.00000000</i>
   <v name="OFIELD_K">      0.00000000      0.00000000      0.00000000</v>
   <i name="OFIELD_Q6_NEAR">      0.00000000</i>
   <i name="OFIELD_Q6_FAR">      0.00000000</i>
   <i name="OFIELD_A">      0.00000000</i>
  </separator>
 </parameters>
 <atominfo>
  <atoms>      36 </atoms>
  <types>       4 </types>
  <array name="atoms" >
   <dimension dim="1">ion</dimension>
   <field type="string">element</field>
   <field type="int">atomtype</field>
   <set>
    <rc><c>Nb</c><c>   1</c></rc>
    <rc><c>Nb</c><c>   1</c></rc>
    <rc><c>Nb</c><c>   1</c></rc>
    <rc><c>Nb</c><c>   1</c></rc>
    <rc><c>Nb</c><c>   1</c></rc>
    <rc><c>Nb</c><c>   1</c></rc>
    <rc><c>Hf</c><c>   2</c></rc>
    <rc><c>Hf</c><c>   2</c></rc>
    <rc><c>Hf</c><c>   2</c></rc>
    <rc><c>Hf</c><c>   2</c></rc>
    <rc><c>Hf</c><c>   2</c></rc>
    <rc><c>Hf</c><c>   2</c></rc>
    <rc><c>Hf</c><c>   2</c></rc>
    <rc><c>Hf</c><c>   2</c></rc>
    <rc><c>Hf</c><c>   2</c></rc>
    <rc><c>Hf</c><c>   2</c></rc>
    <rc><c>Ta</c><c>   3</c></rc>
    <rc><c>Ta</c><c>   3</c></rc>
    <rc><c>Ta</c><c>   3</c></rc>
    <rc><c>Ta</c><c>   3</c></rc>
    <rc><c>Ta</c><c>   3</c></rc>
    <rc><c>Ta</c><c>   3</c></rc>
    <rc><c>Ta</c><c>   3</c></rc>
    <rc><c>Ta</c><c>   3</c></rc>
    <rc><c>Zr</c><c>   4</c></rc>
    <rc><c>Zr</c><c>   4</c></rc>
    <rc><c>Zr</c><c>   4</c></rc>
    <rc><c>Zr</c><c>   4</c></rc>
    <rc><c>Zr</c><c>   4</c></rc>
    <rc><c>Zr</c><c>   4</c></rc>
    <rc><c>Zr</c><c>   4</c></rc>
    <rc><c>Zr</c><c>   4</c></rc>
    <rc><c>Zr</c><c>   4</c></rc>
    <rc><c>Zr</c><c>   4</c></rc>
    <rc><c>Zr</c><c>   4</c></rc>
    <rc><c>Zr</c><c>   4</c></rc>
   </set>
  </array>
  <array name="atomtypes" >
   <dimension dim="1">type</dimension>
   <field type="int">atomspertype</field>
   <field type="string">element</field>
   <field>mass</field>
   <field>valence</field>
   <field type="string">pseudopotential</field>
   <set>
    <rc><c>   6</c><c>Nb</c><c>     92.91000000</c><c>     13.00000000</c><c>  PAW_PBE Nb_sv 25May2007               </c></rc>
    <rc><c>  10</c><c>Hf</c><c>    178.49000000</c><c>      4.00000000</c><c>  PAW_PBE Hf 20Jan2003                  </c></rc>
    <rc><c>   8</c><c>Ta</c><c>    180.94800000</c><c>      5.00000000</c><c>  PAW_PBE Ta 17Jan2003                  </c></rc>
    <rc><c>  12</c><c>Zr</c><c>     91.22400000</c><c>     12.00000000</c><c>  PAW_PBE Zr_sv 04Jan2005               </c></rc>
   </set>
  </array>
 </atominfo>
 <structure name="initialpos" >
  <crystal>
   <varray name="basis" >
    <v>       7.04180268       0.00125207      -0.01003149 </v>
    <v>       0.00254404      10.22108710      -0.00576649 </v>
    <v>      -0.01511957      -0.00595105      10.36588776 </v>
   </varray>
   <i name="volume">    746.08168775 </i>
   <varray name="rec_basis" >
    <v>       0.14200939      -0.00003523       0.00020711 </v>
    <v>      -0.00001732       0.09783699       0.00005614 </v>
    <v>       0.00013742       0.00005439       0.09647050 </v>
   </varray>
  </crystal>
  <varray name="positions" >
   <v>       0.74562500       0.16465400       0.16454400 </v>
   <v>       0.72094700       0.16074300       0.84038100 </v>
   <v>       0.26482400       0.82923400       0.83310500 </v>
   <v>       0.54002000       0.32569900       0.99468200 </v>
   <v>       0.73936700       0.51133900       0.83352000 </v>
   <v>       0.50304700       0.99468100       0.00642100 </v>
   <v>       0.72832600       0.50886400       0.16022800 </v>
   <v>       0.27656800       0.17209300       0.84358800 </v>
   <v>       0.99160700       0.99889700       0.99861400 </v>
   <v>       0.99376000       0.00161000       0.69318900 </v>
   <v>       0.01752500       0.66936800       0.31684800 </v>
   <v>       0.52027000       0.00226200       0.33233500 </v>
   <v>       0.51891400       0.33202100       0.65742300 </v>
   <v>       0.97086700       0.32608700       0.98959400 </v>
   <v>       0.72629400       0.82219500       0.83441900 </v>
   <v>       0.51948900       0.32494500       0.34997300 </v>
   <v>       0.73223700       0.83196800       0.15551500 </v>
   <v>       0.97602700       0.99072200       0.30973300 </v>
   <v>       0.25753100       0.85252300       0.16523600 </v>
   <v>       0.79403300       0.15415900       0.49007800 </v>
   <v>       0.48143400       0.67807400       0.00165800 </v>
   <v>       0.48339700       0.66027200       0.67307200 </v>
   <v>       0.25070100       0.51011900       0.51910900 </v>
   <v>       0.01285900       0.65998800       0.68400000 </v>
   <v>       0.98537100       0.33649500       0.67156900 </v>
   <v>       0.50913200       0.01037300       0.65453700 </v>
   <v>       0.27437000       0.48123500       0.15076500 </v>
   <v>       0.99656300       0.34571200       0.33315900 </v>
   <v>       0.47588700       0.67380400       0.32963200 </v>
   <v>       0.21589500       0.15777500       0.49416300 </v>
   <v>       0.00844700       0.67161400       0.00222000 </v>
   <v>       0.75332100       0.52693600       0.50631800 </v>
   <v>       0.76308100       0.82633400       0.50647600 </v>
   <v>       0.26182900       0.49142300       0.83596500 </v>
   <v>       0.25742500       0.16489100       0.16226800 </v>
   <v>       0.23299500       0.83089700       0.50566100 </v>
  </varray>
 </structure>
 <calculation>
  <scstep>
   <time name="dav">    1.10    1.10</time>
   <time name="total">    1.37    1.60</time>
   <energy>
    <i name="alphaZ">   1509.53608458 </i>
    <i name="ewald"> -20759.17012539 </i>
    <i name="hartreedc">  -6506.97648902 </i>
    <i name="XCdc">   -124.01368570 </i>
    <i name="pawpsdc">  22201.26269854 </i>
    <i name="pawaedc"> -20680.73285681 </i>
    <i name="eentropy">     -0.00987982 </i>
    <i name="bandstr">   -239.94436660 </i>
    <i name="atom">  26544.88607679 </i>
    <i name="e_fr_energy">   1944.83745658 </i>
    <i name="e_wo_entrp">   1944.84733639 </i>
    <i name="e_0_energy">   1944.84074985 </i>
   </energy>
  </scstep>
  <scstep>
   <time name="dav">    1.02    1.05</time>
   <time name="total">    1.03    1.15</time>
   <energy>
    <i name="e_fr_energy">    -58.80970299 </i>
    <i name="e_wo_entrp">    -58.81123964 </i>
    <i name="e_0_energy">    -58.81021520 </i>
   </energy>
  </scstep>
  <scstep>
   <time name="dav">    1.58    1.63</time>
   <time name="total">    1.58    1.69</time>
   <energy>
    <i name="e_fr_energy">   -331.63394663 </i>
    <i name="e_wo_entrp">   -331.63785789 </i>
    <i name="e_0_energy">   -331.63525038 </i>
   </energy>
  </scstep>
  <scstep>
   <time name="dav">    1.66    1.74</time>
   <time name="total">    1.66    1.77</time>
   <energy>
    <i name="e_fr_energy">   -365.54641688 </i>
    <i name="e_wo_entrp">   -365.56317204 </i>
    <i name="e_0_energy">   -365.55200193 </i>
   </energy>
  </scstep>
  <scstep>
   <time name="dav">    1.33    1.41</time>
   <time name="total">    1.36    1.47</time>
   <energy>
    <i name="e_fr_energy">   -368.95855450 </i>
    <i name="e_wo_entrp">   -368.97282565 </i>
    <i name="e_0_energy">   -368.96331155 </i>
   </energy>
  </scstep>
  <scstep>
   <time name="diag">    0.08    0.08</time>
   <time name="diis">    0.76    0.76</time>
   <time name="orth">    0.01    0.01</time>
   <time name="total">    0.92    0.95</time>
   <energy>
    <i name="e_fr_energy">   -359.00591514 </i>
    <i name="e_wo_entrp">   -359.01437130 </i>
    <i name="e_0_energy">   -359.00873386 </i>
   </energy>
  </scstep>
  <scstep>
   <time name="diag">    0.08    0.08</time>
   <time name="diis">    0.79    0.81</time>
   <time name="orth">    0.01    0.01</time>
   <time name="total">    0.96    1.00</time>
   <energy>
    <i name="e_fr_energy">   -361.25892645 </i>
    <i name="e_wo_entrp">   -361.27064247 </i>
    <i name="e_0_energy">   -361.26283179 </i>
   </energy>
  </scstep>
  <scstep>
   <time name="diag">    0.09    0.09</time>
   <time name="diis">    0.83    0.84</time>
   <time name="orth">    0.01    0.01</time>
   <time name="total">    1.06    1.11</time>
   <energy>
    <i name="e_fr_energy">   -354.76559708 </i>
    <i name="e_wo_entrp">   -354.78658004 </i>
    <i name="e_0_energy">   -354.77259140 </i>
   </energy>
  </scstep>
  <scstep>
   <time name="diag">    0.13    0.14</time>
   <time name="diis">    0.77    0.78</time>
   <time name="orth">    0.01    0.01</time>
   <time name="total">    0.98    1.03</time>
   <energy>
    <i name="e_fr_energy">   -354.46667552 </i>
    <i name="e_wo_entrp">   -354.48962369 </i>
    <i name="e_0_energy">   -354.47432491 </i>
   </energy>
  </scstep>
  <scstep>
   <time name="diag">    0.08    0.08</time>
   <time name="diis">    0.78    0.78</time>
   <time name="orth">    0.01    0.01</time>
   <time name="total">    0.94    0.96</time>
   <energy>
    <i name="e_fr_energy">   -354.43988403 </i>
    <i name="e_wo_entrp">   -354.46374812 </i>
    <i name="e_0_energy">   -354.44783873 </i>
   </energy>
  </scstep>
  <scstep>
   <time name="diag">    0.09    0.09</time>
   <time name="diis">    0.78    0.78</time>
   <time name="orth">    0.01    0.01</time>
   <time name="total">    0.94    0.98</time>
   <energy>
    <i name="e_fr_energy">   -354.41389749 </i>
    <i name="e_wo_entrp">   -354.43780456 </i>
    <i name="e_0_energy">   -354.42186651 </i>
   </energy>
  </scstep>
  <scstep>
   <time name="diag">    0.13    0.13</time>
   <time name="diis">    0.87    0.88</time>
   <time name="orth">    0.01    0.01</time>
   <time name="total">    1.16    1.18</time>
   <energy>
    <i name="e_fr_energy">   -354.40847563 </i>
    <i name="e_wo_entrp">   -354.43271417 </i>
    <i name="e_0_energy">   -354.41655514 </i>
   </energy>
  </scstep>
  <scstep>
   <time name="diag">    0.08    0.09</time>
   <time name="diis">    0.85    0.86</time>
   <time name="orth">    0.01    0.01</time>
   <time name="total">    1.05    1.09</time>
   <energy>
    <i name="e_fr_energy">   -354.40613138 </i>
    <i name="e_wo_entrp">   -354.43026547 </i>
    <i name="e_0_energy">   -354.41417608 </i>
   </energy>
  </scstep>
  <scstep>
   <time name="diag">    0.09    0.09</time>
   <time name="diis">    0.81    0.81</time>
   <time name="orth">    0.01    0.02</time>
   <time name="total">    0.98    1.01</time>
   <energy>
    <i name="e_fr_energy">   -354.40621761 </i>
    <i name="e_wo_entrp">   -354.43049192 </i>
    <i name="e_0_energy">   -354.41430905 </i>
   </energy>
  </scstep>
  <scstep>
   <time name="diag">    0.08    0.08</time>
   <time name="diis">    0.78    0.79</time>
   <time name="orth">    0.01    0.01</time>
   <time name="total">    0.94    0.98</time>
   <energy>
    <i name="e_fr_energy">   -354.40643502 </i>
    <i name="e_wo_entrp">   -354.43056471 </i>
    <i name="e_0_energy">   -354.41447825 </i>
   </energy>
  </scstep>
  <scstep>
   <time name="diag">    0.08    0.08</time>
   <time name="diis">    0.70    0.71</time>
   <time name="orth">    0.01    0.01</time>
   <time name="total">    0.87    0.90</time>
   <energy>
    <i name="e_fr_energy">   -354.40645152 </i>
    <i name="e_wo_entrp">   -354.43065035 </i>
    <i name="e_0_energy">   -354.41451780 </i>
   </energy>
  </scstep>
  <scstep>
   <time name="diag">    0.12    0.12</time>
   <time name="diis">    0.64    0.65</time>
   <time name="orth">    0.02    0.02</time>
   <time name="total">    0.84    0.88</time>
   <energy>
    <i name="e_fr_energy">   -354.40645009 </i>
    <i name="e_wo_entrp">   -354.43069015 </i>
    <i name="e_0_energy">   -354.41453011 </i>
   </energy>
  </scstep>
  <scstep>
   <time name="diag">    0.08    0.08</time>
   <time name="diis">    0.60    0.62</time>
   <time name="orth">    0.01    0.01</time>
   <time name="total">    0.77    0.81</time>
   <energy>
    <i name="e_fr_energy">   -354.40646841 </i>
    <i name="e_wo_entrp">   -354.43070174 </i>
    <i name="e_0_energy">   -354.41454619 </i>
   </energy>
  </scstep>
  <scstep>
   <time name="diag">    0.14    0.14</time>
   <time name="diis">    0.53    0.54</time>
   <time name="orth">    0.01    0.01</time>
   <time name="total">    0.87    0.90</time>
   <energy>
    <i name="alphaZ">   1509.53608458 </i>
    <i name="ewald"> -20759.17012539 </i>
    <i name="hartreedc">  -6254.66644194 </i>
    <i name="XCdc">   -125.98604657 </i>
    <i name="pawpsdc">  35125.64862044 </i>
    <i name="pawaedc"> -33585.17863819 </i>
    <i name="eentropy">      0.02424238 </i>
    <i name="bandstr">  -2809.50024461 </i>
    <i name="atom">  26544.88607679 </i>
    <i name="e_fr_energy">   -354.40647250 </i>
    <i name="e_wo_entrp">   -354.43071488 </i>
    <i name="e_0_energy">   -354.41455329 </i>
   </energy>
  </scstep>
  <structure>
   <crystal>
    <varray name="basis" >
     <v>       7.04180268       0.00125207      -0.01003149 </v>
     <v>       0.00254404      10.22108710      -0.00576649 </v>
     <v>      -0.01511957      -0.00595105      10.36588776 </v>
    </varray>
    <i name="volume">    746.08168775 </i>
    <varray name="rec_basis" >
     <v>       0.14200939      -0.00003523       0.00020711 </v>
     <v>      -0.00001732       0.09783699       0.00005614 </v>
     <v>       0.00013742       0.00005439       0.09647050 </v>
    </varray>
   </crystal>
   <varray name="positions" >
    <v>       0.74562500       0.16465400       0.16454400 </v>
    <v>       0.72094700       0.16074300       0.84038100 </v>
    <v>       0.26482400       0.82923400       0.83310500 </v>
    <v>       0.54002000       0.32569900       0.99468200 </v>
    <v>       0.73936700       0.51133900       0.83352000 </v>
    <v>       0.50304700       0.99468100       0.00642100 </v>
    <v>       0.72832600       0.50886400       0.16022800 </v>
    <v>       0.27656800       0.17209300       0.84358800 </v>
    <v>       0.99160700       0.99889700       0.99861400 </v>
    <v>       0.99376000       0.00161000       0.69318900 </v>
    <v>       0.01752500       0.66936800       0.31684800 </v>
    <v>       0.52027000       0.00226200       0.33233500 </v>
    <v>       0.51891400       0.33202100       0.65742300 </v>
    <v>       0.97086700       0.32608700       0.98959400 </v>
    <v>       0.72629400       0.82219500       0.83441900 </v>
    <v>       0.51948900       0.32494500       0.34997300 </v>
    <v>       0.73223700       0.83196800       0.15551500 </v>
    <v>       0.97602700       0.99072200       0.30973300 </v>
    <v>       0.25753100       0.85252300       0.16523600 </v>
    <v>       0.79403300       0.15415900       0.49007800 </v>
    <v>       0.48143400       0.67807400       0.00165800 </v>
    <v>       0.48339700       0.66027200       0.67307200 </v>
    <v>       0.25070100       0.51011900       0.51910900 </v>
    <v>       0.01285900       0.65998800       0.68400000 </v>
    <v>       0.98537100       0.33649500       0.67156900 </v>
    <v>       0.50913200       0.01037300       0.65453700 </v>
    <v>       0.27437000       0.48123500       0.15076500 </v>
    <v>       0.99656300       0.34571200       0.33315900 </v>
    <v>       0.47588700       0.67380400       0.32963200 </v>
    <v>       0.21589500       0.15777500       0.49416300 </v>
    <v>       0.00844700       0.67161400       0.00222000 </v>
    <v>       0.75332100       0.52693600       0.50631800 </v>
    <v>       0.76308100       0.82633400       0.50647600 </v>
    <v>       0.26182900       0.49142300       0.83596500 </v>
    <v>       0.25742500       0.16489100       0.16226800 </v>
    <v>       0.23299500       0.83089700       0.50566100 </v>
   </varray>
  </structure>
  <varray name="forces" >
   <v>      -0.00487405       0.00006538      -0.00588049 </v>
   <v>      -0.02016467      -0.03879611       0.04019503 </v>
   <v>      -0.00031109       0.00343987       0.00956023 </v>
   <v>      -0.00196515       0.01424746      -0.00923311 </v>
   <v>      -0.02235411       0.04165794       0.02473813 </v>
   <v>       0.00826243       0.00026996      -0.00863985 </v>
   <v>       0.00855186      -0.00302508      -0.00160263 </v>
   <v>       0.02151621      -0.03793833       0.02278532 </v>
   <v>      -0.00201357       0.01046840      -0.00757276 </v>
   <v>      -0.00335465      -0.08358136       0.00694740 </v>
   <v>      -0.00730365       0.00200561       0.00787058 </v>
   <v>      -0.00221974      -0.00324930       0.00704702 </v>
   <v>      -0.06924808      -0.00253431       0.00252497 </v>
   <v>      -0.00590693      -0.00510966       0.10270614 </v>
   <v>       0.00128042       0.01228803       0.00186120 </v>
   <v>      -0.00709963      -0.00037514       0.02803671 </v>
   <v>      -0.00608358      -0.01170966      -0.00207282 </v>
   <v>      -0.00217154      -0.00330863       0.00176492 </v>
   <v>       0.01060587       0.00873090       0.00124851 </v>
   <v>      -0.05010918      -0.02551158      -0.04769913 </v>
   <v>      -0.00060732      -0.01485485       0.00188091 </v>
   <v>      -0.01118329      -0.01661932      -0.00605064 </v>
   <v>       0.00886434       0.02985569      -0.01343473 </v>
   <v>       0.02173437       0.12163911       0.01536306 </v>
   <v>       0.09902109      -0.02554137      -0.02691134 </v>
   <v>      -0.00165953       0.02251645      -0.00027656 </v>
   <v>       0.00132021      -0.00677597      -0.00849017 </v>
   <v>       0.01606529       0.00627501      -0.07873973 </v>
   <v>       0.00357660      -0.00746995       0.01243337 </v>
   <v>       0.01250564      -0.02168866      -0.01363887 </v>
   <v>       0.00371775      -0.00862054      -0.00823995 </v>
   <v>      -0.00371643       0.00401541      -0.02932113 </v>
   <v>       0.00063688       0.00129631      -0.01153678 </v>
   <v>       0.00500872       0.02271233       0.00969582 </v>
   <v>      -0.00267980      -0.00067540      -0.00228669 </v>
   <v>       0.00235830       0.01590136      -0.01503192 </v>
  </varray>
  <varray name="stress" >
   <v>       1.37671346       0.09368391      -0.22212488 </v>
   <v>       0.09368391       2.02145253       0.03130008 </v>
   <v>      -0.22212486       0.03130004       1.65082654 </v>
  </varray>
  <energy>
   <i name="e_fr_energy">   -354.40647250 </i>
   <i name="e_wo_entrp">   -354.41455329 </i>
   <i name="e_0_energy">      0.02424238 </i>
  </energy>
  <time name="totalsc">   21.87   23.14</time>
 </calculation>
 <calculation>
  <scstep>
   <time name="dav">    1.21    1.24</time>
   <time name="total">    1.42    1.55</time>
   <energy>
    <i name="alphaZ">   1508.11015616 </i>
    <i name="ewald"> -20752.95606782 </i>
    <i name="hartreedc">  -6252.39468088 </i>
    <i name="XCdc">   -126.27776753 </i>
    <i name="pawpsdc">  35125.75971081 </i>
    <i name="pawaedc"> -33585.28563440 </i>
    <i name="eentropy">      0.02420012 </i>
    <i name="bandstr">  -2816.27584280 </i>
    <i name="atom">  26544.88607679 </i>
    <i name="e_fr_energy">   -354.40984955 </i>
    <i name="e_wo_entrp">   -354.43404966 </i>
    <i name="e_0_energy">   -354.41791625 </i>
   </energy>
  </scstep>
  <scstep>
   <time name="diag">    0.08    0.08</time>
   <time name="diis">    0.72    0.74</time>
   <time name="orth">    0.01    0.01</time>
   <time name="total">    0.88    0.92</time>
   <energy>
    <i name="e_fr_energy">   -354.40859092 </i>
    <i name="e_wo_entrp">   -354.43292590 </i>
    <i name="e_0_energy">   -354.41670258 </i>
   </energy>
  </scstep>
  <scstep>
   <time name="diag">    0.14    0.15</time>
   <time name="diis">    0.79    0.81</time>
   <time name="orth">    0.01    0.01</time>
   <time name="total">    1.01    1.06</time>
   <energy>
    <i name="e_fr_energy">   -354.40830387 </i>
    <i name="e_wo_entrp">   -354.43266733 </i>
    <i name="e_0_energy">   -354.41642502 </i>
   </energy>
  </scstep>
  <scstep>
   <time name="diag">    0.08    0.08</time>
   <time name="diis">    0.78    0.79</time>
   <time name="orth">    0.01    0.01</time>
   <time name="total">    0.93    0.97</time>
   <energy>
    <i name="e_fr_energy">   -354.40810488 </i>
    <i name="e_wo_entrp">   -354.43237563 </i>
    <i name="e_0_energy">   -354.41619513 </i>
   </energy>
  </scstep>
  <scstep>
   <time name="diag">    0.08    0.08</time>
   <time name="diis">    0.69    0.71</time>
   <time name="orth">    0.01    0.01</time>
   <time name="total">    0.85    0.89</time>
   <energy>
    <i name="e_fr_energy">   -354.40807675 </i>
    <i name="e_wo_entrp">   -354.43239861 </i>
    <i name="e_0_energy">   -354.41618404 </i>
   </energy>
  </scstep>
  <scstep>
   <time name="diag">    0.08    0.08</time>
   <time name="diis">    0.60    0.61</time>
   <time name="orth">    0.01    0.01</time>
   <time name="total">    0.72    0.78</time>
   <energy>
    <i name="alphaZ">   1508.11015616 </i>
    <i name="ewald"> -20752.95606782 </i>
    <i name="hartreedc">  -6256.57067091 </i>
    <i name="XCdc">   -126.09064558 </i>
    <i name="pawpsdc">  35077.20265806 </i>
    <i name="pawaedc"> -33536.59835463 </i>
    <i name="eentropy">      0.02430812 </i>
    <i name="bandstr">  -2812.41552857 </i>
    <i name="atom">  26544.88607679 </i>
    <i name="e_fr_energy">   -354.40806837 </i>
    <i name="e_wo_entrp">   -354.43237650 </i>
    <i name="e_0_energy">   -354.41617108 </i>
   </energy>
  </scstep>
  <structure>
   <crystal>
    <varray name="basis" >
     <v>       7.04361802       0.00137598      -0.01032741 </v>
     <v>       0.00272420      10.22495511      -0.00570848 </v>
     <v>      -0.01555462      -0.00589283      10.36909192 </v>
    </varray>
    <i name="volume">    746.78711307 </i>
    <varray name="rec_basis" >
     <v>       0.14197281      -0.00003771       0.00021295 </v>
     <v>      -0.00001902       0.09779998       0.00005555 </v>
     <v>       0.00014139       0.00005380       0.09644070 </v>
    </varray>
   </crystal>
   <varray name="positions" >
    <v>       0.74561496       0.16465409       0.16453578 </v>
    <v>       0.72090570       0.16068810       0.84043705 </v>
    <v>       0.26482339       0.82923888       0.83311835 </v>
    <v>       0.54001593       0.32571917       0.99466912 </v>
    <v>       0.73932111       0.51139801       0.83355453 </v>
    <v>       0.50306396       0.99468137       0.00640895 </v>
    <v>       0.72834357       0.50885971       0.16022578 </v>
    <v>       0.27661231       0.17203929       0.84361983 </v>
    <v>       0.99160283       0.99891182       0.99860343 </v>
    <v>       0.99375317       0.00149166       0.69319863 </v>
    <v>       0.01751001       0.66937085       0.31685898 </v>
    <v>       0.52026546       0.00225741       0.33234483 </v>
    <v>       0.51877169       0.33201743       0.65742639 </v>
    <v>       0.97085517       0.32607985       0.98973738 </v>
    <v>       0.72629663       0.82221240       0.83442161 </v>
    <v>       0.51947449       0.32494449       0.35001213 </v>
    <v>       0.73222450       0.83195142       0.15551208 </v>
    <v>       0.97602254       0.99071732       0.30973546 </v>
    <v>       0.25755280       0.85253536       0.16523777 </v>
    <v>       0.79392988       0.15412285       0.49001128 </v>
    <v>       0.48143276       0.67805297       0.00166061 </v>
    <v>       0.48337401       0.66024847       0.67306352 </v>
    <v>       0.25071916       0.51016126       0.51909028 </v>
    <v>       0.01290365       0.66016024       0.68402159 </v>
    <v>       0.98557445       0.33645879       0.67153160 </v>
    <v>       0.50912858       0.01040488       0.65453663 </v>
    <v>       0.27437269       0.48122540       0.15075314 </v>
    <v>       0.99659578       0.34572082       0.33304910 </v>
    <v>       0.47589439       0.67379343       0.32964936 </v>
    <v>       0.21592067       0.15774428       0.49414397 </v>
    <v>       0.00845462       0.67160179       0.00220850 </v>
    <v>       0.75331327       0.52694166       0.50627706 </v>
    <v>       0.76308227       0.82633583       0.50645989 </v>
    <v>       0.26183931       0.49145517       0.83597857 </v>
    <v>       0.25741949       0.16489004       0.16226480 </v>
    <v>       0.23299979       0.83091950       0.50564003 </v>
   </varray>
  </structure>
  <varray name="forces" >
   <v>      -0.00598576      -0.00076601      -0.00331959 </v>
   <v>      -0.01923360      -0.03377716       0.03882246 </v>
   <v>       0.00176471      -0.00014638       0.00902797 </v>
   <v>       0.00114856       0.01195046      -0.01030621 </v>
   <v>      -0.01914993       0.03847377       0.02078349 </v>
   <v>       0.00825129      -0.00214491      -0.00447222 </v>
   <v>       0.00406576      -0.00228357      -0.00211672 </v>
   <v>       0.01945371      -0.03397821       0.02389972 </v>
   <v>      -0.00240196       0.01027442      -0.00488016 </v>
   <v>      -0.00313872      -0.07767359       0.00484540 </v>
   <v>      -0.00552439       0.00329390       0.00648203 </v>
   <v>       0.00056220      -0.00380313       0.00343431 </v>
   <v>      -0.06195756      -0.00016890       0.00417638 </v>
   <v>      -0.00785291      -0.00559233       0.09269566 </v>
   <v>      -0.00307558       0.00799226       0.00168824 </v>
   <v>      -0.00601862      -0.00041574       0.02559596 </v>
   <v>      -0.00699780      -0.01016042      -0.00276586 </v>
   <v>      -0.00484329      -0.00431064      -0.00046886 </v>
   <v>       0.01053406       0.00949746       0.00142359 </v>
   <v>      -0.03842446      -0.02424293      -0.04620686 </v>
   <v>       0.00031303      -0.01088405       0.00139429 </v>
   <v>      -0.00975176      -0.01603695      -0.00565651 </v>
   <v>       0.00651773       0.03273191      -0.00786435 </v>
   <v>       0.01975335       0.11236860       0.01267190 </v>
   <v>       0.08920197      -0.02213970      -0.02526119 </v>
   <v>       0.00055228       0.02230368      -0.00156660 </v>
   <v>       0.00415946      -0.00610794      -0.00884865 </v>
   <v>       0.01390513       0.00426862      -0.07163714 </v>
   <v>       0.00206054      -0.00648214       0.00995501 </v>
   <v>       0.00482440      -0.02437549      -0.01322659 </v>
   <v>       0.00326904      -0.00716548      -0.00802857 </v>
   <v>      -0.00172510       0.00339908      -0.02228362 </v>
   <v>       0.00054271       0.00154493      -0.00920893 </v>
   <v>       0.00397842       0.02214347       0.00753292 </v>
   <v>      -0.00171432      -0.00220804      -0.00192087 </v>
   <v>       0.00293739       0.01462115      -0.01438982 </v>
  </varray>
  <varray name="stress" >
   <v>       0.38499880       0.08479128      -0.21544918 </v>
   <v>       0.08479121       0.99607708       0.03311577 </v>
   <v>      -0.21544918       0.03311580       0.67027423 </v>
  </varray>
  <energy>
   <i name="e_fr_energy">   -354.40806837 </i>
   <i name="e_wo_entrp">   -354.41617108 </i>
   <i name="e_0_energy">      0.02430812 </i>
  </energy>
  <time name="totalsc">    7.45    7.92</time>
 </calculation>
 <calculation>
  <scstep>
   <time name="dav">    1.05    1.07</time>
   <time name="total">    1.24    1.37</time>
   <energy>
    <i name="alphaZ">   1504.58072950 </i>
    <i name="ewald"> -20737.53468940 </i>
    <i name="hartreedc">  -6250.87157083 </i>
    <i name="XCdc">   -126.81597417 </i>
    <i name="pawpsdc">  35080.72720107 </i>
    <i name="pawaedc"> -33540.17267514 </i>
    <i name="eentropy">      0.02418562 </i>
    <i name="bandstr">  -2829.24361834 </i>
    <i name="atom">  26544.88607679 </i>
    <i name="e_fr_energy">   -354.42033491 </i>
    <i name="e_wo_entrp">   -354.44452053 </i>
    <i name="e_0_energy">   -354.42839679 </i>
   </energy>
  </scstep>
  <scstep>
   <time name="diag">    0.08    0.08</time>
   <time name="diis">    0.73    0.75</time>
   <time name="orth">    0.01    0.01</time>
   <time name="total">    0.96    1.00</time>
   <energy>
    <i name="e_fr_energy">   -354.41226503 </i>
    <i name="e_wo_entrp">   -354.43680103 </i>
    <i name="e_0_energy">   -354.42044370 </i>
   </energy>
  </scstep>
  <scstep>
   <time name="diag">    0.11    0.11</time>
   <time name="diis">    0.77    0.82</time>
   <time name="orth">    0.03    0.03</time>
   <time name="total">    1.01    1.08</time>
   <energy>
    <i name="e_fr_energy">   -354.41046027 </i>
    <i name="e_wo_entrp">   -354.43505569 </i>
    <i name="e_0_energy">   -354.41865874 </i>
   </energy>
  </scstep>
  <scstep>
   <time name="diag">    0.11    0.12</time>
   <time name="diis">    0.79    0.84</time>
   <time name="orth">    0.02    0.02</time>
   <time name="total">    0.99    1.11</time>
   <energy>
    <i name="e_fr_energy">   -354.40926878 </i>
    <i name="e_wo_entrp">   -354.43362838 </i>
    <i name="e_0_energy">   -354.41738865 </i>
   </energy>
  </scstep>
  <scstep>
   <time name="diag">    0.14    0.14</time>
   <time name="diis">    0.71    0.85</time>
   <time name="orth">    0.01    0.01</time>
   <time name="total">    0.95    1.12</time>
   <energy>
    <i name="e_fr_energy">   -354.40913077 </i>
    <i name="e_wo_entrp">   -354.43362368 </i>
    <i name="e_0_energy">   -354.41729507 </i>
   </energy>
  </scstep>
  <scstep>
   <time name="diag">    0.08    0.08</time>
   <time name="diis">    0.75    0.76</time>
   <time name="orth">    0.01    0.01</time>
   <time name="total">    0.91    0.95</time>
   <energy>
    <i name="e_fr_energy">   -354.40913872 </i>
    <i name="e_wo_entrp">   -354.43359573 </i>
    <i name="e_0_energy">   -354.41729106 </i>
   </energy>
  </scstep>
  <scstep>
   <time name="diag">    0.08    0.08</time>
   <time name="diis">    0.67    0.68</time>
   <time name="orth">    0.01    0.01</time>
   <time name="total">    0.83    0.86</time>
   <energy>
    <i name="e_fr_energy">   -354.40913878 </i>
    <i name="e_wo_entrp">   -354.43360197 </i>
    <i name="e_0_energy">   -354.41729318 </i>
   </energy>
  </scstep>
  <scstep>
   <time name="diag">    0.09    0.09</time>
   <time name="diis">    0.55    0.56</time>
   <time name="orth">    0.01    0.01</time>
   <time name="total">    0.72    0.76</time>
   <energy>
    <i name="e_fr_energy">   -354.40914543 </i>
    <i name="e_wo_entrp">   -354.43361516 </i>
    <i name="e_0_energy">   -354.41730201 </i>
   </energy>
  </scstep>
  <scstep>
   <time name="diag">    0.08    0.08</time>
   <time name="diis">    0.46    0.47</time>
   <time name="orth">    0.01    0.01</time>
   <time name="total">    0.60    0.62</time>
   <energy>
    <i name="alphaZ">   1504.58072950 </i>
    <i name="ewald"> -20737.53468940 </i>
    <i name="hartreedc">  -6260.81431762 </i>
    <i name="XCdc">   -126.36848497 </i>
    <i name="pawpsdc">  34971.03659520 </i>
    <i name="pawaedc"> -33430.61451549 </i>
    <i name="eentropy">      0.02447003 </i>
    <i name="bandstr">  -2819.60501155 </i>
    <i name="atom">  26544.88607679 </i>
    <i name="e_fr_energy">   -354.40914752 </i>
    <i name="e_wo_entrp">   -354.43361755 </i>
    <i name="e_0_energy">   -354.41730419 </i>
   </energy>
  </scstep>
  <structure>
   <crystal>
    <varray name="basis" >
     <v>       7.04812127       0.00168338      -0.01106148 </v>
     <v>       0.00317110      10.23455033      -0.00556459 </v>
     <v>      -0.01663384      -0.00574840      10.37704036 </v>
    </varray>
    <i name="volume">    748.53891693 </i>
    <varray name="rec_basis" >
     <v>       0.14188215      -0.00004384       0.00022741 </v>
     <v>      -0.00002325       0.09770829       0.00005409 </v>
     <v>       0.00015123       0.00005235       0.09636686 </v>
    </varray>
   </crystal>
   <varray name="positions" >
    <v>       0.74559008       0.16465431       0.16451539 </v>
    <v>       0.72080327       0.16055198       0.84057604 </v>
    <v>       0.26482187       0.82925098       0.83315146 </v>
    <v>       0.54000582       0.32576918       0.99463716 </v>
    <v>       0.73920730       0.51154435       0.83364015 </v>
    <v>       0.50310600       0.99468230       0.00637908 </v>
    <v>       0.72838715       0.50884908       0.16022027 </v>
    <v>       0.27672221       0.17190611       0.84369875 </v>
    <v>       0.99159250       0.99894856       0.99857722 </v>
    <v>       0.99373624       0.00119820       0.69322250 </v>
    <v>       0.01747284       0.66937791       0.31688619 </v>
    <v>       0.52025420       0.00224601       0.33236921 </v>
    <v>       0.51841874       0.33200858       0.65743477 </v>
    <v>       0.97082585       0.32606212       0.99009295 </v>
    <v>       0.72630316       0.82225555       0.83442809 </v>
    <v>       0.51943852       0.32494324       0.35010917 </v>
    <v>       0.73219349       0.83191030       0.15550485 </v>
    <v>       0.97601149       0.99070570       0.30974155 </v>
    <v>       0.25760685       0.85256601       0.16524216 </v>
    <v>       0.79367414       0.15403321       0.48984582 </v>
    <v>       0.48142970       0.67800081       0.00166709 </v>
    <v>       0.48331698       0.66019011       0.67304248 </v>
    <v>       0.25076420       0.51026606       0.51904387 </v>
    <v>       0.01301439       0.66058736       0.68407513 </v>
    <v>       0.98607900       0.33636898       0.67143888 </v>
    <v>       0.50912009       0.01048394       0.65453571 </v>
    <v>       0.27437936       0.48120159       0.15072374 </v>
    <v>       0.99667706       0.34574268       0.33277656 </v>
    <v>       0.47591273       0.67376723       0.32969241 </v>
    <v>       0.21598434       0.15766809       0.49409676 </v>
    <v>       0.00847352       0.67157150       0.00217997 </v>
    <v>       0.75329410       0.52695571       0.50617552 </v>
    <v>       0.76308543       0.82634035       0.50641996 </v>
    <v>       0.26186489       0.49153493       0.83601221 </v>
    <v>       0.25740581       0.16488767       0.16225687 </v>
    <v>       0.23301168       0.83097530       0.50558803 </v>
   </varray>
  </structure>
  <varray name="forces" >
   <v>      -0.01081331      -0.00352939       0.00265885 </v>
   <v>      -0.01698018      -0.02055695       0.03646922 </v>
   <v>       0.00834268      -0.00829447       0.00940633 </v>
   <v>       0.01015316       0.00551200      -0.01600579 </v>
   <v>      -0.01391949       0.02896220       0.01153494 </v>
   <v>       0.00899832      -0.00764648       0.00697215 </v>
   <v>      -0.00768945       0.00105632      -0.00400570 </v>
   <v>       0.01691901      -0.02420427       0.02615895 </v>
   <v>      -0.00457245       0.00753883       0.00361249 </v>
   <v>      -0.00400316      -0.06011185      -0.00011154 </v>
   <v>      -0.00068563       0.00607030      -0.00075681 </v>
   <v>       0.00769344      -0.00566131      -0.00723738 </v>
   <v>      -0.04455818       0.00437597       0.00863214 </v>
   <v>      -0.01260206      -0.00645755       0.06861435 </v>
   <v>      -0.01537490      -0.00087021       0.00556348 </v>
   <v>      -0.00433136      -0.00102684       0.02027371 </v>
   <v>      -0.00912956      -0.00473159      -0.00506053 </v>
   <v>      -0.01134281      -0.00503034      -0.00629892 </v>
   <v>       0.01061070       0.01048216       0.00020583 </v>
   <v>      -0.00985517      -0.01844072      -0.04232350 </v>
   <v>       0.00215952      -0.00147616       0.00077877 </v>
   <v>      -0.00978889      -0.01652131      -0.00345933 </v>
   <v>       0.00049910       0.03562224       0.00328542 </v>
   <v>       0.01888811       0.08892157       0.00980778 </v>
   <v>       0.06540185      -0.01435223      -0.02126431 </v>
   <v>       0.00770238       0.02364416      -0.00289771 </v>
   <v>       0.01187224      -0.00262360      -0.00972551 </v>
   <v>       0.00787183      -0.00191354      -0.05162610 </v>
   <v>      -0.00189373      -0.00328095       0.00026927 </v>
   <v>      -0.01378602      -0.02871798      -0.01313848 </v>
   <v>       0.00105848      -0.00218700      -0.00625021 </v>
   <v>       0.00359873      -0.00084795      -0.00466495 </v>
   <v>      -0.00034747       0.00286961      -0.00455890 </v>
   <v>       0.00256615       0.02009012       0.00152044 </v>
   <v>       0.00245407      -0.00733791      -0.00264191 </v>
   <v>       0.00488404       0.01067512      -0.01373651 </v>
  </varray>
  <varray name="stress" >
   <v>      -2.52259584       0.04644433      -0.10694285 </v>
   <v>       0.04644432      -2.23181367       0.00465106 </v>
   <v>      -0.10694284       0.00465104      -2.35414550 </v>
  </varray>
  <energy>
   <i name="e_fr_energy">   -354.40914752 </i>
   <i name="e_wo_entrp">   -354.41730419 </i>
   <i name="e_0_energy">      0.02447003 </i>
  </energy>
  <time name="totalsc">    9.84   10.64</time>
 </calculation>
 <calculation>
  <scstep>
   <time name="dav">    0.95    0.98</time>
   <time name="total">    1.13    1.26</time>
   <energy>
    <i name="alphaZ">   1504.74693038 </i>
    <i name="ewald"> -20738.58827382 </i>
    <i name="hartreedc">  -6260.68821901 </i>
    <i name="XCdc">   -126.33836414 </i>
    <i name="pawpsdc">  34970.89202746 </i>
    <i name="pawaedc"> -33430.57573694 </i>
    <i name="eentropy">      0.02452793 </i>
    <i name="bandstr">  -2818.76910122 </i>
    <i name="atom">  26544.88607679 </i>
    <i name="e_fr_energy">   -354.41013258 </i>
    <i name="e_wo_entrp">   -354.43466050 </i>
    <i name="e_0_energy">   -354.41830855 </i>
   </energy>
  </scstep>
  <scstep>
   <time name="diag">    0.11    0.11</time>
   <time name="diis">    0.80    0.82</time>
   <time name="orth">    0.01    0.01</time>
   <time name="total">    1.00    1.04</time>
   <energy>
    <i name="e_fr_energy">   -354.41028802 </i>
    <i name="e_wo_entrp">   -354.43474416 </i>
    <i name="e_0_energy">   -354.41844006 </i>
   </energy>
  </scstep>
  <scstep>
   <time name="diag">    0.09    0.09</time>
   <time name="diis">    0.81    0.83</time>
   <time name="orth">    0.01    0.01</time>
   <time name="total">    1.02    1.06</time>
   <energy>
    <i name="e_fr_energy">   -354.41023883 </i>
    <i name="e_wo_entrp">   -354.43472270 </i>
    <i name="e_0_energy">   -354.41840012 </i>
   </energy>
  </scstep>
  <scstep>
   <time name="diag">    0.13    0.14</time>
   <time name="diis">    0.65    0.67</time>
   <time name="orth">    0.01    0.01</time>
   <time name="total">    0.88    0.93</time>
   <energy>
    <i name="e_fr_energy">   -354.41022762 </i>
    <i name="e_wo_entrp">   -354.43473147 </i>
    <i name="e_0_energy">   -354.41839557 </i>
   </energy>
  </scstep>
  <scstep>
   <time name="diag">    0.08    0.08</time>
   <time name="diis">    0.41    0.42</time>
   <time name="orth">    0.01    0.01</time>
   <time name="total">    0.54    0.58</time>
   <energy>
    <i name="alphaZ">   1504.74693038 </i>
    <i name="ewald"> -20738.58827382 </i>
    <i name="hartreedc">  -6260.05349131 </i>
    <i name="XCdc">   -126.36485381 </i>
    <i name="pawpsdc">  34975.17480682 </i>
    <i name="pawaedc"> -33434.97778041 </i>
    <i name="eentropy">      0.02449334 </i>
    <i name="bandstr">  -2819.25813202 </i>
    <i name="atom">  26544.88607679 </i>
    <i name="e_fr_energy">   -354.41022403 </i>
    <i name="e_wo_entrp">   -354.43471738 </i>
    <i name="e_0_energy">   -354.41838848 </i>
   </energy>
  </scstep>
  <structure>
   <crystal>
    <varray name="basis" >
     <v>       7.04739871       0.00182486      -0.01139371 </v>
     <v>       0.00337649      10.23487760      -0.00550968 </v>
     <v>      -0.01712205      -0.00569331      10.37662786 </v>
    </varray>
    <i name="volume">    748.45624003 </i>
    <varray name="rec_basis" >
     <v>       0.14189672      -0.00004669       0.00023411 </v>
     <v>      -0.00002521       0.09770516       0.00005357 </v>
     <v>       0.00015579       0.00005183       0.09637071 </v>
    </varray>
   </crystal>
   <varray name="positions" >
    <v>       0.74556724       0.16465109       0.16451112 </v>
    <v>       0.72074667       0.16048806       0.84065529 </v>
    <v>       0.26483271       0.82924721       0.83317101 </v>
    <v>       0.54001623       0.32579075       0.99461194 </v>
    <v>       0.73915102       0.51161950       0.83367891 </v>
    <v>       0.50313205       0.99467546       0.00637569 </v>
    <v>       0.72839105       0.50884657       0.16021475 </v>
    <v>       0.27678135       0.17183975       0.84374881 </v>
    <v>       0.99158290       0.99896768       0.99857193 </v>
    <v>       0.99372527       0.00104561       0.69323021 </v>
    <v>       0.01745969       0.66938590       0.31689445 </v>
    <v>       0.52026093       0.00223697       0.33237057 </v>
    <v>       0.51824230       0.33200978       0.65744541 </v>
    <v>       0.97079930       0.32605030       0.99027302 </v>
    <v>       0.72628446       0.82226892       0.83443532 </v>
    <v>       0.51942087       0.32494188       0.35015973 </v>
    <v>       0.73217090       0.83189237       0.15549780 </v>
    <v>       0.97599247       0.99069719       0.30973773 </v>
    <v>       0.25763901       0.85258587       0.16524382 </v>
    <v>       0.79357661       0.15398651       0.48975242 </v>
    <v>       0.48143163       0.67798229       0.00166994 </v>
    <v>       0.48328496       0.66015550       0.67303235 </v>
    <v>       0.25077967       0.51033377       0.51903166 </v>
    <v>       0.01307639       0.66081079       0.68410183 </v>
    <v>       0.98633353       0.33632604       0.67138891 </v>
    <v>       0.50912772       0.01053201       0.65453276 </v>
    <v>       0.27439764       0.48119131       0.15070513 </v>
    <v>       0.99671433       0.34574805       0.33263943 </v>
    <v>       0.47591619       0.67375555       0.32970681 </v>
    <v>       0.21598656       0.15761622       0.49406911 </v>
    <v>       0.00848115       0.67155950       0.00216483 </v>
    <v>       0.75329266       0.52695953       0.50613786 </v>
    <v>       0.76308598       0.82634452       0.50640263 </v>
    <v>       0.26187677       0.49157991       0.83602468 </v>
    <v>       0.25740464       0.16488003       0.16225183 </v>
    <v>       0.23302217       0.83100361       0.50555829 </v>
   </varray>
  </structure>
  <varray name="forces" >
   <v>      -0.01187585      -0.00314880       0.00464221 </v>
   <v>      -0.01096985      -0.01645149       0.03141767 </v>
   <v>       0.00833703      -0.00723350       0.00955016 </v>
   <v>       0.00855021       0.00528320      -0.01629420 </v>
   <v>      -0.00950373       0.02235615       0.00847966 </v>
   <v>       0.00849743      -0.00704069       0.00923621 </v>
   <v>      -0.00973044       0.00249408      -0.00263196 </v>
   <v>       0.01107077      -0.02042690       0.02429305 </v>
   <v>      -0.00437310       0.00623691       0.00519688 </v>
   <v>      -0.00275082      -0.05191756      -0.00264639 </v>
   <v>      -0.00008648       0.00618715      -0.00337559 </v>
   <v>       0.00623691      -0.00711401      -0.00931530 </v>
   <v>      -0.03690304       0.00522499       0.01070283 </v>
   <v>      -0.00925464      -0.00537940       0.05676360 </v>
   <v>      -0.01781583      -0.00183171       0.00571865 </v>
   <v>      -0.00502993      -0.00014045       0.01753910 </v>
   <v>      -0.00746049      -0.00377183      -0.00417411 </v>
   <v>      -0.00953908      -0.00629739      -0.00683364 </v>
   <v>       0.00862364       0.00810509       0.00025545 </v>
   <v>      -0.00168891      -0.01379856      -0.03643082 </v>
   <v>       0.00331188      -0.00154720       0.00064719 </v>
   <v>      -0.00639870      -0.01318747      -0.00301307 </v>
   <v>      -0.00339637       0.03188924       0.00301813 </v>
   <v>       0.01581027       0.07917425       0.00840155 </v>
   <v>       0.05380460      -0.01166069      -0.01874084 </v>
   <v>       0.00863274       0.02284358      -0.00347987 </v>
   <v>       0.01197635      -0.00158726      -0.00801571 </v>
   <v>       0.00703301      -0.00347212      -0.04303681 </v>
   <v>      -0.00197218      -0.00216214      -0.00163649 </v>
   <v>      -0.01812948      -0.03029781      -0.01200412 </v>
   <v>      -0.00021932      -0.00174782      -0.00509270 </v>
   <v>       0.00700182      -0.00404712       0.00014245 </v>
   <v>      -0.00252310       0.00280997      -0.00410562 </v>
   <v>      -0.00040957       0.01679768       0.00097852 </v>
   <v>       0.00336103      -0.00684824      -0.00171260 </v>
   <v>       0.00778321       0.01170786      -0.01444349 </v>
  </varray>
  <varray name="stress" >
   <v>      -2.52978443       0.02888283      -0.07894497 </v>
   <v>       0.02888281      -2.34627062      -0.00723403 </v>
   <v>      -0.07894498      -0.00723404      -2.40210522 </v>
  </varray>
  <energy>
   <i name="e_fr_energy">   -354.41022403 </i>
   <i name="e_wo_entrp">   -354.41838848 </i>
   <i name="e_0_energy">      0.02449334 </i>
  </energy>
  <time name="totalsc">    6.15    6.57</time>
 </calculation>
 <calculation>
  <scstep>
   <time name="dav">    0.93    0.97</time>
   <time name="total">    1.11    1.26</time>
   <energy>
    <i name="alphaZ">   1505.24580989 </i>
    <i name="ewald"> -20741.70221594 </i>
    <i name="hartreedc">  -6259.90994365 </i>
    <i name="XCdc">   -126.26641359 </i>
    <i name="pawpsdc">  34974.79697124 </i>
    <i name="pawaedc"> -33434.62617929 </i>
    <i name="eentropy">      0.02468759 </i>
    <i name="bandstr">  -2816.86043101 </i>
    <i name="atom">  26544.88607679 </i>
    <i name="e_fr_energy">   -354.41163798 </i>
    <i name="e_wo_entrp">   -354.43632557 </i>
    <i name="e_0_energy">   -354.41986718 </i>
   </energy>
  </scstep>
  <scstep>
   <time name="diag">    0.08    0.08</time>
   <time name="diis">    0.75    0.77</time>
   <time name="orth">    0.01    0.01</time>
   <time name="total">    0.91    0.96</time>
   <energy>
    <i name="e_fr_energy">   -354.41306271 </i>
    <i name="e_wo_entrp">   -354.43751233 </i>
    <i name="e_0_energy">   -354.42121258 </i>
   </energy>
  </scstep>
  <scstep>
   <time name="diag">    0.08    0.08</time>
   <time name="diis">    0.79    0.82</time>
   <time name="orth">    0.01    0.01</time>
   <time name="total">    0.95    1.01</time>
   <energy>
    <i name="e_fr_energy">   -354.41258952 </i>
    <i name="e_wo_entrp">   -354.43714380 </i>
    <i name="e_0_energy">   -354.42077428 </i>
   </energy>
  </scstep>
  <scstep>
   <time name="diag">    0.08    0.08</time>
   <time name="diis">    0.84    0.86</time>
   <time name="orth">    0.01    0.01</time>
   <time name="total">    1.00    1.04</time>
   <energy>
    <i name="e_fr_energy">   -354.41250655 </i>
    <i name="e_wo_entrp">   -354.43711567 </i>
    <i name="e_0_energy">   -354.42070959 </i>
   </energy>
  </scstep>
  <scstep>
   <time name="diag">    0.08    0.08</time>
   <time name="diis">    0.74    0.77</time>
   <time name="orth">    0.03    0.03</time>
   <time name="total">    0.92    0.97</time>
   <energy>
    <i name="e_fr_energy">   -354.41249532 </i>
    <i name="e_wo_entrp">   -354.43707371 </i>
    <i name="e_0_energy">   -354.42068811 </i>
   </energy>
  </scstep>
  <scstep>
   <time name="diag">    0.09    0.10</time>
   <time name="diis">    0.59    0.61</time>
   <time name="orth">    0.01    0.01</time>
   <time name="total">    0.79    0.84</time>
   <energy>
    <i name="e_fr_energy">   -354.41249318 </i>
    <i name="e_wo_entrp">   -354.43708394 </i>
    <i name="e_0_energy">   -354.42069010 </i>
   </energy>
  </scstep>
  <scstep>
   <time name="diag">    0.14    0.14</time>
   <time name="diis">    0.43    0.44</time>
   <time name="orth">    0.01    0.01</time>
   <time name="total">    0.62    0.71</time>
   <energy>
    <i name="alphaZ">   1505.24580989 </i>
    <i name="ewald"> -20741.70221594 </i>
    <i name="hartreedc">  -6258.36393376 </i>
    <i name="XCdc">   -126.33076412 </i>
    <i name="pawpsdc">  34988.03366897 </i>
    <i name="pawaedc"> -33447.90660925 </i>
    <i name="eentropy">      0.02459848 </i>
    <i name="bandstr">  -2818.29912713 </i>
    <i name="atom">  26544.88607679 </i>
    <i name="e_fr_energy">   -354.41249608 </i>
    <i name="e_wo_entrp">   -354.43709456 </i>
    <i name="e_0_energy">   -354.42069557 </i>
   </energy>
  </scstep>
  <structure>
   <crystal>
    <varray name="basis" >
     <v>       7.04523103       0.00224929      -0.01239039 </v>
     <v>       0.00399264      10.23585939      -0.00534493 </v>
     <v>      -0.01858670      -0.00552804      10.37539036 </v>
    </varray>
    <i name="volume">    748.20818122 </i>
    <varray name="rec_basis" >
     <v>       0.14194045      -0.00005523       0.00025425 </v>
     <v>      -0.00003110       0.09769579       0.00005200 </v>
     <v>       0.00016949       0.00005026       0.09638225 </v>
    </varray>
   </crystal>
   <varray name="positions" >
    <v>       0.74549870       0.16464143       0.16449831 </v>
    <v>       0.72057687       0.16029632       0.84089303 </v>
    <v>       0.26486524       0.82923590       0.83322968 </v>
    <v>       0.54004744       0.32585547       0.99453625 </v>
    <v>       0.73898217       0.51184496       0.83379519 </v>
    <v>       0.50321019       0.99465495       0.00636553 </v>
    <v>       0.72840272       0.50883905       0.16019822 </v>
    <v>       0.27695883       0.17164065       0.84389899 </v>
    <v>       0.99155411       0.99902504       0.99855605 </v>
    <v>       0.99369239       0.00058786       0.69325335 </v>
    <v>       0.01742023       0.66940987       0.31691920 </v>
    <v>       0.52028109       0.00220986       0.33237464 </v>
    <v>       0.51771291       0.33201338       0.65747731 </v>
    <v>       0.97071965       0.32601483       0.99081323 </v>
    <v>       0.72622837       0.82230905       0.83445700 </v>
    <v>       0.51936792       0.32493779       0.35031143 </v>
    <v>       0.73210314       0.83183858       0.15547663 </v>
    <v>       0.97593538       0.99067165       0.30972628 </v>
    <v>       0.25773549       0.85264545       0.16524879 </v>
    <v>       0.79328396       0.15384642       0.48947219 </v>
    <v>       0.48143741       0.67792674       0.00167850 </v>
    <v>       0.48318887       0.66005168       0.67300197 </v>
    <v>       0.25082609       0.51053691       0.51899502 </v>
    <v>       0.01326239       0.66148104       0.68418196 </v>
    <v>       0.98709719       0.33619718       0.67123903 </v>
    <v>       0.50915063       0.01067619       0.65452391 </v>
    <v>       0.27445246       0.48116046       0.15064931 </v>
    <v>       0.99682612       0.34576417       0.33222803 </v>
    <v>       0.47592659       0.67372052       0.32975000 </v>
    <v>       0.21599321       0.15746063       0.49398616 </v>
    <v>       0.00850406       0.67152350       0.00211943 </v>
    <v>       0.75328834       0.52697099       0.50602485 </v>
    <v>       0.76308764       0.82635702       0.50635064 </v>
    <v>       0.26191242       0.49171484       0.83606210 </v>
    <v>       0.25740113       0.16485713       0.16223670 </v>
    <v>       0.23305364       0.83108851       0.50546908 </v>
   </varray>
  </structure>
  <varray name="forces" >
   <v>      -0.01491639      -0.00282370       0.01301012 </v>
   <v>       0.00600052      -0.00279991       0.01462506 </v>
   <v>       0.00884122      -0.00484926       0.00906965 </v>
   <v>       0.00379264       0.00605192      -0.01608633 </v>
   <v>       0.00282175       0.00308402      -0.00259400 </v>
   <v>       0.00604815      -0.00681772       0.01670550 </v>
   <v>      -0.01736563       0.00529239       0.00144844 </v>
   <v>      -0.00625880      -0.00881969       0.02020142 </v>
   <v>      -0.00404029       0.00370276       0.00963833 </v>
   <v>       0.00153728      -0.02964101      -0.01012529 </v>
   <v>       0.00183435       0.00416263      -0.00924931 </v>
   <v>       0.00321256      -0.00877852      -0.01432763 </v>
   <v>      -0.01670364       0.00820461       0.01440059 </v>
   <v>       0.00232734      -0.00254284       0.02538707 </v>
   <v>      -0.02526592      -0.00578501       0.00567906 </v>
   <v>      -0.00841242       0.00214654       0.00812664 </v>
   <v>      -0.00353456      -0.00218516      -0.00243766 </v>
   <v>      -0.00558757      -0.00743256      -0.00757471 </v>
   <v>       0.00361101       0.00249899      -0.00045999 </v>
   <v>       0.02306629       0.00072065      -0.01957616 </v>
   <v>       0.00669195      -0.00308040      -0.00097473 </v>
   <v>       0.00252378      -0.00383360      -0.00265585 </v>
   <v>      -0.01479611       0.02122650       0.00353495 </v>
   <v>       0.00792494       0.05134212       0.00280268 </v>
   <v>       0.02353514      -0.00390648      -0.01188065 </v>
   <v>       0.01155962       0.02016067      -0.00641061 </v>
   <v>       0.01324407       0.00096013      -0.00316128 </v>
   <v>       0.00484919      -0.00697839      -0.02064417 </v>
   <v>      -0.00358141      -0.00177487      -0.00596664 </v>
   <v>      -0.02922268      -0.03564468      -0.00908098 </v>
   <v>      -0.00390429      -0.00013064      -0.00165231 </v>
   <v>       0.01639835      -0.01385143       0.01521127 </v>
   <v>      -0.00916298       0.00294239       0.00089337 </v>
   <v>      -0.00861140       0.00962173      -0.00196134 </v>
   <v>       0.00564148      -0.00425425       0.00019056 </v>
   <v>       0.01590245       0.01381210      -0.01410505 </v>
  </varray>
  <varray name="stress" >
   <v>      -1.89857771      -0.02514616       0.06563884 </v>
   <v>      -0.02514619      -2.12948039      -0.03011518 </v>
   <v>       0.06563880      -0.03011519      -1.91395629 </v>
  </varray>
  <energy>
   <i name="e_fr_energy">   -354.41249608 </i>
   <i name="e_wo_entrp">   -354.42069557 </i>
   <i name="e_0_energy">      0.02459848 </i>
  </energy>
  <time name="totalsc">    7.94    8.58</time>
 </calculation>
 <calculation>
  <scstep>
   <time name="dav">    1.00    1.03</time>
   <time name="total">    1.11    1.25</time>
   <energy>
    <i name="alphaZ">   1506.24481653 </i>
    <i name="ewald"> -20747.72004034 </i>
    <i name="hartreedc">  -6258.39224354 </i>
    <i name="XCdc">   -126.12739138 </i>
    <i name="pawpsdc">  34987.60150085 </i>
    <i name="pawaedc"> -33447.46224352 </i>
    <i name="eentropy">      0.02502096 </i>
    <i name="bandstr">  -2813.46492775 </i>
    <i name="atom">  26544.88607679 </i>
    <i name="e_fr_energy">   -354.40943142 </i>
    <i name="e_wo_entrp">   -354.43445237 </i>
    <i name="e_0_energy">   -354.41777173 </i>
   </energy>
  </scstep>
  <scstep>
   <time name="diag">    0.08    0.08</time>
   <time name="diis">    0.74    0.77</time>
   <time name="orth">    0.01    0.01</time>
   <time name="total">    0.90    0.96</time>
   <energy>
    <i name="e_fr_energy">   -354.41515038 </i>
    <i name="e_wo_entrp">   -354.43959151 </i>
    <i name="e_0_energy">   -354.42329742 </i>
   </energy>
  </scstep>
  <scstep>
   <time name="diag">    0.08    0.08</time>
   <time name="diis">    0.76    0.78</time>
   <time name="orth">    0.01    0.01</time>
   <time name="total">    0.92    0.97</time>
   <energy>
    <i name="e_fr_energy">   -354.41312838 </i>
    <i name="e_wo_entrp">   -354.43784816 </i>
    <i name="e_0_energy">   -354.42136831 </i>
   </energy>
  </scstep>
  <scstep>
   <time name="diag">    0.08    0.08</time>
   <time name="diis">    0.91    0.95</time>
   <time name="orth">    0.01    0.01</time>
   <time name="total">    1.07    1.14</time>
   <energy>
    <i name="e_fr_energy">   -354.41279683 </i>
    <i name="e_wo_entrp">   -354.43761114 </i>
    <i name="e_0_energy">   -354.42106827 </i>
   </energy>
  </scstep>
  <scstep>
   <time name="diag">    0.08    0.08</time>
   <time name="diis">    0.85    0.87</time>
   <time name="orth">    0.01    0.01</time>
   <time name="total">    1.01    1.06</time>
   <energy>
    <i name="e_fr_energy">   -354.41275032 </i>
    <i name="e_wo_entrp">   -354.43751089 </i>
    <i name="e_0_energy">   -354.42100384 </i>
   </energy>
  </scstep>
  <scstep>
   <time name="diag">    0.08    0.08</time>
   <time name="diis">    0.80    0.83</time>
   <time name="orth">    0.01    0.01</time>
   <time name="total">    0.96    1.01</time>
   <energy>
    <i name="e_fr_energy">   -354.45991325 </i>
    <i name="e_wo_entrp">   -354.48468451 </i>
    <i name="e_0_energy">   -354.46817034 </i>
   </energy>
  </scstep>
  <scstep>
   <time name="diag">    0.15    0.16</time>
   <time name="diis">    0.66    0.67</time>
   <time name="orth">    0.01    0.01</time>
   <time name="total">    0.89    0.93</time>
   <energy>
    <i name="e_fr_energy">   -354.41349930 </i>
    <i name="e_wo_entrp">   -354.43826941 </i>
    <i name="e_0_energy">   -354.42175600 </i>
   </energy>
  </scstep>
  <scstep>
   <time name="diag">    0.08    0.08</time>
   <time name="diis">    0.66    0.68</time>
   <time name="orth">    0.01    0.01</time>
   <time name="total">    0.82    0.86</time>
   <energy>
    <i name="e_fr_energy">   -354.41189677 </i>
    <i name="e_wo_entrp">   -354.43669158 </i>
    <i name="e_0_energy">   -354.42016171 </i>
   </energy>
  </scstep>
  <scstep>
   <time name="diag">    0.08    0.08</time>
   <time name="diis">    0.50    0.52</time>
   <time name="orth">    0.02    0.02</time>
   <time name="total">    0.71    0.75</time>
   <energy>
    <i name="e_fr_energy">   -354.41264917 </i>
    <i name="e_wo_entrp">   -354.43742695 </i>
    <i name="e_0_energy">   -354.42090843 </i>
   </energy>
  </scstep>
  <scstep>
   <time name="diag">    0.19    0.23</time>
   <time name="diis">    0.35    0.44</time>
   <time name="orth">    0.01    0.01</time>
   <time name="total">    0.62    0.77</time>
   <energy>
    <i name="e_fr_energy">   -354.41269245 </i>
    <i name="e_wo_entrp">   -354.43747998 </i>
    <i name="e_0_energy">   -354.42095496 </i>
   </energy>
  </scstep>
  <scstep>
   <time name="diag">    0.08    0.08</time>
   <time name="diis">    0.38    0.38</time>
   <time name="orth">    0.01    0.01</time>
   <time name="total">    0.55    0.60</time>
   <energy>
    <i name="e_fr_energy">   -354.41274938 </i>
    <i name="e_wo_entrp">   -354.43753155 </i>
    <i name="e_0_energy">   -354.42101010 </i>
   </energy>
  </scstep>
  <scstep>
   <time name="diag">    0.11    0.11</time>
   <time name="diis">    0.34    0.35</time>
   <time name="orth">    0.01    0.01</time>
   <time name="total">    0.53    0.57</time>
   <energy>
    <i name="e_fr_energy">   -354.41276001 </i>
    <i name="e_wo_entrp">   -354.43754277 </i>
    <i name="e_0_energy">   -354.42102093 </i>
   </energy>
  </scstep>
  <scstep>
   <time name="diag">    0.08    0.08</time>
   <time name="diis">    0.37    0.38</time>
   <time name="orth">    0.01    0.01</time>
   <time name="total">    0.50    0.54</time>
   <energy>
    <i name="alphaZ">   1506.24481653 </i>
    <i name="ewald"> -20747.72004034 </i>
    <i name="hartreedc">  -6255.48760016 </i>
    <i name="XCdc">   -126.24805177 </i>
    <i name="pawpsdc">  35017.49026425 </i>
    <i name="pawaedc"> -33477.25623206 </i>
    <i name="eentropy">      0.02478421 </i>
    <i name="bandstr">  -2816.34678506 </i>
    <i name="atom">  26544.88607679 </i>
    <i name="e_fr_energy">   -354.41276762 </i>
    <i name="e_wo_entrp">   -354.43755183 </i>
    <i name="e_0_energy">   -354.42102902 </i>
   </energy>
  </scstep>
  <structure>
   <crystal>
    <varray name="basis" >
     <v>       7.04089566       0.00309815      -0.01438376 </v>
     <v>       0.00522494      10.23782297      -0.00501543 </v>
     <v>      -0.02151599      -0.00519749      10.37291536 </v>
    </varray>
    <i name="volume">    747.71193722 </i>
    <varray name="rec_basis" >
     <v>       0.14202802      -0.00007234       0.00029456 </v>
     <v>      -0.00004288       0.09767706       0.00004885 </v>
     <v>       0.00019692       0.00004713       0.09640534 </v>
    </varray>
   </crystal>
   <varray name="positions" >
    <v>       0.74536160       0.16462213       0.16447267 </v>
    <v>       0.72023729       0.15991288       0.84136855 </v>
    <v>       0.26493035       0.82921330       0.83334704 </v>
    <v>       0.54010986       0.32598489       0.99438485 </v>
    <v>       0.73864437       0.51229583       0.83402774 </v>
    <v>       0.50336651       0.99461393       0.00634523 </v>
    <v>       0.72842606       0.50882400       0.16016515 </v>
    <v>       0.27731400       0.17124246       0.84419943 </v>
    <v>       0.99149648       0.99913975       0.99852429 </v>
    <v>       0.99362670      -0.00032754       0.69329963 </v>
    <v>       0.01734129       0.66945781       0.31696870 </v>
    <v>       0.52032145       0.00215564       0.33238279 </v>
    <v>       0.51665382       0.33202062       0.65754101 </v>
    <v>       0.97056054       0.32594389       0.99189376 </v>
    <v>       0.72611616       0.82238929       0.83450038 </v>
    <v>       0.51926206       0.32492963       0.35061486 </v>
    <v>       0.73196758       0.83173101       0.15543429 </v>
    <v>       0.97582117       0.99062057       0.30970335 </v>
    <v>       0.25792851       0.85276459       0.16525875 </v>
    <v>       0.79269839       0.15356631       0.48891162 </v>
    <v>       0.48144899       0.67781563       0.00169560 </v>
    <v>       0.48299666       0.65984406       0.67294119 </v>
    <v>       0.25091889       0.51094313       0.51892174 </v>
    <v>       0.01363442       0.66282139       0.68434223 </v>
    <v>       0.98862494       0.33593944       0.67093937 </v>
    <v>       0.50919643       0.01096453       0.65450620 </v>
    <v>       0.27456213       0.48109876       0.15053766 </v>
    <v>       0.99704960       0.34579639       0.33140515 </v>
    <v>       0.47594742       0.67365046       0.32983640 </v>
    <v>       0.21600651       0.15714948       0.49382024 </v>
    <v>       0.00854987       0.67145150       0.00202862 </v>
    <v>       0.75327964       0.52699392       0.50579880 </v>
    <v>       0.76309093       0.82638201       0.50624667 </v>
    <v>       0.26198373       0.49198467       0.83613695 </v>
    <v>       0.25739409       0.16481132       0.16220645 </v>
    <v>       0.23311655       0.83125830       0.50529065 </v>
   </varray>
  </structure>
  <varray name="forces" >
   <v>      -0.02081062      -0.00162499       0.02974679 </v>
   <v>       0.04293742       0.02541514      -0.02229567 </v>
   <v>       0.01020626       0.00102926       0.00864514 </v>
   <v>      -0.00607319       0.00616119      -0.01519661 </v>
   <v>       0.02795855      -0.03651122      -0.02356073 </v>
   <v>       0.00031955      -0.00570787       0.03195827 </v>
   <v>      -0.03192750       0.01275081       0.00950123 </v>
   <v>      -0.04173298       0.01374785       0.01093213 </v>
   <v>      -0.00323185      -0.00257433       0.01841208 </v>
   <v>       0.00966794       0.01413295      -0.02510911 </v>
   <v>       0.00502093       0.00231466      -0.02053374 </v>
   <v>      -0.00351329      -0.01449623      -0.02346922 </v>
   <v>       0.02345989       0.01465469       0.02221187 </v>
   <v>       0.02458943       0.00340005      -0.03906764 </v>
   <v>      -0.03971976      -0.01337073       0.00548121 </v>
   <v>      -0.01386927       0.00777660      -0.00841513 </v>
   <v>       0.00529445       0.00141418       0.00145355 </v>
   <v>       0.00323694      -0.01240894      -0.00855148 </v>
   <v>      -0.00716102      -0.01011022      -0.00156289 </v>
   <v>       0.07112401       0.02873685       0.01413693 </v>
   <v>       0.01377000      -0.00541010      -0.00381381 </v>
   <v>       0.02271339       0.01414343      -0.00169987 </v>
   <v>      -0.03752417       0.00031291       0.00441973 </v>
   <v>      -0.00935844      -0.00048336      -0.00888674 </v>
[...]
       <r>    6.9062    1.0000 </r>
       <r>    6.9729    1.0000 </r>
       <r>    7.0162    1.0000 </r>
       <r>    7.0263    1.0000 </r>
       <r>    7.0733    1.0001 </r>
       <r>    7.1067    1.0003 </r>
       <r>    7.1442    1.0011 </r>
       <r>    7.1707    1.0023 </r>
       <r>    7.1912    1.0040 </r>
       <r>    7.2292    1.0094 </r>
       <r>    7.2868    1.0247 </r>
       <r>    7.3308    1.0352 </r>
       <r>    7.3511    1.0341 </r>
       <r>    7.3967    0.9976 </r>
       <r>    7.4265    0.9339 </r>
       <r>    7.4568    0.8295 </r>
       <r>    7.4820    0.7140 </r>
       <r>    7.5378    0.4076 </r>
       <r>    7.6129    0.0754 </r>
       <r>    7.6205    0.0544 </r>
       <r>    7.6626   -0.0180 </r>
       <r>    7.6903   -0.0338 </r>
       <r>    7.7294   -0.0322 </r>
       <r>    7.7539   -0.0254 </r>
       <r>    7.7757   -0.0187 </r>
       <r>    7.8210   -0.0081 </r>
       <r>    7.8779   -0.0020 </r>
       <r>    7.9258   -0.0005 </r>
       <r>    7.9513   -0.0002 </r>
       <r>    7.9937   -0.0000 </r>
       <r>    8.0116   -0.0000 </r>
       <r>    8.0603   -0.0000 </r>
       <r>    8.1184   -0.0000 </r>
       <r>    8.1735   -0.0000 </r>
       <r>    8.2129   -0.0000 </r>
       <r>    8.2336   -0.0000 </r>
       <r>    8.2957   -0.0000 </r>
       <r>    8.3703   -0.0000 </r>
       <r>    8.4162   -0.0000 </r>
       <r>    8.4400   -0.0000 </r>
       <r>    8.5305   -0.0000 </r>
       <r>    8.7165   -0.0000 </r>
       <r>    8.7981   -0.0000 </r>
       <r>    8.8493   -0.0000 </r>
       <r>    9.2151   -0.0000 </r>
       <r>    9.3448   -0.0000 </r>
       <r>    9.4574   -0.0000 </r>
       <r>    9.4796   -0.0000 </r>
       <r>    9.5508   -0.0000 </r>
      </set>
     </set>
    </set>
   </array>
  </eigenvalues>
  <separator name="orbital magnetization" >
   <v name="MAGDIPOLOUT">      0.00000000      0.00000000      0.00000000</v>
  </separator>
  <dos>
   <i name="efermi">      7.52134493 </i>
   <total>
    <array>
     <dimension dim="1">gridpoints</dimension>
     <dimension dim="2">spin</dimension>
     <field>energy</field>
     <field>total</field>
     <field>integrated</field>
     <set>
      <set comment="spin 1">
       <r>   -49.5935     0.0000     0.0000 </r>
       <r>   -49.3868     0.0000     0.0000 </r>
       <r>   -49.1802     0.0000     0.0000 </r>
       <r>   -48.9735     0.0000     0.0000 </r>
       <r>   -48.7668     0.0000     0.0000 </r>
       <r>   -48.5601     0.0000     0.0000 </r>
       <r>   -48.3535     0.0000     0.0000 </r>
       <r>   -48.1468    -0.0000    -0.0000 </r>
       <r>   -47.9401    -0.0000    -0.0000 </r>
       <r>   -47.7334    -0.0000    -0.0000 </r>
       <r>   -47.5268    -0.0000    -0.0000 </r>
       <r>   -47.3201    -0.0000    -0.0000 </r>
       <r>   -47.1134    -0.0405    -0.0084 </r>
       <r>   -46.9067    -0.9690    -0.2086 </r>
       <r>   -46.7001    22.8174     4.5072 </r>
       <r>   -46.4934    34.9307    11.7265 </r>
       <r>   -46.2867     1.5562    12.0482 </r>
       <r>   -46.0800    -0.2326    12.0001 </r>
       <r>   -45.8733    -0.0005    12.0000 </r>
       <r>   -45.6667    -0.0000    12.0000 </r>
       <r>   -45.4600    -0.0000    12.0000 </r>
       <r>   -45.2533     0.0000    12.0000 </r>
       <r>   -45.0466     0.0000    12.0000 </r>
       <r>   -44.8400     0.0000    12.0000 </r>
       <r>   -44.6333     0.0000    12.0000 </r>
       <r>   -44.4266     0.0000    12.0000 </r>
       <r>   -44.2199     0.0000    12.0000 </r>
       <r>   -44.0133     0.0000    12.0000 </r>
       <r>   -43.8066     0.0000    12.0000 </r>
       <r>   -43.5999     0.0000    12.0000 </r>
       <r>   -43.3932     0.0000    12.0000 </r>
       <r>   -43.1865     0.0000    12.0000 </r>
       <r>   -42.9799     0.0000    12.0000 </r>
       <r>   -42.7732     0.0000    12.0000 </r>
       <r>   -42.5665     0.0000    12.0000 </r>
       <r>   -42.3598     0.0000    12.0000 </r>
       <r>   -42.1532    -0.0000    12.0000 </r>
       <r>   -41.9465    -0.0000    12.0000 </r>
       <r>   -41.7398    -0.0000    12.0000 </r>
       <r>   -41.5331    -0.0000    12.0000 </r>
       <r>   -41.3265    -0.0003    11.9999 </r>
       <r>   -41.1198    -0.2442    11.9495 </r>
       <r>   -40.9131    -0.2845    11.8907 </r>
       <r>   -40.7064    63.8449    25.0859 </r>
       <r>   -40.4998    52.8688    36.0126 </r>
       <r>   -40.2931     0.1683    36.0474 </r>
       <r>   -40.0864    -0.2291    36.0001 </r>
       <r>   -39.8797    -0.0004    36.0000 </r>
       <r>   -39.6730    -0.0000    36.0000 </r>
       <r>   -39.4664    -0.0000    36.0000 </r>
       <r>   -39.2597     0.0000    36.0000 </r>
       <r>   -39.0530     0.0000    36.0000 </r>
       <r>   -38.8463     0.0000    36.0000 </r>
       <r>   -38.6397     0.0000    36.0000 </r>
       <r>   -38.4330     0.0000    36.0000 </r>
       <r>   -38.2263     0.0000    36.0000 </r>
       <r>   -38.0196     0.0000    36.0000 </r>
       <r>   -37.8130     0.0000    36.0000 </r>
       <r>   -37.6063     0.0000    36.0000 </r>
       <r>   -37.3996     0.0000    36.0000 </r>
       <r>   -37.1929     0.0000    36.0000 </r>
       <r>   -36.9863     0.0000    36.0000 </r>
       <r>   -36.7796     0.0000    36.0000 </r>
       <r>   -36.5729     0.0000    36.0000 </r>
       <r>   -36.3662     0.0000    36.0000 </r>
       <r>   -36.1595     0.0000    36.0000 </r>
       <r>   -35.9529     0.0000    36.0000 </r>
       <r>   -35.7462     0.0000    36.0000 </r>
       <r>   -35.5395     0.0000    36.0000 </r>
       <r>   -35.3328     0.0000    36.0000 </r>
       <r>   -35.1262     0.0000    36.0000 </r>
       <r>   -34.9195     0.0000    36.0000 </r>
       <r>   -34.7128     0.0000    36.0000 </r>
       <r>   -34.5061     0.0000    36.0000 </r>
       <r>   -34.2995     0.0000    36.0000 </r>
       <r>   -34.0928     0.0000    36.0000 </r>
       <r>   -33.8861     0.0000    36.0000 </r>
       <r>   -33.6794     0.0000    36.0000 </r>
       <r>   -33.4727     0.0000    36.0000 </r>
       <r>   -33.2661     0.0000    36.0000 </r>
       <r>   -33.0594     0.0000    36.0000 </r>
       <r>   -32.8527     0.0000    36.0000 </r>
       <r>   -32.6460     0.0000    36.0000 </r>
       <r>   -32.4394     0.0000    36.0000 </r>
       <r>   -32.2327     0.0000    36.0000 </r>
       <r>   -32.0260     0.0000    36.0000 </r>
       <r>   -31.8193     0.0000    36.0000 </r>
       <r>   -31.6127     0.0000    36.0000 </r>
       <r>   -31.4060     0.0000    36.0000 </r>
       <r>   -31.1993     0.0000    36.0000 </r>
       <r>   -30.9926     0.0000    36.0000 </r>
       <r>   -30.7860     0.0000    36.0000 </r>
       <r>   -30.5793     0.0000    36.0000 </r>
       <r>   -30.3726     0.0000    36.0000 </r>
       <r>   -30.1659     0.0000    36.0000 </r>
       <r>   -29.9592     0.0000    36.0000 </r>
       <r>   -29.7526     0.0000    36.0000 </r>
       <r>   -29.5459     0.0000    36.0000 </r>
       <r>   -29.3392     0.0000    36.0000 </r>
       <r>   -29.1325     0.0000    36.0000 </r>
       <r>   -28.9259     0.0000    36.0000 </r>
       <r>   -28.7192     0.0000    36.0000 </r>
       <r>   -28.5125     0.0000    36.0000 </r>
       <r>   -28.3058     0.0000    36.0000 </r>
       <r>   -28.0992     0.0000    36.0000 </r>
       <r>   -27.8925     0.0000    36.0000 </r>
       <r>   -27.6858     0.0000    36.0000 </r>
       <r>   -27.4791     0.0000    36.0000 </r>
       <r>   -27.2725     0.0000    36.0000 </r>
       <r>   -27.0658     0.0000    36.0000 </r>
       <r>   -26.8591     0.0000    36.0000 </r>
       <r>   -26.6524     0.0000    36.0000 </r>
       <r>   -26.4457     0.0000    36.0000 </r>
       <r>   -26.2391     0.0000    36.0000 </r>
       <r>   -26.0324     0.0000    36.0000 </r>
       <r>   -25.8257     0.0000    36.0000 </r>
       <r>   -25.6190     0.0000    36.0000 </r>
       <r>   -25.4124     0.0000    36.0000 </r>
       <r>   -25.2057     0.0000    36.0000 </r>
       <r>   -24.9990     0.0000    36.0000 </r>
       <r>   -24.7923     0.0000    36.0000 </r>
       <r>   -24.5857    -0.0000    36.0000 </r>
       <r>   -24.3790    -0.0000    36.0000 </r>
       <r>   -24.1723    -0.0000    36.0000 </r>
       <r>   -23.9656    -0.0000    36.0000 </r>
       <r>   -23.7589    -0.0001    36.0000 </r>
       <r>   -23.5523    -0.0890    35.9816 </r>
       <r>   -23.3456     0.6945    36.1251 </r>
       <r>   -23.1389    10.5115    38.2976 </r>
       <r>   -22.9322    33.3238    45.1849 </r>
       <r>   -22.7256    72.0120    60.0681 </r>
       <r>   -22.5189    32.8135    66.8498 </r>
       <r>   -22.3122    23.5732    71.7219 </r>
       <r>   -22.1055     1.5390    72.0400 </r>
       <r>   -21.8989    -0.1928    72.0001 </r>
       <r>   -21.6922    -0.0005    72.0000 </r>
       <r>   -21.4855    -0.0000    72.0000 </r>
       <r>   -21.2788    -0.0000    72.0000 </r>
       <r>   -21.0722     0.0000    72.0000 </r>
       <r>   -20.8655     0.0000    72.0000 </r>
       <r>   -20.6588     0.0000    72.0000 </r>
       <r>   -20.4521    -0.0000    72.0000 </r>
       <r>   -20.2454    -0.0000    72.0000 </r>
       <r>   -20.0388    -0.0000    72.0000 </r>
       <r>   -19.8321    -0.0000    72.0000 </r>
       <r>   -19.6254    -0.0122    71.9975 </r>
       <r>   -19.4187    -0.8604    71.8196 </r>
       <r>   -19.2121    11.7488    74.2479 </r>
       <r>   -19.0054    63.2588    87.3220 </r>
       <r>   -18.7987   109.1499   109.8807 </r>
       <r>   -18.5920   104.5727   131.4935 </r>
       <r>   -18.3854    61.8295   144.2722 </r>
       <r>   -18.1787    -1.1159   144.0416 </r>
       <r>   -17.9720    -0.2009   144.0000 </r>
       <r>   -17.7653    -0.0002   144.0000 </r>
       <r>   -17.5586    -0.0000   144.0000 </r>
       <r>   -17.3520     0.0000   144.0000 </r>
       <r>   -17.1453     0.0000   144.0000 </r>
       <r>   -16.9386     0.0000   144.0000 </r>
       <r>   -16.7319     0.0000   144.0000 </r>
       <r>   -16.5253     0.0000   144.0000 </r>
       <r>   -16.3186     0.0000   144.0000 </r>
       <r>   -16.1119     0.0000   144.0000 </r>
       <r>   -15.9052     0.0000   144.0000 </r>
       <r>   -15.6986     0.0000   144.0000 </r>
       <r>   -15.4919     0.0000   144.0000 </r>
       <r>   -15.2852     0.0000   144.0000 </r>
       <r>   -15.0785     0.0000   144.0000 </r>
       <r>   -14.8719     0.0000   144.0000 </r>
       <r>   -14.6652     0.0000   144.0000 </r>
       <r>   -14.4585     0.0000   144.0000 </r>
       <r>   -14.2518     0.0000   144.0000 </r>
       <r>   -14.0451     0.0000   144.0000 </r>
       <r>   -13.8385     0.0000   144.0000 </r>
       <r>   -13.6318     0.0000   144.0000 </r>
       <r>   -13.4251     0.0000   144.0000 </r>
       <r>   -13.2184     0.0000   144.0000 </r>
       <r>   -13.0118     0.0000   144.0000 </r>
       <r>   -12.8051     0.0000   144.0000 </r>
       <r>   -12.5984     0.0000   144.0000 </r>
       <r>   -12.3917     0.0000   144.0000 </r>
       <r>   -12.1851     0.0000   144.0000 </r>
       <r>   -11.9784     0.0000   144.0000 </r>
       <r>   -11.7717     0.0000   144.0000 </r>
       <r>   -11.5650     0.0000   144.0000 </r>
       <r>   -11.3584     0.0000   144.0000 </r>
       <r>   -11.1517     0.0000   144.0000 </r>
       <r>   -10.9450     0.0000   144.0000 </r>
       <r>   -10.7383     0.0000   144.0000 </r>
       <r>   -10.5316     0.0000   144.0000 </r>
       <r>   -10.3250     0.0000   144.0000 </r>
       <r>   -10.1183     0.0000   144.0000 </r>
       <r>    -9.9116     0.0000   144.0000 </r>
       <r>    -9.7049     0.0000   144.0000 </r>
       <r>    -9.4983     0.0000   144.0000 </r>
       <r>    -9.2916     0.0000   144.0000 </r>
       <r>    -9.0849     0.0000   144.0000 </r>
       <r>    -8.8782     0.0000   144.0000 </r>
       <r>    -8.6716     0.0000   144.0000 </r>
       <r>    -8.4649     0.0000   144.0000 </r>
       <r>    -8.2582     0.0000   144.0000 </r>
       <r>    -8.0515     0.0000   144.0000 </r>
       <r>    -7.8448     0.0000   144.0000 </r>
       <r>    -7.6382     0.0000   144.0000 </r>
       <r>    -7.4315     0.0000   144.0000 </r>
       <r>    -7.2248     0.0000   144.0000 </r>
       <r>    -7.0181     0.0000   144.0000 </r>
       <r>    -6.8115     0.0000   144.0000 </r>
       <r>    -6.6048     0.0000   144.0000 </r>
       <r>    -6.3981     0.0000   144.0000 </r>
       <r>    -6.1914     0.0000   144.0000 </r>
       <r>    -5.9848     0.0000   144.0000 </r>
       <r>    -5.7781     0.0000   144.0000 </r>
       <r>    -5.5714     0.0000   144.0000 </r>
       <r>    -5.3647     0.0000   144.0000 </r>
       <r>    -5.1581     0.0000   144.0000 </r>
       <r>    -4.9514     0.0000   144.0000 </r>
       <r>    -4.7447     0.0000   144.0000 </r>
       <r>    -4.5380     0.0000   144.0000 </r>
       <r>    -4.3313     0.0000   144.0000 </r>
       <r>    -4.1247     0.0000   144.0000 </r>
       <r>    -3.9180     0.0000   144.0000 </r>
       <r>    -3.7113     0.0000   144.0000 </r>
       <r>    -3.5046     0.0000   144.0000 </r>
       <r>    -3.2980     0.0000   144.0000 </r>
       <r>    -3.0913     0.0000   144.0000 </r>
       <r>    -2.8846     0.0000   144.0000 </r>
       <r>    -2.6779     0.0000   144.0000 </r>
       <r>    -2.4713     0.0000   144.0000 </r>
       <r>    -2.2646     0.0000   144.0000 </r>
       <r>    -2.0579     0.0000   144.0000 </r>
       <r>    -1.8512     0.0000   144.0000 </r>
       <r>    -1.6445     0.0000   144.0000 </r>
       <r>    -1.4379     0.0000   144.0000 </r>
       <r>    -1.2312     0.0000   144.0000 </r>
       <r>    -1.0245     0.0000   144.0000 </r>
       <r>    -0.8178     0.0000   144.0000 </r>
       <r>    -0.6112     0.0000   144.0000 </r>
       <r>    -0.4045    -0.0000   144.0000 </r>
       <r>    -0.1978    -0.0000   144.0000 </r>
       <r>     0.0089    -0.0000   144.0000 </r>
       <r>     0.2155    -0.0000   144.0000 </r>
       <r>     0.4222    -0.0000   144.0000 </r>
       <r>     0.6289    -0.0039   143.9992 </r>
       <r>     0.8356     0.0354   144.0065 </r>
       <r>     1.0422     0.4088   144.0910 </r>
       <r>     1.2489     1.3681   144.3737 </r>
       <r>     1.4556     1.8330   144.7526 </r>
       <r>     1.6623     2.4730   145.2637 </r>
       <r>     1.8690     4.5351   146.2010 </r>
       <r>     2.0756     2.2202   146.6598 </r>
       <r>     2.2823     4.2841   147.5453 </r>
       <r>     2.4890     3.8775   148.3467 </r>
       <r>     2.6957     3.8861   149.1498 </r>
       <r>     2.9023     6.8662   150.5689 </r>
       <r>     3.1090     8.9231   152.4131 </r>
       <r>     3.3157     7.0034   153.8605 </r>
       <r>     3.5224     7.5803   155.4272 </r>
       <r>     3.7290     8.9197   157.2707 </r>
       <r>     3.9357    13.7339   160.1092 </r>
       <r>     4.1424    20.1883   164.2816 </r>
       <r>     4.3491    22.4381   168.9191 </r>
       <r>     4.5557    26.3092   174.3566 </r>
       <r>     4.7624    32.0402   180.9785 </r>
       <r>     4.9691    36.8433   188.5932 </r>
       <r>     5.1758    38.9363   196.6404 </r>
       <r>     5.3825    40.1941   204.9476 </r>
       <r>     5.5891    35.9161   212.3706 </r>
       <r>     5.7958    32.3309   219.0526 </r>
       <r>     6.0025    25.6202   224.3477 </r>
       <r>     6.2092    30.4439   230.6398 </r>
       <r>     6.4158    54.2544   241.8529 </r>
       <r>     6.6225    59.1940   254.0869 </r>
       <r>     6.8292    55.7099   265.6008 </r>
       <r>     7.0359    53.9098   276.7427 </r>
       <r>     7.2425    56.0787   288.3329 </r>
       <r>     7.4492    50.6711   298.8054 </r>
       <r>     7.6559    43.9776   307.8946 </r>
       <r>     7.8626    51.1101   318.4578 </r>
       <r>     8.0693    50.5610   328.9076 </r>
       <r>     8.2759    39.6113   337.0943 </r>
       <r>     8.4826    34.5877   344.2428 </r>
       <r>     8.6893    26.9539   349.8136 </r>
       <r>     8.8960    20.5955   354.0702 </r>
       <r>     9.1026    17.2605   357.6375 </r>
       <r>     9.3093    22.7362   362.3366 </r>
       <r>     9.5160    22.4651   366.9796 </r>
       <r>     9.7227     5.2829   368.0714 </r>
       <r>     9.9293    -0.3393   368.0013 </r>
       <r>    10.1360    -0.0064   368.0000 </r>
       <r>    10.3427    -0.0000   368.0000 </r>
       <r>    10.5494    -0.0000   368.0000 </r>
       <r>    10.7560     0.0000   368.0000 </r>
       <r>    10.9627     0.0000   368.0000 </r>
       <r>    11.1694     0.0000   368.0000 </r>
       <r>    11.3761     0.0000   368.0000 </r>
       <r>    11.5828     0.0000   368.0000 </r>
       <r>    11.7894     0.0000   368.0000 </r>
       <r>    11.9961     0.0000   368.0000 </r>
       <r>    12.2028     0.0000   368.0000 </r>
       <r>    12.4095     0.0000   368.0000 </r>
      </set>
     </set>
    </array>
   </total>
  </dos>
 </calculation>
 <structure name="finalpos" >
  <crystal>
   <varray name="basis" >
    <v>       7.04079423       0.00684389      -0.01445879 </v>
    <v>       0.01066957      10.22821589      -0.00196395 </v>
    <v>      -0.02162065      -0.00210296      10.37790914 </v>
   </varray>
   <i name="volume">    747.35868764 </i>
   <varray name="rec_basis" >
    <v>       0.14203018      -0.00014810       0.00029587 </v>
    <v>      -0.00009499       0.09776886       0.00001961 </v>
    <v>       0.00019786       0.00001830       0.09635894 </v>
   </varray>
  </crystal>
  <varray name="positions" >
   <v>       0.74491807       0.16506981       0.16470787 </v>
   <v>       0.72176126       0.16083829       0.84112493 </v>
   <v>       0.26634662       0.82970006       0.83421496 </v>
   <v>       0.54015861       0.32628550       0.99360566 </v>
   <v>       0.73943523       0.51175627       0.83327157 </v>
   <v>       0.50320392       0.99495485       0.00723384 </v>
   <v>       0.72772475       0.50824163       0.16036880 </v>
   <v>       0.27656307       0.17105043       0.84450191 </v>
   <v>       0.99133287       0.99909607       0.99899067 </v>
   <v>       0.99360617      -0.00141796       0.69314409 </v>
   <v>       0.01680485       0.66927631       0.31653233 </v>
   <v>       0.52096065       0.00202584       0.33167943 </v>
   <v>       0.51552145       0.33280442       0.65796609 </v>
   <v>       0.97101027       0.32628205       0.99154208 </v>
   <v>       0.72386076       0.82311662       0.83494386 </v>
   <v>       0.51721548       0.32493807       0.35093515 </v>
   <v>       0.73168065       0.83134382       0.15522987 </v>
   <v>       0.97535555       0.99007048       0.30937543 </v>
   <v>       0.25772831       0.85191930       0.16555684 </v>
   <v>       0.79346155       0.15421372       0.48844864 </v>
   <v>       0.48176989       0.67722883       0.00150963 </v>
   <v>       0.48372667       0.65938625       0.67266148 </v>
   <v>       0.24758010       0.51199024       0.51978072 </v>
   <v>       0.01358431       0.66530203       0.68505740 </v>
   <v>       0.98859693       0.33519340       0.67091730 </v>
   <v>       0.51117203       0.01287367       0.65403472 </v>
   <v>       0.27478079       0.48129360       0.15003156 </v>
   <v>       0.99887726       0.34586385       0.33202587 </v>
   <v>       0.47606192       0.67205670       0.33009790 </v>
   <v>       0.21493658       0.15410559       0.49355278 </v>
   <v>       0.00755302       0.67160937       0.00200519 </v>
   <v>       0.75674803       0.52618071       0.50687473 </v>
   <v>       0.76174052       0.82624019       0.50654457 </v>
   <v>       0.26069084       0.49242549       0.83566178 </v>
   <v>       0.25801556       0.16499274       0.16185785 </v>
   <v>       0.23550047       0.83169778       0.50401047 </v>
  </varray>
 </structure>
</modeling>
