<?xml version="1.0" encoding="ISO-8859-1"?>
<modeling>
 <generator>
  <i name="program" type="string">vasp </i>
  <i name="version" type="string">5.4.1  </i>
  <i name="subversion" type="string">05Feb16 (build Jan 29 2020 16:04:39) complex                          parallel </i>
  <i name="platform" type="string">IFC91_ompi </i>
  <i name="date" type="string">2020 06 15 </i>
  <i name="time" type="string">02:56:30 </i>
 </generator>
 <incar>
  <i type="string" name="SYSTEM"> automatically generated by mexm</i>
  <i type="int" name="ISTART">     0</i>
  <i type="string" name="PREC">accurate               ! avoid wrap aro</i>
  <i type="string" name="ALGO"> Fast                   ! blocked Davids</i>
  <i type="int" name="ISPIN">     1</i>
  <i type="int" name="ICHARG">     2</i>
  <i type="int" name="NELM">    70</i>
  <i type="int" name="IBRION">     2</i>
  <i name="EDIFF">      0.00001000</i>
  <i name="EDIFFG">     -0.01000000</i>
  <i type="int" name="NSW">   300</i>
  <i type="int" name="ISIF">     3</i>
  <i type="int" name="ISYM">     1</i>
  <i name="ENCUT">    300.00000000</i>
  <i name="POTIM">      0.15000000</i>
  <i type="string" name="LREAL"> Auto                  ! unpublished met</i>
  <i type="int" name="ISMEAR">     1</i>
  <i name="SIGMA">      0.15000000</i>
  <i type="logical" name="LWAVE"> F  </i>
  <i type="logical" name="LCHARG"> F  </i>
  <i type="logical" name="LVTOT"> F  </i>
  <v type="int" name="KPOINT_BSE">    -1     0     0     0</v>
  <i type="int" name="NELM">    70</i>
 </incar>
 <kpoints>
  <generation param="Gamma">
   <v type="int" name="divisions">       3        3        3 </v>
   <v name="usershift">      0.00000000       0.00000000       0.00000000 </v>
   <v name="genvec1">      0.33333333      -0.00000000       0.00000000 </v>
   <v name="genvec2">     -0.00000000       0.33333333      -0.00000000 </v>
   <v name="genvec3">      0.00000000       0.00000000       0.33333333 </v>
   <v name="shift">      0.00000000       0.00000000       0.00000000 </v>
  </generation>
  <varray name="kpointlist" >
   <v>       0.00000000       0.00000000       0.00000000 </v>
   <v>       0.33333333       0.00000000       0.00000000 </v>
   <v>       0.00000000       0.33333333       0.00000000 </v>
   <v>       0.33333333       0.33333333       0.00000000 </v>
   <v>      -0.33333333       0.33333333       0.00000000 </v>
   <v>      -0.00000000      -0.00000000       0.33333333 </v>
   <v>       0.33333333       0.00000000       0.33333333 </v>
   <v>      -0.33333333      -0.00000000       0.33333333 </v>
   <v>       0.00000000       0.33333333       0.33333333 </v>
   <v>       0.33333333       0.33333333       0.33333333 </v>
   <v>      -0.33333333       0.33333333       0.33333333 </v>
   <v>      -0.00000000      -0.33333333       0.33333333 </v>
   <v>       0.33333333      -0.33333333       0.33333333 </v>
   <v>      -0.33333333      -0.33333333       0.33333333 </v>
  </varray>
  <varray name="weights" >
   <v>       0.03703704 </v>
   <v>       0.07407407 </v>
   <v>       0.07407407 </v>
   <v>       0.07407407 </v>
   <v>       0.07407407 </v>
   <v>       0.07407407 </v>
   <v>       0.07407407 </v>
   <v>       0.07407407 </v>
   <v>       0.07407407 </v>
   <v>       0.07407407 </v>
   <v>       0.07407407 </v>
   <v>       0.07407407 </v>
   <v>       0.07407407 </v>
   <v>       0.07407407 </v>
  </varray>
 </kpoints>
 <parameters>
  <separator name="general" >
   <i type="string" name="SYSTEM">automatically generated by mexm</i>
   <i type="logical" name="LCOMPAT"> F  </i>
  </separator>
  <separator name="electronic" >
   <i type="string" name="PREC">accura</i>
   <i name="ENMAX">    300.00000000</i>
   <i name="ENAUG">    461.25700000</i>
   <i name="EDIFF">      0.00001000</i>
   <i type="int" name="IALGO">    68</i>
   <i type="int" name="IWAVPR">    11</i>
   <i type="int" name="NBANDS">   196</i>
   <i name="NELECT">    322.00000000</i>
   <i type="int" name="TURBO">     0</i>
   <i type="int" name="IRESTART">     0</i>
   <i type="int" name="NREBOOT">     0</i>
   <i type="int" name="NMIN">     0</i>
   <i name="EREF">      0.00000000</i>
   <separator name="electronic smearing" >
    <i type="int" name="ISMEAR">     1</i>
    <i name="SIGMA">      0.15000000</i>
    <i name="KSPACING">      0.50000000</i>
    <i type="logical" name="KGAMMA"> T  </i>
   </separator>
   <separator name="electronic projectors" >
    <i type="logical" name="LREAL"> T  </i>
    <v name="ROPT">     -0.00025000     -0.00025000     -0.00025000     -0.00025000</v>
    <i type="int" name="LMAXPAW">  -100</i>
    <i type="int" name="LMAXMIX">     2</i>
    <i type="logical" name="NLSPLINE"> F  </i>
   </separator>
   <separator name="electronic startup" >
    <i type="int" name="ISTART">     0</i>
    <i type="int" name="ICHARG">     2</i>
    <i type="int" name="INIWAV">     1</i>
   </separator>
   <separator name="electronic spin" >
    <i type="int" name="ISPIN">     1</i>
    <i type="logical" name="LNONCOLLINEAR"> F  </i>
    <v name="MAGMOM">      1.00000000      1.00000000      1.00000000      1.00000000      1.00000000      1.00000000      1.00000000      1.00000000      1.00000000      1.00000000      1.00000000      1.00000000      1.00000000      1.00000000      1.00000000      1.00000000      1.00000000      1.00000000      1.00000000      1.00000000
      1.00000000      1.00000000      1.00000000      1.00000000      1.00000000      1.00000000      1.00000000      1.00000000      1.00000000      1.00000000      1.00000000      1.00000000      1.00000000      1.00000000      1.00000000      1.00000000</v>
    <i name="NUPDOWN">     -1.00000000</i>
    <i type="logical" name="LSORBIT"> F  </i>
    <v name="SAXIS">      0.00000000      0.00000000      1.00000000</v>
    <i type="logical" name="LSPIRAL"> F  </i>
    <v name="QSPIRAL">      0.00000000      0.00000000      0.00000000</v>
    <i type="logical" name="LZEROZ"> F  </i>
   </separator>
   <separator name="electronic exchange-correlation" >
    <i type="logical" name="LASPH"> F  </i>
    <i type="logical" name="LMETAGGA"> F  </i>
   </separator>
   <separator name="electronic convergence" >
    <i type="int" name="NELM">    70</i>
    <i type="int" name="NELMDL">    -5</i>
    <i type="int" name="NELMIN">     2</i>
    <i name="ENINI">    300.00000000</i>
    <separator name="electronic convergence detail" >
     <i type="logical" name="LDIAG"> T  </i>
     <i type="logical" name="LSUBROT"> F  </i>
     <i name="WEIMIN">      0.00100000</i>
     <i name="EBREAK">      0.00000001</i>
     <i name="DEPER">      0.30000000</i>
     <i type="int" name="NRMM">     4</i>
     <i name="TIME">      0.40000000</i>
    </separator>
   </separator>
   <separator name="electronic mixer" >
    <i name="AMIX">      0.40000000</i>
    <i name="BMIX">      1.00000000</i>
    <i name="AMIN">      0.10000000</i>
    <i name="AMIX_MAG">      1.60000000</i>
    <i name="BMIX_MAG">      1.00000000</i>
    <separator name="electronic mixer details" >
     <i type="int" name="IMIX">     4</i>
     <i type="logical" name="MIXFIRST"> F  </i>
     <i type="int" name="MAXMIX">   -45</i>
     <i name="WC">    100.00000000</i>
     <i type="int" name="INIMIX">     1</i>
     <i type="int" name="MIXPRE">     1</i>
     <i type="int" name="MREMOVE">     5</i>
    </separator>
   </separator>
   <separator name="electronic dipolcorrection" >
    <i type="logical" name="LDIPOL"> F  </i>
    <i type="logical" name="LMONO"> F  </i>
    <i type="int" name="IDIPOL">     0</i>
    <i name="EPSILON">      1.00000000</i>
    <v name="DIPOL">   -100.00000000   -100.00000000   -100.00000000</v>
    <i name="EFIELD">      0.00000000</i>
   </separator>
  </separator>
  <separator name="grids" >
   <i type="int" name="NGX">    40</i>
   <i type="int" name="NGY">    60</i>
   <i type="int" name="NGZ">    60</i>
   <i type="int" name="NGXF">    80</i>
   <i type="int" name="NGYF">   120</i>
   <i type="int" name="NGZF">   120</i>
   <i type="logical" name="ADDGRID"> F  </i>
  </separator>
  <separator name="ionic" >
   <i type="int" name="NSW">   300</i>
   <i type="int" name="IBRION">     2</i>
   <i type="int" name="ISIF">     3</i>
   <i name="PSTRESS">      0.00000000</i>
   <i name="EDIFFG">     -0.01000000</i>
   <i type="int" name="NFREE">     1</i>
   <i name="POTIM">      0.15000000</i>
   <i name="SMASS">     -3.00000000</i>
   <i name="SCALEE">      1.00000000</i>
  </separator>
  <separator name="ionic md" >
   <i name="TEBEG">      0.00010000</i>
   <i name="TEEND">      0.00010000</i>
   <i type="int" name="NBLOCK">     1</i>
   <i type="int" name="KBLOCK">   300</i>
   <i type="int" name="NPACO">   256</i>
   <i name="APACO">     16.00000000</i>
  </separator>
  <separator name="symmetry" >
   <i type="int" name="ISYM">     1</i>
   <i name="SYMPREC">      0.00001000</i>
  </separator>
  <separator name="dos" >
   <i type="logical" name="LORBIT"> F  </i>
   <v name="RWIGS">     -1.00000000     -1.00000000     -1.00000000     -1.00000000</v>
   <i type="int" name="NEDOS">   301</i>
   <i name="EMIN">     10.00000000</i>
   <i name="EMAX">    -10.00000000</i>
   <i name="EFERMI">      0.00000000</i>
  </separator>
  <separator name="writing" >
   <i type="int" name="NWRITE">     2</i>
   <i type="logical" name="LWAVE"> F  </i>
   <i type="logical" name="LCHARG"> F  </i>
   <i type="logical" name="LPARD"> F  </i>
   <i type="logical" name="LVTOT"> F  </i>
   <i type="logical" name="LVHAR"> F  </i>
   <i type="logical" name="LELF"> F  </i>
   <i type="logical" name="LOPTICS"> F  </i>
   <v name="STM">      0.00000000      0.00000000      0.00000000      0.00000000      0.00000000      0.00000000      0.00000000</v>
  </separator>
  <separator name="performance" >
   <i type="int" name="NPAR">     4</i>
   <i type="int" name="NSIM">     4</i>
   <i type="int" name="NBLK">    -1</i>
   <i type="logical" name="LPLANE"> T  </i>
   <i type="logical" name="LSCALAPACK"> T  </i>
   <i type="logical" name="LSCAAWARE"> F  </i>
   <i type="logical" name="LSCALU"> F  </i>
   <i type="logical" name="LASYNC"> F  </i>
   <i type="logical" name="LORBITALREAL"> F  </i>
  </separator>
  <separator name="miscellaneous" >
   <i type="int" name="IDIOT">     3</i>
   <i type="logical" name="LMUSIC"> F  </i>
   <v name="POMASS">    180.94800000     91.22400000     92.91000000    178.49000000</v>
   <v name="DARWINR">      0.00000000      0.00000000      0.00000000      0.00000000</v>
   <v name="DARWINV">      1.00000000      1.00000000      1.00000000      1.00000000</v>
   <i type="logical" name="LCORR"> T  </i>
  </separator>
  <i type="logical" name="GGA_COMPAT"> T  </i>
  <i type="logical" name="LBERRY"> F  </i>
  <i type="int" name="ICORELEVEL">     0</i>
  <i type="logical" name="LDAU"> F  </i>
  <i type="int" name="I_CONSTRAINED_M">     0</i>
  <separator name="electronic exchange-correlation" >
   <i type="string" name="GGA">--</i>
   <i type="int" name="VOSKOWN">     0</i>
   <i type="logical" name="LHFCALC"> F  </i>
   <i type="string" name="PRECFOCK"></i>
   <i type="logical" name="LSYMGRAD"> F  </i>
   <i type="logical" name="LHFONE"> F  </i>
   <i type="logical" name="LRHFCALC"> F  </i>
   <i type="logical" name="LTHOMAS"> F  </i>
   <i type="logical" name="LMODELHF"> F  </i>
   <i name="ENCUT4O">     -1.00000000</i>
   <i type="int" name="EXXOEP">     0</i>
   <i type="int" name="FOURORBIT">     0</i>
   <i name="AEXX">      0.00000000</i>
   <i name="HFALPHA">      0.00000000</i>
   <i name="MCALPHA">      0.00000000</i>
   <i name="ALDAX">      1.00000000</i>
   <i name="AGGAX">      1.00000000</i>
   <i name="ALDAC">      1.00000000</i>
   <i name="AGGAC">      1.00000000</i>
   <i type="int" name="NKREDX">     1</i>
   <i type="int" name="NKREDY">     1</i>
   <i type="int" name="NKREDZ">     1</i>
   <i type="logical" name="SHIFTRED"> F  </i>
   <i type="logical" name="ODDONLY"> F  </i>
   <i type="logical" name="EVENONLY"> F  </i>
   <i type="int" name="LMAXFOCK">     0</i>
   <i type="int" name="NMAXFOCKAE">     0</i>
   <i type="logical" name="LFOCKAEDFT"> F  </i>
   <i name="HFSCREEN">      0.00000000</i>
   <i name="HFSCREENC">      0.00000000</i>
   <i type="int" name="NBANDSGWLOW">     0</i>
  </separator>
  <separator name="vdW DFT" >
   <i type="logical" name="LUSE_VDW"> F  </i>
   <i name="Zab_VDW">     -0.84910000</i>
   <i name="PARAM1">      0.12340000</i>
   <i name="PARAM2">      1.00000000</i>
   <i name="PARAM3">      0.00000000</i>
  </separator>
  <separator name="model GW" >
   <i type="int" name="MODEL_GW">     0</i>
   <i name="MODEL_EPS0">     12.03068617</i>
   <i name="MODEL_ALPHA">      1.00000000</i>
  </separator>
  <separator name="linear response parameters" >
   <i type="logical" name="LEPSILON"> F  </i>
   <i type="logical" name="LRPA"> F  </i>
   <i type="logical" name="LNABLA"> F  </i>
   <i type="logical" name="LVEL"> F  </i>
   <i type="int" name="KINTER">     0</i>
   <i name="CSHIFT">      0.10000000</i>
   <i name="OMEGAMAX">     -1.00000000</i>
   <i name="DEG_THRESHOLD">      0.00200000</i>
  </separator>
  <separator name="orbital magnetization" >
   <i type="logical" name="NUCIND"> F  </i>
   <v name="MAGPOS">      0.00000000      0.00000000      0.00000000</v>
   <i type="logical" name="LNICSALL"> T  </i>
   <i type="logical" name="ORBITALMAG"> F  </i>
   <i type="logical" name="LMAGBLOCH"> F  </i>
   <i type="logical" name="LCHIMAG"> F  </i>
   <i type="logical" name="LGAUGE"> T  </i>
   <i type="int" name="MAGATOM">     0</i>
   <v name="MAGDIPOL">      0.00000000      0.00000000      0.00000000</v>
   <v name="AVECCONST">      0.00000000      0.00000000      0.00000000</v>
  </separator>
  <separator name="response functions" >
   <i type="logical" name="LADDER"> F  </i>
   <i type="logical" name="LFXC"> F  </i>
   <i type="logical" name="LHARTREE"> T  </i>
   <i type="int" name="IBSE">     0</i>
   <v type="int" name="KPOINT">    -1     0     0     0</v>
   <i type="logical" name="LTCTE"> F  </i>
   <i type="logical" name="LTETE"> F  </i>
   <i type="logical" name="LTRIPLET"> F  </i>
   <i type="logical" name="LFXCEPS"> F  </i>
   <i type="logical" name="LFXHEG"> F  </i>
   <i type="int" name="NATURALO">     0</i>
   <i type="logical" name="L2ORDER"> F  </i>
   <i type="logical" name="LUSEW"> F  </i>
   <i name="ENCUTGW">     -2.00000000</i>
   <i name="ENCUTGWSOFT">     -2.00000000</i>
   <i name="ENCUTLF">     -1.00000000</i>
   <i type="int" name="LMAXMP2">    -1</i>
   <i name="SCISSOR">      0.00000000</i>
   <i type="int" name="NOMEGA">     0</i>
   <i type="int" name="NOMEGAR">     0</i>
   <i type="int" name="NBANDSGW">    -1</i>
   <i type="int" name="NBANDSO">    -1</i>
   <i type="int" name="NBANDSV">    -1</i>
   <i type="int" name="NELM">    70</i>
   <i type="int" name="NELMHF">     1</i>
   <i type="int" name="DIM">     3</i>
   <i type="int" name="ANTIRES">     0</i>
   <i name="OMEGAMAX">    -30.00000000</i>
   <i name="OMEGAMIN">    -30.00000000</i>
   <i name="OMEGATL">   -200.00000000</i>
   <i type="int" name="OMEGAGRID">     0</i>
   <i name="CSHIFT">     -0.10000000</i>
   <i type="logical" name="SELFENERGY"> F  </i>
   <i type="logical" name="LSPECTRAL"> F  </i>
   <i type="logical" name="LSPECTRALGW"> F  </i>
   <i type="logical" name="LSINGLES"> F  </i>
   <i type="logical" name="LFERMIGW"> F  </i>
   <i type="logical" name="ODDONLYGW"> F  </i>
   <i type="logical" name="EVENONLYGW"> F  </i>
   <i type="int" name="NKREDLFX">     1</i>
   <i type="int" name="NKREDLFY">     1</i>
   <i type="int" name="NKREDLFZ">     1</i>
   <i type="int" name="MAXMEM">  1800</i>
   <i type="int" name="TELESCOPE">     0</i>
   <i type="int" name="TAUPAR">     1</i>
   <i type="int" name="OMEGAPAR">    -1</i>
   <i name="LAMBDA">      1.00000000</i>
  </separator>
  <separator name="External order field" >
   <i name="OFIELD_KAPPA">      0.00000000</i>
   <v name="OFIELD_K">      0.00000000      0.00000000      0.00000000</v>
   <i name="OFIELD_Q6_NEAR">      0.00000000</i>
   <i name="OFIELD_Q6_FAR">      0.00000000</i>
   <i name="OFIELD_A">      0.00000000</i>
  </separator>
 </parameters>
 <atominfo>
  <atoms>      36 </atoms>
  <types>       4 </types>
  <array name="atoms" >
   <dimension dim="1">ion</dimension>
   <field type="string">element</field>
   <field type="int">atomtype</field>
   <set>
    <rc><c>Ta</c><c>   1</c></rc>
    <rc><c>Ta</c><c>   1</c></rc>
    <rc><c>Ta</c><c>   1</c></rc>
    <rc><c>Ta</c><c>   1</c></rc>
    <rc><c>Ta</c><c>   1</c></rc>
    <rc><c>Ta</c><c>   1</c></rc>
    <rc><c>Ta</c><c>   1</c></rc>
    <rc><c>Ta</c><c>   1</c></rc>
    <rc><c>Zr</c><c>   2</c></rc>
    <rc><c>Zr</c><c>   2</c></rc>
    <rc><c>Zr</c><c>   2</c></rc>
    <rc><c>Zr</c><c>   2</c></rc>
    <rc><c>Zr</c><c>   2</c></rc>
    <rc><c>Zr</c><c>   2</c></rc>
    <rc><c>Zr</c><c>   2</c></rc>
    <rc><c>Zr</c><c>   2</c></rc>
    <rc><c>Zr</c><c>   2</c></rc>
    <rc><c>Zr</c><c>   2</c></rc>
    <rc><c>Nb</c><c>   3</c></rc>
    <rc><c>Nb</c><c>   3</c></rc>
    <rc><c>Nb</c><c>   3</c></rc>
    <rc><c>Nb</c><c>   3</c></rc>
    <rc><c>Nb</c><c>   3</c></rc>
    <rc><c>Nb</c><c>   3</c></rc>
    <rc><c>Nb</c><c>   3</c></rc>
    <rc><c>Nb</c><c>   3</c></rc>
    <rc><c>Nb</c><c>   3</c></rc>
    <rc><c>Nb</c><c>   3</c></rc>
    <rc><c>Hf</c><c>   4</c></rc>
    <rc><c>Hf</c><c>   4</c></rc>
    <rc><c>Hf</c><c>   4</c></rc>
    <rc><c>Hf</c><c>   4</c></rc>
    <rc><c>Hf</c><c>   4</c></rc>
    <rc><c>Hf</c><c>   4</c></rc>
    <rc><c>Hf</c><c>   4</c></rc>
    <rc><c>Hf</c><c>   4</c></rc>
   </set>
  </array>
  <array name="atomtypes" >
   <dimension dim="1">type</dimension>
   <field type="int">atomspertype</field>
   <field type="string">element</field>
   <field>mass</field>
   <field>valence</field>
   <field type="string">pseudopotential</field>
   <set>
    <rc><c>   8</c><c>Ta</c><c>    180.94800000</c><c>      5.00000000</c><c>  PAW_PBE Ta 17Jan2003                  </c></rc>
    <rc><c>  10</c><c>Zr</c><c>     91.22400000</c><c>     12.00000000</c><c>  PAW_PBE Zr_sv 04Jan2005               </c></rc>
    <rc><c>  10</c><c>Nb</c><c>     92.91000000</c><c>     13.00000000</c><c>  PAW_PBE Nb_sv 25May2007               </c></rc>
    <rc><c>   8</c><c>Hf</c><c>    178.49000000</c><c>      4.00000000</c><c>  PAW_PBE Hf 20Jan2003                  </c></rc>
   </set>
  </array>
 </atominfo>
 <structure name="initialpos" >
  <crystal>
   <varray name="basis" >
    <v>       6.92805924       0.00829556       0.01446610 </v>
    <v>       0.01232113      10.24675195       0.00397069 </v>
    <v>       0.02186875       0.00363149      10.16825591 </v>
   </varray>
   <i name="volume">    721.84117004 </i>
   <varray name="rec_basis" >
    <v>       0.14434142      -0.00017344      -0.00031037 </v>
    <v>      -0.00011678       0.09759205      -0.00003460 </v>
    <v>      -0.00020530      -0.00003786       0.09834574 </v>
   </varray>
  </crystal>
  <varray name="positions" >
   <v>       0.51239100       0.67319900       0.98822100 </v>
   <v>       0.26358800       0.18175500       0.17277000 </v>
   <v>       0.03008900       0.00289400       0.32375300 </v>
   <v>       0.02319900       0.99128400       0.67918500 </v>
   <v>       0.51417100       0.34540900       0.34078900 </v>
   <v>       0.76237200       0.49690300       0.50013500 </v>
   <v>       0.48671200       0.33264200       0.66176100 </v>
   <v>       0.51728700       0.65644300       0.34787400 </v>
   <v>       0.25386500       0.17603000       0.82693400 </v>
   <v>       0.74748200       0.16977800       0.82718500 </v>
   <v>       0.01673500       0.00051400       0.99862000 </v>
   <v>       0.22791400       0.17870700       0.50186300 </v>
   <v>       0.26116100       0.50428100       0.17084600 </v>
   <v>       0.48630500       0.99293000       0.99062500 </v>
   <v>       0.73922900       0.16345800       0.17121300 </v>
   <v>       0.47427400       0.99908800       0.34638900 </v>
   <v>       0.73814700       0.49285000       0.82577900 </v>
   <v>       0.49221500       0.67342600       0.66080400 </v>
   <v>       0.26002300       0.49379800       0.83041700 </v>
   <v>       0.98349900       0.33820300       0.31552500 </v>
   <v>       0.01197600       0.33892200       0.68151300 </v>
   <v>       0.98100900       0.65936200       0.33331400 </v>
   <v>       0.22028600       0.82704500       0.49728400 </v>
   <v>       0.24521600       0.82602200       0.83296900 </v>
   <v>       0.48567300       0.33132600       0.99936800 </v>
   <v>       0.73866300       0.50341800       0.17186900 </v>
   <v>       0.75930800       0.83220300       0.82283300 </v>
   <v>       0.00623100       0.67231900       0.67558200 </v>
   <v>       0.00911900       0.33611900       0.00379200 </v>
   <v>       0.98953900       0.65965400       0.99099500 </v>
   <v>       0.25795100       0.81137200       0.17225000 </v>
   <v>       0.76780700       0.17166800       0.50285100 </v>
   <v>       0.48327900       0.99595700       0.66525700 </v>
   <v>       0.74844700       0.83273000       0.17575000 </v>
   <v>       0.77517000       0.83945900       0.49678900 </v>
   <v>       0.22967700       0.49883400       0.49689100 </v>
  </varray>
 </structure>
 <calculation>
  <scstep>
   <time name="dav">    1.20    1.21</time>
   <time name="total">    1.27    1.66</time>
   <energy>
    <i name="alphaZ">   1695.72466781 </i>
    <i name="ewald"> -23263.76480017 </i>
    <i name="hartreedc">  -7536.20383236 </i>
    <i name="XCdc">    111.10624570 </i>
    <i name="pawpsdc">  24881.20780484 </i>
    <i name="pawaedc"> -23439.17733493 </i>
    <i name="eentropy">      0.00788117 </i>
    <i name="bandstr">   -251.53114671 </i>
    <i name="atom">  30045.25396203 </i>
    <i name="e_fr_energy">   2242.62344738 </i>
    <i name="e_wo_entrp">   2242.61556622 </i>
    <i name="e_0_energy">   2242.62082033 </i>
   </energy>
  </scstep>
  <scstep>
   <time name="dav">    1.14    1.14</time>
   <time name="total">    1.14    1.31</time>
   <energy>
    <i name="e_fr_energy">    -48.85704664 </i>
    <i name="e_wo_entrp">    -48.85971360 </i>
    <i name="e_0_energy">    -48.85793563 </i>
   </energy>
  </scstep>
  <scstep>
   <time name="dav">    1.70    1.76</time>
   <time name="total">    1.70    1.80</time>
   <energy>
    <i name="e_fr_energy">   -335.53774739 </i>
    <i name="e_wo_entrp">   -335.53075840 </i>
    <i name="e_0_energy">   -335.53541773 </i>
   </energy>
  </scstep>
  <scstep>
   <time name="dav">    1.54    1.57</time>
   <time name="total">    1.54    1.61</time>
   <energy>
    <i name="e_fr_energy">   -369.16711316 </i>
    <i name="e_wo_entrp">   -369.17591124 </i>
    <i name="e_0_energy">   -369.17004585 </i>
   </energy>
  </scstep>
  <scstep>
   <time name="dav">    1.52    1.54</time>
   <time name="total">    1.56    1.61</time>
   <energy>
    <i name="e_fr_energy">   -372.51224180 </i>
    <i name="e_wo_entrp">   -372.52290210 </i>
    <i name="e_0_energy">   -372.51579523 </i>
   </energy>
  </scstep>
  <scstep>
   <time name="diag">    0.09    0.09</time>
   <time name="diis">    0.77    0.78</time>
   <time name="orth">    0.01    0.01</time>
   <time name="total">    0.95    1.00</time>
   <energy>
    <i name="e_fr_energy">   -362.17970069 </i>
    <i name="e_wo_entrp">   -362.19776901 </i>
    <i name="e_0_energy">   -362.18572346 </i>
   </energy>
  </scstep>
  <scstep>
   <time name="diag">    0.09    0.09</time>
   <time name="diis">    0.87    0.88</time>
   <time name="orth">    0.01    0.01</time>
   <time name="total">    1.05    1.10</time>
   <energy>
    <i name="e_fr_energy">   -365.24232655 </i>
    <i name="e_wo_entrp">   -365.24635037 </i>
    <i name="e_0_energy">   -365.24366782 </i>
   </energy>
  </scstep>
  <scstep>
   <time name="diag">    0.09    0.09</time>
   <time name="diis">    0.86    0.87</time>
   <time name="orth">    0.02    0.02</time>
   <time name="total">    1.07    1.11</time>
   <energy>
    <i name="e_fr_energy">   -358.30100093 </i>
    <i name="e_wo_entrp">   -358.33160454 </i>
    <i name="e_0_energy">   -358.31120213 </i>
   </energy>
  </scstep>
  <scstep>
   <time name="diag">    0.10    0.10</time>
   <time name="diis">    0.90    0.91</time>
   <time name="orth">    0.01    0.01</time>
   <time name="total">    1.09    1.13</time>
   <energy>
    <i name="e_fr_energy">   -357.95957346 </i>
    <i name="e_wo_entrp">   -357.98498349 </i>
    <i name="e_0_energy">   -357.96804347 </i>
   </energy>
  </scstep>
  <scstep>
   <time name="diag">    0.09    0.09</time>
   <time name="diis">    0.86    0.87</time>
   <time name="orth">    0.01    0.01</time>
   <time name="total">    1.04    1.08</time>
   <energy>
    <i name="e_fr_energy">   -357.93702687 </i>
    <i name="e_wo_entrp">   -357.96341172 </i>
    <i name="e_0_energy">   -357.94582182 </i>
   </energy>
  </scstep>
  <scstep>
   <time name="diag">    0.10    0.10</time>
   <time name="diis">    0.97    1.01</time>
   <time name="orth">    0.01    0.02</time>
   <time name="total">    1.18    1.29</time>
   <energy>
    <i name="e_fr_energy">   -357.90468928 </i>
    <i name="e_wo_entrp">   -357.92959423 </i>
    <i name="e_0_energy">   -357.91299093 </i>
   </energy>
  </scstep>
  <scstep>
   <time name="diag">    0.09    0.10</time>
   <time name="diis">    0.83    0.84</time>
   <time name="orth">    0.01    0.01</time>
   <time name="total">    1.00    1.10</time>
   <energy>
    <i name="e_fr_energy">   -357.89717941 </i>
    <i name="e_wo_entrp">   -357.92259823 </i>
    <i name="e_0_energy">   -357.90565235 </i>
   </energy>
  </scstep>
  <scstep>
   <time name="diag">    0.09    0.09</time>
   <time name="diis">    0.84    0.84</time>
   <time name="orth">    0.01    0.01</time>
   <time name="total">    1.01    1.04</time>
   <energy>
    <i name="e_fr_energy">   -357.89429559 </i>
    <i name="e_wo_entrp">   -357.91894640 </i>
    <i name="e_0_energy">   -357.90251253 </i>
   </energy>
  </scstep>
  <scstep>
   <time name="diag">    0.09    0.09</time>
   <time name="diis">    0.87    0.88</time>
   <time name="orth">    0.01    0.02</time>
   <time name="total">    1.04    1.08</time>
   <energy>
    <i name="e_fr_energy">   -357.89391006 </i>
    <i name="e_wo_entrp">   -357.91900269 </i>
    <i name="e_0_energy">   -357.90227427 </i>
   </energy>
  </scstep>
  <scstep>
   <time name="diag">    0.10    0.10</time>
   <time name="diis">    0.87    0.88</time>
   <time name="orth">    0.01    0.01</time>
   <time name="total">    1.07    1.12</time>
   <energy>
    <i name="e_fr_energy">   -357.89401570 </i>
    <i name="e_wo_entrp">   -357.91893982 </i>
    <i name="e_0_energy">   -357.90232374 </i>
   </energy>
  </scstep>
  <scstep>
   <time name="diag">    0.09    0.09</time>
   <time name="diis">    0.82    0.82</time>
   <time name="orth">    0.01    0.01</time>
   <time name="total">    0.99    1.03</time>
   <energy>
    <i name="e_fr_energy">   -357.89400328 </i>
    <i name="e_wo_entrp">   -357.91904001 </i>
    <i name="e_0_energy">   -357.90234885 </i>
   </energy>
  </scstep>
  <scstep>
   <time name="diag">    0.09    0.09</time>
   <time name="diis">    0.70    0.70</time>
   <time name="orth">    0.01    0.01</time>
   <time name="total">    0.87    0.94</time>
   <energy>
    <i name="e_fr_energy">   -361.65937862 </i>
    <i name="e_wo_entrp">   -361.68435482 </i>
    <i name="e_0_energy">   -361.66770402 </i>
   </energy>
  </scstep>
  <scstep>
   <time name="diag">    0.09    0.13</time>
   <time name="diis">    0.62    0.69</time>
   <time name="orth">    0.01    0.01</time>
   <time name="total">    0.79    0.94</time>
   <energy>
    <i name="e_fr_energy">   -357.36299584 </i>
    <i name="e_wo_entrp">   -357.38791925 </i>
    <i name="e_0_energy">   -357.37130364 </i>
   </energy>
  </scstep>
  <scstep>
   <time name="diag">    0.09    0.09</time>
   <time name="diis">    0.78    0.79</time>
   <time name="orth">    0.01    0.01</time>
   <time name="total">    0.96    1.00</time>
   <energy>
    <i name="e_fr_energy">   -357.36279765 </i>
    <i name="e_wo_entrp">   -357.38809786 </i>
    <i name="e_0_energy">   -357.37123105 </i>
   </energy>
  </scstep>
  <scstep>
   <time name="diag">    0.10    0.10</time>
   <time name="diis">    0.68    0.70</time>
   <time name="orth">    0.01    0.01</time>
   <time name="total">    1.00    1.05</time>
   <energy>
    <i name="e_fr_energy">   -357.36265127 </i>
    <i name="e_wo_entrp">   -357.38770634 </i>
    <i name="e_0_energy">   -357.37100296 </i>
   </energy>
  </scstep>
  <scstep>
   <time name="diag">    0.09    0.09</time>
   <time name="diis">    0.71    0.71</time>
   <time name="orth">    0.02    0.02</time>
   <time name="total">    0.89    0.92</time>
   <energy>
    <i name="e_fr_energy">   -357.36263541 </i>
    <i name="e_wo_entrp">   -357.38770158 </i>
    <i name="e_0_energy">   -357.37099080 </i>
   </energy>
  </scstep>
  <scstep>
   <time name="diag">    0.09    0.10</time>
   <time name="diis">    0.62    0.63</time>
   <time name="orth">    0.01    0.01</time>
   <time name="total">    0.80    0.84</time>
   <energy>
    <i name="e_fr_energy">   -357.36262427 </i>
    <i name="e_wo_entrp">   -357.38771000 </i>
    <i name="e_0_energy">   -357.37098618 </i>
   </energy>
  </scstep>
  <scstep>
   <time name="diag">    0.09    0.09</time>
   <time name="diis">    0.48    0.48</time>
   <time name="orth">    0.01    0.01</time>
   <time name="total">    0.65    0.68</time>
   <energy>
    <i name="e_fr_energy">   -357.36262670 </i>
    <i name="e_wo_entrp">   -357.38771956 </i>
    <i name="e_0_energy">   -357.37099099 </i>
   </energy>
  </scstep>
  <scstep>
   <time name="diag">    0.09    0.09</time>
   <time name="diis">    0.47    0.47</time>
   <time name="orth">    0.01    0.01</time>
   <time name="total">    0.60    0.65</time>
   <energy>
    <i name="alphaZ">   1695.72466781 </i>
    <i name="ewald"> -23263.76480017 </i>
    <i name="hartreedc">  -7270.90870627 </i>
    <i name="XCdc">    106.53312494 </i>
    <i name="pawpsdc">  38214.86040741 </i>
    <i name="pawaedc"> -36743.46415096 </i>
    <i name="eentropy">      0.02509731 </i>
    <i name="bandstr">  -3141.62222276 </i>
    <i name="atom">  30045.25396203 </i>
    <i name="e_fr_energy">   -357.36262066 </i>
    <i name="e_wo_entrp">   -357.38771797 </i>
    <i name="e_0_energy">   -357.37098643 </i>
   </energy>
  </scstep>
  <structure>
   <crystal>
    <varray name="basis" >
     <v>       6.92805924       0.00829556       0.01446610 </v>
     <v>       0.01232113      10.24675195       0.00397069 </v>
     <v>       0.02186875       0.00363149      10.16825591 </v>
    </varray>
    <i name="volume">    721.84117004 </i>
    <varray name="rec_basis" >
     <v>       0.14434142      -0.00017344      -0.00031037 </v>
     <v>      -0.00011678       0.09759205      -0.00003460 </v>
     <v>      -0.00020530      -0.00003786       0.09834574 </v>
    </varray>
   </crystal>
   <varray name="positions" >
    <v>       0.51239100       0.67319900       0.98822100 </v>
    <v>       0.26358800       0.18175500       0.17277000 </v>
    <v>       0.03008900       0.00289400       0.32375300 </v>
    <v>       0.02319900       0.99128400       0.67918500 </v>
    <v>       0.51417100       0.34540900       0.34078900 </v>
    <v>       0.76237200       0.49690300       0.50013500 </v>
    <v>       0.48671200       0.33264200       0.66176100 </v>
    <v>       0.51728700       0.65644300       0.34787400 </v>
    <v>       0.25386500       0.17603000       0.82693400 </v>
    <v>       0.74748200       0.16977800       0.82718500 </v>
    <v>       0.01673500       0.00051400       0.99862000 </v>
    <v>       0.22791400       0.17870700       0.50186300 </v>
    <v>       0.26116100       0.50428100       0.17084600 </v>
    <v>       0.48630500       0.99293000       0.99062500 </v>
    <v>       0.73922900       0.16345800       0.17121300 </v>
    <v>       0.47427400       0.99908800       0.34638900 </v>
    <v>       0.73814700       0.49285000       0.82577900 </v>
    <v>       0.49221500       0.67342600       0.66080400 </v>
    <v>       0.26002300       0.49379800       0.83041700 </v>
    <v>       0.98349900       0.33820300       0.31552500 </v>
    <v>       0.01197600       0.33892200       0.68151300 </v>
    <v>       0.98100900       0.65936200       0.33331400 </v>
    <v>       0.22028600       0.82704500       0.49728400 </v>
    <v>       0.24521600       0.82602200       0.83296900 </v>
    <v>       0.48567300       0.33132600       0.99936800 </v>
    <v>       0.73866300       0.50341800       0.17186900 </v>
    <v>       0.75930800       0.83220300       0.82283300 </v>
    <v>       0.00623100       0.67231900       0.67558200 </v>
    <v>       0.00911900       0.33611900       0.00379200 </v>
    <v>       0.98953900       0.65965400       0.99099500 </v>
    <v>       0.25795100       0.81137200       0.17225000 </v>
    <v>       0.76780700       0.17166800       0.50285100 </v>
    <v>       0.48327900       0.99595700       0.66525700 </v>
    <v>       0.74844700       0.83273000       0.17575000 </v>
    <v>       0.77517000       0.83945900       0.49678900 </v>
    <v>       0.22967700       0.49883400       0.49689100 </v>
   </varray>
  </structure>
  <varray name="forces" >
   <v>       0.01630365       0.01638616       0.00489736 </v>
   <v>      -0.00069188      -0.01083393       0.07297718 </v>
   <v>      -0.03059961      -0.00162573      -0.01728132 </v>
   <v>      -0.24431031      -0.45687589      -0.24935557 </v>
   <v>       0.00300427       0.02656113       0.01379502 </v>
   <v>       0.00686816      -0.03490500       0.04619126 </v>
   <v>       0.34097969       0.38313077      -0.43523074 </v>
   <v>       0.00238194       0.01122889      -0.00783594 </v>
   <v>      -0.01004803      -0.10450833       0.23859496 </v>
   <v>       0.01377948      -0.01036679       0.00688302 </v>
   <v>      -0.18573447      -0.22098410       0.23580855 </v>
   <v>       0.02213310      -0.03337341      -0.14374730 </v>
   <v>       0.02071651      -0.01999462      -0.01054981 </v>
   <v>       0.18482814      -0.28744710       0.19390607 </v>
   <v>       0.00461458      -0.00226607      -0.04584987 </v>
   <v>       0.01077294      -0.01985854       0.01362267 </v>
   <v>      -0.00365075      -0.04194377      -0.02627717 </v>
   <v>       0.01345507      -0.00789246      -0.00678015 </v>
   <v>      -0.01685010       0.09364396       0.01063153 </v>
   <v>      -0.02251598       0.02454119       0.01838705 </v>
   <v>      -0.31021792       0.42757383      -0.25185914 </v>
   <v>      -0.01690780      -0.00102898       0.00183183 </v>
   <v>      -0.00762547       0.01551831       0.02425031 </v>
   <v>      -0.00562800      -0.05972611      -0.00592641 </v>
   <v>       0.25080980       0.29913327       0.33026948 </v>
   <v>       0.00465307      -0.02953106      -0.03884589 </v>
   <v>       0.02427138       0.03287665      -0.00676157 </v>
   <v>      -0.02760433       0.00197243      -0.02734841 </v>
   <v>      -0.20638996       0.24252185       0.25258351 </v>
   <v>      -0.01323059       0.00236624       0.00261677 </v>
   <v>       0.01240086       0.03142577      -0.00694595 </v>
   <v>       0.01897672      -0.00546842       0.06303361 </v>
   <v>       0.17265959      -0.29423843      -0.26782492 </v>
   <v>      -0.01303278      -0.00121655      -0.02829617 </v>
   <v>       0.00017813       0.03569504       0.04292677 </v>
   <v>      -0.00874908      -0.00049020       0.00350941 </v>
  </varray>
  <varray name="stress" >
   <v>       7.88530660       0.65927913      -0.11843928 </v>
   <v>       0.65927911       9.39255430      -0.14464256 </v>
   <v>      -0.11843932      -0.14464259       7.91175931 </v>
  </varray>
  <energy>
   <i name="e_fr_energy">   -357.36262066 </i>
   <i name="e_wo_entrp">   -357.37098643 </i>
   <i name="e_0_energy">      0.02509731 </i>
  </energy>
  <time name="totalsc">   27.04   29.01</time>
 </calculation>
 <calculation>
  <scstep>
   <time name="dav">    1.16    1.17</time>
   <time name="total">    1.24    1.42</time>
   <energy>
    <i name="alphaZ">   1688.01146845 </i>
    <i name="ewald"> -23234.85299466 </i>
    <i name="hartreedc">  -7253.78519163 </i>
    <i name="XCdc">    104.93027173 </i>
    <i name="pawpsdc">  38214.78860112 </i>
    <i name="pawaedc"> -36743.39112185 </i>
    <i name="eentropy">      0.02459250 </i>
    <i name="bandstr">  -3178.92337269 </i>
    <i name="atom">  30045.25396203 </i>
    <i name="e_fr_energy">   -357.94378499 </i>
    <i name="e_wo_entrp">   -357.96837749 </i>
    <i name="e_0_energy">   -357.95198249 </i>
   </energy>
  </scstep>
  <scstep>
   <time name="diag">    0.09    0.09</time>
   <time name="diis">    0.72    0.78</time>
   <time name="orth">    0.01    0.01</time>
   <time name="total">    0.89    0.98</time>
   <energy>
    <i name="e_fr_energy">   -357.95131914 </i>
    <i name="e_wo_entrp">   -357.97727501 </i>
    <i name="e_0_energy">   -357.95997110 </i>
   </energy>
  </scstep>
  <scstep>
   <time name="diag">    0.10    0.10</time>
   <time name="diis">    0.92    0.92</time>
   <time name="orth">    0.01    0.01</time>
   <time name="total">    1.10    1.15</time>
   <energy>
    <i name="e_fr_energy">   -357.94156049 </i>
    <i name="e_wo_entrp">   -357.96654317 </i>
    <i name="e_0_energy">   -357.94988805 </i>
   </energy>
  </scstep>
  <scstep>
   <time name="diag">    0.09    0.09</time>
   <time name="diis">    0.90    0.90</time>
   <time name="orth">    0.01    0.01</time>
   <time name="total">    1.07    1.10</time>
   <energy>
    <i name="e_fr_energy">   -357.93375505 </i>
    <i name="e_wo_entrp">   -357.95930604 </i>
    <i name="e_0_energy">   -357.94227205 </i>
   </energy>
  </scstep>
  <scstep>
   <time name="diag">    0.09    0.09</time>
   <time name="diis">    0.83    0.84</time>
   <time name="orth">    0.01    0.01</time>
   <time name="total">    1.01    1.05</time>
   <energy>
    <i name="e_fr_energy">   -357.93254574 </i>
    <i name="e_wo_entrp">   -357.95801575 </i>
    <i name="e_0_energy">   -357.94103574 </i>
   </energy>
  </scstep>
  <scstep>
   <time name="diag">    0.09    0.09</time>
   <time name="diis">    0.84    0.92</time>
   <time name="orth">    0.01    0.02</time>
   <time name="total">    1.01    1.13</time>
   <energy>
    <i name="e_fr_energy">   -357.93263382 </i>
    <i name="e_wo_entrp">   -357.95825912 </i>
    <i name="e_0_energy">   -357.94117559 </i>
   </energy>
  </scstep>
  <scstep>
   <time name="diag">    0.10    0.12</time>
   <time name="diis">    0.93    0.94</time>
   <time name="orth">    0.01    0.01</time>
   <time name="total">    1.17    1.24</time>
   <energy>
    <i name="e_fr_energy">   -357.93264783 </i>
    <i name="e_wo_entrp">   -357.95802393 </i>
    <i name="e_0_energy">   -357.94110653 </i>
   </energy>
  </scstep>
  <scstep>
   <time name="diag">    0.09    0.09</time>
   <time name="diis">    0.76    0.77</time>
   <time name="orth">    0.01    0.01</time>
   <time name="total">    0.93    0.98</time>
   <energy>
    <i name="e_fr_energy">   -357.93270188 </i>
    <i name="e_wo_entrp">   -357.95823971 </i>
    <i name="e_0_energy">   -357.94121449 </i>
   </energy>
  </scstep>
  <scstep>
   <time name="diag">    0.09    0.09</time>
   <time name="diis">    0.64    0.65</time>
   <time name="orth">    0.02    0.02</time>
   <time name="total">    0.81    0.85</time>
   <energy>
    <i name="e_fr_energy">   -357.93272590 </i>
    <i name="e_wo_entrp">   -357.95821656 </i>
    <i name="e_0_energy">   -357.94122279 </i>
   </energy>
  </scstep>
  <scstep>
   <time name="diag">    0.09    0.09</time>
   <time name="diis">    0.60    0.61</time>
   <time name="orth">    0.01    0.01</time>
   <time name="total">    0.78    0.82</time>
   <energy>
    <i name="e_fr_energy">   -357.93275423 </i>
    <i name="e_wo_entrp">   -357.95825434 </i>
    <i name="e_0_energy">   -357.94125427 </i>
   </energy>
  </scstep>
  <scstep>
   <time name="diag">    0.09    0.09</time>
   <time name="diis">    0.55    0.55</time>
   <time name="orth">    0.01    0.01</time>
   <time name="total">    0.68    0.72</time>
   <energy>
    <i name="alphaZ">   1688.01146845 </i>
    <i name="ewald"> -23234.85299466 </i>
    <i name="hartreedc">  -7275.09018917 </i>
    <i name="XCdc">    105.92033934 </i>
    <i name="pawpsdc">  37984.04532323 </i>
    <i name="pawaedc"> -36513.00290026 </i>
    <i name="eentropy">      0.02550285 </i>
    <i name="bandstr">  -3158.24326341 </i>
    <i name="atom">  30045.25396203 </i>
    <i name="e_fr_energy">   -357.93275160 </i>
    <i name="e_wo_entrp">   -357.95825445 </i>
    <i name="e_0_energy">   -357.94125255 </i>
   </energy>
  </scstep>
  <structure>
   <crystal>
    <varray name="basis" >
     <v>       6.93795481       0.00913659       0.01433799 </v>
     <v>       0.01356223      10.26418547       0.00370767 </v>
     <v>       0.02168228       0.00337389      10.18282672 </v>
    </varray>
    <i name="volume">    725.13955098 </i>
    <varray name="rec_basis" >
     <v>       0.14413558      -0.00019034      -0.00030684 </v>
     <v>      -0.00012823       0.09742632      -0.00003201 </v>
     <v>      -0.00020290      -0.00003521       0.09820500 </v>
    </varray>
   </crystal>
   <varray name="positions" >
    <v>       0.51242500       0.67322211       0.98822791 </v>
    <v>       0.26358625       0.18173966       0.17287388 </v>
    <v>       0.03002516       0.00289176       0.32372849 </v>
    <v>       0.02269090       0.99063923       0.67883106 </v>
    <v>       0.51417715       0.34544650       0.34080861 </v>
    <v>       0.76238623       0.49685366       0.50020074 </v>
    <v>       0.48742531       0.33318279       0.66114030 </v>
    <v>       0.51729198       0.65645886       0.34786283 </v>
    <v>       0.25384320       0.17588229       0.82727369 </v>
    <v>       0.74751078       0.16976333       0.82719476 </v>
    <v>       0.01634649       0.00020207       0.99895631 </v>
    <v>       0.22796097       0.17865990       0.50165835 </v>
    <v>       0.26120437       0.50425273       0.17083093 </v>
    <v>       0.48669096       0.99252359       0.99090060 </v>
    <v>       0.73923885       0.16345481       0.17114773 </v>
    <v>       0.47429649       0.99905993       0.34640837 </v>
    <v>       0.73813960       0.49279078       0.82574163 </v>
    <v>       0.49224316       0.67341483       0.66079431 </v>
    <v>       0.25998752       0.49393029       0.83043213 </v>
    <v>       0.98345182       0.33823769       0.31555122 </v>
    <v>       0.01132801       0.33952657       0.68115521 </v>
    <v>       0.98097367       0.65936057       0.33331666 </v>
    <v>       0.22026992       0.82706692       0.49731853 </v>
    <v>       0.24520442       0.82593765       0.83296061 </v>
    <v>       0.48619471       0.33174792       0.99983718 </v>
    <v>       0.73867297       0.50337630       0.17181371 </v>
    <v>       0.75935865       0.83224940       0.82282329 </v>
    <v>       0.00617345       0.67232185       0.67554315 </v>
    <v>       0.00868610       0.33646177       0.00415199 </v>
    <v>       0.98951134       0.65965736       0.99099876 </v>
    <v>       0.25797686       0.81141637       0.17224006 </v>
    <v>       0.76784637       0.17166021       0.50294066 </v>
    <v>       0.48364163       0.99554125       0.66487544 </v>
    <v>       0.74841990       0.83272832       0.17570976 </v>
    <v>       0.77517009       0.83950939       0.49685008 </v>
    <v>       0.22965871       0.49883332       0.49689602 </v>
   </varray>
  </structure>
  <varray name="forces" >
   <v>       0.01639787       0.01706365      -0.00603846 </v>
   <v>       0.00289732       0.00982356       0.07027742 </v>
   <v>      -0.01490098      -0.00089574      -0.01768801 </v>
   <v>      -0.20376710      -0.41341236      -0.20590522 </v>
   <v>       0.01611600       0.02094719       0.02215379 </v>
   <v>       0.00820112      -0.03912654       0.03037543 </v>
   <v>       0.28724565       0.35341720      -0.40359939 </v>
   <v>       0.02173508      -0.01393408      -0.00939761 </v>
   <v>      -0.00273861      -0.06961339       0.18704092 </v>
   <v>       0.01265861       0.00694862      -0.01187399 </v>
   <v>      -0.15720039      -0.19417487       0.20581832 </v>
   <v>       0.01579794      -0.00785144      -0.11241844 </v>
   <v>       0.02326451      -0.01473893       0.00614094 </v>
   <v>       0.15996075      -0.26875255       0.15939962 </v>
   <v>      -0.00200887       0.00926092      -0.03181640 </v>
   <v>      -0.00211576      -0.01316626       0.00521813 </v>
   <v>      -0.00479806      -0.03337761      -0.02406344 </v>
   <v>       0.00873295      -0.01366084       0.00025522 </v>
   <v>      -0.01324492       0.06468512      -0.00366324 </v>
   <v>      -0.02740206       0.02328241       0.00621360 </v>
   <v>      -0.26334130       0.38598923      -0.21492275 </v>
   <v>      -0.03540870      -0.00810398       0.00598359 </v>
   <v>      -0.01671306       0.00758248       0.01385668 </v>
   <v>      -0.01243154      -0.05113081      -0.01436684 </v>
   <v>       0.21236529       0.27007044       0.31075917 </v>
   <v>      -0.00693513      -0.02004132      -0.01431886 </v>
   <v>       0.02769095       0.01335107      -0.01503392 </v>
   <v>      -0.02111456       0.01221311      -0.01127353 </v>
   <v>      -0.17904005       0.21135622       0.22494286 </v>
   <v>      -0.01378962       0.00267578      -0.00410766 </v>
   <v>       0.01157268       0.00914684       0.00812702 </v>
   <v>       0.02731321       0.00765693       0.05278162 </v>
   <v>       0.13616645      -0.26278974      -0.22506088 </v>
   <v>      -0.01499756      -0.01988902      -0.00444908 </v>
   <v>       0.01240426       0.02196881       0.02568639 </v>
   <v>      -0.00857237      -0.00278011      -0.00503299 </v>
  </varray>
  <varray name="stress" >
   <v>       0.60892244       0.49716776      -0.09587409 </v>
   <v>       0.49716769       2.26386928      -0.00520518 </v>
   <v>      -0.09587411      -0.00520519       0.70122131 </v>
  </varray>
  <energy>
   <i name="e_fr_energy">   -357.93275160 </i>
   <i name="e_wo_entrp">   -357.94125255 </i>
   <i name="e_0_energy">      0.02550285 </i>
  </energy>
  <time name="totalsc">   12.50   13.40</time>
 </calculation>
 <calculation>
  <scstep>
   <time name="dav">    1.12    1.13</time>
   <time name="total">    1.21    1.38</time>
   <energy>
    <i name="alphaZ">   1675.62283274 </i>
    <i name="ewald"> -23187.78320647 </i>
    <i name="hartreedc">  -7247.76588723 </i>
    <i name="XCdc">    103.33337705 </i>
    <i name="pawpsdc">  37984.57210885 </i>
    <i name="pawaedc"> -36513.55220369 </i>
    <i name="eentropy">      0.02434820 </i>
    <i name="bandstr">  -3217.78690218 </i>
    <i name="atom">  30045.25396203 </i>
    <i name="e_fr_energy">   -358.08157071 </i>
    <i name="e_wo_entrp">   -358.10591892 </i>
    <i name="e_0_energy">   -358.08968678 </i>
   </energy>
  </scstep>
  <scstep>
   <time name="diag">    0.09    0.09</time>
   <time name="diis">    0.83    0.85</time>
   <time name="orth">    0.01    0.01</time>
   <time name="total">    1.01    1.09</time>
   <energy>
    <i name="e_fr_energy">   -358.01874110 </i>
    <i name="e_wo_entrp">   -358.04626921 </i>
    <i name="e_0_energy">   -358.02791714 </i>
   </energy>
  </scstep>
  <scstep>
   <time name="diag">    0.09    0.09</time>
   <time name="diis">    0.84    0.84</time>
   <time name="orth">    0.01    0.01</time>
   <time name="total">    1.01    1.06</time>
   <energy>
    <i name="e_fr_energy">   -357.98358133 </i>
    <i name="e_wo_entrp">   -358.00814372 </i>
    <i name="e_0_energy">   -357.99176880 </i>
   </energy>
  </scstep>
  <scstep>
   <time name="diag">    0.09    0.09</time>
   <time name="diis">    0.84    0.85</time>
   <time name="orth">    0.01    0.01</time>
   <time name="total">    1.02    1.06</time>
   <energy>
    <i name="e_fr_energy">   -357.96260336 </i>
    <i name="e_wo_entrp">   -357.98907568 </i>
    <i name="e_0_energy">   -357.97142747 </i>
   </energy>
  </scstep>
  <scstep>
   <time name="diag">    0.09    0.09</time>
   <time name="diis">    0.83    0.84</time>
   <time name="orth">    0.02    0.02</time>
   <time name="total">    1.01    1.07</time>
   <energy>
    <i name="e_fr_energy">   -357.95882676 </i>
    <i name="e_wo_entrp">   -357.98487195 </i>
    <i name="e_0_energy">   -357.96750849 </i>
   </energy>
  </scstep>
  <scstep>
   <time name="diag">    0.10    0.10</time>
   <time name="diis">    0.91    0.92</time>
   <time name="orth">    0.01    0.01</time>
   <time name="total">    1.11    1.16</time>
   <energy>
    <i name="e_fr_energy">   -357.95907650 </i>
    <i name="e_wo_entrp">   -357.98541244 </i>
    <i name="e_0_energy">   -357.96785515 </i>
   </energy>
  </scstep>
  <scstep>
   <time name="diag">    0.09    0.09</time>
   <time name="diis">    0.97    0.98</time>
   <time name="orth">    0.01    0.01</time>
   <time name="total">    1.15    1.19</time>
   <energy>
    <i name="e_fr_energy">   -357.95917924 </i>
    <i name="e_wo_entrp">   -357.98514836 </i>
    <i name="e_0_energy">   -357.96783561 </i>
   </energy>
  </scstep>
  <scstep>
   <time name="diag">    0.09    0.09</time>
   <time name="diis">    0.97    0.98</time>
   <time name="orth">    0.01    0.01</time>
   <time name="total">    1.17    1.21</time>
   <energy>
    <i name="e_fr_energy">   -357.95936507 </i>
    <i name="e_wo_entrp">   -357.98555835 </i>
    <i name="e_0_energy">   -357.96809616 </i>
   </energy>
  </scstep>
  <scstep>
   <time name="diag">    0.16    0.16</time>
   <time name="diis">    0.77    0.78</time>
   <time name="orth">    0.01    0.02</time>
   <time name="total">    1.02    1.06</time>
   <energy>
    <i name="e_fr_energy">   -357.95943468 </i>
    <i name="e_wo_entrp">   -357.98556806 </i>
    <i name="e_0_energy">   -357.96814580 </i>
   </energy>
  </scstep>
  <scstep>
   <time name="diag">    0.09    0.09</time>
   <time name="diis">    0.75    0.75</time>
   <time name="orth">    0.02    0.02</time>
   <time name="total">    0.93    0.96</time>
   <energy>
    <i name="e_fr_energy">   -357.95953852 </i>
    <i name="e_wo_entrp">   -357.98567254 </i>
    <i name="e_0_energy">   -357.96824986 </i>
   </energy>
  </scstep>
  <scstep>
   <time name="diag">    0.09    0.09</time>
   <time name="diis">    0.65    0.66</time>
   <time name="orth">    0.03    0.03</time>
   <time name="total">    0.85    0.89</time>
   <energy>
    <i name="e_fr_energy">   -357.95955243 </i>
    <i name="e_wo_entrp">   -357.98571617 </i>
    <i name="e_0_energy">   -357.96827368 </i>
   </energy>
  </scstep>
  <scstep>
   <time name="diag">    0.12    0.13</time>
   <time name="diis">    0.62    0.62</time>
   <time name="orth">    0.02    0.02</time>
   <time name="total">    0.83    0.87</time>
   <energy>
    <i name="e_fr_energy">   -357.95955133 </i>
    <i name="e_wo_entrp">   -357.98568134 </i>
    <i name="e_0_energy">   -357.96826133 </i>
   </energy>
  </scstep>
  <scstep>
   <time name="diag">    0.09    0.09</time>
   <time name="diis">    0.51    0.51</time>
   <time name="orth">    0.02    0.02</time>
   <time name="total">    0.64    0.68</time>
   <energy>
    <i name="alphaZ">   1675.62283274 </i>
    <i name="ewald"> -23187.78320647 </i>
    <i name="hartreedc">  -7282.47281064 </i>
    <i name="XCdc">    104.91413313 </i>
    <i name="pawpsdc">  37610.15265047 </i>
    <i name="pawaedc"> -36140.08419302 </i>
    <i name="eentropy">      0.02614189 </i>
    <i name="bandstr">  -3183.58906144 </i>
    <i name="atom">  30045.25396203 </i>
    <i name="e_fr_energy">   -357.95955131 </i>
    <i name="e_wo_entrp">   -357.98569320 </i>
    <i name="e_0_energy">   -357.96826528 </i>
   </energy>
  </scstep>
  <structure>
   <crystal>
    <varray name="basis" >
     <v>       6.95397590       0.01049823       0.01413057 </v>
     <v>       0.01557160      10.29241060       0.00328183 </v>
     <v>       0.02138039       0.00295682      10.20641708 </v>
    </varray>
    <i name="volume">    730.50083490 </i>
    <varray name="rec_basis" >
     <v>       0.14380357      -0.00021747      -0.00030118 </v>
     <v>      -0.00014662       0.09715920      -0.00002784 </v>
     <v>      -0.00019905      -0.00003094       0.09797800 </v>
    </varray>
   </crystal>
   <varray name="positions" >
    <v>       0.51247995       0.67325947       0.98823909 </v>
    <v>       0.26358344       0.18171488       0.17304182 </v>
    <v>       0.02992194       0.00288816       0.32368888 </v>
    <v>       0.02186961       0.98959717       0.67825880 </v>
    <v>       0.51418708       0.34550712       0.34084032 </v>
    <v>       0.76240925       0.49677393       0.50030703 </v>
    <v>       0.48857833       0.33405672       0.66013685 </v>
    <v>       0.51730003       0.65648449       0.34784478 </v>
    <v>       0.25380802       0.17564356       0.82782286 </v>
    <v>       0.74755732       0.16973962       0.82721054 </v>
    <v>       0.01571849      -0.00030202       0.99949999 </v>
    <v>       0.22803690       0.17858375       0.50132750 </v>
    <v>       0.26127451       0.50420703       0.17080658 </v>
    <v>       0.48731508       0.99186669       0.99134616 </v>
    <v>       0.73925478       0.16344966       0.17104220 </v>
    <v>       0.47433287       0.99901455       0.34643968 </v>
    <v>       0.73812764       0.49269506       0.82568122 </v>
    <v>       0.49228868       0.67339678       0.66077865 </v>
    <v>       0.25993011       0.49414411       0.83045660 </v>
    <v>       0.98337553       0.33829377       0.31559362 </v>
    <v>       0.01028020       0.34050378       0.68057677 </v>
    <v>       0.98091656       0.65935827       0.33332095 </v>
    <v>       0.22024392       0.82710235       0.49737436 </v>
    <v>       0.24518572       0.82580133       0.83294705 </v>
    <v>       0.48703807       0.33242979       0.00059572 </v>
    <v>       0.73868910       0.50330890       0.17172433 </v>
    <v>       0.75944053       0.83232438       0.82280758 </v>
    <v>       0.00608041       0.67232645       0.67548035 </v>
    <v>       0.00798616       0.33701584       0.00473400 </v>
    <v>       0.98946663       0.65966280       0.99100484 </v>
    <v>       0.25801865       0.81148808       0.17222399 </v>
    <v>       0.76791004       0.17164762       0.50308563 </v>
    <v>       0.48422800       0.99486923       0.66425857 </v>
    <v>       0.74837610       0.83272560       0.17564471 </v>
    <v>       0.77517022       0.83959085       0.49694883 </v>
    <v>       0.22962914       0.49883223       0.49690414 </v>
   </varray>
  </structure>
  <varray name="forces" >
   <v>       0.01376179       0.01747827      -0.02039197 </v>
   <v>       0.00434956       0.03373994       0.05829809 </v>
   <v>       0.00406303      -0.00094133      -0.01477814 </v>
   <v>      -0.13949806      -0.34457072      -0.13860599 </v>
   <v>       0.02727277       0.01698259       0.02926888 </v>
   <v>       0.00662016      -0.02454377       0.00495205 </v>
   <v>       0.20821733       0.29505741      -0.35113552 </v>
   <v>       0.04841807      -0.03129581      -0.01345045 </v>
   <v>       0.01210425      -0.02286058       0.11674723 </v>
   <v>       0.01130380       0.02564715      -0.03108384 </v>
   <v>      -0.11303392      -0.16058394       0.16003404 </v>
   <v>       0.00423857       0.01649625      -0.06047335 </v>
   <v>       0.02718606       0.00126401       0.02941774 </v>
   <v>       0.12107933      -0.23997433       0.10572278 </v>
   <v>      -0.01044071       0.02326067      -0.01162001 </v>
   <v>      -0.01668055      -0.00920724      -0.00309562 </v>
   <v>      -0.01184036      -0.01642922      -0.02126422 </v>
   <v>       0.00080372      -0.01640369       0.01202605 </v>
   <v>      -0.00441574       0.02688587      -0.02791746 </v>
   <v>      -0.02829503       0.01425137      -0.00049684 </v>
   <v>      -0.20065870       0.32857117      -0.17069785 </v>
   <v>      -0.05618505      -0.01419368       0.01123281 </v>
   <v>      -0.02987531      -0.00533602      -0.00015654 </v>
   <v>      -0.02492891      -0.03603234      -0.02999245 </v>
   <v>       0.16054279       0.22272790       0.27085635 </v>
   <v>      -0.02444019      -0.00625160       0.01820645 </v>
   <v>       0.03342934      -0.01911625      -0.02634676 </v>
   <v>      -0.01019088       0.02419374       0.00796978 </v>
   <v>      -0.13652585       0.16444449       0.18679138 </v>
   <v>      -0.01441837       0.00631289      -0.01292279 </v>
   <v>       0.01017396      -0.02256879       0.02955571 </v>
   <v>       0.03955336       0.01752973       0.03944751 </v>
   <v>       0.08232951      -0.22176007      -0.15643237 </v>
   <v>      -0.01647001      -0.04496309       0.03432587 </v>
   <v>       0.03093246      -0.00260062      -0.00520088 </v>
   <v>      -0.00848222       0.00478966      -0.01878967 </v>
  </varray>
  <varray name="stress" >
   <v>      -9.52291489       0.19942582      -0.09907412 </v>
   <v>       0.19942580      -7.93088217       0.05373327 </v>
   <v>      -0.09907412       0.05373330      -9.56598718 </v>
  </varray>
  <energy>
   <i name="e_fr_energy">   -357.95955131 </i>
   <i name="e_wo_entrp">   -357.96826528 </i>
   <i name="e_0_energy">      0.02614189 </i>
  </energy>
  <time name="totalsc">   14.64   15.51</time>
 </calculation>
 <calculation>
  <scstep>
   <time name="dav">    1.05    1.09</time>
   <time name="total">    1.13    1.38</time>
   <energy>
    <i name="alphaZ">   1678.77679184 </i>
    <i name="ewald"> -23209.91196533 </i>
    <i name="hartreedc">  -7279.71609956 </i>
    <i name="XCdc">    105.54216126 </i>
    <i name="pawpsdc">  37609.37676355 </i>
    <i name="pawaedc"> -36139.35511804 </i>
    <i name="eentropy">      0.02549139 </i>
    <i name="bandstr">  -3167.98876290 </i>
    <i name="atom">  30045.25396203 </i>
    <i name="e_fr_energy">   -357.99677576 </i>
    <i name="e_wo_entrp">   -358.02226715 </i>
    <i name="e_0_energy">   -358.00527289 </i>
   </energy>
  </scstep>
  <scstep>
   <time name="diag">    0.09    0.09</time>
   <time name="diis">    0.75    0.76</time>
   <time name="orth">    0.01    0.01</time>
   <time name="total">    0.92    0.96</time>
   <energy>
    <i name="e_fr_energy">   -358.00315832 </i>
    <i name="e_wo_entrp">   -358.02807126 </i>
    <i name="e_0_energy">   -358.01146263 </i>
   </energy>
  </scstep>
  <scstep>
   <time name="diag">    0.09    0.09</time>
   <time name="diis">    0.87    0.88</time>
   <time name="orth">    0.01    0.01</time>
   <time name="total">    1.04    1.08</time>
   <energy>
    <i name="e_fr_energy">   -357.99703412 </i>
    <i name="e_wo_entrp">   -358.02247955 </i>
    <i name="e_0_energy">   -358.00551593 </i>
   </energy>
  </scstep>
  <scstep>
   <time name="diag">    0.09    0.09</time>
   <time name="diis">    0.90    0.91</time>
   <time name="orth">    0.01    0.01</time>
   <time name="total">    1.07    1.12</time>
   <energy>
    <i name="e_fr_energy">   -357.99535108 </i>
    <i name="e_wo_entrp">   -358.02065170 </i>
    <i name="e_0_energy">   -358.00378462 </i>
   </energy>
  </scstep>
  <scstep>
   <time name="diag">    0.09    0.09</time>
   <time name="diis">    0.92    0.93</time>
   <time name="orth">    0.01    0.01</time>
   <time name="total">    1.09    1.14</time>
   <energy>
    <i name="e_fr_energy">   -357.99492930 </i>
    <i name="e_wo_entrp">   -358.02018313 </i>
    <i name="e_0_energy">   -358.00334724 </i>
   </energy>
  </scstep>
  <scstep>
   <time name="diag">    0.09    0.09</time>
   <time name="diis">    0.85    0.85</time>
   <time name="orth">    0.01    0.01</time>
   <time name="total">    1.02    1.07</time>
   <energy>
    <i name="e_fr_energy">   -357.99491089 </i>
    <i name="e_wo_entrp">   -358.02013887 </i>
    <i name="e_0_energy">   -358.00332022 </i>
   </energy>
  </scstep>
  <scstep>
   <time name="diag">    0.09    0.09</time>
   <time name="diis">    0.79    0.81</time>
   <time name="orth">    0.01    0.02</time>
   <time name="total">    0.96    1.02</time>
   <energy>
    <i name="e_fr_energy">   -357.99492515 </i>
    <i name="e_wo_entrp">   -358.02021941 </i>
    <i name="e_0_energy">   -358.00335657 </i>
   </energy>
  </scstep>
  <scstep>
   <time name="diag">    0.09    0.09</time>
   <time name="diis">    0.78    0.78</time>
   <time name="orth">    0.01    0.01</time>
   <time name="total">    0.97    1.01</time>
   <energy>
    <i name="e_fr_energy">   -357.99495216 </i>
    <i name="e_wo_entrp">   -358.02015982 </i>
    <i name="e_0_energy">   -358.00335471 </i>
   </energy>
  </scstep>
  <scstep>
   <time name="diag">    0.09    0.09</time>
   <time name="diis">    0.56    0.56</time>
   <time name="orth">    0.01    0.01</time>
   <time name="total">    0.73    0.76</time>
   <energy>
    <i name="e_fr_energy">   -357.99496501 </i>
    <i name="e_wo_entrp">   -358.02023382 </i>
    <i name="e_0_energy">   -358.00338795 </i>
   </energy>
  </scstep>
  <scstep>
   <time name="diag">    0.09    0.09</time>
   <time name="diis">    0.51    0.51</time>
   <time name="orth">    0.01    0.01</time>
   <time name="total">    0.68    0.72</time>
   <energy>
    <i name="e_fr_energy">   -357.99497687 </i>
    <i name="e_wo_entrp">   -358.02022041 </i>
    <i name="e_0_energy">   -358.00339138 </i>
   </energy>
  </scstep>
  <scstep>
   <time name="diag">    0.09    0.09</time>
   <time name="diis">    0.38    0.39</time>
   <time name="orth">    0.03    0.03</time>
   <time name="total">    0.53    0.57</time>
   <energy>
    <i name="alphaZ">   1678.77679184 </i>
    <i name="ewald"> -23209.91196533 </i>
    <i name="hartreedc">  -7269.94827438 </i>
    <i name="XCdc">    105.11391215 </i>
    <i name="pawpsdc">  37673.01435908 </i>
    <i name="pawaedc"> -36203.03156128 </i>
    <i name="eentropy">      0.02525186 </i>
    <i name="bandstr">  -3177.28745777 </i>
    <i name="atom">  30045.25396203 </i>
    <i name="e_fr_energy">   -357.99498179 </i>
    <i name="e_wo_entrp">   -358.02023365 </i>
    <i name="e_0_energy">   -358.00339908 </i>
   </energy>
  </scstep>
  <structure>
   <crystal>
    <varray name="basis" >
     <v>       6.94850098       0.01133102       0.01388691 </v>
     <v>       0.01679665      10.28932222       0.00319474 </v>
     <v>       0.02102283       0.00287523      10.19833141 </v>
    </varray>
    <i name="volume">    729.12842508 </i>
    <varray name="rec_basis" >
     <v>       0.14391691      -0.00023484      -0.00029660 </v>
     <v>      -0.00015843       0.09718840      -0.00002707 </v>
     <v>      -0.00019592      -0.00003013       0.09805567 </v>
    </varray>
   </crystal>
   <varray name="positions" >
    <v>       0.51253271       0.67330049       0.98821435 </v>
    <v>       0.26359111       0.18175261       0.17319797 </v>
    <v>       0.02988645       0.00288527       0.32365054 </v>
    <v>       0.02122384       0.98865765       0.67781397 </v>
    <v>       0.51424901       0.34555733       0.34089612 </v>
    <v>       0.76243322       0.49670460       0.50035968 </v>
    <v>       0.48951426       0.33485332       0.65919890 </v>
    <v>       0.51740638       0.65645049       0.34781748 </v>
    <v>       0.25381823       0.17550857       0.82822671 </v>
    <v>       0.74760128       0.16976623       0.82717232 </v>
    <v>       0.01520967      -0.00074773       0.99996450 </v>
    <v>       0.22807862       0.17857482       0.50109841 </v>
    <v>       0.26136209       0.50418921       0.17083860 </v>
    <v>       0.48783957       0.99124122       0.99168950 </v>
    <v>       0.73923942       0.16348083       0.17098025 </v>
    <v>       0.47431310       0.99898197       0.34644866 </v>
    <v>       0.73809756       0.49263057       0.82562465 </v>
    <v>       0.49230988       0.67336553       0.66078934 </v>
    <v>       0.25989618       0.49427417       0.83042672 </v>
    <v>       0.98328279       0.33833826       0.31561113 </v>
    <v>       0.00940542       0.34139356       0.68008281 </v>
    <v>       0.98077289       0.65933706       0.33333920 </v>
    <v>       0.22016942       0.82710993       0.49739812 </v>
    <v>       0.24512508       0.82569140       0.83289797 </v>
    <v>       0.48773780       0.33304040       0.00131149 </v>
    <v>       0.73864408       0.50327114       0.17171245 </v>
    <v>       0.75954668       0.83232900       0.82276268 </v>
    <v>       0.00601884       0.67236313       0.67546501 </v>
    <v>       0.00739540       0.33748897       0.00525353 </v>
    <v>       0.98941693       0.65967422       0.99098881 </v>
    <v>       0.25805806       0.81148637       0.17225982 </v>
    <v>       0.76802099       0.17166727       0.50320459 </v>
    <v>       0.48465520       0.99426357       0.66376818 </v>
    <v>       0.74832239       0.83266000       0.17566656 </v>
    <v>       0.77523594       0.83962191       0.49698350 </v>
    <v>       0.22959855       0.49883865       0.49688047 </v>
   </varray>
  </structure>
  <varray name="forces" >
   <v>       0.00750099       0.00401699      -0.01938002 </v>
   <v>       0.00473395       0.03431819       0.03935263 </v>
   <v>      -0.00969243       0.00570405      -0.01379807 </v>
   <v>      -0.10694269      -0.25567212      -0.09666332 </v>
   <v>       0.01382135      -0.01006892       0.03420047 </v>
   <v>       0.00516987      -0.00815957       0.01215607 </v>
   <v>       0.16335855       0.24429596      -0.31430239 </v>
   <v>       0.04535442      -0.02012874      -0.01508572 </v>
   <v>       0.02107384      -0.00685534       0.08612340 </v>
   <v>       0.01014138       0.02529228      -0.03184731 </v>
   <v>      -0.08975205      -0.12667299       0.12915300 </v>
   <v>       0.00616477       0.02281689      -0.02992471 </v>
   <v>       0.01700895       0.01908737       0.03420605 </v>
   <v>       0.09938859      -0.20246838       0.06882602 </v>
   <v>      -0.01259400       0.01854751      -0.00752007 </v>
   <v>      -0.00269098      -0.00148018      -0.00690636 </v>
   <v>      -0.00899045      -0.00008449      -0.01292227 </v>
   <v>      -0.00049028      -0.02097154       0.01457651 </v>
   <v>      -0.00560504       0.02349382      -0.03245023 </v>
   <v>      -0.01293514      -0.00387038       0.00587078 </v>
   <v>      -0.16392837       0.27417246      -0.14315406 </v>
   <v>      -0.05050086      -0.01151356       0.00409753 </v>
   <v>      -0.00780506      -0.02008472      -0.01264721 </v>
   <v>      -0.01931669      -0.02725094      -0.02931777 </v>
   <v>       0.14036312       0.18750672       0.23136570 </v>
   <v>      -0.02601007       0.00279921       0.01181126 </v>
   <v>       0.02149475      -0.03103580      -0.02029834 </v>
   <v>      -0.01014669       0.00610074       0.01326133 </v>
   <v>      -0.11867939       0.12372619       0.15412469 </v>
   <v>      -0.00956656       0.00706126      -0.00610754 </v>
   <v>       0.00445455      -0.03490048       0.03828318 </v>
   <v>       0.03829168       0.01071447       0.02962367 </v>
   <v>       0.05783313      -0.17804945      -0.11091874 </v>
   <v>      -0.01231030      -0.05103695       0.04845661 </v>
   <v>       0.01424325      -0.01638930      -0.02662307 </v>
   <v>      -0.00244006       0.01703973      -0.02562171 </v>
  </varray>
  <varray name="stress" >
   <v>      -7.21372392       0.01460241      -0.16150884 </v>
   <v>       0.01460243      -5.56395571       0.04003102 </v>
   <v>      -0.16150885       0.04003099      -7.12047802 </v>
  </varray>
  <energy>
   <i name="e_fr_energy">   -357.99498179 </i>
   <i name="e_wo_entrp">   -358.00339908 </i>
   <i name="e_0_energy">      0.02525186 </i>
  </energy>
  <time name="totalsc">   11.84   12.67</time>
 </calculation>
 <calculation>
  <scstep>
   <time name="dav">    1.10    1.11</time>
   <time name="total">    1.19    1.40</time>
   <energy>
    <i name="alphaZ">   1688.28823631 </i>
    <i name="ewald"> -23274.11251663 </i>
    <i name="hartreedc">  -7263.88100205 </i>
    <i name="XCdc">    107.01900893 </i>
    <i name="pawpsdc">  37673.36915560 </i>
    <i name="pawaedc"> -36203.35475768 </i>
    <i name="eentropy">      0.02260032 </i>
    <i name="bandstr">  -3130.67504626 </i>
    <i name="atom">  30045.25396203 </i>
    <i name="e_fr_energy">   -358.07035944 </i>
    <i name="e_wo_entrp">   -358.09295975 </i>
    <i name="e_0_energy">   -358.07789287 </i>
   </energy>
  </scstep>
  <scstep>
   <time name="diag">    0.09    0.09</time>
   <time name="diis">    0.77    0.77</time>
   <time name="orth">    0.01    0.01</time>
   <time name="total">    0.95    0.98</time>
   <energy>
    <i name="e_fr_energy">   -358.13248694 </i>
    <i name="e_wo_entrp">   -358.15316314 </i>
    <i name="e_0_energy">   -358.13937901 </i>
   </energy>
  </scstep>
  <scstep>
   <time name="diag">    0.09    0.09</time>
   <time name="diis">    0.75    0.84</time>
   <time name="orth">    0.01    0.02</time>
   <time name="total">    0.98    1.11</time>
   <energy>
    <i name="e_fr_energy">   -358.07042766 </i>
    <i name="e_wo_entrp">   -358.09233519 </i>
    <i name="e_0_energy">   -358.07773017 </i>
   </energy>
  </scstep>
  <scstep>
   <time name="diag">    0.09    0.10</time>
   <time name="diis">    0.78    0.89</time>
   <time name="orth">    0.02    0.02</time>
   <time name="total">    0.96    1.12</time>
   <energy>
    <i name="e_fr_energy">   -358.05597758 </i>
    <i name="e_wo_entrp">   -358.07784622 </i>
    <i name="e_0_energy">   -358.06326713 </i>
   </energy>
  </scstep>
  <scstep>
   <time name="diag">    0.11    0.12</time>
   <time name="diis">    0.81    0.85</time>
   <time name="orth">    0.01    0.01</time>
   <time name="total">    1.00    1.09</time>
   <energy>
    <i name="e_fr_energy">   -358.05215375 </i>
    <i name="e_wo_entrp">   -358.07373691 </i>
    <i name="e_0_energy">   -358.05934814 </i>
   </energy>
  </scstep>
  <scstep>
   <time name="diag">    0.09    0.09</time>
   <time name="diis">    0.84    0.85</time>
   <time name="orth">    0.01    0.01</time>
   <time name="total">    1.01    1.06</time>
   <energy>
    <i name="e_fr_energy">   -358.05205037 </i>
    <i name="e_wo_entrp">   -358.07355859 </i>
    <i name="e_0_energy">   -358.05921978 </i>
   </energy>
  </scstep>
  <scstep>
   <time name="diag">    0.09    0.09</time>
   <time name="diis">    0.93    0.94</time>
   <time name="orth">    0.01    0.01</time>
   <time name="total">    1.11    1.15</time>
   <energy>
    <i name="e_fr_energy">   -358.05209531 </i>
    <i name="e_wo_entrp">   -358.07381307 </i>
    <i name="e_0_energy">   -358.05933456 </i>
   </energy>
  </scstep>
  <scstep>
   <time name="diag">    0.09    0.09</time>
   <time name="diis">    0.95    0.95</time>
   <time name="orth">    0.01    0.02</time>
   <time name="total">    1.14    1.19</time>
   <energy>
    <i name="e_fr_energy">   -358.05230309 </i>
    <i name="e_wo_entrp">   -358.07377816 </i>
    <i name="e_0_energy">   -358.05946145 </i>
   </energy>
  </scstep>
  <scstep>
   <time name="diag">    0.09    0.09</time>
   <time name="diis">    0.83    0.84</time>
   <time name="orth">    0.01    0.01</time>
   <time name="total">    1.00    1.05</time>
   <energy>
    <i name="e_fr_energy">   -358.05237104 </i>
    <i name="e_wo_entrp">   -358.07401791 </i>
    <i name="e_0_energy">   -358.05958666 </i>
   </energy>
  </scstep>
  <scstep>
   <time name="diag">    0.09    0.09</time>
   <time name="diis">    0.83    0.84</time>
   <time name="orth">    0.01    0.01</time>
   <time name="total">    1.05    1.09</time>
   <energy>
    <i name="e_fr_energy">   -358.05244666 </i>
    <i name="e_wo_entrp">   -358.07401267 </i>
    <i name="e_0_energy">   -358.05963533 </i>
   </energy>
  </scstep>
  <scstep>
   <time name="diag">    0.09    0.09</time>
   <time name="diis">    0.67    0.68</time>
   <time name="orth">    0.01    0.01</time>
   <time name="total">    0.84    0.88</time>
   <energy>
    <i name="e_fr_energy">   -358.05247140 </i>
    <i name="e_wo_entrp">   -358.07406907 </i>
    <i name="e_0_energy">   -358.05967062 </i>
   </energy>
  </scstep>
  <scstep>
   <time name="diag">    0.09    0.09</time>
   <time name="diis">    0.56    0.56</time>
   <time name="orth">    0.01    0.01</time>
   <time name="total">    0.69    0.73</time>
   <energy>
    <i name="alphaZ">   1688.28823631 </i>
    <i name="ewald"> -23274.11251663 </i>
    <i name="hartreedc">  -7235.18626604 </i>
    <i name="XCdc">    105.75564992 </i>
    <i name="pawpsdc">  37886.91807172 </i>
    <i name="pawaedc"> -36416.52036850 </i>
    <i name="eentropy">      0.02158469 </i>
    <i name="bandstr">  -3158.47083399 </i>
    <i name="atom">  30045.25396203 </i>
    <i name="e_fr_energy">   -358.05248049 </i>
    <i name="e_wo_entrp">   -358.07406518 </i>
    <i name="e_0_energy">   -358.05967538 </i>
   </energy>
  </scstep>
  <structure>
   <crystal>
    <varray name="basis" >
     <v>       6.93207622       0.01382938       0.01315590 </v>
     <v>       0.02047181      10.28005709       0.00293345 </v>
     <v>       0.01995014       0.00263046      10.17407439 </v>
    </varray>
    <i name="volume">    725.02067595 </i>
    <varray name="rec_basis" >
     <v>       0.14425803      -0.00028720      -0.00028280 </v>
     <v>      -0.00019402       0.09727612      -0.00002477 </v>
     <v>      -0.00018648      -0.00002768       0.09828941 </v>
    </varray>
   </crystal>
   <varray name="positions" >
    <v>       0.51269108       0.67342356       0.98814007 </v>
    <v>       0.26361412       0.18186585       0.17366680 </v>
    <v>       0.02977987       0.00287660       0.32353543 </v>
    <v>       0.01928545       0.98583840       0.67647835 </v>
    <v>       0.51443492       0.34570801       0.34106367 </v>
    <v>       0.76250523       0.49649656       0.50051777 </v>
    <v>       0.49232368       0.33724357       0.65638292 </v>
    <v>       0.51772567       0.65634844       0.34773552 </v>
    <v>       0.25384904       0.17510347       0.82943924 </v>
    <v>       0.74773327       0.16984606       0.82705755 </v>
    <v>       0.01368231      -0.00208513       0.00135909 </v>
    <v>       0.22820385       0.17854801       0.50041059 </v>
    <v>       0.26162505       0.50413572       0.17093474 </v>
    <v>       0.48941469       0.98936412       0.99272036 </v>
    <v>       0.73919327       0.16357436       0.17079423 </v>
    <v>       0.47425375       0.99888420       0.34647563 </v>
    <v>       0.73800726       0.49243708       0.82545482 </v>
    <v>       0.49237354       0.67327174       0.66082143 </v>
    <v>       0.25979423       0.49466450       0.83033700 </v>
    <v>       0.98300430       0.33847181       0.31566370 </v>
    <v>       0.00677846       0.34406389       0.67859970 </v>
    <v>       0.98034154       0.65927344       0.33339399 </v>
    <v>       0.21994572       0.82713269       0.49746946 </v>
    <v>       0.24494308       0.82536154       0.83275061 </v>
    <v>       0.48983840       0.33487263       0.00346057 </v>
    <v>       0.73850896       0.50315783       0.17167680 </v>
    <v>       0.75986538       0.83234282       0.82262789 </v>
    <v>       0.00583396       0.67247322       0.67541893 </v>
    <v>       0.00562154       0.33890892       0.00681335 </v>
    <v>       0.98926770       0.65970849       0.99094064 </v>
    <v>       0.25817640       0.81148124       0.17236741 </v>
    <v>       0.76835413       0.17172619       0.50356178 </v>
    <v>       0.48593806       0.99244594       0.66229585 </v>
    <v>       0.74816116       0.83246315       0.17573214 </v>
    <v>       0.77543323       0.83971512       0.49708759 </v>
    <v>       0.22950670       0.49885794       0.49680941 </v>
   </varray>
  </structure>
  <varray name="forces" >
   <v>      -0.01538052      -0.04075360      -0.01771748 </v>
   <v>       0.00078368       0.03149386      -0.01625101 </v>
   <v>      -0.05235889       0.02571579      -0.01021696 </v>
   <v>      -0.01144745       0.01879821       0.03174767 </v>
   <v>      -0.02812171      -0.09632192       0.04406602 </v>
   <v>      -0.00053352       0.05028747       0.02826688 </v>
   <v>       0.04036989       0.10130789      -0.21139526 </v>
   <v>       0.03591973       0.01467309      -0.02059856 </v>
   <v>       0.04458516       0.03167918       0.00673530 </v>
   <v>       0.00776453       0.01881600      -0.02626052 </v>
   <v>      -0.01913957      -0.02420823       0.03335265 </v>
   <v>       0.01348223       0.03993583       0.06138133 </v>
   <v>      -0.01752570       0.07411056       0.04804619 </v>
   <v>       0.03458724      -0.08655247      -0.04032572 </v>
   <v>      -0.01725094       0.00317929       0.00446848 </v>
   <v>       0.04153416       0.02316654      -0.02153543 </v>
   <v>      -0.00203315       0.04727256       0.01569547 </v>
   <v>      -0.00447435      -0.03578534       0.02152716 </v>
   <v>      -0.00996776       0.02074906      -0.03824970 </v>
   <v>       0.03414073      -0.05965384       0.02780661 </v>
   <v>      -0.06121190       0.11608692      -0.07050311 </v>
   <v>      -0.03326554      -0.00478403      -0.01929333 </v>
   <v>       0.06440642      -0.06649924      -0.05424189 </v>
   <v>      -0.00130075      -0.00359493      -0.02363990 </v>
   <v>       0.08636475       0.08614022       0.11555241 </v>
   <v>      -0.02763880       0.03262642      -0.00305851 </v>
   <v>      -0.01876310      -0.06936326      -0.00010476 </v>
   <v>      -0.00967061      -0.05168226       0.02909596 </v>
   <v>      -0.06761399       0.00378381       0.05200491 </v>
   <v>       0.00854186       0.00974073       0.01589275 </v>
   <v>      -0.01389299      -0.07287178       0.06401116 </v>
   <v>       0.03235497      -0.01017003       0.00063110 </v>
   <v>      -0.01311163      -0.04739562       0.02583091 </v>
   <v>       0.00127949      -0.07041820       0.09224351 </v>
   <v>      -0.03899414      -0.06400332      -0.09809700 </v>
   <v>       0.01758216       0.05449464      -0.04686733 </v>
  </varray>
  <varray name="stress" >
   <v>       0.51558889      -0.52636143      -0.35865677 </v>
   <v>      -0.52636148       2.26881967       0.03230259 </v>
   <v>      -0.35865678       0.03230260       1.07366855 </v>
  </varray>
  <energy>
   <i name="e_fr_energy">   -358.05248049 </i>
   <i name="e_wo_entrp">   -358.05967538 </i>
   <i name="e_0_energy">      0.02158469 </i>
  </energy>
  <time name="totalsc">   13.65   14.72</time>
 </calculation>
 <calculation>
  <scstep>
   <time name="dav">    1.07    1.07</time>
   <time name="total">    1.14    1.32</time>
   <energy>
    <i name="alphaZ">   1690.96483245 </i>
    <i name="ewald"> -23291.51265589 </i>
    <i name="hartreedc">  -7234.06800118 </i>
    <i name="XCdc">    106.29432631 </i>
    <i name="pawpsdc">  37887.39086233 </i>
    <i name="pawaedc"> -36416.96051823 </i>
    <i name="eentropy">      0.02062200 </i>
    <i name="bandstr">  -3145.43996329 </i>
    <i name="atom">  30045.25396203 </i>
    <i name="e_fr_energy">   -358.05653348 </i>
    <i name="e_wo_entrp">   -358.07715547 </i>
    <i name="e_0_energy">   -358.06340747 </i>
   </energy>
  </scstep>
  <scstep>
[...]
       <r>    7.4834    1.0000 </r>
       <r>    7.5315    1.0001 </r>
       <r>    7.5511    1.0002 </r>
       <r>    7.5806    1.0006 </r>
       <r>    7.6284    1.0023 </r>
       <r>    7.6562    1.0048 </r>
       <r>    7.6962    1.0114 </r>
       <r>    7.7235    1.0184 </r>
       <r>    7.7560    1.0283 </r>
       <r>    7.7936    1.0354 </r>
       <r>    7.8230    1.0287 </r>
       <r>    7.8374    1.0182 </r>
       <r>    7.8780    0.9499 </r>
       <r>    7.9249    0.7837 </r>
       <r>    7.9514    0.6520 </r>
       <r>    7.9962    0.4028 </r>
       <r>    8.0303    0.2278 </r>
       <r>    8.0674    0.0844 </r>
       <r>    8.0962    0.0146 </r>
       <r>    8.1370   -0.0299 </r>
       <r>    8.1613   -0.0354 </r>
       <r>    8.1746   -0.0346 </r>
       <r>    8.2333   -0.0187 </r>
       <r>    8.2696   -0.0097 </r>
       <r>    8.2944   -0.0056 </r>
       <r>    8.3471   -0.0014 </r>
       <r>    8.3665   -0.0008 </r>
       <r>    8.3891   -0.0004 </r>
       <r>    8.4040   -0.0002 </r>
       <r>    8.4316   -0.0001 </r>
       <r>    8.5083   -0.0000 </r>
       <r>    8.5654   -0.0000 </r>
       <r>    8.6260   -0.0000 </r>
       <r>    8.6857   -0.0000 </r>
       <r>    8.7696   -0.0000 </r>
       <r>    8.8651   -0.0000 </r>
       <r>    8.8939   -0.0000 </r>
       <r>    9.0885   -0.0000 </r>
       <r>    9.2106   -0.0000 </r>
       <r>    9.2545   -0.0000 </r>
       <r>    9.8261   -0.0000 </r>
       <r>    9.9118   -0.0000 </r>
       <r>    9.9567   -0.0000 </r>
       <r>   10.0386   -0.0000 </r>
       <r>   10.0641   -0.0000 </r>
       <r>   10.1495   -0.0000 </r>
       <r>   10.1800   -0.0000 </r>
       <r>   10.2666   -0.0000 </r>
       <r>   10.3130   -0.0000 </r>
      </set>
     </set>
    </set>
   </array>
  </eigenvalues>
  <separator name="orbital magnetization" >
   <v name="MAGDIPOLOUT">      0.00000000      0.00000000      0.00000000</v>
  </separator>
  <dos>
   <i name="efermi">      7.97885670 </i>
   <total>
    <array>
     <dimension dim="1">gridpoints</dimension>
     <dimension dim="2">spin</dimension>
     <field>energy</field>
     <field>total</field>
     <field>integrated</field>
     <set>
      <set comment="spin 1">
       <r>   -49.1490     0.0000     0.0000 </r>
       <r>   -48.9413     0.0000     0.0000 </r>
       <r>   -48.7335     0.0000     0.0000 </r>
       <r>   -48.5257     0.0000     0.0000 </r>
       <r>   -48.3179     0.0000     0.0000 </r>
       <r>   -48.1102     0.0000     0.0000 </r>
       <r>   -47.9024     0.0000     0.0000 </r>
       <r>   -47.6946    -0.0000    -0.0000 </r>
       <r>   -47.4869    -0.0000    -0.0000 </r>
       <r>   -47.2791    -0.0000    -0.0000 </r>
       <r>   -47.0713    -0.0000    -0.0000 </r>
       <r>   -46.8635    -0.0000    -0.0000 </r>
       <r>   -46.6558    -0.0520    -0.0108 </r>
       <r>   -46.4480    -1.4907    -0.3205 </r>
       <r>   -46.2402    32.8758     6.5102 </r>
       <r>   -46.0324    56.0450    18.1547 </r>
       <r>   -45.8247     9.4809    20.1246 </r>
       <r>   -45.6169    -0.5846    20.0031 </r>
       <r>   -45.4091    -0.0152    20.0000 </r>
       <r>   -45.2014    -0.0000    20.0000 </r>
       <r>   -44.9936    -0.0000    20.0000 </r>
       <r>   -44.7858     0.0000    20.0000 </r>
       <r>   -44.5780     0.0000    20.0000 </r>
       <r>   -44.3703     0.0000    20.0000 </r>
       <r>   -44.1625     0.0000    20.0000 </r>
       <r>   -43.9547     0.0000    20.0000 </r>
       <r>   -43.7470     0.0000    20.0000 </r>
       <r>   -43.5392     0.0000    20.0000 </r>
       <r>   -43.3314     0.0000    20.0000 </r>
       <r>   -43.1236     0.0000    20.0000 </r>
       <r>   -42.9159     0.0000    20.0000 </r>
       <r>   -42.7081     0.0000    20.0000 </r>
       <r>   -42.5003     0.0000    20.0000 </r>
       <r>   -42.2926     0.0000    20.0000 </r>
       <r>   -42.0848     0.0000    20.0000 </r>
       <r>   -41.8770     0.0000    20.0000 </r>
       <r>   -41.6692    -0.0000    20.0000 </r>
       <r>   -41.4615    -0.0000    20.0000 </r>
       <r>   -41.2537    -0.0000    20.0000 </r>
       <r>   -41.0459    -0.0000    20.0000 </r>
       <r>   -40.8381    -0.0000    20.0000 </r>
       <r>   -40.6304    -0.0244    19.9949 </r>
       <r>   -40.4226    -1.5259    19.6779 </r>
       <r>   -40.2148    25.8599    25.0508 </r>
       <r>   -40.0071    65.6869    38.6987 </r>
       <r>   -39.7993     6.9252    40.1376 </r>
       <r>   -39.5915    -0.6598    40.0005 </r>
       <r>   -39.3837    -0.0024    40.0000 </r>
       <r>   -39.1760    -0.0000    40.0000 </r>
       <r>   -38.9682    -0.0000    40.0000 </r>
       <r>   -38.7604     0.0000    40.0000 </r>
       <r>   -38.5527     0.0000    40.0000 </r>
       <r>   -38.3449     0.0000    40.0000 </r>
       <r>   -38.1371     0.0000    40.0000 </r>
       <r>   -37.9293     0.0000    40.0000 </r>
       <r>   -37.7216     0.0000    40.0000 </r>
       <r>   -37.5138     0.0000    40.0000 </r>
       <r>   -37.3060     0.0000    40.0000 </r>
       <r>   -37.0982     0.0000    40.0000 </r>
       <r>   -36.8905     0.0000    40.0000 </r>
       <r>   -36.6827     0.0000    40.0000 </r>
       <r>   -36.4749     0.0000    40.0000 </r>
       <r>   -36.2672     0.0000    40.0000 </r>
       <r>   -36.0594     0.0000    40.0000 </r>
       <r>   -35.8516     0.0000    40.0000 </r>
       <r>   -35.6438     0.0000    40.0000 </r>
       <r>   -35.4361     0.0000    40.0000 </r>
       <r>   -35.2283     0.0000    40.0000 </r>
       <r>   -35.0205     0.0000    40.0000 </r>
       <r>   -34.8128     0.0000    40.0000 </r>
       <r>   -34.6050     0.0000    40.0000 </r>
       <r>   -34.3972     0.0000    40.0000 </r>
       <r>   -34.1894     0.0000    40.0000 </r>
       <r>   -33.9817     0.0000    40.0000 </r>
       <r>   -33.7739     0.0000    40.0000 </r>
       <r>   -33.5661     0.0000    40.0000 </r>
       <r>   -33.3584     0.0000    40.0000 </r>
       <r>   -33.1506     0.0000    40.0000 </r>
       <r>   -32.9428     0.0000    40.0000 </r>
       <r>   -32.7350     0.0000    40.0000 </r>
       <r>   -32.5273     0.0000    40.0000 </r>
       <r>   -32.3195     0.0000    40.0000 </r>
       <r>   -32.1117     0.0000    40.0000 </r>
       <r>   -31.9039     0.0000    40.0000 </r>
       <r>   -31.6962     0.0000    40.0000 </r>
       <r>   -31.4884     0.0000    40.0000 </r>
       <r>   -31.2806     0.0000    40.0000 </r>
       <r>   -31.0729     0.0000    40.0000 </r>
       <r>   -30.8651     0.0000    40.0000 </r>
       <r>   -30.6573     0.0000    40.0000 </r>
       <r>   -30.4495     0.0000    40.0000 </r>
       <r>   -30.2418     0.0000    40.0000 </r>
       <r>   -30.0340     0.0000    40.0000 </r>
       <r>   -29.8262     0.0000    40.0000 </r>
       <r>   -29.6185     0.0000    40.0000 </r>
       <r>   -29.4107     0.0000    40.0000 </r>
       <r>   -29.2029     0.0000    40.0000 </r>
       <r>   -28.9951     0.0000    40.0000 </r>
       <r>   -28.7874     0.0000    40.0000 </r>
       <r>   -28.5796     0.0000    40.0000 </r>
       <r>   -28.3718     0.0000    40.0000 </r>
       <r>   -28.1641     0.0000    40.0000 </r>
       <r>   -27.9563     0.0000    40.0000 </r>
       <r>   -27.7485     0.0000    40.0000 </r>
       <r>   -27.5407     0.0000    40.0000 </r>
       <r>   -27.3330     0.0000    40.0000 </r>
       <r>   -27.1252     0.0000    40.0000 </r>
       <r>   -26.9174     0.0000    40.0000 </r>
       <r>   -26.7096     0.0000    40.0000 </r>
       <r>   -26.5019     0.0000    40.0000 </r>
       <r>   -26.2941     0.0000    40.0000 </r>
       <r>   -26.0863     0.0000    40.0000 </r>
       <r>   -25.8786     0.0000    40.0000 </r>
       <r>   -25.6708     0.0000    40.0000 </r>
       <r>   -25.4630     0.0000    40.0000 </r>
       <r>   -25.2552     0.0000    40.0000 </r>
       <r>   -25.0475     0.0000    40.0000 </r>
       <r>   -24.8397     0.0000    40.0000 </r>
       <r>   -24.6319     0.0000    40.0000 </r>
       <r>   -24.4242     0.0000    40.0000 </r>
       <r>   -24.2164     0.0000    40.0000 </r>
       <r>   -24.0086    -0.0000    40.0000 </r>
       <r>   -23.8008    -0.0000    40.0000 </r>
       <r>   -23.5931    -0.0000    40.0000 </r>
       <r>   -23.3853    -0.0000    40.0000 </r>
       <r>   -23.1775    -0.0006    39.9999 </r>
       <r>   -22.9698    -0.3286    39.9316 </r>
       <r>   -22.7620     2.4886    40.4487 </r>
       <r>   -22.5542    44.1748    49.6269 </r>
       <r>   -22.3464    76.2371    65.4669 </r>
       <r>   -22.1387   105.1902    87.3225 </r>
       <r>   -21.9309    52.5619    98.2434 </r>
       <r>   -21.7231     9.2166   100.1583 </r>
       <r>   -21.5153    -0.7581   100.0008 </r>
       <r>   -21.3076    -0.0039   100.0000 </r>
       <r>   -21.0998    -0.0000   100.0000 </r>
       <r>   -20.8920    -0.0000   100.0000 </r>
       <r>   -20.6843     0.0000   100.0000 </r>
       <r>   -20.4765     0.0000   100.0000 </r>
       <r>   -20.2687     0.0000   100.0000 </r>
       <r>   -20.0609     0.0000   100.0000 </r>
       <r>   -19.8532    -0.0000   100.0000 </r>
       <r>   -19.6454    -0.0000   100.0000 </r>
       <r>   -19.4376    -0.0000   100.0000 </r>
       <r>   -19.2299    -0.0000   100.0000 </r>
       <r>   -19.0221    -0.0054    99.9989 </r>
       <r>   -18.8143    -0.8752    99.8170 </r>
       <r>   -18.6065    11.2500   102.1545 </r>
       <r>   -18.3988    56.8062   113.9572 </r>
       <r>   -18.1910    99.8139   134.6957 </r>
       <r>   -17.9832   113.3682   158.2505 </r>
       <r>   -17.7755     9.4217   160.2080 </r>
       <r>   -17.5677    -0.9970   160.0009 </r>
       <r>   -17.3599    -0.0043   160.0000 </r>
       <r>   -17.1521    -0.0000   160.0000 </r>
       <r>   -16.9444    -0.0000   160.0000 </r>
       <r>   -16.7366     0.0000   160.0000 </r>
       <r>   -16.5288     0.0000   160.0000 </r>
       <r>   -16.3210     0.0000   160.0000 </r>
       <r>   -16.1133     0.0000   160.0000 </r>
       <r>   -15.9055     0.0000   160.0000 </r>
       <r>   -15.6977     0.0000   160.0000 </r>
       <r>   -15.4900     0.0000   160.0000 </r>
       <r>   -15.2822     0.0000   160.0000 </r>
       <r>   -15.0744     0.0000   160.0000 </r>
       <r>   -14.8666     0.0000   160.0000 </r>
       <r>   -14.6589     0.0000   160.0000 </r>
       <r>   -14.4511     0.0000   160.0000 </r>
       <r>   -14.2433     0.0000   160.0000 </r>
       <r>   -14.0356     0.0000   160.0000 </r>
       <r>   -13.8278     0.0000   160.0000 </r>
       <r>   -13.6200     0.0000   160.0000 </r>
       <r>   -13.4122     0.0000   160.0000 </r>
       <r>   -13.2045     0.0000   160.0000 </r>
       <r>   -12.9967     0.0000   160.0000 </r>
       <r>   -12.7889     0.0000   160.0000 </r>
       <r>   -12.5811     0.0000   160.0000 </r>
       <r>   -12.3734     0.0000   160.0000 </r>
       <r>   -12.1656     0.0000   160.0000 </r>
       <r>   -11.9578     0.0000   160.0000 </r>
       <r>   -11.7501     0.0000   160.0000 </r>
       <r>   -11.5423     0.0000   160.0000 </r>
       <r>   -11.3345     0.0000   160.0000 </r>
       <r>   -11.1267     0.0000   160.0000 </r>
       <r>   -10.9190     0.0000   160.0000 </r>
       <r>   -10.7112     0.0000   160.0000 </r>
       <r>   -10.5034     0.0000   160.0000 </r>
       <r>   -10.2957     0.0000   160.0000 </r>
       <r>   -10.0879     0.0000   160.0000 </r>
       <r>    -9.8801     0.0000   160.0000 </r>
       <r>    -9.6723     0.0000   160.0000 </r>
       <r>    -9.4646     0.0000   160.0000 </r>
       <r>    -9.2568     0.0000   160.0000 </r>
       <r>    -9.0490     0.0000   160.0000 </r>
       <r>    -8.8413     0.0000   160.0000 </r>
       <r>    -8.6335     0.0000   160.0000 </r>
       <r>    -8.4257     0.0000   160.0000 </r>
       <r>    -8.2179     0.0000   160.0000 </r>
       <r>    -8.0102     0.0000   160.0000 </r>
       <r>    -7.8024     0.0000   160.0000 </r>
       <r>    -7.5946     0.0000   160.0000 </r>
       <r>    -7.3868     0.0000   160.0000 </r>
       <r>    -7.1791     0.0000   160.0000 </r>
       <r>    -6.9713     0.0000   160.0000 </r>
       <r>    -6.7635     0.0000   160.0000 </r>
       <r>    -6.5558     0.0000   160.0000 </r>
       <r>    -6.3480     0.0000   160.0000 </r>
       <r>    -6.1402     0.0000   160.0000 </r>
       <r>    -5.9324     0.0000   160.0000 </r>
       <r>    -5.7247     0.0000   160.0000 </r>
       <r>    -5.5169     0.0000   160.0000 </r>
       <r>    -5.3091     0.0000   160.0000 </r>
       <r>    -5.1014     0.0000   160.0000 </r>
       <r>    -4.8936     0.0000   160.0000 </r>
       <r>    -4.6858     0.0000   160.0000 </r>
       <r>    -4.4780     0.0000   160.0000 </r>
       <r>    -4.2703     0.0000   160.0000 </r>
       <r>    -4.0625     0.0000   160.0000 </r>
       <r>    -3.8547     0.0000   160.0000 </r>
       <r>    -3.6470     0.0000   160.0000 </r>
       <r>    -3.4392     0.0000   160.0000 </r>
       <r>    -3.2314     0.0000   160.0000 </r>
       <r>    -3.0236     0.0000   160.0000 </r>
       <r>    -2.8159     0.0000   160.0000 </r>
       <r>    -2.6081     0.0000   160.0000 </r>
       <r>    -2.4003     0.0000   160.0000 </r>
       <r>    -2.1925     0.0000   160.0000 </r>
       <r>    -1.9848     0.0000   160.0000 </r>
       <r>    -1.7770     0.0000   160.0000 </r>
       <r>    -1.5692     0.0000   160.0000 </r>
       <r>    -1.3615     0.0000   160.0000 </r>
       <r>    -1.1537     0.0000   160.0000 </r>
       <r>    -0.9459     0.0000   160.0000 </r>
       <r>    -0.7381     0.0000   160.0000 </r>
       <r>    -0.5304     0.0000   160.0000 </r>
       <r>    -0.3226     0.0000   160.0000 </r>
       <r>    -0.1148     0.0000   160.0000 </r>
       <r>     0.0929    -0.0000   160.0000 </r>
       <r>     0.3007    -0.0000   160.0000 </r>
       <r>     0.5085    -0.0000   160.0000 </r>
       <r>     0.7163    -0.0000   160.0000 </r>
       <r>     0.9240    -0.0000   160.0000 </r>
       <r>     1.1318    -0.0075   159.9984 </r>
       <r>     1.3396     0.0847   160.0160 </r>
       <r>     1.5473     0.5901   160.1387 </r>
       <r>     1.7551     1.4572   160.4414 </r>
       <r>     1.9629     1.7734   160.8099 </r>
       <r>     2.1707     2.8056   161.3928 </r>
       <r>     2.3784     4.3347   162.2934 </r>
       <r>     2.5862     2.0537   162.7201 </r>
       <r>     2.7940     4.2329   163.5996 </r>
       <r>     3.0018     3.6458   164.3571 </r>
       <r>     3.2095     4.5661   165.3058 </r>
       <r>     3.4173     6.0353   166.5598 </r>
       <r>     3.6251     7.4764   168.1132 </r>
       <r>     3.8328     8.4414   169.8671 </r>
       <r>     4.0406     8.7951   171.6944 </r>
       <r>     4.2484    11.2231   174.0263 </r>
       <r>     4.4562    17.0680   177.5725 </r>
       <r>     4.6639    19.7952   181.6854 </r>
       <r>     4.8717    23.8885   186.6488 </r>
       <r>     5.0795    31.2170   193.1348 </r>
       <r>     5.2872    33.9724   200.1933 </r>
       <r>     5.4950    42.0275   208.9255 </r>
       <r>     5.7028    41.9564   217.6429 </r>
       <r>     5.9106    37.5369   225.4420 </r>
       <r>     6.1183    33.8456   232.4741 </r>
       <r>     6.3261    30.9909   238.9132 </r>
       <r>     6.5339    17.6040   242.5708 </r>
       <r>     6.7416    50.7462   253.1144 </r>
       <r>     6.9494    62.7977   266.1621 </r>
       <r>     7.1572    56.7186   277.9466 </r>
       <r>     7.3650    54.2605   289.2204 </r>
       <r>     7.5727    52.7571   300.1819 </r>
       <r>     7.7805    55.9998   311.8170 </r>
       <r>     7.9883    51.1272   322.4398 </r>
       <r>     8.1961    49.8359   332.7943 </r>
       <r>     8.4038    53.3564   343.8803 </r>
       <r>     8.6116    43.1367   352.8429 </r>
       <r>     8.8194    29.5974   358.9924 </r>
       <r>     9.0271    26.1735   364.4305 </r>
       <r>     9.2349    20.0887   368.6044 </r>
       <r>     9.4427    13.2669   371.3609 </r>
       <r>     9.6505    16.0672   374.6992 </r>
       <r>     9.8582    27.5398   380.4212 </r>
       <r>    10.0660    29.8163   386.6162 </r>
       <r>    10.2738    20.3002   390.8340 </r>
       <r>    10.4815     5.9733   392.0751 </r>
       <r>    10.6893    -0.3543   392.0015 </r>
       <r>    10.8971    -0.0072   392.0000 </r>
       <r>    11.1049    -0.0000   392.0000 </r>
       <r>    11.3126    -0.0000   392.0000 </r>
       <r>    11.5204     0.0000   392.0000 </r>
       <r>    11.7282     0.0000   392.0000 </r>
       <r>    11.9360     0.0000   392.0000 </r>
       <r>    12.1437     0.0000   392.0000 </r>
       <r>    12.3515     0.0000   392.0000 </r>
       <r>    12.5593     0.0000   392.0000 </r>
       <r>    12.7670     0.0000   392.0000 </r>
       <r>    12.9748     0.0000   392.0000 </r>
       <r>    13.1826     0.0000   392.0000 </r>
      </set>
     </set>
    </array>
   </total>
  </dos>
 </calculation>
 <structure name="finalpos" >
  <crystal>
   <varray name="basis" >
    <v>       6.92089803      -0.00331376       0.00851121 </v>
    <v>      -0.00517304      10.32961221       0.00350272 </v>
    <v>       0.01311374       0.00319835      10.15889017 </v>
   </varray>
   <i name="volume">    726.25961198 </i>
   <varray name="rec_basis" >
    <v>       0.14449018       0.00007242      -0.00018654 </v>
    <v>       0.00004639       0.09680909      -0.00003054 </v>
    <v>      -0.00012107      -0.00003344       0.09843612 </v>
   </varray>
  </crystal>
  <varray name="positions" >
   <v>       0.50127303       0.66959854       0.98780369 </v>
   <v>       0.26122431       0.18045959       0.17121728 </v>
   <v>       0.02877503       0.00407790       0.32416358 </v>
   <v>       0.01972007       0.98493567       0.68087429 </v>
   <v>       0.50948766       0.33819210       0.34392829 </v>
   <v>       0.76405508       0.49850461       0.49961876 </v>
   <v>       0.49954115       0.34350885       0.64177300 </v>
   <v>       0.51664480       0.66057249       0.34964156 </v>
   <v>       0.26434844       0.17982356       0.83138362 </v>
   <v>       0.74896303       0.17199852       0.82397106 </v>
   <v>       0.00989989      -0.00146829      -0.00125719 </v>
   <v>       0.22790823       0.17627820       0.50424447 </v>
   <v>       0.25917963       0.50401374       0.17447132 </v>
   <v>       0.49536804       0.98585713       0.99031871 </v>
   <v>       0.74122389       0.16337281       0.17182469 </v>
   <v>       0.47433286       0.00081388       0.34503895 </v>
   <v>       0.73801142       0.49464012       0.82576818 </v>
   <v>       0.49225206       0.67181157       0.65994070 </v>
   <v>       0.25708056       0.49714250       0.82875397 </v>
   <v>       0.98847637       0.33429842       0.31577781 </v>
   <v>       0.00512119       0.34854725       0.67597255 </v>
   <v>       0.97631906       0.65934036       0.33012732 </v>
   <v>       0.22274649       0.82797471       0.49702946 </v>
   <v>       0.24392704       0.82354093       0.83337089 </v>
   <v>       0.49751971       0.34090660       0.01064039 </v>
   <v>       0.73516334       0.50070742       0.17186775 </v>
   <v>       0.75919137       0.82721865       0.82386093 </v>
   <v>       0.00460801       0.67165717       0.67601748 </v>
   <v>       0.00202501       0.33954553       0.00721663 </v>
   <v>       0.99307086       0.65908806       0.99432063 </v>
   <v>       0.25607537       0.81317507       0.17519657 </v>
   <v>       0.77080280       0.16970584       0.50313161 </v>
   <v>       0.48801986       0.98887475       0.66590770 </v>
   <v>       0.74437708       0.83054997       0.17651804 </v>
   <v>       0.77503135       0.83922021       0.49651431 </v>
   <v>       0.22824489       0.50151755       0.49304600 </v>
  </varray>
 </structure>
</modeling>
