<?xml version="1.0" encoding="ISO-8859-1"?>
<modeling>
 <generator>
  <i name="program" type="string">vasp </i>
  <i name="version" type="string">5.4.1  </i>
  <i name="subversion" type="string">05Feb16 (build Jan 29 2020 16:04:39) complex                          parallel </i>
  <i name="platform" type="string">IFC91_ompi </i>
  <i name="date" type="string">2020 06 15 </i>
  <i name="time" type="string">04:08:39 </i>
 </generator>
 <incar>
  <i type="string" name="SYSTEM"> automatically generated by mexm</i>
  <i type="int" name="ISTART">     0</i>
  <i type="string" name="PREC">accurate               ! avoid wrap aro</i>
  <i type="string" name="ALGO"> Fast                   ! blocked Davids</i>
  <i type="int" name="ISPIN">     1</i>
  <i type="int" name="ICHARG">     2</i>
  <i type="int" name="NELM">    70</i>
  <i type="int" name="IBRION">     2</i>
  <i name="EDIFF">      0.00001000</i>
  <i name="EDIFFG">     -0.01000000</i>
  <i type="int" name="NSW">   300</i>
  <i type="int" name="ISIF">     3</i>
  <i type="int" name="ISYM">     1</i>
  <i name="ENCUT">    300.00000000</i>
  <i name="POTIM">      0.15000000</i>
  <i type="string" name="LREAL"> Auto                  ! unpublished met</i>
  <i type="int" name="ISMEAR">     1</i>
  <i name="SIGMA">      0.15000000</i>
  <i type="logical" name="LWAVE"> F  </i>
  <i type="logical" name="LCHARG"> F  </i>
  <i type="logical" name="LVTOT"> F  </i>
  <v type="int" name="KPOINT_BSE">    -1     0     0     0</v>
  <i type="int" name="NELM">    70</i>
 </incar>
 <kpoints>
  <generation param="Gamma">
   <v type="int" name="divisions">       3        3        3 </v>
   <v name="usershift">      0.00000000       0.00000000       0.00000000 </v>
   <v name="genvec1">      0.33333333       0.00000000      -0.00000000 </v>
   <v name="genvec2">      0.00000000       0.33333333      -0.00000000 </v>
   <v name="genvec3">     -0.00000000      -0.00000000       0.33333333 </v>
   <v name="shift">      0.00000000       0.00000000       0.00000000 </v>
  </generation>
  <varray name="kpointlist" >
   <v>       0.00000000       0.00000000       0.00000000 </v>
   <v>       0.33333333      -0.00000000      -0.00000000 </v>
   <v>      -0.00000000       0.33333333       0.00000000 </v>
   <v>       0.33333333       0.33333333       0.00000000 </v>
   <v>      -0.33333333       0.33333333       0.00000000 </v>
   <v>      -0.00000000       0.00000000       0.33333333 </v>
   <v>       0.33333333       0.00000000       0.33333333 </v>
   <v>      -0.33333333       0.00000000       0.33333333 </v>
   <v>      -0.00000000       0.33333333       0.33333333 </v>
   <v>       0.33333333       0.33333333       0.33333333 </v>
   <v>      -0.33333333       0.33333333       0.33333333 </v>
   <v>       0.00000000      -0.33333333       0.33333333 </v>
   <v>       0.33333333      -0.33333333       0.33333333 </v>
   <v>      -0.33333333      -0.33333333       0.33333333 </v>
  </varray>
  <varray name="weights" >
   <v>       0.03703704 </v>
   <v>       0.07407407 </v>
   <v>       0.07407407 </v>
   <v>       0.07407407 </v>
   <v>       0.07407407 </v>
   <v>       0.07407407 </v>
   <v>       0.07407407 </v>
   <v>       0.07407407 </v>
   <v>       0.07407407 </v>
   <v>       0.07407407 </v>
   <v>       0.07407407 </v>
   <v>       0.07407407 </v>
   <v>       0.07407407 </v>
   <v>       0.07407407 </v>
  </varray>
 </kpoints>
 <parameters>
  <separator name="general" >
   <i type="string" name="SYSTEM">automatically generated by mexm</i>
   <i type="logical" name="LCOMPAT"> F  </i>
  </separator>
  <separator name="electronic" >
   <i type="string" name="PREC">accura</i>
   <i name="ENMAX">    300.00000000</i>
   <i name="ENAUG">    461.25700000</i>
   <i name="EDIFF">      0.00001000</i>
   <i type="int" name="IALGO">    68</i>
   <i type="int" name="IWAVPR">    11</i>
   <i type="int" name="NBANDS">   176</i>
   <i name="NELECT">    290.00000000</i>
   <i type="int" name="TURBO">     0</i>
   <i type="int" name="IRESTART">     0</i>
   <i type="int" name="NREBOOT">     0</i>
   <i type="int" name="NMIN">     0</i>
   <i name="EREF">      0.00000000</i>
   <separator name="electronic smearing" >
    <i type="int" name="ISMEAR">     1</i>
    <i name="SIGMA">      0.15000000</i>
    <i name="KSPACING">      0.50000000</i>
    <i type="logical" name="KGAMMA"> T  </i>
   </separator>
   <separator name="electronic projectors" >
    <i type="logical" name="LREAL"> T  </i>
    <v name="ROPT">     -0.00025000     -0.00025000     -0.00025000     -0.00025000</v>
    <i type="int" name="LMAXPAW">  -100</i>
    <i type="int" name="LMAXMIX">     2</i>
    <i type="logical" name="NLSPLINE"> F  </i>
   </separator>
   <separator name="electronic startup" >
    <i type="int" name="ISTART">     0</i>
    <i type="int" name="ICHARG">     2</i>
    <i type="int" name="INIWAV">     1</i>
   </separator>
   <separator name="electronic spin" >
    <i type="int" name="ISPIN">     1</i>
    <i type="logical" name="LNONCOLLINEAR"> F  </i>
    <v name="MAGMOM">      1.00000000      1.00000000      1.00000000      1.00000000      1.00000000      1.00000000      1.00000000      1.00000000      1.00000000      1.00000000      1.00000000      1.00000000      1.00000000      1.00000000      1.00000000      1.00000000      1.00000000      1.00000000      1.00000000      1.00000000
      1.00000000      1.00000000      1.00000000      1.00000000      1.00000000      1.00000000      1.00000000      1.00000000      1.00000000      1.00000000      1.00000000      1.00000000      1.00000000      1.00000000      1.00000000      1.00000000</v>
    <i name="NUPDOWN">     -1.00000000</i>
    <i type="logical" name="LSORBIT"> F  </i>
    <v name="SAXIS">      0.00000000      0.00000000      1.00000000</v>
    <i type="logical" name="LSPIRAL"> F  </i>
    <v name="QSPIRAL">      0.00000000      0.00000000      0.00000000</v>
    <i type="logical" name="LZEROZ"> F  </i>
   </separator>
   <separator name="electronic exchange-correlation" >
    <i type="logical" name="LASPH"> F  </i>
    <i type="logical" name="LMETAGGA"> F  </i>
   </separator>
   <separator name="electronic convergence" >
    <i type="int" name="NELM">    70</i>
    <i type="int" name="NELMDL">    -5</i>
    <i type="int" name="NELMIN">     2</i>
    <i name="ENINI">    300.00000000</i>
    <separator name="electronic convergence detail" >
     <i type="logical" name="LDIAG"> T  </i>
     <i type="logical" name="LSUBROT"> F  </i>
     <i name="WEIMIN">      0.00100000</i>
     <i name="EBREAK">      0.00000001</i>
     <i name="DEPER">      0.30000000</i>
     <i type="int" name="NRMM">     4</i>
     <i name="TIME">      0.40000000</i>
    </separator>
   </separator>
   <separator name="electronic mixer" >
    <i name="AMIX">      0.40000000</i>
    <i name="BMIX">      1.00000000</i>
    <i name="AMIN">      0.10000000</i>
    <i name="AMIX_MAG">      1.60000000</i>
    <i name="BMIX_MAG">      1.00000000</i>
    <separator name="electronic mixer details" >
     <i type="int" name="IMIX">     4</i>
     <i type="logical" name="MIXFIRST"> F  </i>
     <i type="int" name="MAXMIX">   -45</i>
     <i name="WC">    100.00000000</i>
     <i type="int" name="INIMIX">     1</i>
     <i type="int" name="MIXPRE">     1</i>
     <i type="int" name="MREMOVE">     5</i>
    </separator>
   </separator>
   <separator name="electronic dipolcorrection" >
    <i type="logical" name="LDIPOL"> F  </i>
    <i type="logical" name="LMONO"> F  </i>
    <i type="int" name="IDIPOL">     0</i>
    <i name="EPSILON">      1.00000000</i>
    <v name="DIPOL">   -100.00000000   -100.00000000   -100.00000000</v>
    <i name="EFIELD">      0.00000000</i>
   </separator>
  </separator>
  <separator name="grids" >
   <i type="int" name="NGX">    40</i>
   <i type="int" name="NGY">    60</i>
   <i type="int" name="NGZ">    60</i>
   <i type="int" name="NGXF">    80</i>
   <i type="int" name="NGYF">   120</i>
   <i type="int" name="NGZF">   120</i>
   <i type="logical" name="ADDGRID"> F  </i>
  </separator>
  <separator name="ionic" >
   <i type="int" name="NSW">   300</i>
   <i type="int" name="IBRION">     2</i>
   <i type="int" name="ISIF">     3</i>
   <i name="PSTRESS">      0.00000000</i>
   <i name="EDIFFG">     -0.01000000</i>
   <i type="int" name="NFREE">     1</i>
   <i name="POTIM">      0.15000000</i>
   <i name="SMASS">     -3.00000000</i>
   <i name="SCALEE">      1.00000000</i>
  </separator>
  <separator name="ionic md" >
   <i name="TEBEG">      0.00010000</i>
   <i name="TEEND">      0.00010000</i>
   <i type="int" name="NBLOCK">     1</i>
   <i type="int" name="KBLOCK">   300</i>
   <i type="int" name="NPACO">   256</i>
   <i name="APACO">     16.00000000</i>
  </separator>
  <separator name="symmetry" >
   <i type="int" name="ISYM">     1</i>
   <i name="SYMPREC">      0.00001000</i>
  </separator>
  <separator name="dos" >
   <i type="logical" name="LORBIT"> F  </i>
   <v name="RWIGS">     -1.00000000     -1.00000000     -1.00000000     -1.00000000</v>
   <i type="int" name="NEDOS">   301</i>
   <i name="EMIN">     10.00000000</i>
   <i name="EMAX">    -10.00000000</i>
   <i name="EFERMI">      0.00000000</i>
  </separator>
  <separator name="writing" >
   <i type="int" name="NWRITE">     2</i>
   <i type="logical" name="LWAVE"> F  </i>
   <i type="logical" name="LCHARG"> F  </i>
   <i type="logical" name="LPARD"> F  </i>
   <i type="logical" name="LVTOT"> F  </i>
   <i type="logical" name="LVHAR"> F  </i>
   <i type="logical" name="LELF"> F  </i>
   <i type="logical" name="LOPTICS"> F  </i>
   <v name="STM">      0.00000000      0.00000000      0.00000000      0.00000000      0.00000000      0.00000000      0.00000000</v>
  </separator>
  <separator name="performance" >
   <i type="int" name="NPAR">     4</i>
   <i type="int" name="NSIM">     4</i>
   <i type="int" name="NBLK">    -1</i>
   <i type="logical" name="LPLANE"> T  </i>
   <i type="logical" name="LSCALAPACK"> T  </i>
   <i type="logical" name="LSCAAWARE"> F  </i>
   <i type="logical" name="LSCALU"> F  </i>
   <i type="logical" name="LASYNC"> F  </i>
   <i type="logical" name="LORBITALREAL"> F  </i>
  </separator>
  <separator name="miscellaneous" >
   <i type="int" name="IDIOT">     3</i>
   <i type="logical" name="LMUSIC"> F  </i>
   <v name="POMASS">    178.49000000     92.91000000    180.94800000     91.22400000</v>
   <v name="DARWINR">      0.00000000      0.00000000      0.00000000      0.00000000</v>
   <v name="DARWINV">      1.00000000      1.00000000      1.00000000      1.00000000</v>
   <i type="logical" name="LCORR"> T  </i>
  </separator>
  <i type="logical" name="GGA_COMPAT"> T  </i>
  <i type="logical" name="LBERRY"> F  </i>
  <i type="int" name="ICORELEVEL">     0</i>
  <i type="logical" name="LDAU"> F  </i>
  <i type="int" name="I_CONSTRAINED_M">     0</i>
  <separator name="electronic exchange-correlation" >
   <i type="string" name="GGA">--</i>
   <i type="int" name="VOSKOWN">     0</i>
   <i type="logical" name="LHFCALC"> F  </i>
   <i type="string" name="PRECFOCK"></i>
   <i type="logical" name="LSYMGRAD"> F  </i>
   <i type="logical" name="LHFONE"> F  </i>
   <i type="logical" name="LRHFCALC"> F  </i>
   <i type="logical" name="LTHOMAS"> F  </i>
   <i type="logical" name="LMODELHF"> F  </i>
   <i name="ENCUT4O">     -1.00000000</i>
   <i type="int" name="EXXOEP">     0</i>
   <i type="int" name="FOURORBIT">     0</i>
   <i name="AEXX">      0.00000000</i>
   <i name="HFALPHA">      0.00000000</i>
   <i name="MCALPHA">      0.00000000</i>
   <i name="ALDAX">      1.00000000</i>
   <i name="AGGAX">      1.00000000</i>
   <i name="ALDAC">      1.00000000</i>
   <i name="AGGAC">      1.00000000</i>
   <i type="int" name="NKREDX">     1</i>
   <i type="int" name="NKREDY">     1</i>
   <i type="int" name="NKREDZ">     1</i>
   <i type="logical" name="SHIFTRED"> F  </i>
   <i type="logical" name="ODDONLY"> F  </i>
   <i type="logical" name="EVENONLY"> F  </i>
   <i type="int" name="LMAXFOCK">     0</i>
   <i type="int" name="NMAXFOCKAE">     0</i>
   <i type="logical" name="LFOCKAEDFT"> F  </i>
   <i name="HFSCREEN">      0.00000000</i>
   <i name="HFSCREENC">      0.00000000</i>
   <i type="int" name="NBANDSGWLOW">     0</i>
  </separator>
  <separator name="vdW DFT" >
   <i type="logical" name="LUSE_VDW"> F  </i>
   <i name="Zab_VDW">     -0.84910000</i>
   <i name="PARAM1">      0.12340000</i>
   <i name="PARAM2">      1.00000000</i>
   <i name="PARAM3">      0.00000000</i>
  </separator>
  <separator name="model GW" >
   <i type="int" name="MODEL_GW">     0</i>
   <i name="MODEL_EPS0">     12.02455555</i>
   <i name="MODEL_ALPHA">      1.00000000</i>
  </separator>
  <separator name="linear response parameters" >
   <i type="logical" name="LEPSILON"> F  </i>
   <i type="logical" name="LRPA"> F  </i>
   <i type="logical" name="LNABLA"> F  </i>
   <i type="logical" name="LVEL"> F  </i>
   <i type="int" name="KINTER">     0</i>
   <i name="CSHIFT">      0.10000000</i>
   <i name="OMEGAMAX">     -1.00000000</i>
   <i name="DEG_THRESHOLD">      0.00200000</i>
  </separator>
  <separator name="orbital magnetization" >
   <i type="logical" name="NUCIND"> F  </i>
   <v name="MAGPOS">      0.00000000      0.00000000      0.00000000</v>
   <i type="logical" name="LNICSALL"> T  </i>
   <i type="logical" name="ORBITALMAG"> F  </i>
   <i type="logical" name="LMAGBLOCH"> F  </i>
   <i type="logical" name="LCHIMAG"> F  </i>
   <i type="logical" name="LGAUGE"> T  </i>
   <i type="int" name="MAGATOM">     0</i>
   <v name="MAGDIPOL">      0.00000000      0.00000000      0.00000000</v>
   <v name="AVECCONST">      0.00000000      0.00000000      0.00000000</v>
  </separator>
  <separator name="response functions" >
   <i type="logical" name="LADDER"> F  </i>
   <i type="logical" name="LFXC"> F  </i>
   <i type="logical" name="LHARTREE"> T  </i>
   <i type="int" name="IBSE">     0</i>
   <v type="int" name="KPOINT">    -1     0     0     0</v>
   <i type="logical" name="LTCTE"> F  </i>
   <i type="logical" name="LTETE"> F  </i>
   <i type="logical" name="LTRIPLET"> F  </i>
   <i type="logical" name="LFXCEPS"> F  </i>
   <i type="logical" name="LFXHEG"> F  </i>
   <i type="int" name="NATURALO">     0</i>
   <i type="logical" name="L2ORDER"> F  </i>
   <i type="logical" name="LUSEW"> F  </i>
   <i name="ENCUTGW">     -2.00000000</i>
   <i name="ENCUTGWSOFT">     -2.00000000</i>
   <i name="ENCUTLF">     -1.00000000</i>
   <i type="int" name="LMAXMP2">    -1</i>
   <i name="SCISSOR">      0.00000000</i>
   <i type="int" name="NOMEGA">     0</i>
   <i type="int" name="NOMEGAR">     0</i>
   <i type="int" name="NBANDSGW">    -1</i>
   <i type="int" name="NBANDSO">    -1</i>
   <i type="int" name="NBANDSV">    -1</i>
   <i type="int" name="NELM">    70</i>
   <i type="int" name="NELMHF">     1</i>
   <i type="int" name="DIM">     3</i>
   <i type="int" name="ANTIRES">     0</i>
   <i name="OMEGAMAX">    -30.00000000</i>
   <i name="OMEGAMIN">    -30.00000000</i>
   <i name="OMEGATL">   -200.00000000</i>
   <i type="int" name="OMEGAGRID">     0</i>
   <i name="CSHIFT">     -0.10000000</i>
   <i type="logical" name="SELFENERGY"> F  </i>
   <i type="logical" name="LSPECTRAL"> F  </i>
   <i type="logical" name="LSPECTRALGW"> F  </i>
   <i type="logical" name="LSINGLES"> F  </i>
   <i type="logical" name="LFERMIGW"> F  </i>
   <i type="logical" name="ODDONLYGW"> F  </i>
   <i type="logical" name="EVENONLYGW"> F  </i>
   <i type="int" name="NKREDLFX">     1</i>
   <i type="int" name="NKREDLFY">     1</i>
   <i type="int" name="NKREDLFZ">     1</i>
   <i type="int" name="MAXMEM">  1800</i>
   <i type="int" name="TELESCOPE">     0</i>
   <i type="int" name="TAUPAR">     1</i>
   <i type="int" name="OMEGAPAR">    -1</i>
   <i name="LAMBDA">      1.00000000</i>
  </separator>
  <separator name="External order field" >
   <i name="OFIELD_KAPPA">      0.00000000</i>
   <v name="OFIELD_K">      0.00000000      0.00000000      0.00000000</v>
   <i name="OFIELD_Q6_NEAR">      0.00000000</i>
   <i name="OFIELD_Q6_FAR">      0.00000000</i>
   <i name="OFIELD_A">      0.00000000</i>
  </separator>
 </parameters>
 <atominfo>
  <atoms>      36 </atoms>
  <types>       4 </types>
  <array name="atoms" >
   <dimension dim="1">ion</dimension>
   <field type="string">element</field>
   <field type="int">atomtype</field>
   <set>
    <rc><c>Hf</c><c>   1</c></rc>
    <rc><c>Hf</c><c>   1</c></rc>
    <rc><c>Hf</c><c>   1</c></rc>
    <rc><c>Hf</c><c>   1</c></rc>
    <rc><c>Hf</c><c>   1</c></rc>
    <rc><c>Hf</c><c>   1</c></rc>
    <rc><c>Hf</c><c>   1</c></rc>
    <rc><c>Hf</c><c>   1</c></rc>
    <rc><c>Hf</c><c>   1</c></rc>
    <rc><c>Hf</c><c>   1</c></rc>
    <rc><c>Hf</c><c>   1</c></rc>
    <rc><c>Nb</c><c>   2</c></rc>
    <rc><c>Nb</c><c>   2</c></rc>
    <rc><c>Nb</c><c>   2</c></rc>
    <rc><c>Nb</c><c>   2</c></rc>
    <rc><c>Nb</c><c>   2</c></rc>
    <rc><c>Nb</c><c>   2</c></rc>
    <rc><c>Nb</c><c>   2</c></rc>
    <rc><c>Nb</c><c>   2</c></rc>
    <rc><c>Nb</c><c>   2</c></rc>
    <rc><c>Ta</c><c>   3</c></rc>
    <rc><c>Ta</c><c>   3</c></rc>
    <rc><c>Ta</c><c>   3</c></rc>
    <rc><c>Ta</c><c>   3</c></rc>
    <rc><c>Ta</c><c>   3</c></rc>
    <rc><c>Ta</c><c>   3</c></rc>
    <rc><c>Ta</c><c>   3</c></rc>
    <rc><c>Ta</c><c>   3</c></rc>
    <rc><c>Ta</c><c>   3</c></rc>
    <rc><c>Zr</c><c>   4</c></rc>
    <rc><c>Zr</c><c>   4</c></rc>
    <rc><c>Zr</c><c>   4</c></rc>
    <rc><c>Zr</c><c>   4</c></rc>
    <rc><c>Zr</c><c>   4</c></rc>
    <rc><c>Zr</c><c>   4</c></rc>
    <rc><c>Zr</c><c>   4</c></rc>
   </set>
  </array>
  <array name="atomtypes" >
   <dimension dim="1">type</dimension>
   <field type="int">atomspertype</field>
   <field type="string">element</field>
   <field>mass</field>
   <field>valence</field>
   <field type="string">pseudopotential</field>
   <set>
    <rc><c>  11</c><c>Hf</c><c>    178.49000000</c><c>      4.00000000</c><c>  PAW_PBE Hf 20Jan2003                  </c></rc>
    <rc><c>   9</c><c>Nb</c><c>     92.91000000</c><c>     13.00000000</c><c>  PAW_PBE Nb_sv 25May2007               </c></rc>
    <rc><c>   9</c><c>Ta</c><c>    180.94800000</c><c>      5.00000000</c><c>  PAW_PBE Ta 17Jan2003                  </c></rc>
    <rc><c>   7</c><c>Zr</c><c>     91.22400000</c><c>     12.00000000</c><c>  PAW_PBE Zr_sv 04Jan2005               </c></rc>
   </set>
  </array>
 </atominfo>
 <structure name="initialpos" >
  <crystal>
   <varray name="basis" >
    <v>       6.90512798      -0.00427498       0.00986189 </v>
    <v>      -0.00626033      10.22910830       0.00431988 </v>
    <v>       0.01494498       0.00394076      10.21437782 </v>
   </varray>
   <i name="volume">    721.47333316 </i>
   <varray name="rec_basis" >
    <v>       0.14482027       0.00008872      -0.00021193 </v>
    <v>       0.00006058       0.09776028      -0.00003781 </v>
    <v>      -0.00013985      -0.00004143       0.09790144 </v>
   </varray>
  </crystal>
  <varray name="positions" >
   <v>       0.71960900       0.84894700       0.51007100 </v>
   <v>       0.99978300       0.00116100       0.67448700 </v>
   <v>       0.75283500       0.48925800       0.83010100 </v>
   <v>       0.24172700       0.50539400       0.15460600 </v>
   <v>       0.00618100       0.68146100       0.34721200 </v>
   <v>       0.50744800       0.00156300       0.00369800 </v>
   <v>       0.74802800       0.16949800       0.50264800 </v>
   <v>       0.77166400       0.48211300       0.50398800 </v>
   <v>       0.49267500       0.67061800       0.33870000 </v>
   <v>       0.48988900       0.66116400       0.66505000 </v>
   <v>       0.47865400       0.33833800       0.33746600 </v>
   <v>       0.75260400       0.82813100       0.82854400 </v>
   <v>       0.25082400       0.17349600       0.17016700 </v>
   <v>       0.21994500       0.48789100       0.50349300 </v>
   <v>       0.00179400       0.67426100       0.98918500 </v>
   <v>       0.75203500       0.18286700       0.18022300 </v>
   <v>       0.49932700       0.00355800       0.67645300 </v>
   <v>       0.73327800       0.18045000       0.82025900 </v>
   <v>       0.77048500       0.81538800       0.15897500 </v>
   <v>       0.26809700       0.16890000       0.82563200 </v>
   <v>       0.25133300       0.16200100       0.50604900 </v>
   <v>       0.02092500       0.32280400       0.33316700 </v>
   <v>       0.01975900       0.32304700       0.67396100 </v>
   <v>       0.24584400       0.49262000       0.84129800 </v>
   <v>       0.27959800       0.85661200       0.51179500 </v>
   <v>       0.25218300       0.83684600       0.83599700 </v>
   <v>       0.23576100       0.81921200       0.14984000 </v>
   <v>       0.47876100       0.33938800       0.66516500 </v>
   <v>       0.49429500       0.32068000       0.99894000 </v>
   <v>       0.99597600       0.00214800       0.99861500 </v>
   <v>       0.00291800       0.99653400       0.33086500 </v>
   <v>       0.00123200       0.31242100       0.99782900 </v>
   <v>       0.00499600       0.67547300       0.66162000 </v>
   <v>       0.50166400       0.00087000       0.31878800 </v>
   <v>       0.75454500       0.49889900       0.16523200 </v>
   <v>       0.50331500       0.67599700       0.98987900 </v>
  </varray>
 </structure>
 <calculation>
  <scstep>
   <time name="dav">    0.99    1.00</time>
   <time name="total">    1.06    1.49</time>
   <energy>
    <i name="alphaZ">   1492.48921004 </i>
    <i name="ewald"> -18741.76439509 </i>
    <i name="hartreedc">  -7135.12698045 </i>
    <i name="XCdc">   -322.63249016 </i>
    <i name="pawpsdc">  21195.19712611 </i>
    <i name="pawaedc"> -19579.59169218 </i>
    <i name="eentropy">     -0.00806874 </i>
    <i name="bandstr">   -101.64898007 </i>
    <i name="atom">  24995.92809465 </i>
    <i name="e_fr_energy">   1802.84182411 </i>
    <i name="e_wo_entrp">   1802.84989285 </i>
    <i name="e_0_energy">   1802.84451369 </i>
   </energy>
  </scstep>
  <scstep>
   <time name="dav">    1.07    1.08</time>
   <time name="total">    1.07    1.22</time>
   <energy>
    <i name="e_fr_energy">   -105.12335283 </i>
    <i name="e_wo_entrp">   -105.11725428 </i>
    <i name="e_0_energy">   -105.12131998 </i>
   </energy>
  </scstep>
  <scstep>
   <time name="dav">    1.44    1.45</time>
   <time name="total">    1.44    1.48</time>
   <energy>
    <i name="e_fr_energy">   -348.14609765 </i>
    <i name="e_wo_entrp">   -348.15324581 </i>
    <i name="e_0_energy">   -348.14848037 </i>
   </energy>
  </scstep>
  <scstep>
   <time name="dav">    1.53    1.58</time>
   <time name="total">    1.53    1.64</time>
   <energy>
    <i name="e_fr_energy">   -376.22608436 </i>
    <i name="e_wo_entrp">   -376.24735310 </i>
    <i name="e_0_energy">   -376.23317394 </i>
   </energy>
  </scstep>
  <scstep>
   <time name="dav">    1.41    1.42</time>
   <time name="total">    1.47    1.50</time>
   <energy>
    <i name="e_fr_energy">   -379.08626881 </i>
    <i name="e_wo_entrp">   -379.10844771 </i>
    <i name="e_0_energy">   -379.09366178 </i>
   </energy>
  </scstep>
  <scstep>
   <time name="diag">    0.11    0.11</time>
   <time name="diis">    0.79    0.79</time>
   <time name="orth">    0.01    0.01</time>
   <time name="total">    0.98    1.02</time>
   <energy>
    <i name="e_fr_energy">   -368.61026779 </i>
    <i name="e_wo_entrp">   -368.63820543 </i>
    <i name="e_0_energy">   -368.61958034 </i>
   </energy>
  </scstep>
  <scstep>
   <time name="diag">    0.07    0.07</time>
   <time name="diis">    0.75    0.76</time>
   <time name="orth">    0.01    0.01</time>
   <time name="total">    0.90    0.96</time>
   <energy>
    <i name="e_fr_energy">   -368.03730085 </i>
    <i name="e_wo_entrp">   -368.05833859 </i>
    <i name="e_0_energy">   -368.04431343 </i>
   </energy>
  </scstep>
  <scstep>
   <time name="diag">    0.07    0.07</time>
   <time name="diis">    0.87    0.87</time>
   <time name="orth">    0.01    0.01</time>
   <time name="total">    1.02    1.07</time>
   <energy>
    <i name="e_fr_energy">   -364.52546922 </i>
    <i name="e_wo_entrp">   -364.55648401 </i>
    <i name="e_0_energy">   -364.53580748 </i>
   </energy>
  </scstep>
  <scstep>
   <time name="diag">    0.08    0.09</time>
   <time name="diis">    0.78    0.78</time>
   <time name="orth">    0.01    0.01</time>
   <time name="total">    0.94    1.00</time>
   <energy>
    <i name="e_fr_energy">   -364.39191992 </i>
    <i name="e_wo_entrp">   -364.42415750 </i>
    <i name="e_0_energy">   -364.40266578 </i>
   </energy>
  </scstep>
  <scstep>
   <time name="diag">    0.08    0.08</time>
   <time name="diis">    0.87    0.87</time>
   <time name="orth">    0.01    0.01</time>
   <time name="total">    1.03    1.07</time>
   <energy>
    <i name="e_fr_energy">   -364.33145039 </i>
    <i name="e_wo_entrp">   -364.36469397 </i>
    <i name="e_0_energy">   -364.34253158 </i>
   </energy>
  </scstep>
  <scstep>
   <time name="diag">    0.08    0.08</time>
   <time name="diis">    0.83    0.83</time>
   <time name="orth">    0.03    0.03</time>
   <time name="total">    1.01    1.04</time>
   <energy>
    <i name="e_fr_energy">   -364.29996072 </i>
    <i name="e_wo_entrp">   -364.33275663 </i>
    <i name="e_0_energy">   -364.31089269 </i>
   </energy>
  </scstep>
  <scstep>
   <time name="diag">    0.08    0.08</time>
   <time name="diis">    0.81    0.81</time>
   <time name="orth">    0.01    0.01</time>
   <time name="total">    0.99    1.03</time>
   <energy>
    <i name="e_fr_energy">   -364.29851639 </i>
    <i name="e_wo_entrp">   -364.33206433 </i>
    <i name="e_0_energy">   -364.30969904 </i>
   </energy>
  </scstep>
  <scstep>
   <time name="diag">    0.09    0.09</time>
   <time name="diis">    0.81    0.83</time>
   <time name="orth">    0.01    0.01</time>
   <time name="total">    1.06    1.12</time>
   <energy>
    <i name="e_fr_energy">   -364.29639242 </i>
    <i name="e_wo_entrp">   -364.32951685 </i>
    <i name="e_0_energy">   -364.30743390 </i>
   </energy>
  </scstep>
  <scstep>
   <time name="diag">    0.08    0.08</time>
   <time name="diis">    0.80    0.80</time>
   <time name="orth">    0.01    0.01</time>
   <time name="total">    0.99    1.02</time>
   <energy>
    <i name="e_fr_energy">   -364.29652088 </i>
    <i name="e_wo_entrp">   -364.32965715 </i>
    <i name="e_0_energy">   -364.30756630 </i>
   </energy>
  </scstep>
  <scstep>
   <time name="diag">    0.11    0.11</time>
   <time name="diis">    0.85    0.85</time>
   <time name="orth">    0.01    0.01</time>
   <time name="total">    1.05    1.08</time>
   <energy>
    <i name="e_fr_energy">   -364.29657945 </i>
    <i name="e_wo_entrp">   -364.32975735 </i>
    <i name="e_0_energy">   -364.30763875 </i>
   </energy>
  </scstep>
  <scstep>
   <time name="diag">    0.12    0.12</time>
   <time name="diis">    0.78    0.78</time>
   <time name="orth">    0.01    0.01</time>
   <time name="total">    1.03    1.06</time>
   <energy>
    <i name="e_fr_energy">   -364.29661371 </i>
    <i name="e_wo_entrp">   -364.32979320 </i>
    <i name="e_0_energy">   -364.30767354 </i>
   </energy>
  </scstep>
  <scstep>
   <time name="diag">    0.08    0.08</time>
   <time name="diis">    0.66    0.66</time>
   <time name="orth">    0.01    0.01</time>
   <time name="total">    0.81    0.84</time>
   <energy>
    <i name="e_fr_energy">   -364.29662395 </i>
    <i name="e_wo_entrp">   -364.32978770 </i>
    <i name="e_0_energy">   -364.30767854 </i>
   </energy>
  </scstep>
  <scstep>
   <time name="diag">    0.12    0.13</time>
   <time name="diis">    0.58    0.59</time>
   <time name="orth">    0.01    0.01</time>
   <time name="total">    0.81    0.84</time>
   <energy>
    <i name="e_fr_energy">   -364.29663170 </i>
    <i name="e_wo_entrp">   -364.32982274 </i>
    <i name="e_0_energy">   -364.30769538 </i>
   </energy>
  </scstep>
  <scstep>
   <time name="diag">    0.07    0.07</time>
   <time name="diis">    0.48    0.48</time>
   <time name="orth">    0.01    0.01</time>
   <time name="total">    0.60    0.63</time>
   <energy>
    <i name="alphaZ">   1492.48921004 </i>
    <i name="ewald"> -18741.76439509 </i>
    <i name="hartreedc">  -6917.75554705 </i>
    <i name="XCdc">   -321.46954239 </i>
    <i name="pawpsdc">  33625.43244430 </i>
    <i name="pawaedc"> -31990.54361419 </i>
    <i name="eentropy">      0.03318666 </i>
    <i name="bandstr">  -2506.64647348 </i>
    <i name="atom">  24995.92809465 </i>
    <i name="e_fr_energy">   -364.29663655 </i>
    <i name="e_wo_entrp">   -364.32982322 </i>
    <i name="e_0_energy">   -364.30769877 </i>
   </energy>
  </scstep>
  <structure>
   <crystal>
    <varray name="basis" >
     <v>       6.90512798      -0.00427498       0.00986189 </v>
     <v>      -0.00626033      10.22910830       0.00431988 </v>
     <v>       0.01494498       0.00394076      10.21437782 </v>
    </varray>
    <i name="volume">    721.47333316 </i>
    <varray name="rec_basis" >
     <v>       0.14482027       0.00008872      -0.00021193 </v>
     <v>       0.00006058       0.09776028      -0.00003781 </v>
     <v>      -0.00013985      -0.00004143       0.09790144 </v>
    </varray>
   </crystal>
   <varray name="positions" >
    <v>       0.71960900       0.84894700       0.51007100 </v>
    <v>       0.99978300       0.00116100       0.67448700 </v>
    <v>       0.75283500       0.48925800       0.83010100 </v>
    <v>       0.24172700       0.50539400       0.15460600 </v>
    <v>       0.00618100       0.68146100       0.34721200 </v>
    <v>       0.50744800       0.00156300       0.00369800 </v>
    <v>       0.74802800       0.16949800       0.50264800 </v>
    <v>       0.77166400       0.48211300       0.50398800 </v>
    <v>       0.49267500       0.67061800       0.33870000 </v>
    <v>       0.48988900       0.66116400       0.66505000 </v>
    <v>       0.47865400       0.33833800       0.33746600 </v>
    <v>       0.75260400       0.82813100       0.82854400 </v>
    <v>       0.25082400       0.17349600       0.17016700 </v>
    <v>       0.21994500       0.48789100       0.50349300 </v>
    <v>       0.00179400       0.67426100       0.98918500 </v>
    <v>       0.75203500       0.18286700       0.18022300 </v>
    <v>       0.49932700       0.00355800       0.67645300 </v>
    <v>       0.73327800       0.18045000       0.82025900 </v>
    <v>       0.77048500       0.81538800       0.15897500 </v>
    <v>       0.26809700       0.16890000       0.82563200 </v>
    <v>       0.25133300       0.16200100       0.50604900 </v>
    <v>       0.02092500       0.32280400       0.33316700 </v>
    <v>       0.01975900       0.32304700       0.67396100 </v>
    <v>       0.24584400       0.49262000       0.84129800 </v>
    <v>       0.27959800       0.85661200       0.51179500 </v>
    <v>       0.25218300       0.83684600       0.83599700 </v>
    <v>       0.23576100       0.81921200       0.14984000 </v>
    <v>       0.47876100       0.33938800       0.66516500 </v>
    <v>       0.49429500       0.32068000       0.99894000 </v>
    <v>       0.99597600       0.00214800       0.99861500 </v>
    <v>       0.00291800       0.99653400       0.33086500 </v>
    <v>       0.00123200       0.31242100       0.99782900 </v>
    <v>       0.00499600       0.67547300       0.66162000 </v>
    <v>       0.50166400       0.00087000       0.31878800 </v>
    <v>       0.75454500       0.49889900       0.16523200 </v>
    <v>       0.50331500       0.67599700       0.98987900 </v>
   </varray>
  </structure>
  <varray name="forces" >
   <v>       0.11853903      -0.12643633      -0.03301458 </v>
   <v>       0.30533581       0.17275668       0.22868513 </v>
   <v>      -0.00213532      -0.00901272      -0.00608187 </v>
   <v>      -0.00051572       0.01559480       0.02810476 </v>
   <v>       0.27269624      -0.16727135      -0.15208998 </v>
   <v>      -0.01410022       0.01795411       0.00231850 </v>
   <v>       0.02331906       0.17884743       0.01669317 </v>
   <v>       0.01676167      -0.01291136      -0.00322459 </v>
   <v>      -0.25097555      -0.19478324      -0.18480166 </v>
   <v>      -0.26879782      -0.26947530       0.17250189 </v>
   <v>      -0.02286466       0.00262439      -0.01149417 </v>
   <v>      -0.01257521       0.04187986      -0.00230331 </v>
   <v>       0.00375120      -0.04004008       0.03285610 </v>
   <v>      -0.00009790      -0.02361554       0.00932764 </v>
   <v>       0.02981513      -0.01349995      -0.01181485 </v>
   <v>      -0.00626060      -0.01660680       0.02099873 </v>
   <v>      -0.36422489       0.37575863       0.54518867 </v>
   <v>       0.03631010      -0.01836092      -0.04690398 </v>
   <v>      -0.00543421       0.03734691       0.00748552 </v>
   <v>      -0.02562444      -0.07097203      -0.06286075 </v>
   <v>       0.02824048       0.00247190      -0.01160691 </v>
   <v>       0.01221170       0.00679380      -0.01255743 </v>
   <v>      -0.01286823      -0.00246737       0.00351730 </v>
   <v>       0.01509593       0.03860174      -0.00846120 </v>
   <v>      -0.17500420      -0.13434379      -0.09311593 </v>
   <v>       0.01116666       0.02087616      -0.00176124 </v>
   <v>       0.01215471       0.00452957       0.00200644 </v>
   <v>      -0.01749678       0.00946237       0.01671113 </v>
   <v>       0.01862267       0.01515357       0.00184633 </v>
   <v>      -0.00694732      -0.00283346      -0.00411169 </v>
   <v>       0.24249646       0.13558602      -0.18913622 </v>
   <v>       0.00481047       0.01313366      -0.00846099 </v>
   <v>       0.26302854      -0.15049372       0.11881271 </v>
   <v>      -0.22139414       0.17816123      -0.37666932 </v>
   <v>       0.00651431      -0.00103595       0.01119392 </v>
   <v>      -0.01355295      -0.01337291       0.00222275 </v>
  </varray>
  <varray name="stress" >
   <v>       8.00884259       0.34781225      -0.28373613 </v>
   <v>       0.34781220       7.71679640       0.53597955 </v>
   <v>      -0.28373610       0.53597956       6.39140015 </v>
  </varray>
  <energy>
   <i name="e_fr_energy">   -364.29663655 </i>
   <i name="e_wo_entrp">   -364.30769877 </i>
   <i name="e_0_energy">      0.03318666 </i>
  </energy>
  <time name="totalsc">   21.55   22.95</time>
 </calculation>
 <calculation>
  <scstep>
   <time name="dav">    1.19    1.20</time>
   <time name="total">    1.27    1.43</time>
   <energy>
    <i name="alphaZ">   1486.52936117 </i>
    <i name="ewald"> -18711.89274252 </i>
    <i name="hartreedc">  -6913.42251277 </i>
    <i name="XCdc">   -322.59819723 </i>
    <i name="pawpsdc">  33625.96562699 </i>
    <i name="pawaedc"> -31991.06808928 </i>
    <i name="eentropy">      0.03412360 </i>
    <i name="bandstr">  -2533.83635470 </i>
    <i name="atom">  24995.92809465 </i>
    <i name="e_fr_energy">   -364.36069009 </i>
    <i name="e_wo_entrp">   -364.39481369 </i>
    <i name="e_0_energy">   -364.37206462 </i>
   </energy>
  </scstep>
  <scstep>
   <time name="diag">    0.08    0.08</time>
   <time name="diis">    0.77    0.78</time>
   <time name="orth">    0.01    0.01</time>
   <time name="total">    1.06    1.09</time>
   <energy>
    <i name="e_fr_energy">   -364.35217295 </i>
    <i name="e_wo_entrp">   -364.38514487 </i>
    <i name="e_0_energy">   -364.36316359 </i>
   </energy>
  </scstep>
  <scstep>
   <time name="diag">    0.08    0.08</time>
   <time name="diis">    0.82    0.83</time>
   <time name="orth">    0.01    0.01</time>
   <time name="total">    0.97    1.03</time>
   <energy>
    <i name="e_fr_energy">   -364.33492233 </i>
    <i name="e_wo_entrp">   -364.36907580 </i>
    <i name="e_0_energy">   -364.34630682 </i>
   </energy>
  </scstep>
  <scstep>
   <time name="diag">    0.09    0.11</time>
   <time name="diis">    0.78    0.80</time>
   <time name="orth">    0.01    0.01</time>
   <time name="total">    0.95    1.05</time>
   <energy>
    <i name="e_fr_energy">   -364.32979969 </i>
    <i name="e_wo_entrp">   -364.36391989 </i>
    <i name="e_0_energy">   -364.34117309 </i>
   </energy>
  </scstep>
  <scstep>
   <time name="diag">    0.08    0.08</time>
   <time name="diis">    0.85    0.85</time>
   <time name="orth">    0.01    0.01</time>
   <time name="total">    1.00    1.04</time>
   <energy>
    <i name="e_fr_energy">   -364.32871035 </i>
    <i name="e_wo_entrp">   -364.36276796 </i>
    <i name="e_0_energy">   -364.34006288 </i>
   </energy>
  </scstep>
  <scstep>
   <time name="diag">    0.08    0.08</time>
   <time name="diis">    0.83    0.83</time>
   <time name="orth">    0.01    0.01</time>
   <time name="total">    0.98    1.02</time>
   <energy>
    <i name="e_fr_energy">   -364.32870466 </i>
    <i name="e_wo_entrp">   -364.36269262 </i>
    <i name="e_0_energy">   -364.34003398 </i>
   </energy>
  </scstep>
  <scstep>
   <time name="diag">    0.13    0.13</time>
   <time name="diis">    0.78    0.78</time>
   <time name="orth">    0.01    0.01</time>
   <time name="total">    0.98    1.02</time>
   <energy>
    <i name="e_fr_energy">   -364.32870950 </i>
    <i name="e_wo_entrp">   -364.36277361 </i>
    <i name="e_0_energy">   -364.34006420 </i>
   </energy>
  </scstep>
  <scstep>
   <time name="diag">    0.07    0.08</time>
   <time name="diis">    0.71    0.71</time>
   <time name="orth">    0.01    0.01</time>
   <time name="total">    0.86    0.89</time>
   <energy>
    <i name="e_fr_energy">   -364.32871972 </i>
    <i name="e_wo_entrp">   -364.36275261 </i>
    <i name="e_0_energy">   -364.34006402 </i>
   </energy>
  </scstep>
  <scstep>
   <time name="diag">    0.08    0.08</time>
   <time name="diis">    0.69    0.69</time>
   <time name="orth">    0.01    0.01</time>
   <time name="total">    0.85    0.88</time>
   <energy>
    <i name="e_fr_energy">   -364.32874172 </i>
    <i name="e_wo_entrp">   -364.36277859 </i>
    <i name="e_0_energy">   -364.34008734 </i>
   </energy>
  </scstep>
  <scstep>
   <time name="diag">    0.08    0.08</time>
   <time name="diis">    0.54    0.55</time>
   <time name="orth">    0.01    0.01</time>
   <time name="total">    0.69    0.73</time>
   <energy>
    <i name="e_fr_energy">   -364.32875363 </i>
    <i name="e_wo_entrp">   -364.36279701 </i>
    <i name="e_0_energy">   -364.34010143 </i>
   </energy>
  </scstep>
  <scstep>
   <time name="diag">    0.07    0.07</time>
   <time name="diis">    0.48    0.48</time>
   <time name="orth">    0.01    0.01</time>
   <time name="total">    0.60    0.63</time>
   <energy>
    <i name="alphaZ">   1486.52936117 </i>
    <i name="ewald"> -18711.89274252 </i>
    <i name="hartreedc">  -6929.67395202 </i>
    <i name="XCdc">   -321.90991956 </i>
    <i name="pawpsdc">  33448.21345923 </i>
    <i name="pawaedc"> -31813.47116677 </i>
    <i name="eentropy">      0.03403842 </i>
    <i name="bandstr">  -2518.08592357 </i>
    <i name="atom">  24995.92809465 </i>
    <i name="e_fr_energy">   -364.32875097 </i>
    <i name="e_wo_entrp">   -364.36278939 </i>
    <i name="e_0_energy">   -364.34009711 </i>
   </energy>
  </scstep>
  <structure>
   <crystal>
    <varray name="basis" >
     <v>       6.91513875      -0.00384521       0.00951820 </v>
     <v>      -0.00562554      10.24339840       0.00531773 </v>
     <v>       0.01444222       0.00493832      10.22619608 </v>
    </varray>
    <i name="volume">    724.36589091 </i>
    <varray name="rec_basis" >
     <v>       0.14461058       0.00007952      -0.00020427 </v>
     <v>       0.00005435       0.09762391      -0.00004722 </v>
     <v>      -0.00013463      -0.00005084       0.09778829 </v>
    </varray>
   </crystal>
   <varray name="positions" >
    <v>       0.71985739       0.84876823       0.51002406 </v>
    <v>       0.00042249       0.00140557       0.67481030 </v>
    <v>       0.75283053       0.48924525       0.83009239 </v>
    <v>       0.24172585       0.50541605       0.15464581 </v>
    <v>       0.00675281       0.68122466       0.34699605 </v>
    <v>       0.50741846       0.00158839       0.00370130 </v>
    <v>       0.74807705       0.16975106       0.50267150 </v>
    <v>       0.77169913       0.48209475       0.50398340 </v>
    <v>       0.49214928       0.67034229       0.33843878 </v>
    <v>       0.48932474       0.66078240       0.66529512 </v>
    <v>       0.47860612       0.33834170       0.33744976 </v>
    <v>       0.75257770       0.82819024       0.82854074 </v>
    <v>       0.25083171       0.17343933       0.17021357 </v>
    <v>       0.21994474       0.48785758       0.50350623 </v>
    <v>       0.00185651       0.67424193       0.98916821 </v>
    <v>       0.75202179       0.18284349       0.18025278 </v>
    <v>       0.49856241       0.00408903       0.67722599 </v>
    <v>       0.73335422       0.18042408       0.82019248 </v>
    <v>       0.77047364       0.81544083       0.15898559 </v>
    <v>       0.26804339       0.16879960       0.82554303 </v>
    <v>       0.25139223       0.16200453       0.50603250 </v>
    <v>       0.02095064       0.32281363       0.33314918 </v>
    <v>       0.01973201       0.32304350       0.67396601 </v>
    <v>       0.24587572       0.49267463       0.84128596 </v>
    <v>       0.27923131       0.85642182       0.51166350 </v>
    <v>       0.25220644       0.83687555       0.83599447 </v>
    <v>       0.23578648       0.81921842       0.14984282 </v>
    <v>       0.47872429       0.33940136       0.66518871 </v>
    <v>       0.49433405       0.32070146       0.99894257 </v>
    <v>       0.99596145       0.00214399       0.99860919 </v>
    <v>       0.00342702       0.99672615       0.33059644 </v>
    <v>       0.00124213       0.31243959       0.99781699 </v>
    <v>       0.00554674       0.67526024       0.66178790 </v>
    <v>       0.50120135       0.00112209       0.31825464 </v>
    <v>       0.75455862       0.49889753       0.16524785 </v>
    <v>       0.50328657       0.67597807       0.98988218 </v>
   </varray>
  </structure>
  <varray name="forces" >
   <v>       0.06814383      -0.10340573      -0.00607860 </v>
   <v>       0.27389967       0.14798416       0.19385180 </v>
   <v>      -0.00171216      -0.02105306      -0.00502963 </v>
   <v>      -0.00372928       0.00492567       0.00667670 </v>
   <v>       0.25209405      -0.14551163      -0.13337275 </v>
   <v>      -0.01194958       0.01240988      -0.00462246 </v>
   <v>       0.02098754       0.15532796       0.02041612 </v>
   <v>       0.01990495      -0.00999363      -0.00213134 </v>
   <v>      -0.22770662      -0.16348753      -0.15363919 </v>
   <v>      -0.24722954      -0.23474158       0.14574126 </v>
   <v>      -0.02624709       0.00128360      -0.00738540 </v>
   <v>      -0.00932283       0.04324345      -0.00479398 </v>
   <v>       0.00255944      -0.01472713       0.02370405 </v>
   <v>      -0.01245257      -0.04022110       0.00953755 </v>
   <v>       0.02528617       0.00755061      -0.00854688 </v>
   <v>      -0.00275787       0.00082971       0.01946777 </v>
   <v>      -0.32543618       0.30634084       0.44808055 </v>
   <v>       0.02743029       0.00112506      -0.03961884 </v>
   <v>       0.00654292       0.02739590       0.00117096 </v>
   <v>      -0.02233539      -0.04236553      -0.04395692 </v>
   <v>       0.02889171       0.01098247      -0.00463598 </v>
   <v>       0.01729134       0.00009550      -0.00767277 </v>
   <v>      -0.00402486      -0.00136611      -0.00442959 </v>
   <v>       0.01445998       0.01875006       0.00324115 </v>
   <v>      -0.11343808      -0.09712077      -0.07034362 </v>
   <v>       0.00765215       0.01783820       0.01090806 </v>
   <v>      -0.00404400      -0.00512330      -0.01818834 </v>
   <v>      -0.02082936       0.00440672       0.01150286 </v>
   <v>       0.01846149       0.00266887      -0.00227118 </v>
   <v>      -0.00909425      -0.01309209      -0.00145327 </v>
   <v>       0.21395847       0.12114583      -0.16308517 </v>
   <v>       0.00955852       0.00692674      -0.00720657 </v>
   <v>       0.23902880      -0.13227382       0.10321593 </v>
   <v>      -0.19650441       0.14545833      -0.31871778 </v>
   <v>       0.00593812      -0.00669007       0.00745873 </v>
   <v>      -0.01327534      -0.00551651       0.00220675 </v>
  </varray>
  <varray name="stress" >
   <v>       2.37689338       0.35168897      -0.19636137 </v>
   <v>       0.35168897       2.02932687       0.37214550 </v>
   <v>      -0.19636137       0.37214557       0.91167268 </v>
  </varray>
  <energy>
   <i name="e_fr_energy">   -364.32875097 </i>
   <i name="e_wo_entrp">   -364.34009711 </i>
   <i name="e_0_energy">      0.03403842 </i>
  </energy>
  <time name="totalsc">   11.85   12.74</time>
 </calculation>
 <calculation>
  <scstep>
   <time name="dav">    1.10    1.10</time>
   <time name="total">    1.19    1.33</time>
   <energy>
    <i name="alphaZ">   1473.89793660 </i>
    <i name="ewald"> -18647.82645427 </i>
    <i name="hartreedc">  -6920.74208906 </i>
    <i name="XCdc">   -324.31435783 </i>
    <i name="pawpsdc">  33448.08049735 </i>
    <i name="pawaedc"> -31813.40220197 </i>
    <i name="eentropy">      0.03518208 </i>
    <i name="bandstr">  -2576.15523121 </i>
    <i name="atom">  24995.92809465 </i>
    <i name="e_fr_energy">   -364.49862366 </i>
    <i name="e_wo_entrp">   -364.53380574 </i>
    <i name="e_0_energy">   -364.51035102 </i>
   </energy>
  </scstep>
  <scstep>
   <time name="diag">    0.14    0.14</time>
   <time name="diis">    0.83    0.83</time>
   <time name="orth">    0.01    0.01</time>
   <time name="total">    1.08    1.10</time>
   <energy>
    <i name="e_fr_energy">   -364.46101468 </i>
    <i name="e_wo_entrp">   -364.49354149 </i>
    <i name="e_0_energy">   -364.47185695 </i>
   </energy>
  </scstep>
  <scstep>
   <time name="diag">    0.08    0.08</time>
   <time name="diis">    0.79    0.79</time>
   <time name="orth">    0.01    0.01</time>
   <time name="total">    0.95    0.98</time>
   <energy>
    <i name="e_fr_energy">   -364.37794889 </i>
    <i name="e_wo_entrp">   -364.41360405 </i>
    <i name="e_0_energy">   -364.38983394 </i>
   </energy>
  </scstep>
  <scstep>
   <time name="diag">    0.07    0.07</time>
   <time name="diis">    0.72    0.87</time>
   <time name="orth">    0.01    0.01</time>
   <time name="total">    0.87    1.05</time>
   <energy>
    <i name="e_fr_energy">   -364.35543140 </i>
    <i name="e_wo_entrp">   -364.39108066 </i>
    <i name="e_0_energy">   -364.36731449 </i>
   </energy>
  </scstep>
  <scstep>
   <time name="diag">    0.07    0.07</time>
   <time name="diis">    0.78    0.78</time>
   <time name="orth">    0.01    0.01</time>
   <time name="total">    0.93    0.96</time>
   <energy>
    <i name="e_fr_energy">   -364.35027037 </i>
    <i name="e_wo_entrp">   -364.38580437 </i>
    <i name="e_0_energy">   -364.36211504 </i>
   </energy>
  </scstep>
  <scstep>
   <time name="diag">    0.08    0.08</time>
   <time name="diis">    0.80    0.80</time>
   <time name="orth">    0.01    0.01</time>
   <time name="total">    0.98    1.03</time>
   <energy>
    <i name="e_fr_energy">   -364.35030184 </i>
    <i name="e_wo_entrp">   -364.38568699 </i>
    <i name="e_0_energy">   -364.36209689 </i>
   </energy>
  </scstep>
  <scstep>
   <time name="diag">    0.08    0.08</time>
   <time name="diis">    0.82    0.83</time>
   <time name="orth">    0.01    0.01</time>
   <time name="total">    0.98    1.25</time>
   <energy>
    <i name="e_fr_energy">   -364.35043777 </i>
    <i name="e_wo_entrp">   -364.38598157 </i>
    <i name="e_0_energy">   -364.36228571 </i>
   </energy>
  </scstep>
  <scstep>
   <time name="diag">    0.08    0.08</time>
   <time name="diis">    0.83    0.84</time>
   <time name="orth">    0.01    0.01</time>
   <time name="total">    0.98    1.02</time>
   <energy>
    <i name="e_fr_energy">   -364.35055192 </i>
    <i name="e_wo_entrp">   -364.38603139 </i>
    <i name="e_0_energy">   -364.36237841 </i>
   </energy>
  </scstep>
  <scstep>
   <time name="diag">    0.08    0.08</time>
   <time name="diis">    0.74    0.75</time>
   <time name="orth">    0.01    0.01</time>
   <time name="total">    0.90    0.94</time>
   <energy>
    <i name="e_fr_energy">   -364.35068277 </i>
    <i name="e_wo_entrp">   -364.38616790 </i>
    <i name="e_0_energy">   -364.36251115 </i>
   </energy>
  </scstep>
  <scstep>
   <time name="diag">    0.09    0.09</time>
   <time name="diis">    0.72    0.73</time>
   <time name="orth">    0.02    0.02</time>
   <time name="total">    0.90    0.94</time>
   <energy>
    <i name="e_fr_energy">   -364.35078854 </i>
    <i name="e_wo_entrp">   -364.38629389 </i>
    <i name="e_0_energy">   -364.36262366 </i>
   </energy>
  </scstep>
  <scstep>
   <time name="diag">    0.07    0.07</time>
   <time name="diis">    0.61    0.62</time>
   <time name="orth">    0.01    0.01</time>
   <time name="total">    0.76    0.81</time>
   <energy>
    <i name="e_fr_energy">   -364.35080214 </i>
    <i name="e_wo_entrp">   -364.38629413 </i>
    <i name="e_0_energy">   -364.36263280 </i>
   </energy>
  </scstep>
  <scstep>
   <time name="diag">    0.07    0.07</time>
   <time name="diis">    0.54    0.54</time>
   <time name="orth">    0.01    0.01</time>
   <time name="total">    0.66    0.69</time>
   <energy>
    <i name="alphaZ">   1473.89793660 </i>
    <i name="ewald"> -18647.82645427 </i>
    <i name="hartreedc">  -6955.20892772 </i>
    <i name="XCdc">   -322.85495748 </i>
    <i name="pawpsdc">  33077.38367929 </i>
    <i name="pawaedc"> -31443.32577308 </i>
    <i name="eentropy">      0.03549739 </i>
    <i name="bandstr">  -2542.37989474 </i>
    <i name="atom">  24995.92809465 </i>
    <i name="e_fr_energy">   -364.35079937 </i>
    <i name="e_wo_entrp">   -364.38629676 </i>
    <i name="e_0_energy">   -364.36263183 </i>
   </energy>
  </scstep>
  <structure>
   <crystal>
    <varray name="basis" >
     <v>       6.93653445      -0.00292667       0.00878364 </v>
     <v>      -0.00426884      10.27394017       0.00745041 </v>
     <v>       0.01336770       0.00707035      10.25145486 </v>
    </varray>
    <i name="volume">    730.57376520 </i>
    <varray name="rec_basis" >
     <v>       0.14416447       0.00006004      -0.00018803 </v>
     <v>       0.00004115       0.09733371      -0.00006718 </v>
     <v>      -0.00012355      -0.00007079       0.09754734 </v>
    </varray>
   </crystal>
   <varray name="positions" >
    <v>       0.72038753       0.84838668       0.50992390 </v>
    <v>       0.00178728       0.00192743       0.67550049 </v>
    <v>       0.75282100       0.48921804       0.83007402 </v>
    <v>       0.24172341       0.50546310       0.15473080 </v>
    <v>       0.00797317       0.68072022       0.34653513 </v>
    <v>       0.50735542       0.00164258       0.00370835 </v>
    <v>       0.74818170       0.17029114       0.50272161 </v>
    <v>       0.77177409       0.48205579       0.50397360 </v>
    <v>       0.49102733       0.66975394       0.33788114 </v>
    <v>       0.48812062       0.65996795       0.66581845 </v>
    <v>       0.47850392       0.33834960       0.33741508 </v>
    <v>       0.75252157       0.82831669       0.82853376 </v>
    <v>       0.25084818       0.17331838       0.17031300 </v>
    <v>       0.21994418       0.48778626       0.50353448 </v>
    <v>       0.00198992       0.67420123       0.98913237 </v>
    <v>       0.75199361       0.18279330       0.18031635 </v>
    <v>       0.49693067       0.00522231       0.67887601 </v>
    <v>       0.73351690       0.18036876       0.82005048 </v>
    <v>       0.77044937       0.81555359       0.15900820 </v>
    <v>       0.26792900       0.16858533       0.82535310 </v>
    <v>       0.25151863       0.16201206       0.50599727 </v>
    <v>       0.02100536       0.32283418       0.33311113 </v>
    <v>       0.01967443       0.32303602       0.67397671 </v>
    <v>       0.24594339       0.49279124       0.84126024 </v>
    <v>       0.27844875       0.85601598       0.51138278 </v>
    <v>       0.25225645       0.83693861       0.83598906 </v>
    <v>       0.23584084       0.81923211       0.14984883 </v>
    <v>       0.47864594       0.33942988       0.66523931 </v>
    <v>       0.49441737       0.32074724       0.99894805 </v>
    <v>       0.99593039       0.00213543       0.99859679 </v>
    <v>       0.00451326       0.99713627       0.33002311 </v>
    <v>       0.00126373       0.31247927       0.99779136 </v>
    <v>       0.00672218       0.67480606       0.66214643 </v>
    <v>       0.50021385       0.00166026       0.31711592 </v>
    <v>       0.75458768       0.49889440       0.16528168 </v>
    <v>       0.50322590       0.67593766       0.98988899 </v>
   </varray>
  </structure>
  <varray name="forces" >
   <v>      -0.02872124      -0.05989601       0.04579385 </v>
   <v>       0.20947534       0.09757450       0.12259060 </v>
   <v>      -0.00098728      -0.04559564      -0.00382827 </v>
   <v>      -0.01053594      -0.01845205      -0.03917869 </v>
   <v>       0.20950492      -0.09940592      -0.09346682 </v>
   <v>      -0.00699315       0.00092503      -0.02039408 </v>
   <v>       0.01742270       0.10745826       0.02877371 </v>
   <v>       0.02580826      -0.00381627       0.00129540 </v>
   <v>      -0.17972137      -0.09625541      -0.08823522 </v>
   <v>      -0.20328144      -0.16408844       0.09112493 </v>
   <v>      -0.03229860      -0.00259001       0.00143211 </v>
   <v>      -0.00120094       0.04532886      -0.00911054 </v>
   <v>      -0.00092769       0.04011467       0.00419300 </v>
   <v>      -0.03770952      -0.07531861       0.01010674 </v>
   <v>       0.01459327       0.05220156      -0.00049254 </v>
   <v>       0.00449030       0.03756154       0.01568208 </v>
   <v>      -0.24913328       0.17073802       0.25445941 </v>
   <v>       0.01016254       0.03984147      -0.02479802 </v>
   <v>       0.03143276       0.00473775      -0.01465870 </v>
   <v>      -0.01769988       0.01801815      -0.00326221 </v>
   <v>       0.03034552       0.02956531       0.01000516 </v>
   <v>       0.02630832      -0.01574513       0.00305427 </v>
   <v>       0.01163453       0.00027939      -0.02154048 </v>
   <v>       0.01272604      -0.02305462       0.02714142 </v>
   <v>       0.00841836      -0.02359748      -0.02437233 </v>
   <v>       0.00074944       0.01226772       0.03622986 </v>
   <v>      -0.03672719      -0.02459438      -0.05936675 </v>
   <v>      -0.02564424      -0.00733081       0.00117886 </v>
   <v>       0.01909904      -0.02384925      -0.01092644 </v>
   <v>      -0.01376457      -0.03418549       0.00426546 </v>
   <v>       0.15461100       0.09030655      -0.11040401 </v>
   <v>       0.01912931      -0.00701908      -0.00441858 </v>
   <v>       0.19122523      -0.09433328       0.07046307 </v>
   <v>      -0.14547683       0.07874338      -0.20077516 </v>
   <v>       0.00566636      -0.01823928      -0.00119849 </v>
   <v>      -0.01198007       0.01170500       0.00263738 </v>
  </varray>
  <varray name="stress" >
   <v>      -9.59746886       0.35238715      -0.01159161 </v>
   <v>       0.35238718     -10.04008342       0.03446349 </v>
   <v>      -0.01159154       0.03446351     -10.74033479 </v>
  </varray>
  <energy>
   <i name="e_fr_energy">   -364.35079937 </i>
   <i name="e_wo_entrp">   -364.36263183 </i>
   <i name="e_0_energy">      0.03549739 </i>
  </energy>
  <time name="totalsc">   12.84   13.89</time>
 </calculation>
 <calculation>
  <scstep>
   <time name="dav">    0.92    1.01</time>
   <time name="total">    1.00    1.25</time>
   <energy>
    <i name="alphaZ">   1475.85449709 </i>
    <i name="ewald"> -18648.80525869 </i>
    <i name="hartreedc">  -6965.35134791 </i>
    <i name="XCdc">   -322.46558543 </i>
    <i name="pawpsdc">  33077.16515055 </i>
    <i name="pawaedc"> -31443.14979369 </i>
    <i name="eentropy">      0.03528516 </i>
    <i name="bandstr">  -2533.58199183 </i>
    <i name="atom">  24995.92809465 </i>
    <i name="e_fr_energy">   -364.37095011 </i>
    <i name="e_wo_entrp">   -364.40623527 </i>
    <i name="e_0_energy">   -364.38271183 </i>
   </energy>
  </scstep>
  <scstep>
   <time name="diag">    0.08    0.08</time>
   <time name="diis">    0.74    0.74</time>
   <time name="orth">    0.01    0.01</time>
   <time name="total">    0.89    0.92</time>
   <energy>
    <i name="e_fr_energy">   -364.37731349 </i>
    <i name="e_wo_entrp">   -364.41271130 </i>
    <i name="e_0_energy">   -364.38911276 </i>
   </energy>
  </scstep>
  <scstep>
   <time name="diag">    0.08    0.08</time>
   <time name="diis">    0.82    0.83</time>
   <time name="orth">    0.01    0.01</time>
   <time name="total">    0.98    1.01</time>
   <energy>
    <i name="e_fr_energy">   -364.37423257 </i>
    <i name="e_wo_entrp">   -364.40952149 </i>
    <i name="e_0_energy">   -364.38599554 </i>
   </energy>
  </scstep>
  <scstep>
   <time name="diag">    0.08    0.08</time>
   <time name="diis">    0.79    0.80</time>
   <time name="orth">    0.01    0.01</time>
   <time name="total">    0.95    0.98</time>
   <energy>
    <i name="e_fr_energy">   -364.37366228 </i>
    <i name="e_wo_entrp">   -364.40900381 </i>
    <i name="e_0_energy">   -364.38544279 </i>
   </energy>
  </scstep>
  <scstep>
   <time name="diag">    0.08    0.08</time>
   <time name="diis">    0.78    0.79</time>
   <time name="orth">    0.01    0.01</time>
   <time name="total">    0.94    0.97</time>
   <energy>
    <i name="e_fr_energy">   -364.37352413 </i>
    <i name="e_wo_entrp">   -364.40884620 </i>
    <i name="e_0_energy">   -364.38529816 </i>
   </energy>
  </scstep>
  <scstep>
   <time name="diag">    0.08    0.08</time>
   <time name="diis">    0.78    0.79</time>
   <time name="orth">    0.01    0.01</time>
   <time name="total">    0.94    0.97</time>
   <energy>
    <i name="e_fr_energy">   -364.37353780 </i>
    <i name="e_wo_entrp">   -364.40888029 </i>
    <i name="e_0_energy">   -364.38531863 </i>
   </energy>
  </scstep>
  <scstep>
   <time name="diag">    0.12    0.13</time>
   <time name="diis">    0.72    0.73</time>
   <time name="orth">    0.01    0.01</time>
   <time name="total">    0.92    0.97</time>
   <energy>
    <i name="e_fr_energy">   -364.37355004 </i>
    <i name="e_wo_entrp">   -364.40889048 </i>
    <i name="e_0_energy">   -364.38533019 </i>
   </energy>
  </scstep>
  <scstep>
   <time name="diag">    0.07    0.08</time>
   <time name="diis">    0.54    0.55</time>
   <time name="orth">    0.01    0.01</time>
   <time name="total">    0.69    0.74</time>
   <energy>
    <i name="e_fr_energy">   -364.37356363 </i>
    <i name="e_wo_entrp">   -364.40889318 </i>
    <i name="e_0_energy">   -364.38534015 </i>
   </energy>
  </scstep>
  <scstep>
   <time name="diag">    0.08    0.08</time>
   <time name="diis">    0.49    0.50</time>
   <time name="orth">    0.01    0.01</time>
   <time name="total">    0.63    0.66</time>
   <energy>
    <i name="alphaZ">   1475.85449709 </i>
    <i name="ewald"> -18648.80525869 </i>
    <i name="hartreedc">  -6960.14893965 </i>
    <i name="XCdc">   -322.68757574 </i>
    <i name="pawpsdc">  33133.34262654 </i>
    <i name="pawaedc"> -31499.40473061 </i>
    <i name="eentropy">      0.03534045 </i>
    <i name="bandstr">  -2538.48762666 </i>
    <i name="atom">  24995.92809465 </i>
    <i name="e_fr_energy">   -364.37357263 </i>
    <i name="e_wo_entrp">   -364.40891308 </i>
    <i name="e_0_energy">   -364.38535278 </i>
   </energy>
  </scstep>
  <structure>
   <crystal>
    <varray name="basis" >
     <v>       6.93471773      -0.00217279       0.00846186 </v>
     <v>      -0.00315422      10.27008062       0.00834823 </v>
     <v>       0.01289874       0.00796993      10.24439424 </v>
    </varray>
    <i name="volume">    729.60523358 </i>
    <varray name="rec_basis" >
     <v>       0.14420221       0.00004444      -0.00018160 </v>
     <v>       0.00003060       0.09737029      -0.00007579 </v>
     <v>      -0.00011914      -0.00007938       0.09761457 </v>
    </varray>
   </crystal>
   <varray name="positions" >
    <v>       0.72054675       0.84816359       0.50993922 </v>
    <v>       0.00269963       0.00225108       0.67592101 </v>
    <v>       0.75281544       0.48915269       0.83006218 </v>
    <v>       0.24170384       0.50545970       0.15471757 </v>
    <v>       0.00882865       0.68040136       0.34623997 </v>
    <v>       0.50731807       0.00166519       0.00368669 </v>
    <v>       0.74825405       0.17063393       0.50277585 </v>
    <v>       0.77184956       0.48203578       0.50397123 </v>
    <v>       0.49026396       0.66940546       0.33755439 </v>
    <v>       0.48728252       0.65944837       0.66613590 </v>
    <v>       0.47840613       0.33834963       0.33740309 </v>
    <v>       0.75249722       0.82842110       0.82852001 </v>
    <v>       0.25085311       0.17331840       0.17035747 </v>
    <v>       0.21987705       0.48766780       0.50355794 </v>
    <v>       0.00206873       0.67424756       0.98911749 </v>
    <v>       0.75199040       0.18281832       0.18036034 </v>
    <v>       0.49584150       0.00587572       0.67983608 </v>
    <v>       0.73359951       0.18039453       0.81996435 </v>
    <v>       0.77049549       0.81560401       0.15899953 </v>
    <v>       0.26785228       0.16852192       0.82527385 </v>
    <v>       0.25162255       0.16205043       0.50599521 </v>
    <v>       0.02107367       0.32282351       0.33309967 </v>
    <v>       0.01967226       0.32303341       0.67395510 </v>
    <v>       0.24599270       0.49280988       0.84128258 </v>
    <v>       0.27815336       0.85582684       0.51124217 </v>
    <v>       0.25227753       0.83697827       0.83603035 </v>
    <v>       0.23579743       0.81920814       0.14978009 </v>
    <v>       0.47856941       0.33943241       0.66526085 </v>
    <v>       0.49448428       0.32073688       0.99893712 </v>
    <v>       0.99589364       0.00209111       0.99859703 </v>
    <v>       0.00521836       0.99740718       0.32966287 </v>
    <v>       0.00130620       0.31248663       0.99777586 </v>
    <v>       0.00752712       0.67451299       0.66237308 </v>
    <v>       0.49956476       0.00196818       0.31642332 </v>
    <v>       0.75460925       0.49887133       0.16529368 </v>
    <v>       0.50318061       0.67593563       0.98989486 </v>
   </varray>
  </structure>
  <varray name="forces" >
   <v>      -0.05076880      -0.04814727       0.05912400 </v>
   <v>       0.16026691       0.06999246       0.07780159 </v>
   <v>      -0.00042345      -0.04172879       0.00123560 </v>
   <v>      -0.01035843      -0.03196730      -0.05618599 </v>
   <v>       0.17448037      -0.08060959      -0.06824215 </v>
   <v>       0.00162313      -0.00242372      -0.02501783 </v>
   <v>       0.01292839       0.07078064       0.02559614 </v>
   <v>       0.01169698       0.01573563      -0.00284689 </v>
   <v>      -0.14270068      -0.06961452      -0.05217001 </v>
   <v>      -0.16487252      -0.12848880       0.05326766 </v>
   <v>      -0.01490803       0.00528256       0.00268751 </v>
   <v>       0.00022176       0.04865851      -0.01059938 </v>
   <v>      -0.00161185       0.04687922      -0.01180960 </v>
   <v>      -0.03088936      -0.06352136       0.00653832 </v>
   <v>      -0.00494138       0.04722673       0.00093743 </v>
   <v>       0.00638145       0.03829075       0.01022840 </v>
   <v>      -0.18390471       0.10118111       0.15098873 </v>
   <v>       0.01450216       0.03806530      -0.00632532 </v>
   <v>       0.02571226       0.00704382      -0.01359863 </v>
   <v>      -0.03139211       0.03500840       0.03809583 </v>
   <v>       0.03312334       0.02930025       0.00407065 </v>
   <v>       0.00928496      -0.00928623       0.00642304 </v>
   <v>      -0.00274766       0.00559176      -0.03226673 </v>
   <v>       0.01083220      -0.02952936       0.04093346 </v>
   <v>       0.04283797      -0.00376658      -0.01592155 </v>
   <v>      -0.00014651       0.00807834       0.04396323 </v>
   <v>      -0.03232155      -0.01430781      -0.05930154 </v>
   <v>      -0.00548876      -0.00819008      -0.00984989 </v>
   <v>       0.02428168      -0.01843898      -0.00632341 </v>
   <v>      -0.02246580      -0.03189935       0.00732710 </v>
   <v>       0.11136003       0.06874915      -0.07664734 </v>
   <v>       0.01682318      -0.00635242      -0.00005476 </v>
   <v>       0.15018652      -0.07675942       0.04996977 </v>
   <v>      -0.10679658       0.04483820      -0.13556833 </v>
   <v>       0.00120674      -0.01880864      -0.00348714 </v>
   <v>      -0.00101186       0.00313738       0.00702805 </v>
  </varray>
  <varray name="stress" >
   <v>      -7.98481739       0.32474332       0.06349296 </v>
   <v>       0.32474329      -8.30247132      -0.09509094 </v>
   <v>       0.06349307      -0.09509092      -8.80482051 </v>
  </varray>
  <energy>
   <i name="e_fr_energy">   -364.37357263 </i>
   <i name="e_wo_entrp">   -364.38535278 </i>
   <i name="e_0_energy">      0.03534045 </i>
  </energy>
  <time name="totalsc">    9.53   10.19</time>
 </calculation>
 <calculation>
  <scstep>
   <time name="dav">    0.91    0.91</time>
   <time name="total">    0.99    1.14</time>
   <energy>
    <i name="alphaZ">   1480.56708720 </i>
    <i name="ewald"> -18650.14254117 </i>
    <i name="hartreedc">  -6985.55483868 </i>
    <i name="XCdc">   -321.73991371 </i>
    <i name="pawpsdc">  33133.59469150 </i>
    <i name="pawaedc"> -31499.61737005 </i>
    <i name="eentropy">      0.03388714 </i>
    <i name="bandstr">  -2517.45305762 </i>
    <i name="atom">  24995.92809465 </i>
    <i name="e_fr_energy">   -364.38396075 </i>
    <i name="e_wo_entrp">   -364.41784789 </i>
    <i name="e_0_energy">   -364.39525646 </i>
   </energy>
  </scstep>
  <scstep>
   <time name="diag">    0.08    0.08</time>
   <time name="diis">    0.75    0.75</time>
   <time name="orth">    0.01    0.01</time>
   <time name="total">    0.90    0.93</time>
   <energy>
    <i name="e_fr_energy">   -364.42177869 </i>
    <i name="e_wo_entrp">   -364.45591034 </i>
    <i name="e_0_energy">   -364.43315591 </i>
   </energy>
  </scstep>
  <scstep>
   <time name="diag">    0.07    0.07</time>
   <time name="diis">    0.83    0.83</time>
   <time name="orth">    0.01    0.01</time>
   <time name="total">    0.98    1.02</time>
   <energy>
    <i name="e_fr_energy">   -364.40308459 </i>
    <i name="e_wo_entrp">   -364.43705642 </i>
    <i name="e_0_energy">   -364.41440853 </i>
   </energy>
  </scstep>
  <scstep>
   <time name="diag">    0.08    0.08</time>
   <time name="diis">    0.83    0.83</time>
   <time name="orth">    0.01    0.01</time>
   <time name="total">    0.99    1.02</time>
   <energy>
    <i name="e_fr_energy">   -364.39991401 </i>
    <i name="e_wo_entrp">   -364.43403397 </i>
    <i name="e_0_energy">   -364.41128733 </i>
   </energy>
  </scstep>
  <scstep>
   <time name="diag">    0.13    0.13</time>
   <time name="diis">    0.79    0.80</time>
   <time name="orth">    0.01    0.01</time>
   <time name="total">    1.02    1.12</time>
   <energy>
    <i name="e_fr_energy">   -364.39916667 </i>
    <i name="e_wo_entrp">   -364.43326211 </i>
    <i name="e_0_energy">   -364.41053181 </i>
   </energy>
  </scstep>
  <scstep>
   <time name="diag">    0.11    0.12</time>
   <time name="diis">    0.85    0.86</time>
   <time name="orth">    0.01    0.01</time>
   <time name="total">    1.05    1.10</time>
   <energy>
    <i name="e_fr_energy">   -364.39925661 </i>
    <i name="e_wo_entrp">   -364.43337737 </i>
    <i name="e_0_energy">   -364.41063020 </i>
   </energy>
  </scstep>
  <scstep>
   <time name="diag">    0.08    0.08</time>
   <time name="diis">    0.83    0.83</time>
   <time name="orth">    0.01    0.01</time>
   <time name="total">    1.00    1.03</time>
   <energy>
    <i name="e_fr_energy">   -364.39930466 </i>
    <i name="e_wo_entrp">   -364.43344927 </i>
    <i name="e_0_energy">   -364.41068620 </i>
   </energy>
  </scstep>
  <scstep>
   <time name="diag">    0.07    0.08</time>
   <time name="diis">    0.83    0.83</time>
   <time name="orth">    0.01    0.01</time>
   <time name="total">    1.00    1.04</time>
   <energy>
    <i name="e_fr_energy">   -364.39936708 </i>
    <i name="e_wo_entrp">   -364.43346349 </i>
    <i name="e_0_energy">   -364.41073255 </i>
   </energy>
  </scstep>
  <scstep>
   <time name="diag">    0.07    0.08</time>
   <time name="diis">    0.70    0.70</time>
   <time name="orth">    0.01    0.01</time>
   <time name="total">    0.85    0.90</time>
   <energy>
    <i name="e_fr_energy">   -364.39940581 </i>
    <i name="e_wo_entrp">   -364.43354043 </i>
    <i name="e_0_energy">   -364.41078402 </i>
   </energy>
  </scstep>
  <scstep>
   <time name="diag">    0.07    0.08</time>
   <time name="diis">    0.56    0.63</time>
   <time name="orth">    0.01    0.02</time>
   <time name="total">    0.71    0.84</time>
   <energy>
    <i name="e_fr_energy">   -364.39942715 </i>
    <i name="e_wo_entrp">   -364.43355399 </i>
    <i name="e_0_energy">   -364.41080276 </i>
   </energy>
  </scstep>
  <scstep>
   <time name="diag">    0.07    0.08</time>
   <time name="diis">    0.48    0.48</time>
   <time name="orth">    0.01    0.01</time>
   <time name="total">    0.60    0.67</time>
   <energy>
    <i name="alphaZ">   1480.56708720 </i>
    <i name="ewald"> -18650.14254117 </i>
    <i name="hartreedc">  -6973.57991034 </i>
    <i name="XCdc">   -322.25454352 </i>
    <i name="pawpsdc">  33282.33566488 </i>
    <i name="pawaedc"> -31648.03966480 </i>
    <i name="eentropy">      0.03411974 </i>
    <i name="bandstr">  -2529.24774172 </i>
    <i name="atom">  24995.92809465 </i>
    <i name="e_fr_energy">   -364.39943509 </i>
    <i name="e_wo_entrp">   -364.43355484 </i>
    <i name="e_0_energy">   -364.41080834 </i>
   </energy>
  </scstep>
  <structure>
   <crystal>
    <varray name="basis" >
     <v>       6.93035591      -0.00036276       0.00768929 </v>
     <v>      -0.00047811      10.26081409       0.01050384 </v>
     <v>       0.01177278       0.01012974      10.22744215 </v>
    </varray>
    <i name="volume">    727.28292718 </i>
    <varray name="rec_basis" >
     <v>       0.14429292       0.00000689      -0.00016610 </v>
     <v>       0.00000521       0.09745825      -0.00009653 </v>
     <v>      -0.00010849      -0.00010010       0.09777638 </v>
    </varray>
   </crystal>
   <varray name="positions" >
    <v>       0.72092922       0.84762776       0.50997607 </v>
    <v>       0.00489063       0.00302820       0.67693133 </v>
    <v>       0.75280212       0.48899573       0.83003375 </v>
    <v>       0.24165685       0.50545154       0.15468578 </v>
    <v>       0.01088321       0.67963542       0.34553095 </v>
    <v>       0.50722835       0.00171953       0.00363464 </v>
    <v>       0.74842770       0.17145724       0.50290609 </v>
    <v>       0.77203082       0.48198771       0.50396556 </v>
    <v>       0.48843076       0.66856867       0.33676937 </v>
    <v>       0.48527004       0.65820049       0.66689865 </v>
    <v>       0.47817129       0.33834971       0.33737426 </v>
    <v>       0.75243871       0.82867188       0.82848696 </v>
    <v>       0.25086494       0.17331843       0.17046430 </v>
    <v>       0.21971589       0.48738331       0.50361433 </v>
    <v>       0.00225800       0.67435883       0.98908175 </v>
    <v>       0.75198267       0.18287842       0.18046605 </v>
    <v>       0.49322568       0.00744511       0.68214251 </v>
    <v>       0.73379788       0.18045643       0.81975741 </v>
    <v>       0.77060623       0.81572511       0.15897869 </v>
    <v>       0.26766805       0.16836964       0.82508343 </v>
    <v>       0.25187208       0.16214257       0.50599029 </v>
    <v>       0.02123772       0.32279785       0.33307214 </v>
    <v>       0.01966705       0.32302716       0.67390319 </v>
    <v>       0.24611110       0.49285465       0.84133625 </v>
    <v>       0.27744402       0.85537265       0.51090434 </v>
    <v>       0.25232816       0.83707352       0.83612955 </v>
    <v>       0.23569316       0.81915059       0.14961495 </v>
    <v>       0.47838561       0.33943848       0.66531259 </v>
    <v>       0.49464495       0.32071198       0.99891084 </v>
    <v>       0.99580540       0.00198469       0.99859762 </v>
    <v>       0.00691154       0.99805783       0.32879735 </v>
    <v>       0.00140820       0.31250429       0.99773863 </v>
    <v>       0.00946038       0.67380890       0.66291775 </v>
    <v>       0.49800571       0.00270800       0.31475916 </v>
    <v>       0.75466104       0.49881592       0.16532251 </v>
    <v>       0.50307184       0.67593077       0.98990896 </v>
   </varray>
  </structure>
  <varray name="forces" >
   <v>      -0.09665524      -0.02598149       0.08541238 </v>
   <v>       0.03744760       0.00297368      -0.02913077 </v>
   <v>       0.00099312      -0.03020387       0.01300525 </v>
   <v>      -0.01075930      -0.06705809      -0.09994023 </v>
   <v>       0.08547395      -0.03437626      -0.00776804 </v>
   <v>       0.02588824      -0.01188885      -0.03493466 </v>
   <v>       0.00279958      -0.01714836       0.01624782 </v>
   <v>      -0.02116459       0.06450604      -0.01154749 </v>
   <v>      -0.04922467      -0.00477220       0.03474136 </v>
   <v>      -0.06977926      -0.04207433      -0.03696603 </v>
   <v>       0.02819321       0.02316691       0.00670300 </v>
   <v>       0.00441739       0.05856676      -0.01473124 </v>
   <v>      -0.00416080       0.06758661      -0.05353885 </v>
   <v>      -0.01445541      -0.03769358      -0.00340764 </v>
   <v>      -0.05346797       0.03512999       0.00372361 </v>
   <v>       0.01156796       0.03823941      -0.00426475 </v>
   <v>      -0.02447810      -0.06420887      -0.09623465 </v>
   <v>       0.02510874       0.03198042       0.03998034 </v>
   <v>       0.01093967       0.01364147      -0.01188626 </v>
   <v>      -0.06856183       0.08437024       0.14811208 </v>
   <v>       0.04108938       0.03010521      -0.01106754 </v>
   <v>      -0.03403954       0.00529738       0.01523933 </v>
   <v>      -0.03873624       0.01969718      -0.05894024 </v>
   <v>       0.00358536      -0.04755875       0.07650139 </v>
   <v>       0.12215790       0.03989785       0.00168351 </v>
   <v>      -0.00317259      -0.00293066       0.06404795 </v>
   <v>      -0.02220124       0.01158933      -0.05975881 </v>
   <v>       0.04389059      -0.01188490      -0.03684375 </v>
   <v>       0.03883947      -0.00519625       0.00475635 </v>
   <v>      -0.04483304      -0.02647269       0.01596894 </v>
   <v>       0.00398115       0.01622114       0.00305919 </v>
   <v>       0.01148741      -0.00455843       0.00901796 </v>
   <v>       0.04919228      -0.03507526       0.00071730 </v>
   <v>      -0.01001488      -0.03871241       0.02166831 </v>
   <v>      -0.00912933      -0.01902282      -0.00911645 </v>
   <v>       0.02778102      -0.01615153       0.01949134 </v>
  </varray>
  <varray name="stress" >
   <v>      -3.39262769       0.23177309       0.23969584 </v>
   <v>       0.23177313      -3.41049373      -0.38458722 </v>
   <v>       0.23969593      -0.38458722      -3.39516560 </v>
  </varray>
  <energy>
   <i name="e_fr_energy">   -364.39943509 </i>
   <i name="e_wo_entrp">   -364.41080834 </i>
   <i name="e_0_energy">      0.03411974 </i>
  </energy>
  <time name="totalsc">   11.75   12.60</time>
 </calculation>
 <calculation>
  <scstep>
   <time name="dav">    1.01    1.02</time>
   <time name="total">    1.09    1.24</time>
   <energy>
    <i name="alphaZ">   1481.15131512 </i>
    <i name="ewald"> -18650.20581323 </i>
    <i name="hartreedc">  -6976.88590847 </i>
    <i name="XCdc">   -322.13431286 </i>
    <i name="pawpsdc">  33283.01199972 </i>
    <i name="pawaedc"> -31648.66661791 </i>
    <i name="eentropy">      0.03388328 </i>
    <i name="bandstr">  -2526.63213423 </i>
    <i name="atom">  24995.92809465 </i>
    <i name="e_fr_energy">   -364.39949394 </i>
    <i name="e_wo_entrp">   -364.43337722 </i>
    <i name="e_0_energy">   -364.41078837 </i>
   </energy>
  </scstep>
  <scstep>
   <time name="diag">    0.08    0.08</time>
   <time name="diis">    0.73    0.74</time>
   <time name="orth">    0.01    0.01</time>
   <time name="total">    0.89    0.92</time>
   <energy>
    <i name="e_fr_energy">   -364.40007263 </i>
    <i name="e_wo_entrp">   -364.43399319 </i>
    <i name="e_0_energy">   -364.41137949 </i>
   </energy>
  </scstep>
  <scstep>
   <time name="diag">    0.07    0.07</time>
   <time name="diis">    0.81    0.81</time>
   <time name="orth">    0.01    0.01</time>
   <time name="total">    0.97    1.01</time>
   <energy>
    <i name="e_fr_energy">   -364.39981149 </i>
    <i name="e_wo_entrp">   -364.43369480 </i>
    <i name="e_0_energy">   -364.41110593 </i>
   </energy>
  </scstep>
  <scstep>
   <time name="diag">    0.08    0.08</time>
   <time name="diis">    0.75    0.83</time>
   <time name="orth">    0.01    0.02</time>
   <time name="total">    0.93    1.08</time>
   <energy>
    <i name="e_fr_energy">   -364.39976804 </i>
    <i name="e_wo_entrp">   -364.43366220 </i>
    <i name="e_0_energy">   -364.41106609 </i>
   </energy>
  </scstep>
  <scstep>
   <time name="diag">    0.07    0.08</time>
   <time name="diis">    0.72    0.79</time>
   <time name="orth">    0.01    0.02</time>
   <time name="total">    0.87    1.00</time>
   <energy>
    <i name="e_fr_energy">   -364.39976216 </i>
    <i name="e_wo_entrp">   -364.43365332 </i>
    <i name="e_0_energy">   -364.41105921 </i>
   </energy>
  </scstep>
  <scstep>
   <time name="diag">    0.10    0.10</time>
   <time name="diis">    0.51    0.52</time>
   <time name="orth">    0.01    0.01</time>
   <time name="total">    0.67    0.73</time>
   <energy>
    <i name="alphaZ">   1481.15131512 </i>
    <i name="ewald"> -18650.20581323 </i>
    <i name="hartreedc">  -6975.35039922 </i>
    <i name="XCdc">   -322.20024537 </i>
    <i name="pawpsdc">  33303.07658235 </i>
    <i name="pawaedc"> -31668.72194380 </i>
    <i name="eentropy">      0.03389425 </i>
    <i name="bandstr">  -2528.11125163 </i>
    <i name="atom">  24995.92809465 </i>
    <i name="e_fr_energy">   -364.39976690 </i>
    <i name="e_wo_entrp">   -364.43366115 </i>
    <i name="e_0_energy">   -364.41106499 </i>
   </energy>
  </scstep>
  <structure>
   <crystal>
    <varray name="basis" >
     <v>       6.92981653      -0.00013893       0.00759375 </v>
     <v>      -0.00014718      10.25966820       0.01077040 </v>
     <v>       0.01163355       0.01039682      10.22534588 </v>
    </varray>
    <i name="volume">    726.99605643 </i>
    <varray name="rec_basis" >
     <v>       0.14430414       0.00000224      -0.00016418 </v>
     <v>       0.00000206       0.09746914      -0.00009911 </v>
     <v>      -0.00010717      -0.00010267       0.09779643 </v>
    </varray>
   </crystal>
   <varray name="positions" >
    <v>       0.72097657       0.84756143       0.50998065 </v>
    <v>       0.00516172       0.00312431       0.67705648 </v>
    <v>       0.75280048       0.48897630       0.83003023 </v>
    <v>       0.24165104       0.50545054       0.15468185 </v>
    <v>       0.01113746       0.67954060       0.34544317 </v>
    <v>       0.50721724       0.00172625       0.00362819 </v>
    <v>       0.74844915       0.17155913       0.50292220 </v>
    <v>       0.77205325       0.48198176       0.50396486 </v>
[...]
       <r>    6.7732    1.0000 </r>
       <r>    6.8083    1.0000 </r>
       <r>    6.8526    1.0000 </r>
       <r>    6.8908    1.0000 </r>
       <r>    6.9203    1.0000 </r>
       <r>    6.9754    1.0000 </r>
       <r>    7.0091    1.0000 </r>
       <r>    7.0683    1.0004 </r>
       <r>    7.1048    1.0013 </r>
       <r>    7.1212    1.0021 </r>
       <r>    7.1677    1.0067 </r>
       <r>    7.1955    1.0119 </r>
       <r>    7.2180    1.0177 </r>
       <r>    7.2584    1.0298 </r>
       <r>    7.2885    1.0354 </r>
       <r>    7.3198    1.0289 </r>
       <r>    7.3443    1.0073 </r>
       <r>    7.3964    0.8863 </r>
       <r>    7.4221    0.7829 </r>
       <r>    7.4612    0.5827 </r>
       <r>    7.5442    0.1557 </r>
       <r>    7.5972    0.0078 </r>
       <r>    7.6257   -0.0250 </r>
       <r>    7.6511   -0.0349 </r>
       <r>    7.6815   -0.0328 </r>
       <r>    7.7118   -0.0243 </r>
       <r>    7.7219   -0.0212 </r>
       <r>    7.7492   -0.0136 </r>
       <r>    7.8169   -0.0030 </r>
       <r>    7.8410   -0.0015 </r>
       <r>    7.8961   -0.0003 </r>
       <r>    7.9229   -0.0001 </r>
       <r>    7.9787   -0.0000 </r>
       <r>    8.0050   -0.0000 </r>
       <r>    8.0336   -0.0000 </r>
       <r>    8.1096   -0.0000 </r>
       <r>    8.1543   -0.0000 </r>
       <r>    8.1917   -0.0000 </r>
       <r>    8.2553   -0.0000 </r>
       <r>    8.3324   -0.0000 </r>
       <r>    8.3671   -0.0000 </r>
       <r>    8.6147   -0.0000 </r>
       <r>    8.7537   -0.0000 </r>
       <r>    8.8048   -0.0000 </r>
       <r>    9.3376   -0.0000 </r>
       <r>    9.3888   -0.0000 </r>
       <r>    9.4708   -0.0000 </r>
       <r>    9.5071   -0.0000 </r>
       <r>    9.5494   -0.0000 </r>
      </set>
     </set>
    </set>
   </array>
  </eigenvalues>
  <separator name="orbital magnetization" >
   <v name="MAGDIPOLOUT">      0.00000000      0.00000000      0.00000000</v>
  </separator>
  <dos>
   <i name="efermi">      7.47592754 </i>
   <total>
    <array>
     <dimension dim="1">gridpoints</dimension>
     <dimension dim="2">spin</dimension>
     <field>energy</field>
     <field>total</field>
     <field>integrated</field>
     <set>
      <set comment="spin 1">
       <r>   -49.6189     0.0000     0.0000 </r>
       <r>   -49.4121     0.0000     0.0000 </r>
       <r>   -49.2053     0.0000     0.0000 </r>
       <r>   -48.9986     0.0000     0.0000 </r>
       <r>   -48.7918     0.0000     0.0000 </r>
       <r>   -48.5850     0.0000     0.0000 </r>
       <r>   -48.3783     0.0000     0.0000 </r>
       <r>   -48.1715    -0.0000    -0.0000 </r>
       <r>   -47.9648    -0.0000    -0.0000 </r>
       <r>   -47.7580    -0.0000    -0.0000 </r>
       <r>   -47.5512    -0.0000    -0.0000 </r>
       <r>   -47.3445    -0.0000    -0.0000 </r>
       <r>   -47.1377    -0.0589    -0.0122 </r>
       <r>   -46.9309    -1.2884    -0.2786 </r>
       <r>   -46.7242    31.5000     6.2344 </r>
       <r>   -46.5174    46.9623    15.9445 </r>
       <r>   -46.3107    10.7563    18.1685 </r>
       <r>   -46.1039    -0.8086    18.0013 </r>
       <r>   -45.8971    -0.0063    18.0000 </r>
       <r>   -45.6904    -0.0000    18.0000 </r>
       <r>   -45.4836    -0.0000    18.0000 </r>
       <r>   -45.2768     0.0000    18.0000 </r>
       <r>   -45.0701     0.0000    18.0000 </r>
       <r>   -44.8633     0.0000    18.0000 </r>
       <r>   -44.6566     0.0000    18.0000 </r>
       <r>   -44.4498     0.0000    18.0000 </r>
       <r>   -44.2430     0.0000    18.0000 </r>
       <r>   -44.0363     0.0000    18.0000 </r>
       <r>   -43.8295     0.0000    18.0000 </r>
       <r>   -43.6228     0.0000    18.0000 </r>
       <r>   -43.4160     0.0000    18.0000 </r>
       <r>   -43.2092     0.0000    18.0000 </r>
       <r>   -43.0025     0.0000    18.0000 </r>
       <r>   -42.7957     0.0000    18.0000 </r>
       <r>   -42.5889     0.0000    18.0000 </r>
       <r>   -42.3822     0.0000    18.0000 </r>
       <r>   -42.1754    -0.0000    18.0000 </r>
       <r>   -41.9687    -0.0000    18.0000 </r>
       <r>   -41.7619    -0.0000    18.0000 </r>
       <r>   -41.5551    -0.0000    18.0000 </r>
       <r>   -41.3484    -0.0000    18.0000 </r>
       <r>   -41.1416    -0.0544    17.9887 </r>
       <r>   -40.9348    -0.2281    17.9416 </r>
       <r>   -40.7281    15.6342    21.1741 </r>
       <r>   -40.5213    38.3202    29.0973 </r>
       <r>   -40.3146    14.3646    32.0674 </r>
       <r>   -40.1078    -0.2781    32.0099 </r>
       <r>   -39.9010    -0.0477    32.0000 </r>
       <r>   -39.6943    -0.0000    32.0000 </r>
       <r>   -39.4875    -0.0000    32.0000 </r>
       <r>   -39.2807     0.0000    32.0000 </r>
       <r>   -39.0740     0.0000    32.0000 </r>
       <r>   -38.8672     0.0000    32.0000 </r>
       <r>   -38.6605     0.0000    32.0000 </r>
       <r>   -38.4537     0.0000    32.0000 </r>
       <r>   -38.2469     0.0000    32.0000 </r>
       <r>   -38.0402     0.0000    32.0000 </r>
       <r>   -37.8334     0.0000    32.0000 </r>
       <r>   -37.6266     0.0000    32.0000 </r>
       <r>   -37.4199     0.0000    32.0000 </r>
       <r>   -37.2131     0.0000    32.0000 </r>
       <r>   -37.0064     0.0000    32.0000 </r>
       <r>   -36.7996     0.0000    32.0000 </r>
       <r>   -36.5928     0.0000    32.0000 </r>
       <r>   -36.3861     0.0000    32.0000 </r>
       <r>   -36.1793     0.0000    32.0000 </r>
       <r>   -35.9725     0.0000    32.0000 </r>
       <r>   -35.7658     0.0000    32.0000 </r>
       <r>   -35.5590     0.0000    32.0000 </r>
       <r>   -35.3523     0.0000    32.0000 </r>
       <r>   -35.1455     0.0000    32.0000 </r>
       <r>   -34.9387     0.0000    32.0000 </r>
       <r>   -34.7320     0.0000    32.0000 </r>
       <r>   -34.5252     0.0000    32.0000 </r>
       <r>   -34.3184     0.0000    32.0000 </r>
       <r>   -34.1117     0.0000    32.0000 </r>
       <r>   -33.9049     0.0000    32.0000 </r>
       <r>   -33.6982     0.0000    32.0000 </r>
       <r>   -33.4914     0.0000    32.0000 </r>
       <r>   -33.2846     0.0000    32.0000 </r>
       <r>   -33.0779     0.0000    32.0000 </r>
       <r>   -32.8711     0.0000    32.0000 </r>
       <r>   -32.6644     0.0000    32.0000 </r>
       <r>   -32.4576     0.0000    32.0000 </r>
       <r>   -32.2508     0.0000    32.0000 </r>
       <r>   -32.0441     0.0000    32.0000 </r>
       <r>   -31.8373     0.0000    32.0000 </r>
       <r>   -31.6305     0.0000    32.0000 </r>
       <r>   -31.4238     0.0000    32.0000 </r>
       <r>   -31.2170     0.0000    32.0000 </r>
       <r>   -31.0103     0.0000    32.0000 </r>
       <r>   -30.8035     0.0000    32.0000 </r>
       <r>   -30.5967     0.0000    32.0000 </r>
       <r>   -30.3900     0.0000    32.0000 </r>
       <r>   -30.1832     0.0000    32.0000 </r>
       <r>   -29.9764     0.0000    32.0000 </r>
       <r>   -29.7697     0.0000    32.0000 </r>
       <r>   -29.5629     0.0000    32.0000 </r>
       <r>   -29.3562     0.0000    32.0000 </r>
       <r>   -29.1494     0.0000    32.0000 </r>
       <r>   -28.9426     0.0000    32.0000 </r>
       <r>   -28.7359     0.0000    32.0000 </r>
       <r>   -28.5291     0.0000    32.0000 </r>
       <r>   -28.3223     0.0000    32.0000 </r>
       <r>   -28.1156     0.0000    32.0000 </r>
       <r>   -27.9088     0.0000    32.0000 </r>
       <r>   -27.7021     0.0000    32.0000 </r>
       <r>   -27.4953     0.0000    32.0000 </r>
       <r>   -27.2885     0.0000    32.0000 </r>
       <r>   -27.0818     0.0000    32.0000 </r>
       <r>   -26.8750     0.0000    32.0000 </r>
       <r>   -26.6682     0.0000    32.0000 </r>
       <r>   -26.4615     0.0000    32.0000 </r>
       <r>   -26.2547     0.0000    32.0000 </r>
       <r>   -26.0480     0.0000    32.0000 </r>
       <r>   -25.8412     0.0000    32.0000 </r>
       <r>   -25.6344     0.0000    32.0000 </r>
       <r>   -25.4277     0.0000    32.0000 </r>
       <r>   -25.2209     0.0000    32.0000 </r>
       <r>   -25.0141     0.0000    32.0000 </r>
       <r>   -24.8074     0.0000    32.0000 </r>
       <r>   -24.6006    -0.0000    32.0000 </r>
       <r>   -24.3939    -0.0000    32.0000 </r>
       <r>   -24.1871    -0.0000    32.0000 </r>
       <r>   -23.9803    -0.0000    32.0000 </r>
       <r>   -23.7736    -0.0000    32.0000 </r>
       <r>   -23.5668    -0.0138    31.9972 </r>
       <r>   -23.3601    -0.7711    31.8377 </r>
       <r>   -23.1533    11.8819    34.2944 </r>
       <r>   -22.9465    43.4011    43.2681 </r>
       <r>   -22.7398   121.5215    68.3942 </r>
       <r>   -22.5330    59.5618    80.7093 </r>
       <r>   -22.3262    25.4036    85.9618 </r>
       <r>   -22.1195     0.3165    86.0273 </r>
       <r>   -21.9127    -0.1317    86.0000 </r>
       <r>   -21.7060    -0.0001    86.0000 </r>
       <r>   -21.4992    -0.0000    86.0000 </r>
       <r>   -21.2924    -0.0000    86.0000 </r>
       <r>   -21.0857     0.0000    86.0000 </r>
       <r>   -20.8789     0.0000    86.0000 </r>
       <r>   -20.6721     0.0000    86.0000 </r>
       <r>   -20.4654     0.0000    86.0000 </r>
       <r>   -20.2586    -0.0000    86.0000 </r>
       <r>   -20.0519    -0.0000    86.0000 </r>
       <r>   -19.8451    -0.0000    86.0000 </r>
       <r>   -19.6383    -0.0000    86.0000 </r>
       <r>   -19.4316    -0.0078    85.9984 </r>
       <r>   -19.2248    -0.6437    85.8653 </r>
       <r>   -19.0180     7.6987    87.4571 </r>
       <r>   -18.8113    56.6861    99.1776 </r>
       <r>   -18.6045    97.2954   119.2946 </r>
       <r>   -18.3978    43.2100   128.2289 </r>
       <r>   -18.1910    -0.9717   128.0279 </r>
       <r>   -17.9842    -0.1350   128.0000 </r>
       <r>   -17.7775    -0.0001   128.0000 </r>
       <r>   -17.5707    -0.0000   128.0000 </r>
       <r>   -17.3639    -0.0000   128.0000 </r>
       <r>   -17.1572     0.0000   128.0000 </r>
       <r>   -16.9504     0.0000   128.0000 </r>
       <r>   -16.7437     0.0000   128.0000 </r>
       <r>   -16.5369     0.0000   128.0000 </r>
       <r>   -16.3301     0.0000   128.0000 </r>
       <r>   -16.1234     0.0000   128.0000 </r>
       <r>   -15.9166     0.0000   128.0000 </r>
       <r>   -15.7098     0.0000   128.0000 </r>
       <r>   -15.5031     0.0000   128.0000 </r>
       <r>   -15.2963     0.0000   128.0000 </r>
       <r>   -15.0896     0.0000   128.0000 </r>
       <r>   -14.8828     0.0000   128.0000 </r>
       <r>   -14.6760     0.0000   128.0000 </r>
       <r>   -14.4693     0.0000   128.0000 </r>
       <r>   -14.2625     0.0000   128.0000 </r>
       <r>   -14.0558     0.0000   128.0000 </r>
       <r>   -13.8490     0.0000   128.0000 </r>
       <r>   -13.6422     0.0000   128.0000 </r>
       <r>   -13.4355     0.0000   128.0000 </r>
       <r>   -13.2287     0.0000   128.0000 </r>
       <r>   -13.0219     0.0000   128.0000 </r>
       <r>   -12.8152     0.0000   128.0000 </r>
       <r>   -12.6084     0.0000   128.0000 </r>
       <r>   -12.4017     0.0000   128.0000 </r>
       <r>   -12.1949     0.0000   128.0000 </r>
       <r>   -11.9881     0.0000   128.0000 </r>
       <r>   -11.7814     0.0000   128.0000 </r>
       <r>   -11.5746     0.0000   128.0000 </r>
       <r>   -11.3678     0.0000   128.0000 </r>
       <r>   -11.1611     0.0000   128.0000 </r>
       <r>   -10.9543     0.0000   128.0000 </r>
       <r>   -10.7476     0.0000   128.0000 </r>
       <r>   -10.5408     0.0000   128.0000 </r>
       <r>   -10.3340     0.0000   128.0000 </r>
       <r>   -10.1273     0.0000   128.0000 </r>
       <r>    -9.9205     0.0000   128.0000 </r>
       <r>    -9.7137     0.0000   128.0000 </r>
       <r>    -9.5070     0.0000   128.0000 </r>
       <r>    -9.3002     0.0000   128.0000 </r>
       <r>    -9.0935     0.0000   128.0000 </r>
       <r>    -8.8867     0.0000   128.0000 </r>
       <r>    -8.6799     0.0000   128.0000 </r>
       <r>    -8.4732     0.0000   128.0000 </r>
       <r>    -8.2664     0.0000   128.0000 </r>
       <r>    -8.0596     0.0000   128.0000 </r>
       <r>    -7.8529     0.0000   128.0000 </r>
       <r>    -7.6461     0.0000   128.0000 </r>
       <r>    -7.4394     0.0000   128.0000 </r>
       <r>    -7.2326     0.0000   128.0000 </r>
       <r>    -7.0258     0.0000   128.0000 </r>
       <r>    -6.8191     0.0000   128.0000 </r>
       <r>    -6.6123     0.0000   128.0000 </r>
       <r>    -6.4055     0.0000   128.0000 </r>
       <r>    -6.1988     0.0000   128.0000 </r>
       <r>    -5.9920     0.0000   128.0000 </r>
       <r>    -5.7853     0.0000   128.0000 </r>
       <r>    -5.5785     0.0000   128.0000 </r>
       <r>    -5.3717     0.0000   128.0000 </r>
       <r>    -5.1650     0.0000   128.0000 </r>
       <r>    -4.9582     0.0000   128.0000 </r>
       <r>    -4.7514     0.0000   128.0000 </r>
       <r>    -4.5447     0.0000   128.0000 </r>
       <r>    -4.3379     0.0000   128.0000 </r>
       <r>    -4.1312     0.0000   128.0000 </r>
       <r>    -3.9244     0.0000   128.0000 </r>
       <r>    -3.7176     0.0000   128.0000 </r>
       <r>    -3.5109     0.0000   128.0000 </r>
       <r>    -3.3041     0.0000   128.0000 </r>
       <r>    -3.0974     0.0000   128.0000 </r>
       <r>    -2.8906     0.0000   128.0000 </r>
       <r>    -2.6838     0.0000   128.0000 </r>
       <r>    -2.4771     0.0000   128.0000 </r>
       <r>    -2.2703     0.0000   128.0000 </r>
       <r>    -2.0635     0.0000   128.0000 </r>
       <r>    -1.8568     0.0000   128.0000 </r>
       <r>    -1.6500     0.0000   128.0000 </r>
       <r>    -1.4433     0.0000   128.0000 </r>
       <r>    -1.2365     0.0000   128.0000 </r>
       <r>    -1.0297     0.0000   128.0000 </r>
       <r>    -0.8230     0.0000   128.0000 </r>
       <r>    -0.6162    -0.0000   128.0000 </r>
       <r>    -0.4094    -0.0000   128.0000 </r>
       <r>    -0.2027    -0.0000   128.0000 </r>
       <r>     0.0041    -0.0000   128.0000 </r>
       <r>     0.2108    -0.0000   128.0000 </r>
       <r>     0.4176    -0.0080   127.9983 </r>
       <r>     0.6244     0.0899   128.0169 </r>
       <r>     0.8311     0.6083   128.1427 </r>
       <r>     1.0379     1.4766   128.4480 </r>
       <r>     1.2447     1.7520   128.8102 </r>
       <r>     1.4514     2.7173   129.3721 </r>
       <r>     1.6582     3.8880   130.1760 </r>
       <r>     1.8649     2.4490   130.6823 </r>
       <r>     2.0717     3.2425   131.3528 </r>
       <r>     2.2785     4.6950   132.3235 </r>
       <r>     2.4852     3.4530   133.0375 </r>
       <r>     2.6920     5.3271   134.1389 </r>
       <r>     2.8988     8.7939   135.9572 </r>
       <r>     3.1055     7.1734   137.4403 </r>
       <r>     3.3123     7.6756   139.0274 </r>
       <r>     3.5190     8.5218   140.7893 </r>
       <r>     3.7258    13.6039   143.6021 </r>
       <r>     3.9326    18.5221   147.4318 </r>
       <r>     4.1393    20.8669   151.7463 </r>
       <r>     4.3461    24.3732   156.7857 </r>
       <r>     4.5529    32.7681   163.5609 </r>
       <r>     4.7596    34.2354   170.6395 </r>
       <r>     4.9664    38.1015   178.5175 </r>
       <r>     5.1731    37.8518   186.3438 </r>
       <r>     5.3799    36.1511   193.8185 </r>
       <r>     5.5867    33.2750   200.6985 </r>
       <r>     5.7934    31.4974   207.2110 </r>
       <r>     6.0002    14.0524   210.1165 </r>
       <r>     6.2069    50.0692   220.4689 </r>
       <r>     6.4137    62.8776   233.4696 </r>
       <r>     6.6205    58.4811   245.5613 </r>
       <r>     6.8272    51.2684   256.1616 </r>
       <r>     7.0340    53.9182   267.3099 </r>
       <r>     7.2408    56.1939   278.9287 </r>
       <r>     7.4475    47.6496   288.7808 </r>
       <r>     7.6543    46.6129   298.4186 </r>
       <r>     7.8610    53.3183   309.4428 </r>
       <r>     8.0678    43.3182   318.3994 </r>
       <r>     8.2746    32.1788   325.0528 </r>
       <r>     8.4813    28.9917   331.0471 </r>
       <r>     8.6881    21.6257   335.5185 </r>
       <r>     8.8949    16.8271   338.9977 </r>
       <r>     9.1016    12.3645   341.5542 </r>
       <r>     9.3084    24.5443   346.6291 </r>
       <r>     9.5151    20.6403   350.8967 </r>
       <r>     9.7219     5.6907   352.0733 </r>
       <r>     9.9287    -0.3476   352.0015 </r>
       <r>    10.1354    -0.0071   352.0000 </r>
       <r>    10.3422    -0.0000   352.0000 </r>
       <r>    10.5490    -0.0000   352.0000 </r>
       <r>    10.7557     0.0000   352.0000 </r>
       <r>    10.9625     0.0000   352.0000 </r>
       <r>    11.1692     0.0000   352.0000 </r>
       <r>    11.3760     0.0000   352.0000 </r>
       <r>    11.5828     0.0000   352.0000 </r>
       <r>    11.7895     0.0000   352.0000 </r>
       <r>    11.9963     0.0000   352.0000 </r>
       <r>    12.2031     0.0000   352.0000 </r>
       <r>    12.4098     0.0000   352.0000 </r>
      </set>
     </set>
    </array>
   </total>
  </dos>
 </calculation>
 <structure name="finalpos" >
  <crystal>
   <varray name="basis" >
    <v>       6.92963425       0.00669162       0.00871523 </v>
    <v>       0.00998108      10.25626915       0.00588159 </v>
    <v>       0.01330914       0.00554291      10.20592557 </v>
   </varray>
   <i name="volume">    725.35542655 </i>
   <varray name="rec_basis" >
    <v>       0.14430813      -0.00014033      -0.00018811 </v>
    <v>      -0.00009409       0.09750146      -0.00005283 </v>
    <v>      -0.00012318      -0.00005607       0.09798249 </v>
   </varray>
  </crystal>
  <varray name="positions" >
   <v>       0.72204344       0.84147378       0.51245135 </v>
   <v>       0.00784535       0.00325771       0.67497839 </v>
   <v>       0.75152080       0.48768147       0.82911270 </v>
   <v>       0.24045712       0.50298889       0.15224547 </v>
   <v>       0.01918313       0.67934557       0.34499023 </v>
   <v>       0.50823220       0.00265448       0.00352014 </v>
   <v>       0.74719390       0.17162385       0.50257121 </v>
   <v>       0.77018168       0.48693677       0.50290317 </v>
   <v>       0.48456583       0.66871636       0.33542269 </v>
   <v>       0.48001636       0.65687064       0.66790748 </v>
   <v>       0.47967679       0.33912533       0.33638620 </v>
   <v>       0.75113952       0.83114363       0.82610698 </v>
   <v>       0.25023166       0.17475685       0.16979565 </v>
   <v>       0.21952622       0.48577003       0.50330940 </v>
   <v>      -0.00161305       0.67482755       0.98921392 </v>
   <v>       0.75325377       0.18169625       0.18264668 </v>
   <v>       0.49268355       0.00712040       0.68158728 </v>
   <v>       0.73471218       0.17973777       0.81914886 </v>
   <v>       0.77074893       0.81568867       0.16006898 </v>
   <v>       0.26521624       0.16995180       0.82691032 </v>
   <v>       0.25546611       0.16377265       0.50608987 </v>
   <v>       0.01945756       0.32326104       0.33333727 </v>
   <v>       0.01665437       0.32312586       0.67243070 </v>
   <v>       0.24454812       0.49076052       0.84308275 </v>
   <v>       0.28194341       0.85573839       0.50997094 </v>
   <v>       0.25168599       0.83803270       0.84049636 </v>
   <v>       0.23531457       0.82159965       0.14622441 </v>
   <v>       0.47968334       0.33906184       0.66484866 </v>
   <v>       0.49500337       0.32048592       0.99911436 </v>
   <v>       0.99228504       0.00276747       0.99888221 </v>
   <v>       0.00877723       0.99840012       0.33012834 </v>
   <v>      -0.00111243       0.31254475       0.99815391 </v>
   <v>       0.01422242       0.67261536       0.66429903 </v>
   <v>       0.49979622       0.00183863       0.31515428 </v>
   <v>       0.75518416       0.50006217       0.16623570 </v>
   <v>       0.50426188       0.67457411       0.99027210 </v>
  </varray>
 </structure>
</modeling>
