 vasp.5.4.1 05Feb16 (build Jan 29 2020 16:04:39) complex                        
  
 executed on           IFC91_ompi date 2020.06.15  13:29:34
 running on  160 total cores
 distrk:  each k-point on   20 cores,    8 groups
 distr:  one band on NCORES_PER_BAND=   5 cores,    4 groups


--------------------------------------------------------------------------------------------------------


 INCAR:
 POTCAR:    PAW_PBE Zr_sv 04Jan2005               
 POTCAR:    PAW_PBE Hf 20Jan2003                  
 POTCAR:    PAW_PBE Ta 17Jan2003                  
 POTCAR:    PAW_PBE Nb_sv 25May2007               

 ----------------------------------------------------------------------------- 
|                                                                             |
|           W    W    AA    RRRRR   N    N  II  N    N   GGGG   !!!           |
|           W    W   A  A   R    R  NN   N  II  NN   N  G    G  !!!           |
|           W    W  A    A  R    R  N N  N  II  N N  N  G       !!!           |
|           W WW W  AAAAAA  RRRRR   N  N N  II  N  N N  G  GGG   !            |
|           WW  WW  A    A  R   R   N   NN  II  N   NN  G    G                |
|           W    W  A    A  R    R  N    N  II  N    N   GGGG   !!!           |
|                                                                             |
|      For optimal performance we recommend to set                            |
|        NCORE= 4 - approx SQRT( number of cores)                             |
|      NCORE specifies how many cores store one orbital (NPAR=cpu/NCORE).     |
|      This setting can  greatly improve the performance of VASP for DFT.     |
|      The default, NPAR=number of cores might be grossly inefficient         |
|      on modern multi-core architectures or massively parallel machines.     |
|      Do your own testing !!!!                                               |
|      Unfortunately you need to use the default for GW and RPA calculations. |
|      (for HF NCORE is supported but not extensively tested yet)             |
|                                                                             |
 ----------------------------------------------------------------------------- 


 ----------------------------------------------------------------------------- 
|                                                                             |
|           W    W    AA    RRRRR   N    N  II  N    N   GGGG   !!!           |
|           W    W   A  A   R    R  NN   N  II  NN   N  G    G  !!!           |
|           W    W  A    A  R    R  N N  N  II  N N  N  G       !!!           |
|           W WW W  AAAAAA  RRRRR   N  N N  II  N  N N  G  GGG   !            |
|           WW  WW  A    A  R   R   N   NN  II  N   NN  G    G                |
|           W    W  A    A  R    R  N    N  II  N    N   GGGG   !!!           |
|                                                                             |
|      You have enabled k-point parallelism (KPAR>1).                         |
|      This developmental code was originally  written by Paul Kent at ORNL,  |
|      and carefully double checked in Vienna.                                |
|      GW as well as linear response parallelism added by Martijn Marsman     |
|      and Georg Kresse.                                                      |
|      Carefully verify results versus KPAR=1.                                |
|      Report problems to Paul Kent and Vienna.                               |
|                                                                             |
 ----------------------------------------------------------------------------- 

 POTCAR:    PAW_PBE Zr_sv 04Jan2005               
   VRHFIN =Zr: 4s4p5s4d                                                         
   LEXCH  = PE                                                                  
   EATOM  =  1284.2219 eV,   94.3876 Ry                                         
                                                                                
   TITEL  = PAW_PBE Zr_sv 04Jan2005                                             
   LULTRA =        F    use ultrasoft PP ?                                      
   IUNSCR =        1    unscreen: 0-lin 1-nonlin 2-no                           
   RPACOR =    2.200    partial core radius                                     
   POMASS =   91.224; ZVAL   =   12.000    mass and valenz                      
   RCORE  =    2.500    outmost cutoff radius                                   
   RWIGS  =    3.070; RWIGS  =    1.625    wigner-seitz radius (au A)           
   ENMAX  =  229.898; ENMIN  =  172.424 eV                                      
   ICORE  =        3    local potential                                         
   LCOR   =        T    correct aug charges                                     
   LPAW   =        T    paw PP                                                  
   EAUG   =  461.257                                                            
   DEXC   =    0.000                                                            
   RMAX   =    2.561    core radius for proj-oper                               
   RAUG   =    1.300    factor for augmentation sphere                          
   RDEP   =    2.597    radius for radial grids                                 
   RDEPT  =    2.007    core radius for aug-charge                              
                                                                                
   Atomic configuration                                                         
   11 entries                                                                   
     n  l   j            E        occ.                                          
     1  0  0.50    -17820.0161   2.0000                                         
     2  0  0.50     -2467.0882   2.0000                                         
     2  1  1.50     -2199.6095   6.0000                                         
     3  0  0.50      -402.4863   2.0000                                         
     3  1  1.50      -315.3675   6.0000                                         
     3  2  2.50      -172.4472  10.0000                                         
     4  0  0.50       -52.4146   2.0000                                         
     5  0  0.50        -3.8421   1.0000                                         
     4  1  1.50       -30.5054   6.0000                                         
     4  2  2.50        -2.3341   3.0000                                         
     4  3  2.50        -1.3606   0.0000                                         
   Description                                                                  
     l       E           TYP  RCUT    TYP  RCUT                                 
     0    -52.4145962     23  2.200                                             
     0     -3.8421270     23  2.500                                             
     1    -30.5053914     23  2.200                                             
     1     20.4087390     23  2.200                                             
     2     -2.3340816     23  2.500                                             
     2     -0.6120942     23  2.500                                             
     3     -4.0817478     23  2.500                                             
  local pseudopotential read in
  partial core-charges read in
  partial kinetic energy density read in
  atomic valenz-charges read in
  non local Contribution for L=           0  read in
    real space projection operators read in
  non local Contribution for L=           0  read in
    real space projection operators read in
  non local Contribution for L=           1  read in
    real space projection operators read in
  non local Contribution for L=           1  read in
    real space projection operators read in
  non local Contribution for L=           2  read in
    real space projection operators read in
  non local Contribution for L=           2  read in
    real space projection operators read in
    PAW grid and wavefunctions read in
 
   number of l-projection  operators is LMAX  =           6
   number of lm-projection operators is LMMAX =          18
 
 POTCAR:    PAW_PBE Hf 20Jan2003                  
   VRHFIN =Hf: 6s5d                                                             
   LEXCH  = PE                                                                  
   EATOM  =    75.9011 eV,    5.5786 Ry                                         
                                                                                
   TITEL  = PAW_PBE Hf 20Jan2003                                                
   LULTRA =        F    use ultrasoft PP ?                                      
   IUNSCR =        1    unscreen: 0-lin 1-nonlin 2-no                           
   RPACOR =    2.500    partial core radius                                     
   POMASS =  178.490; ZVAL   =    4.000    mass and valenz                      
   RCORE  =    3.000    outmost cutoff radius                                   
   RWIGS  =    3.050; RWIGS  =    1.614    wigner-seitz radius (au A)           
   ENMAX  =  220.334; ENMIN  =  165.250 eV                                      
   RCLOC  =    2.212    cutoff for local pot                                    
   LCOR   =        T    correct aug charges                                     
   LPAW   =        T    paw PP                                                  
   EAUG   =  335.116                                                            
   DEXC   =    0.000                                                            
   RMAX   =    3.077    core radius for proj-oper                               
   RAUG   =    1.300    factor for augmentation sphere                          
   RDEP   =    3.047    radius for radial grids                                 
   RDEPT  =    2.344    core radius for aug-charge                              
                                                                                
   Atomic configuration                                                         
   16 entries                                                                   
     n  l   j            E        occ.                                          
     1  0  0.50    -65259.4397   2.0000                                         
     2  0  0.50    -11157.9882   2.0000                                         
     2  1  1.50     -9795.2113   6.0000                                         
     3  0  0.50     -2541.4058   2.0000                                         
     3  1  1.50     -2134.4770   6.0000                                         
     3  2  2.50     -1653.5418  10.0000                                         
     4  0  0.50      -510.9575   2.0000                                         
     4  1  1.50      -377.5023   6.0000                                         
     4  2  2.50      -205.2085  10.0000                                         
     4  3  3.50       -15.4905  14.0000                                         
     5  0  0.50       -65.6020   2.0000                                         
     5  1  1.50       -34.2798   6.0000                                         
     5  2  2.50        -1.9877   3.0000                                         
     6  0  0.50        -4.7357   1.0000                                         
     6  1  1.50        -1.3606   0.0000                                         
     5  3  2.50        -1.3606   0.0000                                         
   Description                                                                  
     l       E           TYP  RCUT    TYP  RCUT                                 
     2     -1.9876627     23  2.500                                             
     2      0.0744703     23  2.500                                             
     0     -4.7356889     23  2.600                                             
     0      3.2364747     23  2.600                                             
     1     -1.3605826     23  3.000                                             
     1     27.2116520     23  3.000                                             
  local pseudopotential read in
  partial core-charges read in
  partial kinetic energy density read in
  atomic valenz-charges read in
  non local Contribution for L=           2  read in
    real space projection operators read in
  non local Contribution for L=           2  read in
    real space projection operators read in
  non local Contribution for L=           0  read in
    real space projection operators read in
  non local Contribution for L=           0  read in
    real space projection operators read in
  non local Contribution for L=           1  read in
    real space projection operators read in
  non local Contribution for L=           1  read in
    real space projection operators read in
    PAW grid and wavefunctions read in
 
   number of l-projection  operators is LMAX  =           6
   number of lm-projection operators is LMMAX =          18
 
 POTCAR:    PAW_PBE Ta 17Jan2003                  
   VRHFIN =Ta:  6s5d                                                            
   LEXCH  = PE                                                                  
   EATOM  =   130.6506 eV,    9.6025 Ry                                         
                                                                                
   TITEL  = PAW_PBE Ta 17Jan2003                                                
   LULTRA =        F    use ultrasoft PP ?                                      
   IUNSCR =        1    unscreen: 0-lin 1-nonlin 2-no                           
   RPACOR =    2.330    partial core radius                                     
   POMASS =  180.948; ZVAL   =    5.000    mass and valenz                      
   RCORE  =    2.900    outmost cutoff radius                                   
   RWIGS  =    2.840; RWIGS  =    1.503    wigner-seitz radius (au A)           
   ENMAX  =  223.667; ENMIN  =  167.750 eV                                      
   RCLOC  =    2.205    cutoff for local pot                                    
   LCOR   =        T    correct aug charges                                     
   LPAW   =        T    paw PP                                                  
   EAUG   =  332.075                                                            
   DEXC   =    0.000                                                            
   RMAX   =    2.970    core radius for proj-oper                               
   RAUG   =    1.300    factor for augmentation sphere                          
   RDEP   =    3.060    radius for radial grids                                 
   RDEPT  =    2.354    core radius for aug-charge                              
                                                                                
   Atomic configuration                                                         
   16 entries                                                                   
     n  l   j            E        occ.                                          
     1  0  0.50    -67341.2807   2.0000                                         
     2  0  0.50    -11566.9376   2.0000                                         
     2  1  1.50    -10134.1182   6.0000                                         
     3  0  0.50     -2648.5620   2.0000                                         
     3  1  1.50     -2222.6012   6.0000                                         
     3  2  2.50     -1726.3120  10.0000                                         
     4  0  0.50      -538.6961   2.0000                                         
     4  1  1.50      -399.0129   6.0000                                         
     4  2  2.50      -220.3959  10.0000                                         
     4  3  3.50       -23.0374  14.0000                                         
     5  0  0.50       -71.2901   2.0000                                         
     5  1  1.50       -37.8225   6.0000                                         
     5  2  2.50        -2.6455   4.0000                                         
     6  0  0.50        -4.9623   1.0000                                         
     6  1  1.50        -1.3606   0.0000                                         
     5  3  2.50        -1.3606   0.0000                                         
   Description                                                                  
     l       E           TYP  RCUT    TYP  RCUT                                 
     2     -2.6455043     23  2.500                                             
     2     -0.6258895     23  2.500                                             
     0     -4.9622780     23  2.500                                             
     0      4.7531321     23  2.500                                             
     1     -1.3605826     23  2.900                                             
     1     27.2116520     23  2.900                                             
  local pseudopotential read in
  partial core-charges read in
  partial kinetic energy density read in
  atomic valenz-charges read in
  non local Contribution for L=           2  read in
    real space projection operators read in
  non local Contribution for L=           2  read in
    real space projection operators read in
  non local Contribution for L=           0  read in
    real space projection operators read in
  non local Contribution for L=           0  read in
    real space projection operators read in
  non local Contribution for L=           1  read in
    real space projection operators read in
  non local Contribution for L=           1  read in
    real space projection operators read in
    PAW grid and wavefunctions read in
 
   number of l-projection  operators is LMAX  =           6
   number of lm-projection operators is LMMAX =          18
 
 POTCAR:    PAW_PBE Nb_sv 25May2007               
   VRHFIN =Nb: 4p5s4d                                                           
   LEXCH  = PE                                                                  
   EATOM  =  1555.1913 eV,  114.3033 Ry                                         
                                                                                
   TITEL  = PAW_PBE Nb_sv 25May2007                                             
   LULTRA =        F    use ultrasoft PP ?                                      
   IUNSCR =        1    unscreen: 0-lin 1-nonlin 2-no                           
   RPACOR =    1.800    partial core radius                                     
   POMASS =   92.910; ZVAL   =   13.000    mass and valenz                      
   RCORE  =    2.400    outmost cutoff radius                                   
   RWIGS  =    2.400; RWIGS  =    1.270    wigner-seitz radius (au A)           
   ENMAX  =  293.235; ENMIN  =  219.927 eV                                      
   ICORE  =        3    local potential                                         
   LCOR   =        T    correct aug charges                                     
   LPAW   =        T    paw PP                                                  
   EAUG   =  455.659                                                            
   DEXC   =    0.000                                                            
   RMAX   =    2.456    core radius for proj-oper                               
   RAUG   =    1.300    factor for augmentation sphere                          
   RDEP   =    2.451    radius for radial grids                                 
   RDEPT  =    1.956    core radius for aug-charge                              
                                                                                
   Atomic configuration                                                         
   11 entries                                                                   
     n  l   j            E        occ.                                          
     1  0  0.50    -18805.2457   2.0000                                         
     2  0  0.50     -2630.2869   2.0000                                         
     2  1  1.50     -2348.4046   6.0000                                         
     3  0  0.50      -438.8757   2.0000                                         
     3  1  1.50      -346.7588   6.0000                                         
     3  2  2.50      -196.2560  10.0000                                         
     4  0  0.50       -58.3859   2.0000                                         
     5  0  0.50        -3.9816   1.0000                                         
     4  1  1.50       -34.5141   6.0000                                         
     4  2  2.50        -3.0408   4.0000                                         
     4  3  2.50        -1.3606   0.0000                                         
   Description                                                                  
     l       E           TYP  RCUT    TYP  RCUT                                 
     0    -58.3859094     23  2.200                                             
     0     -3.9816262     23  2.200                                             
     1    -34.5140738     23  2.200                                             
     1     13.6058260     23  2.200                                             
     2     -3.0408010     23  2.200                                             
     2     -0.1283038     23  2.200                                             
     3     -1.3605826     23  2.400                                             
  local pseudopotential read in
  partial core-charges read in
  partial kinetic energy density read in
  atomic valenz-charges read in
  non local Contribution for L=           0  read in
    real space projection operators read in
  non local Contribution for L=           0  read in
    real space projection operators read in
  non local Contribution for L=           1  read in
    real space projection operators read in
  non local Contribution for L=           1  read in
    real space projection operators read in
  non local Contribution for L=           2  read in
    real space projection operators read in
  non local Contribution for L=           2  read in
    real space projection operators read in
    PAW grid and wavefunctions read in
 
   number of l-projection  operators is LMAX  =           6
   number of lm-projection operators is LMMAX =          18
 
 Optimization of the real space projectors (new method)

 maximal supplied QI-value         = 15.12
 optimisation between [QCUT,QGAM] = [  8.77, 17.69] = [ 21.53, 87.61] Ry 
 Optimized for a Real-space Cutoff    1.74 Angstroem

   l    n(q)    QCUT    max X(q) W(low)/X(q) W(high)/X(q)  e(spline) 
   0      9     8.768    12.107    0.28E-04    0.53E-06    0.29E-07
   0      9     8.768     9.948    0.36E-04    0.50E-05    0.64E-07
   1      9     8.768     3.563    0.14E-04    0.16E-04    0.88E-07
   1      9     8.768     4.524    0.21E-03    0.33E-03    0.19E-06
   2      8     8.768    87.261    0.19E-03    0.25E-03    0.24E-06
   2      8     8.768    70.950    0.19E-03    0.24E-03    0.24E-06
 Optimization of the real space projectors (new method)

 maximal supplied QI-value         = 12.47
 optimisation between [QCUT,QGAM] = [  8.86, 17.71] = [ 21.96, 87.83] Ry 
 Optimized for a Real-space Cutoff    1.90 Angstroem

   l    n(q)    QCUT    max X(q) W(low)/X(q) W(high)/X(q)  e(spline) 
   2      9     8.855    48.111    0.22E-03    0.80E-04    0.10E-05
   2      9     8.855    40.545    0.21E-03    0.76E-04    0.95E-06
   0     10     8.855   121.658    0.27E-04    0.12E-04    0.11E-06
   0     10     8.855    71.177    0.22E-04    0.11E-04    0.99E-07
   1     10     8.855    14.183    0.65E-04    0.10E-03    0.98E-07
   1     10     8.855     8.257    0.43E-04    0.73E-04    0.72E-07
 Optimization of the real space projectors (new method)

 maximal supplied QI-value         = 12.85
 optimisation between [QCUT,QGAM] = [  8.87, 17.73] = [ 22.01, 88.06] Ry 
 Optimized for a Real-space Cutoff    1.90 Angstroem

   l    n(q)    QCUT    max X(q) W(low)/X(q) W(high)/X(q)  e(spline) 
   2      9     8.867    62.315    0.23E-03    0.62E-04    0.11E-05
   2      9     8.867    52.185    0.23E-03    0.62E-04    0.11E-05
   0     10     8.867   103.837    0.15E-04    0.23E-04    0.98E-07
   0     10     8.867    59.728    0.12E-04    0.21E-04    0.89E-07
   1     10     8.867    13.958    0.50E-04    0.22E-04    0.14E-06
   1     10     8.867     8.441    0.36E-04    0.19E-04    0.98E-07
 Optimization of the real space projectors (new method)

 maximal supplied QI-value         = 15.68
 optimisation between [QCUT,QGAM] = [  8.78, 17.72] = [ 21.60, 87.97] Ry 
 Optimized for a Real-space Cutoff    1.96 Angstroem

   l    n(q)    QCUT    max X(q) W(low)/X(q) W(high)/X(q)  e(spline) 
   0     10     8.783    10.201    0.29E-04    0.25E-05    0.69E-07
   0     10     8.783     8.174    0.45E-04    0.57E-05    0.14E-06
   1     10     8.783     3.488    0.76E-05    0.24E-04    0.95E-07
   1     10     8.783     4.917    0.78E-04    0.14E-03    0.46E-06
   2      9     8.783   153.744    0.22E-03    0.34E-04    0.15E-05
   2      9     8.783   126.342    0.22E-03    0.35E-04    0.15E-05
  PAW_PBE Zr_sv 04Jan2005               :
 energy of atom  1       EATOM=-1284.2219
 kinetic energy error for atom=    0.0483 (will be added to EATOM!!)
  PAW_PBE Hf 20Jan2003                  :
 energy of atom  2       EATOM=  -75.9011
 kinetic energy error for atom=    0.0071 (will be added to EATOM!!)
  PAW_PBE Ta 17Jan2003                  :
 energy of atom  3       EATOM= -130.6506
 kinetic energy error for atom=    0.0121 (will be added to EATOM!!)
  PAW_PBE Nb_sv 25May2007               :
 energy of atom  4       EATOM=-1555.1913
 kinetic energy error for atom=    0.0655 (will be added to EATOM!!)
 
 
 POSCAR: generated by pypospack                  
  positions in direct lattice
  No initial velocities read in
 exchange correlation table for  LEXCH =        8
   RHO(1)=    0.500       N(1)  =     2000
   RHO(2)=  100.500       N(2)  =     4000
 


--------------------------------------------------------------------------------------------------------


 ion  position               nearest neighbor table
   1  0.729  0.163  0.825-  35 2.91  19 3.05  16 3.06  36 3.07   3 3.07  14 3.09  18 3.10  12 3.11
                            15 3.13  27 3.29  11 3.47  20 3.59
   2  0.506  0.335  0.340-  34 2.99  33 2.99  10 3.06   4 3.08  18 3.10  30 3.11  27 3.12  28 3.15
                             7 3.27   5 3.34  35 3.38   6 3.43  13 3.50   5 3.69
   3  0.024  0.319  0.667-  33 2.90  28 2.91   7 3.02  27 3.03   1 3.07  12 3.09   9 3.10  20 3.20
                            18 3.23  16 3.26  19 3.48   5 3.48  29 3.70  18 3.82
   4  0.264  0.495  0.151-  35 2.89  22 2.90  23 3.00  17 3.07   6 3.08   2 3.08  19 3.10   9 3.16
                             5 3.17  30 3.33  10 3.43  26 3.54  28 3.62  30 3.71
   5  0.981  0.333  0.330-  33 2.89  27 2.99  34 3.02   7 3.03  28 3.04  10 3.07  30 3.13   4 3.17
                            19 3.33   2 3.34  25 3.44  17 3.45   3 3.48   2 3.69
   6  0.495  0.667  0.335-  31 2.97  30 2.98  26 3.02  24 3.04  28 3.06   4 3.08   8 3.21   7 3.23
                            21 3.28  22 3.36  13 3.39   2 3.43  17 3.50  17 3.54
   7  0.780  0.511  0.523-  29 2.97   3 3.02   5 3.03  17 3.05  18 3.05  21 3.06  28 3.07  20 3.19
                             6 3.23   2 3.27   8 3.37  27 3.71
   8  0.770  0.838  0.512-  25 2.93  16 3.02  14 3.02  29 3.03  13 3.07  17 3.07  21 3.09  31 3.16
                             6 3.21  27 3.25  11 3.29   7 3.37  24 3.65
   9  0.261  0.499  0.843-  29 2.97  21 3.00  22 3.03  23 3.08  18 3.09   3 3.10  35 3.11   4 3.16
                            19 3.17  12 3.36  32 3.39  20 3.46  28 3.52  20 3.57
  10  0.259  0.163  0.169-  36 2.95  13 3.00  25 3.02  15 3.06   2 3.06   5 3.07  35 3.11  19 3.12
                            33 3.14  12 3.21  26 3.36  34 3.36   4 3.43
  11  0.748  0.827  0.833-  22 2.93  36 2.98  23 3.00  29 3.00  15 3.05  16 3.13  21 3.15  14 3.25
                            20 3.27   8 3.29  24 3.32  32 3.44   1 3.47  32 3.60
  12  0.288  0.174  0.857-  35 2.93  36 2.94  14 3.03  18 3.04  19 3.08  15 3.09   3 3.09   1 3.11
                            16 3.18  10 3.21   9 3.36  32 3.57
  13  0.503  0.996  0.339-  33 2.91  34 2.92  31 2.99  10 3.00  27 3.00  24 3.01  26 3.01   8 3.07
                            14 3.20  36 3.35   6 3.39  25 3.40   2 3.50  25 3.63
  14  0.469  0.999  0.650-  27 3.00  33 3.00   8 3.02  31 3.02  12 3.03  32 3.07   1 3.09  16 3.10
                            13 3.20  11 3.25  21 3.36  18 3.41
  15  1.000  0.998  0.000-  32 2.94  24 2.95  26 2.97  34 2.98  11 3.05  10 3.06  12 3.09   1 3.13
                            23 3.32  16 3.35  25 3.37  19 3.38
  16  0.028  0.003  0.674-  31 2.93  33 2.95  27 2.98   8 3.02  32 3.03   1 3.06  14 3.10  11 3.13
                            12 3.18   3 3.26  15 3.35  29 3.36  25 3.56
  17  0.993  0.667  0.315-  31 2.92  26 2.95  24 2.95  30 2.97  28 2.99   7 3.05   8 3.07   4 3.07
                            23 3.13  25 3.43   5 3.45   6 3.50   6 3.54  29 3.71
  18  0.483  0.330  0.642-  28 2.99  27 3.02  12 3.04   7 3.05  33 3.06   9 3.09   2 3.10   1 3.10
                             3 3.23  20 3.34  14 3.41  21 3.55   3 3.82
  19  0.974  0.325  0.005-  34 2.91  30 2.92  20 3.03  35 3.05   1 3.05  12 3.08   4 3.10  10 3.12
                             9 3.17   5 3.33  15 3.38   3 3.48  23 3.63
  20  0.753  0.510  0.834-  35 2.95  22 3.01  19 3.03  23 3.06  29 3.10   7 3.19   3 3.20  21 3.23
                            30 3.25  11 3.27  18 3.34   9 3.46   9 3.57   1 3.59
  21  0.465  0.674  0.655-  32 2.91  28 2.93  31 2.98   9 3.00  29 3.00   7 3.06   8 3.09  11 3.15
                            20 3.23   6 3.28  14 3.36  18 3.55  22 3.64
  22  0.502  0.676  0.008-  30 2.79  24 2.81  32 2.85  26 2.90   4 2.90  11 2.93  20 3.01   9 3.03
                            36 3.21   6 3.36  23 3.50  23 3.53  21 3.64
  23  0.000  0.676  0.011-  24 2.82  30 2.89  32 2.91  26 2.93  11 3.00   4 3.00  20 3.06   9 3.08
                            17 3.13  15 3.32  29 3.45  22 3.50  22 3.53  19 3.63
  24  0.743  0.832  0.157-  36 2.76  22 2.81  23 2.82  17 2.95  15 2.95  13 3.01  25 3.02   6 3.04
                            30 3.31  11 3.32  26 3.46  26 3.57   8 3.65
  25  0.987  0.999  0.328-  33 2.83  27 2.84  31 2.86  34 2.92   8 2.93  26 2.97  10 3.02  24 3.02
                            15 3.37  13 3.40  17 3.43   5 3.44  16 3.56  13 3.63
  26  0.251  0.838  0.167-  36 2.83  22 2.90  23 2.93  17 2.95  25 2.97  15 2.97  13 3.01   6 3.02
                            31 3.25  32 3.26  10 3.36  24 3.46   4 3.54  24 3.57
  27  0.765  0.153  0.505-  25 2.84  16 2.98   5 2.99  14 3.00  13 3.00  18 3.02   3 3.03   2 3.12
                             8 3.25  33 3.25   1 3.29   7 3.71
  28  0.217  0.508  0.502-  29 2.77   3 2.91  21 2.93  17 2.99  18 2.99   5 3.04   6 3.06   7 3.07
                             2 3.15  31 3.36   9 3.52   4 3.62
  29  0.039  0.677  0.675-  28 2.77  31 2.83  32 2.85   7 2.97   9 2.97  21 3.00  11 3.00   8 3.03
                            20 3.10  16 3.36  23 3.45   3 3.70  17 3.71
  30  0.737  0.511  0.151-  35 2.70  22 2.79  23 2.89  19 2.92  17 2.97   6 2.98   2 3.11   5 3.13
                            20 3.25  24 3.31   4 3.33   4 3.71
  31  0.219  0.833  0.483-  29 2.83  25 2.86  17 2.92  16 2.93   6 2.97  21 2.98  13 2.99  14 3.02
                             8 3.16  26 3.25  28 3.36
  32  0.259  0.828  0.849-  29 2.85  22 2.85  21 2.91  23 2.91  36 2.93  15 2.94  16 3.03  14 3.07
                            26 3.26   9 3.39  11 3.44  12 3.57  11 3.60
  33  0.226  0.161  0.475-  25 2.83   5 2.89   3 2.90  13 2.91  16 2.95   2 2.99  14 3.00  18 3.06
                            10 3.14  27 3.25
  34  0.737  0.158  0.167-  35 2.82  36 2.90  19 2.91  13 2.92  25 2.92  15 2.98   2 2.99   5 3.02
                            10 3.36
  35  0.540  0.337  0.011-  30 2.70  34 2.82   4 2.89   1 2.91  12 2.93  20 2.95  19 3.05   9 3.11
                            10 3.11   2 3.38
  36  0.505  0.987  0.012-  24 2.76  26 2.83  34 2.90  32 2.93  12 2.94  10 2.95  11 2.98   1 3.07
                            22 3.21  13 3.35
 
  LATTYP: Found a triclinic cell.
 ALAT       =    12.4418655657
 B/A-ratio  =     1.8532042075
 C/A-ratio  =     0.5646859583
 COS(alpha) =     0.0015722795
 COS(beta)  =     0.5589895766
 COS(gamma) =     0.7435244596
  
  Lattice vectors:
  
 A1 = (  -6.9897396914,  10.2926543800,  -0.0694522401)
 A2 = (  -0.0175937694,  20.6421854707, -10.2732548425)
 A3 = (  -7.0254410261,  -0.0240037477,  -0.0609920664)


Analysis of symmetry for initial positions (statically):
=====================================================================
 Subroutine PRICEL returns:
 Original cell was already a primitive cell.
 

 Routine SETGRP: Setting up the symmetry group for a 
 triclinic supercell.


 Subroutine GETGRP returns: Found  1 space group operations
 (whereof  1 operations were pure point group operations)
 out of a pool of  2 trial point group operations.


The static configuration has the point symmetry C_1 .


Analysis of symmetry for dynamics (positions and initial velocities):
=====================================================================
 Subroutine PRICEL returns:
 Original cell was already a primitive cell.
 

 Routine SETGRP: Setting up the symmetry group for a 
 triclinic supercell.


 Subroutine GETGRP returns: Found  1 space group operations
 (whereof  1 operations were pure point group operations)
 out of a pool of  2 trial point group operations.


The dynamic configuration has the point symmetry C_1 .


 Subroutine INISYM returns: Found  1 space group operations
 (whereof  1 operations are pure point group operations),
 and found     1 'primitive' translations

 
 
 KPOINTS: k-points                                

Automatic generation of k-mesh.
Space group operators:
 irot       det(A)        alpha          n_x          n_y          n_z        tau_x        tau_y        tau_z
    1     1.000000     0.000001     1.000000     0.000000     0.000000     0.000000     0.000000     0.000000
 
 Subroutine IBZKPT returns following result:
 ===========================================
 
 Found     14 irreducible k-points:
 
 Following reciprocal coordinates:
            Coordinates               Weight
  0.000000  0.000000  0.000000      1.000000
  0.333333 -0.000000  0.000000      2.000000
 -0.000000  0.333333 -0.000000      2.000000
  0.333333  0.333333  0.000000      2.000000
 -0.333333  0.333333  0.000000      2.000000
  0.000000  0.000000  0.333333      2.000000
  0.333333 -0.000000  0.333333      2.000000
 -0.333333  0.000000  0.333333      2.000000
  0.000000  0.333333  0.333333      2.000000
  0.333333  0.333333  0.333333      2.000000
 -0.333333  0.333333  0.333333      2.000000
  0.000000 -0.333333  0.333333      2.000000
  0.333333 -0.333333  0.333333      2.000000
 -0.333333 -0.333333  0.333333      2.000000
 
 Following cartesian coordinates:
            Coordinates               Weight
  0.000000  0.000000  0.000000      1.000000
  0.236699 -0.000821 -0.002055      2.000000
 -0.000552  0.161175  0.000144      2.000000
  0.236147  0.160355 -0.001910      2.000000
 -0.237251  0.161996  0.002199      2.000000
 -0.001408  0.000138  0.162134      2.000000
  0.235291 -0.000683  0.160079      2.000000
 -0.238107  0.000959  0.164188      2.000000
 -0.001960  0.161313  0.162278      2.000000
  0.234739  0.160492  0.160223      2.000000
 -0.238659  0.162134  0.164332      2.000000
 -0.000856 -0.161038  0.161989      2.000000
  0.235843 -0.161858  0.159935      2.000000
 -0.237555 -0.160217  0.164044      2.000000
 


--------------------------------------------------------------------------------------------------------




 Dimension of arrays:
   k-points           NKPTS =     14   k-points in BZ     NKDIM =     14   number of bands    NBANDS=    172
   number of dos      NEDOS =    301   number of ions     NIONS =     36
   non local maximal  LDIM  =      6   non local SUM 2l+1 LMDIM =     18
   total plane-waves  NPLWV = 144000
   max r-space proj   IRMAX =   6165   max aug-charges    IRDMAX=  13385
   dimension x,y,z NGX =    40 NGY =   60 NGZ =   60
   dimension x,y,z NGXF=    80 NGYF=  120 NGZF=  120
   support grid    NGXF=    80 NGYF=  120 NGZF=  120
   ions per type =              12   9  11   4
 NGX,Y,Z   is equivalent  to a cutoff of   9.46,  9.67,  9.73 a.u.
 NGXF,Y,Z  is equivalent  to a cutoff of  18.93, 19.34, 19.45 a.u.


 I would recommend the setting:
   dimension x,y,z NGX =    40 NGY =   58 NGZ =   58
 SYSTEM =  automatically generated by mexm         
 POSCAR =  generated by pypospack                  

 Startparameter for this run:
   NWRITE =      2    write-flag & timer
   PREC   = accura    normal or accurate (medium, high low for compatibility)
   ISTART =      0    job   : 0-new  1-cont  2-samecut
   ICHARG =      2    charge: 1-file 2-atom 10-const
   ISPIN  =      1    spin polarized calculation?
   LNONCOLLINEAR =      F non collinear calculations
   LSORBIT =      F    spin-orbit coupling
   INIWAV =      1    electr: 0-lowe 1-rand  2-diag
   LASPH  =      F    aspherical Exc in radial PAW
   METAGGA=      F    non-selfconsistent MetaGGA calc.

 Electronic Relaxation 1
   ENCUT  =  300.0 eV  22.05 Ry    4.70 a.u.   9.92 14.57 14.49*2*pi/ulx,y,z
   ENINI  =  300.0     initial cutoff
   ENAUG  =  461.3 eV  augmentation charge cutoff
   NELM   =     70;   NELMIN=  2; NELMDL= -5     # of ELM steps 
   EDIFF  = 0.1E-04   stopping-criterion for ELM
   LREAL  =      T    real-space projection
   NLSPLINE    = F    spline interpolate recip. space projectors
   LCOMPAT=      F    compatible to vasp.4.4
   GGA_COMPAT  = T    GGA compatible to vasp.4.4-vasp.4.6
   LMAXPAW     = -100 max onsite density
   LMAXMIX     =    2 max onsite mixed and CHGCAR
   VOSKOWN=      0    Vosko Wilk Nusair interpolation
   ROPT   =   -0.00025  -0.00025  -0.00025  -0.00025
 Ionic relaxation
   EDIFFG = -.1E-01   stopping-criterion for IOM
   NSW    =    300    number of steps for IOM
   NBLOCK =      1;   KBLOCK =    300    inner block; outer block 
   IBRION =      2    ionic relax: 0-MD 1-quasi-New 2-CG
   NFREE  =      1    steps in history (QN), initial steepest desc. (CG)
   ISIF   =      3    stress and relaxation
   IWAVPR =     11    prediction:  0-non 1-charg 2-wave 3-comb
   ISYM   =      1    0-nonsym 1-usesym 2-fastsym
   LCORR  =      T    Harris-Foulkes like correction to forces

   POTIM  = 0.1500    time-step for ionic-motion
   TEIN   =    0.0    initial temperature
   TEBEG  =    0.0;   TEEND  =   0.0 temperature during run
   SMASS  =  -3.00    Nose mass-parameter (am)
   estimated Nose-frequenzy (Omega)   =  0.10E-29 period in steps =****** mass=  -0.113E-26a.u.
   SCALEE = 1.0000    scale energy and forces
   NPACO  =    256;   APACO  = 16.0  distance and # of slots for P.C.
   PSTRESS=    0.0 pullay stress

  Mass of Ions in am
   POMASS =  91.22178.49180.95 92.91
  Ionic Valenz
   ZVAL   =  12.00  4.00  5.00 13.00
  Atomic Wigner-Seitz radii
   RWIGS  =  -1.00 -1.00 -1.00 -1.00
  virtual crystal weights 
   VCA    =   1.00  1.00  1.00  1.00
   NELECT =     287.0000    total number of electrons
   NUPDOWN=      -1.0000    fix difference up-down

 DOS related values:
   EMIN   =  10.00;   EMAX   =-10.00  energy-range for DOS
   EFERMI =   0.00
   ISMEAR =     1;   SIGMA  =   0.15  broadening in eV -4-tet -1-fermi 0-gaus

 Electronic relaxation 2 (details)
   IALGO  =     68    algorithm
   LDIAG  =      T    sub-space diagonalisation (order eigenvalues)
   LSUBROT=      F    optimize rotation matrix (better conditioning)
   TURBO    =      0    0=normal 1=particle mesh
   IRESTART =      0    0=no restart 2=restart with 2 vectors
   NREBOOT  =      0    no. of reboots
   NMIN     =      0    reboot dimension
   EREF     =   0.00    reference energy to select bands
   IMIX   =      4    mixing-type and parameters
     AMIX     =   0.40;   BMIX     =  1.00
     AMIX_MAG =   1.60;   BMIX_MAG =  1.00
     AMIN     =   0.10
     WC   =   100.;   INIMIX=   1;  MIXPRE=   1;  MAXMIX= -45

 Intra band minimization:
   WEIMIN = 0.0010     energy-eigenvalue tresh-hold
   EBREAK =  0.15E-07  absolut break condition
   DEPER  =   0.30     relativ break condition  

   TIME   =   0.40     timestep for ELM

  volume/ion in A,a.u.               =      20.65       139.34
  Fermi-wavevector in a.u.,A,eV,Ry     =   1.192102  2.252745 19.335323  1.421106
  Thomas-Fermi vector in A             =   2.328148
 
 Write flags
   LWAVE  =      F    write WAVECAR
   LCHARG =      F    write CHGCAR
   LVTOT  =      F    write LOCPOT, total local potential
   LVHAR  =      F    write LOCPOT, Hartree potential only
   LELF   =      F    write electronic localiz. function (ELF)
   LORBIT =      0    0 simple, 1 ext, 2 COOP (PROOUT)


 Dipole corrections
   LMONO  =      F    monopole corrections only (constant potential shift)
   LDIPOL =      F    correct potential (dipole corrections)
   IDIPOL =      0    1-x, 2-y, 3-z, 4-all directions 
   EPSILON=  1.0000000 bulk dielectric constant

 Exchange correlation treatment:
   GGA     =    --    GGA type
   LEXCH   =     8    internal setting for exchange type
   VOSKOWN=      0    Vosko Wilk Nusair interpolation
   LHFCALC =     F    Hartree Fock is set to
   LHFONE  =     F    Hartree Fock one center treatment
   AEXX    =    0.0000 exact exchange contribution

 Linear response parameters
   LEPSILON=     F    determine dielectric tensor
   LRPA    =     F    only Hartree local field effects (RPA)
   LNABLA  =     F    use nabla operator in PAW spheres
   LVEL    =     F    velocity operator in full k-point grid
   LINTERFAST=   F  fast interpolation
   KINTER  =     0    interpolate to denser k-point grid
   CSHIFT  =0.1000    complex shift for real part using Kramers Kronig
   OMEGAMAX=  -1.0    maximum frequency
   DEG_THRESHOLD= 0.2000000E-02 threshold for treating states as degnerate
   RTIME   =    0.100 relaxation time in fs

 Orbital magnetization related:
   ORBITALMAG=     F  switch on orbital magnetization
   LCHIMAG   =     F  perturbation theory with respect to B field
   DQ        =  0.001000  dq finite difference perturbation B field



--------------------------------------------------------------------------------------------------------


 conjugate gradient relaxation of ions
 charge density and potential will be updated during run
 non-spin polarized calculation
 RMM-DIIS sequential band-by-band and
  variant of blocked Davidson during initial phase
 perform sub-space diagonalisation
    before iterative eigenvector-optimisation
 modified Broyden-mixing scheme, WC =      100.0
 initial mixing is a Kerker type mixing with AMIX =  0.4000 and BMIX =      1.0000
 Hartree-type preconditioning will be used
 using additional bands           28
 real space projection scheme for non local part
 use partial core corrections
 calculate Harris-corrections to forces 
   (improved forces if not selfconsistent)
 use gradient corrections 
 use of overlap-Matrix (Vanderbilt PP)
 Methfessel and Paxton  Order N= 1 SIGMA  =   0.15


--------------------------------------------------------------------------------------------------------


  energy-cutoff  :      300.00
  volume of cell :      743.30
      direct lattice vectors                 reciprocal lattice vectors
     7.025441026  0.024003748  0.060992066     0.142352232 -0.000493631 -0.001235648
     0.035701335 10.316658128 -0.008460174    -0.000331939  0.096931833  0.000086703
     0.088996439 -0.008869215 10.256334495    -0.000846810  0.000082892  0.097508140

  length of vectors
     7.025746780 10.316723370 10.256724443     0.142358451  0.096932440  0.097511852


 
 k-points in units of 2pi/SCALE and weight: k-points                                
   0.00000000  0.00000000  0.00000000       0.037
   0.23669902 -0.00082079 -0.00205460       0.074
  -0.00055194  0.16117534  0.00014417       0.074
   0.23614708  0.16035455 -0.00191043       0.074
  -0.23725096  0.16199614  0.00219876       0.074
  -0.00140805  0.00013783  0.16213361       0.074
   0.23529097 -0.00068296  0.16007901       0.074
  -0.23810707  0.00095862  0.16418821       0.074
  -0.00195999  0.16131317  0.16227778       0.074
   0.23473903  0.16049238  0.16022318       0.074
  -0.23865901  0.16213397  0.16433237       0.074
  -0.00085611 -0.16103751  0.16198944       0.074
   0.23584291 -0.16185831  0.15993484       0.074
  -0.23755513 -0.16021672  0.16404404       0.074
 
 k-points in reciprocal lattice and weights: k-points                                
   0.00000000  0.00000000  0.00000000       0.037
   0.33333333 -0.00000000  0.00000000       0.074
  -0.00000000  0.33333333 -0.00000000       0.074
   0.33333333  0.33333333  0.00000000       0.074
  -0.33333333  0.33333333  0.00000000       0.074
   0.00000000  0.00000000  0.33333333       0.074
   0.33333333 -0.00000000  0.33333333       0.074
  -0.33333333  0.00000000  0.33333333       0.074
   0.00000000  0.33333333  0.33333333       0.074
   0.33333333  0.33333333  0.33333333       0.074
  -0.33333333  0.33333333  0.33333333       0.074
   0.00000000 -0.33333333  0.33333333       0.074
   0.33333333 -0.33333333  0.33333333       0.074
  -0.33333333 -0.33333333  0.33333333       0.074
 
 position of ions in fractional coordinates (direct lattice) 
   0.72919100  0.16288700  0.82516800
   0.50649300  0.33488300  0.34029000
   0.02401100  0.31874500  0.66714100
   0.26389900  0.49527500  0.15066000
   0.98129300  0.33272000  0.32954100
   0.49498100  0.66703500  0.33518100
   0.78015900  0.51100800  0.52344800
   0.77002400  0.83766300  0.51183000
   0.26130900  0.49920800  0.84296600
   0.25903200  0.16293700  0.16921900
   0.74798300  0.82722000  0.83269900
   0.28822600  0.17377600  0.85679900
   0.50280400  0.99592200  0.33901400
   0.46933100  0.99936800  0.65032400
   0.99966500  0.99781000  0.00010800
   0.02831800  0.00315800  0.67350600
   0.99260800  0.66682200  0.31546700
   0.48250700  0.33004300  0.64183500
   0.97369900  0.32503500  0.00545900
   0.75349900  0.51018800  0.83412900
   0.46503100  0.67421600  0.65478800
   0.50229300  0.67626100  0.00805200
   0.00044900  0.67602900  0.01068200
   0.74321400  0.83217200  0.15681600
   0.98714000  0.99949100  0.32824500
   0.25072100  0.83774400  0.16662700
   0.76467000  0.15250800  0.50478600
   0.21676600  0.50769800  0.50202300
   0.03867600  0.67728200  0.67530500
   0.73666700  0.51146100  0.15074400
   0.21870300  0.83277500  0.48294200
   0.25877900  0.82814100  0.84902600
   0.22603900  0.16127400  0.47491200
   0.73694600  0.15759600  0.16744900
   0.54019000  0.33663800  0.01071400
   0.50466700  0.98701600  0.01209600
 
 position of ions in cartesian coordinates  (Angst):
   5.20214066  1.69063422  8.50629584
   3.60057707  3.46401305  3.51818695
   0.23944066  3.28304253  6.84118909
   1.88509704  5.11458118  1.55712499
   6.93522262  3.45319043  3.43691894
   3.53110378  6.89048066  3.46227513
   5.54578972  5.28597900  5.41191807
   5.48521494  8.65582673  5.28937826
   1.92865433  5.14895422  8.65745565
   1.84069100  1.68568222  1.74998709
   5.35855056  8.54471495  8.57906208
   2.10737086  1.79210695  8.80372646
   3.59814663 10.28364919  3.49928236
   3.39081255 10.31563584  6.69011111
   7.05872026 10.31805940  0.05363767
   0.25899882  0.02728627  6.90940328
   7.02539084  6.90040297  3.29043486
   3.45872848  3.41083020  6.60951133
   6.85275492  3.37659898  0.11262739
   5.38611169  5.27412391  8.59674722
   3.34939208  6.96101101  6.73838397
   3.55368987  6.98873904  0.10749861
   0.02824022  6.97427611  0.10386623
   5.26507184  8.60168311  1.64664719
   6.99998965 10.33219073  3.41834236
   1.80616339  8.64725884  1.71718678
   5.42251288  1.58725079  5.22260262
   1.58568050  5.23849734  5.15784161
   0.35599557  6.98222579  6.92278297
   5.20708608  5.29291407  1.58668468
   1.60919633  8.59242135  4.95950842
   1.92316263  8.54232905  8.71667190
   1.63604684  1.66502241  4.88327851
   5.19789941  1.64206838  1.76102752
   3.80804492  3.48585072  0.13998566
   3.58182254 10.19471326  0.14649098
 


--------------------------------------------------------------------------------------------------------


 k-point  1 :   0.0000 0.0000 0.0000  plane waves:    8775
 k-point  2 :   0.3333-0.0000 0.0000  plane waves:    8788
 k-point  3 :  -0.0000 0.3333-0.0000  plane waves:    8764
 k-point  4 :   0.3333 0.3333 0.0000  plane waves:    8774
 k-point  5 :  -0.3333 0.3333 0.0000  plane waves:    8775
 k-point  6 :   0.0000 0.0000 0.3333  plane waves:    8770
 k-point  7 :   0.3333-0.0000 0.3333  plane waves:    8776
 k-point  8 :  -0.3333 0.0000 0.3333  plane waves:    8770
 k-point  9 :   0.0000 0.3333 0.3333  plane waves:    8751
 k-point 10 :   0.3333 0.3333 0.3333  plane waves:    8771
 k-point 11 :  -0.3333 0.3333 0.3333  plane waves:    8786
 k-point 12 :   0.0000-0.3333 0.3333  plane waves:    8744
 k-point 13 :   0.3333-0.3333 0.3333  plane waves:    8771
 k-point 14 :  -0.3333-0.3333 0.3333  plane waves:    8781

 maximum and minimum number of plane-waves per node :      1777     1718

 maximum number of plane-waves:      8788
 maximum index in each direction: 
   IXMAX=   10   IYMAX=   14   IZMAX=   14
   IXMIN=  -10   IYMIN=  -14   IZMIN=  -14

 WARNING: aliasing errors must be expected set NGX to  42 to avoid them
 NGY is ok and might be reduce to  58
 NGZ is ok and might be reduce to  58
 aliasing errors are usually negligible using standard VASP settings
 and one can safely disregard these warnings

 real space projection operators:
  total allocation   :      25628.91 KBytes
  max/ min on nodes  :       5183.58       5062.36


 parallel 3D FFT for wavefunctions:
    minimum data exchange during FFTs selected (reduces bandwidth)
 parallel 3D FFT for charge:
    minimum data exchange during FFTs selected (reduces bandwidth)


 total amount of memory used by VASP on root node    66674. kBytes
========================================================================

   base      :      30000. kBytes
   nonlr-proj:       9999. kBytes
   fftplans  :       2814. kBytes
   grid      :       5360. kBytes
   one-center:        124. kBytes
   wavefun   :      18377. kBytes
 
     INWAV:  cpu time    0.0000: real time    0.0002
 Broyden mixing: mesh for mixing (old mesh)
   NGX = 19   NGY = 29   NGZ = 29
  (NGX  = 80   NGY  =120   NGZ  =120)
  gives a total of  15979 points

 initial charge density was supplied:
 charge density of overlapping atoms calculated
 number of electron     287.0000000 magnetization 
 keeping initial charge density in first step


--------------------------------------------------------------------------------------------------------


 Maximum index for non-local projection operator         1188
 Maximum index for augmentation-charges          674 (set IRDMAX)


--------------------------------------------------------------------------------------------------------


 First call to EWALD:  gamma=   0.196
 Maximum number of real-space cells 3x 2x 2
 Maximum number of reciprocal cells 2x 3x 3

 FEWALD executed in parallel
    FEWALD:  cpu time    0.1359: real time    0.1391


----------------------------------------- Iteration    1(   1)  ---------------------------------------


    POTLOK:  cpu time    0.0488: real time    0.0492
    SETDIJ:  cpu time    0.1087: real time    0.1090
     EDDAV:  cpu time    1.0476: real time    1.0546
       DOS:  cpu time    0.0022: real time    0.0022
    --------------------------------------------
      LOOP:  cpu time    1.2151: real time    1.4222

 eigenvalue-minimisations  :  5248
 total energy-change (2. order) : 0.1732050E+04  (-0.1055716E+05)
 number of electron     287.0000000 magnetization 
 augmentation part      287.0000000 magnetization 

 Free energy of the ion-electron system (eV)
  ---------------------------------------------------
  alpha Z        PSCENC =      1447.98352596
  Ewald energy   TEWEN  =    -18299.30445971
  -Hartree energ DENC   =     -6350.09075587
  -exchange      EXHF   =         0.00000000
  -V(xc)+E(xc)   XCENC  =      -384.76655762
  PAW double counting   =     20177.92566552   -18531.09239067
  entropy T*S    EENTRO =        -0.00691811
  eigenvalues    EBANDS =       -79.25388731
  atomic energy  EATOM  =     23750.65608077
  Solvation  Ediel_sol  =         0.00000000
  ---------------------------------------------------
  free energy    TOTEN  =      1732.05030296 eV

  energy without entropy =     1732.05722107  energy(sigma->0) =     1732.05260900


--------------------------------------------------------------------------------------------------------




----------------------------------------- Iteration    1(   2)  ---------------------------------------


     EDDAV:  cpu time    0.9699: real time    0.9751
       DOS:  cpu time    0.0011: real time    0.0011
    --------------------------------------------
      LOOP:  cpu time    0.9717: real time    1.0939

 eigenvalue-minimisations  :  5212
 total energy-change (2. order) :-0.1811506E+04  (-0.1736430E+04)
 number of electron     287.0000000 magnetization 
 augmentation part      287.0000000 magnetization 

 Free energy of the ion-electron system (eV)
  ---------------------------------------------------
  alpha Z        PSCENC =      1447.98352596
  Ewald energy   TEWEN  =    -18299.30445971
  -Hartree energ DENC   =     -6350.09075587
  -exchange      EXHF   =         0.00000000
  -V(xc)+E(xc)   XCENC  =      -384.76655762
  PAW double counting   =     20177.92566552   -18531.09239067
  entropy T*S    EENTRO =         0.00961182
  eigenvalues    EBANDS =     -1890.77603799
  atomic energy  EATOM  =     23750.65608077
  Solvation  Ediel_sol  =         0.00000000
  ---------------------------------------------------
  free energy    TOTEN  =       -79.45531780 eV

  energy without entropy =      -79.46492961  energy(sigma->0) =      -79.45852174


--------------------------------------------------------------------------------------------------------




----------------------------------------- Iteration    1(   3)  ---------------------------------------


     EDDAV:  cpu time    1.3615: real time    1.3699
       DOS:  cpu time    0.0022: real time    0.0022
    --------------------------------------------
      LOOP:  cpu time    1.3640: real time    1.4014

 eigenvalue-minimisations  :  8128
 total energy-change (2. order) :-0.2584535E+03  (-0.2448327E+03)
 number of electron     287.0000000 magnetization 
 augmentation part      287.0000000 magnetization 

 Free energy of the ion-electron system (eV)
  ---------------------------------------------------
  alpha Z        PSCENC =      1447.98352596
  Ewald energy   TEWEN  =    -18299.30445971
  -Hartree energ DENC   =     -6350.09075587
  -exchange      EXHF   =         0.00000000
  -V(xc)+E(xc)   XCENC  =      -384.76655762
  PAW double counting   =     20177.92566552   -18531.09239067
  entropy T*S    EENTRO =        -0.00240633
  eigenvalues    EBANDS =     -2149.21750981
  atomic energy  EATOM  =     23750.65608077
  Solvation  Ediel_sol  =         0.00000000
  ---------------------------------------------------
  free energy    TOTEN  =      -337.90880776 eV

  energy without entropy =     -337.90640144  energy(sigma->0) =     -337.90800565


--------------------------------------------------------------------------------------------------------




----------------------------------------- Iteration    1(   4)  ---------------------------------------


     EDDAV:  cpu time    1.7294: real time    1.7854
       DOS:  cpu time    0.0008: real time    0.0008
    --------------------------------------------
      LOOP:  cpu time    1.7306: real time    1.8069

 eigenvalue-minimisations  :  8184
 total energy-change (2. order) :-0.3293010E+02  (-0.3137780E+02)
 number of electron     287.0000000 magnetization 
 augmentation part      287.0000000 magnetization 

 Free energy of the ion-electron system (eV)
  ---------------------------------------------------
  alpha Z        PSCENC =      1447.98352596
  Ewald energy   TEWEN  =    -18299.30445971
  -Hartree energ DENC   =     -6350.09075587
  -exchange      EXHF   =         0.00000000
  -V(xc)+E(xc)   XCENC  =      -384.76655762
  PAW double counting   =     20177.92566552   -18531.09239067
  entropy T*S    EENTRO =         0.00326686
  eigenvalues    EBANDS =     -2182.15327847
  atomic energy  EATOM  =     23750.65608077
  Solvation  Ediel_sol  =         0.00000000
  ---------------------------------------------------
  free energy    TOTEN  =      -370.83890323 eV

  energy without entropy =     -370.84217009  energy(sigma->0) =     -370.83999218


--------------------------------------------------------------------------------------------------------




----------------------------------------- Iteration    1(   5)  ---------------------------------------


     EDDAV:  cpu time    1.3629: real time    1.4471
       DOS:  cpu time    0.0008: real time    0.0008
    CHARGE:  cpu time    0.0303: real time    0.0305
    MIXING:  cpu time    0.0014: real time    0.0015
    --------------------------------------------
      LOOP:  cpu time    1.3960: real time    1.5240

 eigenvalue-minimisations  :  7576
 total energy-change (2. order) :-0.3462106E+01  (-0.3376604E+01)
 number of electron     287.0000002 magnetization 
 augmentation part       12.6723030 magnetization 

 Broyden mixing:
  rms(total) = 0.66565E+01    rms(broyden)= 0.66562E+01
  rms(prec ) = 0.69225E+01
  weight for this iteration     100.00

 Free energy of the ion-electron system (eV)
  ---------------------------------------------------
  alpha Z        PSCENC =      1447.98352596
  Ewald energy   TEWEN  =    -18299.30445971
  -Hartree energ DENC   =     -6350.09075587
  -exchange      EXHF   =         0.00000000
  -V(xc)+E(xc)   XCENC  =      -384.76655762
  PAW double counting   =     20177.92566552   -18531.09239067
  entropy T*S    EENTRO =         0.00335968
  eigenvalues    EBANDS =     -2185.61547706
  atomic energy  EATOM  =     23750.65608077
  Solvation  Ediel_sol  =         0.00000000
  ---------------------------------------------------
  free energy    TOTEN  =      -374.30100900 eV

  energy without entropy =     -374.30436868  energy(sigma->0) =     -374.30212889


--------------------------------------------------------------------------------------------------------




----------------------------------------- Iteration    1(   6)  ---------------------------------------


    POTLOK:  cpu time    0.0308: real time    0.0310
    SETDIJ:  cpu time    0.0106: real time    0.0107
    EDDIAG:  cpu time    0.1051: real time    0.1058
  RMM-DIIS:  cpu time    0.7144: real time    0.7198
    ORTHCH:  cpu time    0.0114: real time    0.0123
       DOS:  cpu time    0.0011: real time    0.0011
    CHARGE:  cpu time    0.0290: real time    0.0290
    MIXING:  cpu time    0.0016: real time    0.0116
    --------------------------------------------
      LOOP:  cpu time    0.9047: real time    0.9425

 eigenvalue-minimisations  :  6878
 total energy-change (2. order) : 0.1037285E+02  (-0.2336340E+01)
 number of electron     287.0000002 magnetization 
 augmentation part       13.2181659 magnetization 

 Broyden mixing:
  rms(total) = 0.31846E+01    rms(broyden)= 0.31845E+01
  rms(prec ) = 0.34346E+01
  weight for this iteration     100.00

 eigenvalues of (default mixing * dielectric matrix)
  average eigenvalue GAMMA=   1.8454
  1.8454

 Free energy of the ion-electron system (eV)
  ---------------------------------------------------
  alpha Z        PSCENC =      1447.98352596
  Ewald energy   TEWEN  =    -18299.30445971
  -Hartree energ DENC   =     -6181.10200707
  -exchange      EXHF   =         0.00000000
  -V(xc)+E(xc)   XCENC  =      -387.71632984
  PAW double counting   =     25825.04375424   -24189.41522948
  entropy T*S    EENTRO =         0.00511708
  eigenvalues    EBANDS =     -2330.07861001
  atomic energy  EATOM  =     23750.65608077
  Solvation  Ediel_sol  =         0.00000000
  ---------------------------------------------------
  free energy    TOTEN  =      -363.92815807 eV

  energy without entropy =     -363.93327515  energy(sigma->0) =     -363.92986376


--------------------------------------------------------------------------------------------------------




----------------------------------------- Iteration    1(   7)  ---------------------------------------


    POTLOK:  cpu time    0.0288: real time    0.0290
    SETDIJ:  cpu time    0.0152: real time    0.0154
    EDDIAG:  cpu time    0.1050: real time    0.1054
  RMM-DIIS:  cpu time    0.7476: real time    0.7528
    ORTHCH:  cpu time    0.0118: real time    0.0118
       DOS:  cpu time    0.0033: real time    0.0033
    CHARGE:  cpu time    0.0287: real time    0.0297
    MIXING:  cpu time    0.0013: real time    0.0013
    --------------------------------------------
      LOOP:  cpu time    0.9424: real time    0.9696

 eigenvalue-minimisations  :  7243
 total energy-change (2. order) :-0.4017342E+00  (-0.2471889E+01)
 number of electron     287.0000001 magnetization 
 augmentation part       13.6913499 magnetization 

 Broyden mixing:
  rms(total) = 0.99485E+00    rms(broyden)= 0.99458E+00
  rms(prec ) = 0.27895E+01
  weight for this iteration     100.00

 eigenvalues of (default mixing * dielectric matrix)
  average eigenvalue GAMMA=   1.2016
  1.8409  0.5624

 Free energy of the ion-electron system (eV)
  ---------------------------------------------------
  alpha Z        PSCENC =      1447.98352596
  Ewald energy   TEWEN  =    -18299.30445971
  -Hartree energ DENC   =     -6111.06642969
  -exchange      EXHF   =         0.00000000
  -V(xc)+E(xc)   XCENC  =      -386.04006485
  PAW double counting   =     31533.51087130   -29892.88886322
  entropy T*S    EENTRO =        -0.00758322
  eigenvalues    EBANDS =     -2407.17296960
  atomic energy  EATOM  =     23750.65608077
  Solvation  Ediel_sol  =         0.00000000
  ---------------------------------------------------
  free energy    TOTEN  =      -364.32989226 eV

  energy without entropy =     -364.32230904  energy(sigma->0) =     -364.32736452


--------------------------------------------------------------------------------------------------------




----------------------------------------- Iteration    1(   8)  ---------------------------------------


    POTLOK:  cpu time    0.0284: real time    0.0305
    SETDIJ:  cpu time    0.0073: real time    0.0078
    EDDIAG:  cpu time    0.1029: real time    0.1204
  RMM-DIIS:  cpu time    0.7966: real time    0.8256
    ORTHCH:  cpu time    0.0118: real time    0.0119
       DOS:  cpu time    0.0173: real time    0.0173
    CHARGE:  cpu time    0.0300: real time    0.0301
    MIXING:  cpu time    0.0013: real time    0.0013
    --------------------------------------------
      LOOP:  cpu time    0.9962: real time    1.0665

 eigenvalue-minimisations  :  7395
 total energy-change (2. order) : 0.4606671E+01  (-0.5639149E+00)
 number of electron     287.0000001 magnetization 
 augmentation part       13.4148775 magnetization 

 Broyden mixing:
  rms(total) = 0.37310E+00    rms(broyden)= 0.37272E+00
  rms(prec ) = 0.59120E+00
  weight for this iteration     100.00

 eigenvalues of (default mixing * dielectric matrix)
  average eigenvalue GAMMA=   1.1348
  1.8167  1.1503  0.4374

 Free energy of the ion-electron system (eV)
  ---------------------------------------------------
  alpha Z        PSCENC =      1447.98352596
  Ewald energy   TEWEN  =    -18299.30445971
  -Hartree energ DENC   =     -6097.04552299
  -exchange      EXHF   =         0.00000000
  -V(xc)+E(xc)   XCENC  =      -385.63475273
  PAW double counting   =     32500.65210103   -30858.40114316
  entropy T*S    EENTRO =         0.00866368
  eigenvalues    EBANDS =     -2418.63771427
  atomic energy  EATOM  =     23750.65608077
  Solvation  Ediel_sol  =         0.00000000
  ---------------------------------------------------
  free energy    TOTEN  =      -359.72322143 eV

  energy without entropy =     -359.73188511  energy(sigma->0) =     -359.72610933


--------------------------------------------------------------------------------------------------------




----------------------------------------- Iteration    1(   9)  ---------------------------------------


    POTLOK:  cpu time    0.0300: real time    0.0303
    SETDIJ:  cpu time    0.0038: real time    0.0038
    EDDIAG:  cpu time    0.0833: real time    0.0838
  RMM-DIIS:  cpu time    0.7581: real time    0.7651
    ORTHCH:  cpu time    0.0116: real time    0.0117
       DOS:  cpu time    0.0013: real time    0.0013
    CHARGE:  cpu time    0.0283: real time    0.0285
    MIXING:  cpu time    0.0013: real time    0.0013
    --------------------------------------------
      LOOP:  cpu time    0.9184: real time    0.9461

 eigenvalue-minimisations  :  7350
 total energy-change (2. order) : 0.1398726E+00  (-0.2072098E+00)
 number of electron     287.0000001 magnetization 
 augmentation part       13.2672415 magnetization 

 Broyden mixing:
  rms(total) = 0.26628E+00    rms(broyden)= 0.26621E+00
  rms(prec ) = 0.35408E+00
  weight for this iteration     100.00

 eigenvalues of (default mixing * dielectric matrix)
  average eigenvalue GAMMA=   1.1510
  1.8364  1.8364  0.4901  0.4412

 Free energy of the ion-electron system (eV)
  ---------------------------------------------------
  alpha Z        PSCENC =      1447.98352596
  Ewald energy   TEWEN  =    -18299.30445971
  -Hartree energ DENC   =     -6098.51420274
  -exchange      EXHF   =         0.00000000
  -V(xc)+E(xc)   XCENC  =      -385.22181430
  PAW double counting   =     32708.26238830   -31062.41196129
  entropy T*S    EENTRO =         0.00933784
  eigenvalues    EBANDS =     -2421.04224365
  atomic energy  EATOM  =     23750.65608077
  Solvation  Ediel_sol  =         0.00000000
  ---------------------------------------------------
  free energy    TOTEN  =      -359.58334883 eV

  energy without entropy =     -359.59268667  energy(sigma->0) =     -359.58646144


--------------------------------------------------------------------------------------------------------




----------------------------------------- Iteration    1(  10)  ---------------------------------------


    POTLOK:  cpu time    0.0295: real time    0.0296
    SETDIJ:  cpu time    0.0037: real time    0.0037
    EDDIAG:  cpu time    0.0759: real time    0.0764
  RMM-DIIS:  cpu time    0.7380: real time    0.7436
    ORTHCH:  cpu time    0.0117: real time    0.0118
       DOS:  cpu time    0.0020: real time    0.0021
    CHARGE:  cpu time    0.0297: real time    0.0299
    MIXING:  cpu time    0.0014: real time    0.0014
    --------------------------------------------
      LOOP:  cpu time    0.8926: real time    0.9208

 eigenvalue-minimisations  :  7328
 total energy-change (2. order) : 0.2373256E-01  (-0.4528589E-01)
 number of electron     287.0000001 magnetization 
 augmentation part       13.1800058 magnetization 

 Broyden mixing:
  rms(total) = 0.13774E+00    rms(broyden)= 0.13769E+00
  rms(prec ) = 0.24246E+00
  weight for this iteration     100.00

 eigenvalues of (default mixing * dielectric matrix)
  average eigenvalue GAMMA=   1.1301
  1.9873  1.9873  0.7527  0.4997  0.4235

 Free energy of the ion-electron system (eV)
  ---------------------------------------------------
  alpha Z        PSCENC =      1447.98352596
  Ewald energy   TEWEN  =    -18299.30445971
  -Hartree energ DENC   =     -6109.19153920
  -exchange      EXHF   =         0.00000000
  -V(xc)+E(xc)   XCENC  =      -384.32513643
  PAW double counting   =     32954.33770022   -31301.75027059
  entropy T*S    EENTRO =         0.00899391
  eigenvalues    EBANDS =     -2417.97451120
  atomic energy  EATOM  =     23750.65608077
  Solvation  Ediel_sol  =         0.00000000
  ---------------------------------------------------
  free energy    TOTEN  =      -359.55961627 eV

  energy without entropy =     -359.56861018  energy(sigma->0) =     -359.56261424


--------------------------------------------------------------------------------------------------------




----------------------------------------- Iteration    1(  11)  ---------------------------------------


    POTLOK:  cpu time    0.0305: real time    0.0307
    SETDIJ:  cpu time    0.0037: real time    0.0037
    EDDIAG:  cpu time    0.0765: real time    0.0769
  RMM-DIIS:  cpu time    0.7405: real time    0.7435
    ORTHCH:  cpu time    0.0117: real time    0.0117
       DOS:  cpu time    0.0013: real time    0.0013
    CHARGE:  cpu time    0.0308: real time    0.0309
    MIXING:  cpu time    0.0014: real time    0.0014
    --------------------------------------------
      LOOP:  cpu time    0.8970: real time    0.9270

 eigenvalue-minimisations  :  7395
 total energy-change (2. order) : 0.2461622E-01  (-0.1477634E-01)
 number of electron     287.0000001 magnetization 
 augmentation part       13.1437116 magnetization 

 Broyden mixing:
  rms(total) = 0.66249E-01    rms(broyden)= 0.66191E-01
  rms(prec ) = 0.11826E+00
  weight for this iteration     100.00

 eigenvalues of (default mixing * dielectric matrix)
  average eigenvalue GAMMA=   1.1010
  2.2014  1.8583  1.1505  0.5123  0.4823  0.4013

 Free energy of the ion-electron system (eV)
  ---------------------------------------------------
  alpha Z        PSCENC =      1447.98352596
  Ewald energy   TEWEN  =    -18299.30445971
  -Hartree energ DENC   =     -6114.89411422
  -exchange      EXHF   =         0.00000000
  -V(xc)+E(xc)   XCENC  =      -383.87406640
  PAW double counting   =     33113.74926655   -31457.78310650
  entropy T*S    EENTRO =         0.01026171
  eigenvalues    EBANDS =     -2416.07838821
  atomic energy  EATOM  =     23750.65608077
  Solvation  Ediel_sol  =         0.00000000
  ---------------------------------------------------
  free energy    TOTEN  =      -359.53500005 eV

  energy without entropy =     -359.54526177  energy(sigma->0) =     -359.53842062


--------------------------------------------------------------------------------------------------------




----------------------------------------- Iteration    1(  12)  ---------------------------------------


    POTLOK:  cpu time    0.0293: real time    0.0295
    SETDIJ:  cpu time    0.0037: real time    0.0037
    EDDIAG:  cpu time    0.0736: real time    0.0739
  RMM-DIIS:  cpu time    0.8233: real time    0.8278
    ORTHCH:  cpu time    0.0924: real time    0.0934
       DOS:  cpu time    0.0008: real time    0.0008
    CHARGE:  cpu time    0.0353: real time    0.0359
    MIXING:  cpu time    0.0015: real time    0.0015
    --------------------------------------------
      LOOP:  cpu time    1.0604: real time    1.0869

 eigenvalue-minimisations  :  7469
 total energy-change (2. order) : 0.1036567E-02  (-0.6609581E-02)
 number of electron     287.0000001 magnetization 
 augmentation part       13.1443489 magnetization 

 Broyden mixing:
  rms(total) = 0.39097E-01    rms(broyden)= 0.39084E-01
  rms(prec ) = 0.65005E-01
  weight for this iteration     100.00

 eigenvalues of (default mixing * dielectric matrix)
  average eigenvalue GAMMA=   1.0545
  2.2198  1.8643  1.3263  0.5859  0.5859  0.4243  0.3749

 Free energy of the ion-electron system (eV)
  ---------------------------------------------------
  alpha Z        PSCENC =      1447.98352596
  Ewald energy   TEWEN  =    -18299.30445971
  -Hartree energ DENC   =     -6116.92878100
  -exchange      EXHF   =         0.00000000
  -V(xc)+E(xc)   XCENC  =      -383.70161847
  PAW double counting   =     33239.30008764   -31581.52555641
  entropy T*S    EENTRO =         0.00994769
  eigenvalues    EBANDS =     -2416.02318993
  atomic energy  EATOM  =     23750.65608077
  Solvation  Ediel_sol  =         0.00000000
  ---------------------------------------------------
  free energy    TOTEN  =      -359.53396349 eV

  energy without entropy =     -359.54391117  energy(sigma->0) =     -359.53727938


--------------------------------------------------------------------------------------------------------




----------------------------------------- Iteration    1(  13)  ---------------------------------------


    POTLOK:  cpu time    0.0299: real time    0.0328
    SETDIJ:  cpu time    0.0037: real time    0.0048
    EDDIAG:  cpu time    0.0759: real time    0.0897
  RMM-DIIS:  cpu time    0.6913: real time    0.7665
    ORTHCH:  cpu time    0.0118: real time    0.0119
       DOS:  cpu time    0.0008: real time    0.0008
    CHARGE:  cpu time    0.0299: real time    0.0300
    MIXING:  cpu time    0.0015: real time    0.0015
    --------------------------------------------
      LOOP:  cpu time    0.8458: real time    0.9796

 eigenvalue-minimisations  :  7478
 total energy-change (2. order) : 0.9331215E-03  (-0.2385321E-02)
 number of electron     287.0000001 magnetization 
 augmentation part       13.1413485 magnetization 

 Broyden mixing:
  rms(total) = 0.22581E-01    rms(broyden)= 0.22573E-01
  rms(prec ) = 0.29449E-01
  weight for this iteration     100.00

 eigenvalues of (default mixing * dielectric matrix)
  average eigenvalue GAMMA=   1.0840
  2.3459  2.0147  1.3655  1.0958  0.5492  0.5117  0.4151  0.3742

 Free energy of the ion-electron system (eV)
  ---------------------------------------------------
  alpha Z        PSCENC =      1447.98352596
  Ewald energy   TEWEN  =    -18299.30445971
  -Hartree energ DENC   =     -6116.64445355
  -exchange      EXHF   =         0.00000000
  -V(xc)+E(xc)   XCENC  =      -383.70254825
  PAW double counting   =     33295.04480488   -31636.56138059
  entropy T*S    EENTRO =         0.01012769
  eigenvalues    EBANDS =     -2417.01472755
  atomic energy  EATOM  =     23750.65608077
  Solvation  Ediel_sol  =         0.00000000
  ---------------------------------------------------
  free energy    TOTEN  =      -359.53303036 eV

  energy without entropy =     -359.54315805  energy(sigma->0) =     -359.53640626


--------------------------------------------------------------------------------------------------------




----------------------------------------- Iteration    1(  14)  ---------------------------------------


    POTLOK:  cpu time    0.0290: real time    0.0291
    SETDIJ:  cpu time    0.0036: real time    0.0036
    EDDIAG:  cpu time    0.0734: real time    0.0747
  RMM-DIIS:  cpu time    0.8219: real time    0.8278
    ORTHCH:  cpu time    0.0115: real time    0.0116
       DOS:  cpu time    0.0011: real time    0.0011
    CHARGE:  cpu time    0.0300: real time    0.0301
    MIXING:  cpu time    0.0015: real time    0.0016
    --------------------------------------------
      LOOP:  cpu time    0.9727: real time    1.0010

 eigenvalue-minimisations  :  7533
 total energy-change (2. order) :-0.5998999E-03  (-0.1091976E-02)
 number of electron     287.0000001 magnetization 
 augmentation part       13.1382122 magnetization 

 Broyden mixing:
  rms(total) = 0.12439E-01    rms(broyden)= 0.12436E-01
  rms(prec ) = 0.17681E-01
  weight for this iteration     100.00

 eigenvalues of (default mixing * dielectric matrix)
  average eigenvalue GAMMA=   1.0915
  2.5147  2.0683  1.4974  1.2637  0.6122  0.6122  0.4673  0.4228  0.3648

 Free energy of the ion-electron system (eV)
  ---------------------------------------------------
  alpha Z        PSCENC =      1447.98352596
  Ewald energy   TEWEN  =    -18299.30445971
  -Hartree energ DENC   =     -6116.86149494
  -exchange      EXHF   =         0.00000000
  -V(xc)+E(xc)   XCENC  =      -383.69417296
  PAW double counting   =     33325.84831462   -31666.82052060
  entropy T*S    EENTRO =         0.01003460
  eigenvalues    EBANDS =     -2417.35093799
  atomic energy  EATOM  =     23750.65608077
  Solvation  Ediel_sol  =         0.00000000
  ---------------------------------------------------
  free energy    TOTEN  =      -359.53363026 eV

  energy without entropy =     -359.54366487  energy(sigma->0) =     -359.53697513


--------------------------------------------------------------------------------------------------------




----------------------------------------- Iteration    1(  15)  ---------------------------------------


    POTLOK:  cpu time    0.0294: real time    0.0295
    SETDIJ:  cpu time    0.0037: real time    0.0037
    EDDIAG:  cpu time    0.0740: real time    0.0743
  RMM-DIIS:  cpu time    0.8083: real time    0.8118
    ORTHCH:  cpu time    0.0186: real time    0.0187
       DOS:  cpu time    0.0011: real time    0.0011
    CHARGE:  cpu time    0.0550: real time    0.0552
    MIXING:  cpu time    0.0030: real time    0.0030
    --------------------------------------------
      LOOP:  cpu time    0.9935: real time    1.0170

 eigenvalue-minimisations  :  7499
 total energy-change (2. order) :-0.3795298E-03  (-0.5313414E-03)
 number of electron     287.0000001 magnetization 
 augmentation part       13.1352933 magnetization 

 Broyden mixing:
  rms(total) = 0.68797E-02    rms(broyden)= 0.68751E-02
  rms(prec ) = 0.14168E-01
  weight for this iteration     100.00

 eigenvalues of (default mixing * dielectric matrix)
  average eigenvalue GAMMA=   1.0663
  2.6069  2.0532  1.6993  1.2099  0.6901  0.6901  0.4739  0.4739  0.4010  0.3643

 Free energy of the ion-electron system (eV)
  ---------------------------------------------------
  alpha Z        PSCENC =      1447.98352596
  Ewald energy   TEWEN  =    -18299.30445971
  -Hartree energ DENC   =     -6117.50853903
  -exchange      EXHF   =         0.00000000
  -V(xc)+E(xc)   XCENC  =      -383.67672036
  PAW double counting   =     33347.38146635   -31687.97740470
  entropy T*S    EENTRO =         0.01009538
  eigenvalues    EBANDS =     -2417.09805445
  atomic energy  EATOM  =     23750.65608077
  Solvation  Ediel_sol  =         0.00000000
  ---------------------------------------------------
  free energy    TOTEN  =      -359.53400979 eV

  energy without entropy =     -359.54410518  energy(sigma->0) =     -359.53737492


--------------------------------------------------------------------------------------------------------




----------------------------------------- Iteration    1(  16)  ---------------------------------------


    POTLOK:  cpu time    0.0282: real time    0.0414
    SETDIJ:  cpu time    0.0035: real time    0.0035
    EDDIAG:  cpu time    0.0740: real time    0.0743
  RMM-DIIS:  cpu time    0.6548: real time    0.6586
    ORTHCH:  cpu time    0.0118: real time    0.0119
       DOS:  cpu time    0.0010: real time    0.0010
    CHARGE:  cpu time    0.0311: real time    0.0312
    MIXING:  cpu time    0.0017: real time    0.0017
    --------------------------------------------
      LOOP:  cpu time    0.8068: real time    0.8569

 eigenvalue-minimisations  :  6487
 total energy-change (2. order) :-0.1129347E-03  (-0.2267799E-03)
 number of electron     287.0000001 magnetization 
 augmentation part       13.1339216 magnetization 

 Broyden mixing:
  rms(total) = 0.37944E-02    rms(broyden)= 0.37928E-02
  rms(prec ) = 0.72166E-02
  weight for this iteration     100.00

 eigenvalues of (default mixing * dielectric matrix)
  average eigenvalue GAMMA=   1.0411
  2.6694  2.0378  1.7742  1.1894  0.7921  0.7921  0.5136  0.5136  0.3636  0.4033
  0.4033

 Free energy of the ion-electron system (eV)
  ---------------------------------------------------
  alpha Z        PSCENC =      1447.98352596
[...]
     94       5.0982      2.00000
     95       5.1410      2.00000
     96       5.1946      2.00000
     97       5.2251      2.00000
     98       5.2995      2.00000
     99       5.3531      2.00000
    100       5.3724      2.00000
    101       5.4323      2.00000
    102       5.5041      2.00000
    103       5.5183      2.00000
    104       5.6035      2.00000
    105       5.6866      2.00000
    106       5.7763      2.00000
    107       5.8848      2.00000
    108       5.9041      2.00000
    109       5.9551      2.00000
    110       6.0107      2.00000
    111       6.0234      2.00000
    112       6.0944      2.00000
    113       6.1122      2.00000
    114       6.1480      2.00000
    115       6.1607      2.00000
    116       6.2121      2.00000
    117       6.2497      2.00000
    118       6.3078      2.00000
    119       6.3277      2.00000
    120       6.3687      2.00000
    121       6.3924      2.00000
    122       6.4323      2.00000
    123       6.4780      2.00000
    124       6.4871      2.00000
    125       6.5130      2.00000
    126       6.5682      2.00000
    127       6.6069      2.00000
    128       6.6327      2.00000
    129       6.7014      2.00000
    130       6.7237      2.00000
    131       6.7482      2.00000
    132       6.8105      2.00004
    133       6.8669      2.00036
    134       6.8910      2.00083
    135       6.9347      2.00319
    136       6.9413      2.00385
    137       7.0169      2.02318
    138       7.0499      2.04078
    139       7.0764      2.05690
    140       7.1166      2.07088
    141       7.1492      2.04958
    142       7.1752      1.99144
    143       7.2290      1.69988
    144       7.2726      1.28956
    145       7.3051      0.92845
    146       7.3642      0.33327
    147       7.3682      0.30178
    148       7.4103      0.05125
    149       7.4364     -0.02869
    150       7.5095     -0.06316
    151       7.5295     -0.05180
    152       7.5686     -0.02892
    153       7.6061     -0.01361
    154       7.6326     -0.00722
    155       7.6757     -0.00218
    156       7.7357     -0.00030
    157       7.7934     -0.00003
    158       7.8326     -0.00001
    159       7.8703     -0.00000
    160       7.9253     -0.00000
    161       7.9437     -0.00000
    162       7.9806     -0.00000
    163       7.9952     -0.00000
    164       8.0617     -0.00000
    165       8.1176     -0.00000
    166       8.1434     -0.00000
    167       8.2230     -0.00000
    168       8.2698     -0.00000
    169       8.4397     -0.00000
    170       8.6028     -0.00000
    171       8.6569     -0.00000
    172       9.0641     -0.00000


--------------------------------------------------------------------------------------------------------


 soft charge-density along one line, spin component           1
         0         1         2         3         4         5         6         7         8         9
 total charge-density along one line
 
 pseudopotential strength for first ion, spin component:           1
 13.533 -26.499  -0.000   0.001   0.000   0.000   0.002   0.003
-26.499  14.188  -0.000  -0.004  -0.005   0.000   0.001   0.000
 -0.000  -0.000  -6.514  -0.001   0.000   5.279   0.000   0.001
  0.001  -0.004  -0.001  -6.511   0.002   0.000   5.274  -0.002
  0.000  -0.005   0.000   0.002  -6.518   0.001  -0.002   5.281
  0.000   0.000   5.279   0.000   0.001   8.230  -0.000  -0.000
  0.002   0.001   0.000   5.274  -0.002  -0.000   8.232   0.001
  0.003   0.000   0.001  -0.002   5.281  -0.000   0.001   8.229
  0.000  -0.001  -0.002   0.000   0.000   0.002  -0.000   0.000
 -0.001   0.000  -0.002  -0.001   0.000   0.002   0.001  -0.000
  0.003   0.002  -0.001  -0.001   0.001   0.000   0.002  -0.001
  0.002   0.001   0.000  -0.001  -0.000  -0.000   0.002   0.001
 -0.002   0.000   0.000   0.001  -0.001   0.000  -0.000   0.001
 -0.000  -0.001  -0.002   0.000   0.000   0.002  -0.000   0.000
 -0.001   0.000  -0.002  -0.001   0.000   0.002   0.001  -0.000
  0.004   0.002  -0.001  -0.001   0.001   0.000   0.002  -0.001
  0.002   0.001   0.000  -0.002  -0.001  -0.000   0.002   0.001
 -0.002   0.000   0.000   0.001  -0.001   0.000  -0.000   0.002
 total augmentation occupancy for first ion, spin component:           1
  1.999  -0.024  -0.000  -0.000   0.000   0.000  -0.001   0.000  -0.003   0.006  -0.002   0.000   0.008   0.003  -0.005   0.000
 -0.024   1.438   0.001  -0.001   0.008   0.003  -0.001  -0.013  -0.030   0.077   0.026  -0.039   0.125   0.017  -0.048  -0.020
 -0.000   0.001   2.002  -0.000   0.000  -0.023   0.000  -0.001   0.003  -0.032   0.000  -0.004   0.004  -0.001   0.014  -0.002
 -0.000  -0.001  -0.000   2.003   0.001   0.000  -0.027  -0.001  -0.004   0.009  -0.006   0.006   0.009   0.003  -0.009   0.006
  0.000   0.008   0.000   0.001   2.001  -0.001  -0.001  -0.021   0.017  -0.006   0.007  -0.004  -0.006  -0.010   0.004  -0.006
  0.000   0.003  -0.023   0.000  -0.001   0.037   0.001   0.001  -0.005   0.061   0.007   0.001  -0.013   0.004  -0.029  -0.002
 -0.001  -0.001   0.000  -0.027  -0.001   0.001   0.043   0.001   0.002   0.020  -0.007  -0.016  -0.028  -0.002  -0.009   0.003
  0.000  -0.013  -0.001  -0.001  -0.021   0.001   0.001   0.037  -0.014   0.004   0.001  -0.011  -0.018   0.005  -0.003  -0.001
 -0.003  -0.030   0.003  -0.004   0.017  -0.005   0.002  -0.014   3.939  -0.124   0.035   0.034   0.008  -2.023   0.061  -0.024
  0.006   0.077  -0.032   0.009  -0.006   0.061   0.020   0.004  -0.124   3.751   0.133  -0.063  -0.134   0.061  -1.930  -0.073
 -0.002   0.026   0.000  -0.006   0.007   0.007  -0.007   0.001   0.035   0.133   4.139   0.041  -0.015  -0.024  -0.073  -2.205
  0.000  -0.039  -0.004   0.006  -0.004   0.001  -0.016  -0.011   0.034  -0.063   0.041   4.164   0.044  -0.028   0.030  -0.009
  0.008   0.125   0.004   0.009  -0.006  -0.013  -0.028  -0.018   0.008  -0.134  -0.015   0.044   4.019   0.002   0.083   0.015
  0.003   0.017  -0.001   0.003  -0.010   0.004  -0.002   0.005  -2.023   0.061  -0.024  -0.028   0.002   1.053  -0.031   0.015
 -0.005  -0.048   0.014  -0.009   0.004  -0.029  -0.009  -0.003   0.061  -1.930  -0.073   0.030   0.083  -0.031   1.007   0.040
  0.000  -0.020  -0.002   0.006  -0.006  -0.002   0.003  -0.001  -0.024  -0.073  -2.205  -0.009   0.015   0.015   0.040   1.183
 -0.001   0.021   0.003  -0.001   0.005  -0.001   0.009   0.004  -0.028   0.029  -0.009  -2.156  -0.013   0.019  -0.014  -0.001
 -0.006  -0.068  -0.002  -0.002   0.008   0.008   0.013   0.009   0.002   0.083   0.015  -0.013  -2.115  -0.004  -0.050  -0.012


------------------------ aborting loop because EDIFF is reached ----------------------------------------


    CHARGE:  cpu time    0.0280: real time    0.0281
    FORLOC:  cpu time    0.0133: real time    0.0133
    FORNL :  cpu time    0.2955: real time    0.2970
    STRESS:  cpu time    0.7893: real time    0.9574
    FORCOR:  cpu time    0.0426: real time    0.0428
    FORHAR:  cpu time    0.0182: real time    0.0182
    MIXING:  cpu time    0.0012: real time    0.0012
    OFIELD:  cpu time    0.0000: real time    0.0000

  FORCE on cell =-STRESS in cart. coord.  units (eV):
  Direction    XX          YY          ZZ          XY          YZ          ZX
  --------------------------------------------------------------------------------------
  Alpha Z  1448.86322  1448.86322  1448.86322
  Ewald   -5824.13361 -6882.98484 -5590.69954  -241.79393   304.46991   112.28345
  Hartree  2327.09711  1286.14790  2508.95810  -196.56458   266.08444   115.48840
  E(xc)   -1237.79648 -1237.49780 -1237.42056     0.33594    -0.18097     0.16619
  Local   -1319.67178   769.70620 -1739.72696   437.30018  -570.06278  -230.16120
  n-local  -312.10397  -310.60002  -313.51779     1.37538     0.88132     4.12409
  augment   144.17658   144.61598   144.87397    -0.03487    -0.15994    -0.47644
  Kinetic  4773.74373  4781.91335  4778.89420    -0.63487    -1.06119    -1.43882
  Fock        0.00000     0.00000     0.00000     0.00000     0.00000     0.00000
  -------------------------------------------------------------------------------------
  Total       0.17481     0.16399     0.22464    -0.01676    -0.02920    -0.01434
  in kB       0.37703     0.35368     0.48451    -0.03615    -0.06298    -0.03093
  external pressure =        0.41 kB  Pullay stress =        0.00 kB


 VOLUME and BASIS-vectors are now :
 -----------------------------------------------------------------------------
  energy-cutoff  :      300.00
  volume of cell :      742.85
      direct lattice vectors                 reciprocal lattice vectors
     7.019681430  0.020053086  0.060348364     0.142468301 -0.000413340 -0.001222888
     0.029865702 10.319936858 -0.008775540    -0.000277586  0.096900697  0.000089646
     0.087999567 -0.009235351 10.255206197    -0.000838615  0.000085352  0.097518720

  length of vectors
     7.019969475 10.319983804 10.255587909     0.142474149  0.096901136  0.097522364


 FORCES acting on ions
    electron-ion (+dipol)            ewald-force                    non-local-force                 convergence-correction
 -----------------------------------------------------------------------------------------------
   -.128E+03 0.866E+02 0.227E+03   0.127E+03 -.866E+02 -.227E+03   0.766E+00 -.187E-01 -.597E-01   0.208E-03 0.148E-01 -.526E-02
   -.496E+02 -.113E+03 -.222E+03   0.499E+02 0.112E+03 0.222E+03   -.333E+00 0.519E+00 -.141E+00   -.136E-02 -.124E-01 0.765E-02
   0.526E+02 -.766E+02 -.750E+02   -.521E+02 0.763E+02 0.743E+02   -.535E+00 0.340E+00 0.747E+00   0.190E-02 -.769E-02 -.122E-01
   0.165E+03 -.314E+03 0.142E+02   -.164E+03 0.315E+03 -.148E+02   -.679E+00 -.385E+00 0.539E+00   -.910E-03 -.208E-01 0.130E-01
   0.490E+02 -.152E+03 -.269E+02   -.491E+02 0.152E+03 0.271E+02   0.154E+00 0.336E+00 -.166E+00   0.146E-02 -.122E-01 0.810E-02
   0.282E+02 -.187E+03 -.631E+02   -.285E+02 0.187E+03 0.627E+02   0.297E+00 -.432E+00 0.362E+00   0.728E-03 -.639E-02 0.761E-02
   0.525E+02 -.195E+03 -.131E+03   -.509E+02 0.196E+03 0.131E+03   -.153E+01 -.512E+00 -.627E+00   0.150E-02 -.178E-01 -.590E-02
   -.813E+01 -.672E+01 -.213E+02   0.947E+01 0.705E+01 0.214E+02   -.134E+01 -.345E+00 -.104E+00   0.126E-02 0.103E-01 -.121E-01
   0.300E+02 -.259E+03 0.128E+03   -.301E+02 0.259E+03 -.128E+03   0.858E-01 -.405E+00 -.417E+00   -.468E-03 -.253E-01 -.816E-02
   0.163E+03 0.216E+03 -.128E+02   -.163E+03 -.217E+03 0.130E+02   -.310E+00 0.305E+00 -.165E+00   -.575E-03 0.916E-02 0.136E-01
   -.752E+02 0.146E+03 0.891E+02   0.750E+02 -.147E+03 -.883E+02   0.200E+00 0.247E+00 -.744E+00   0.584E-03 0.102E-01 -.608E-02
   0.162E+03 0.143E+03 0.214E+03   -.161E+03 -.143E+03 -.213E+03   -.682E+00 -.129E+00 -.462E+00   0.416E-03 0.166E-01 -.463E-02
   -.349E+01 0.975E+02 -.590E+02   0.367E+01 -.974E+02 0.590E+02   -.175E+00 -.744E-01 0.761E-01   -.285E-03 0.577E-02 0.197E-02
   0.142E+02 0.687E+02 0.258E+02   -.147E+02 -.687E+02 -.265E+02   0.422E+00 0.410E-01 0.725E+00   0.832E-05 0.741E-02 -.591E-02
   -.211E+02 0.918E+02 0.181E+02   0.209E+02 -.924E+02 -.176E+02   0.197E+00 0.616E+00 -.510E+00   -.118E-02 0.762E-02 0.338E-02
   -.177E+02 0.781E+02 -.464E+01   0.182E+02 -.782E+02 0.421E+01   -.505E+00 0.890E-01 0.439E+00   -.354E-03 0.777E-02 -.584E-02
   -.755E+01 -.602E+02 0.982E+01   0.791E+01 0.605E+02 -.104E+02   -.354E+00 -.326E+00 0.588E+00   -.176E-03 -.198E-02 0.311E-02
   -.258E+02 -.346E+02 -.334E+01   0.253E+02 0.343E+02 0.285E+01   0.504E+00 0.253E+00 0.489E+00   -.634E-03 -.299E-02 -.348E-02
   -.216E+01 -.587E+02 0.413E+02   0.101E+01 0.586E+02 -.410E+02   0.114E+01 0.997E-01 -.364E+00   -.372E-03 -.311E-02 0.134E-02
   -.110E+02 -.698E+02 0.187E+02   0.110E+02 0.702E+02 -.181E+02   0.433E-01 -.392E+00 -.565E+00   0.767E-04 -.784E-02 -.242E-02
   0.193E+02 -.304E+02 -.125E+02   -.207E+02 0.306E+02 0.124E+02   0.139E+01 -.262E+00 0.113E+00   0.109E-03 -.420E-02 -.564E-02
   -.171E+02 -.361E+02 0.342E+02   0.173E+02 0.368E+02 -.335E+02   -.175E+00 -.629E+00 -.702E+00   0.159E-02 -.461E-02 0.457E-02
   0.158E+02 -.417E+02 0.671E+01   -.159E+02 0.423E+02 -.611E+01   0.173E+00 -.693E+00 -.605E+00   -.946E-03 -.475E-02 0.394E-02
   -.667E+02 0.625E+02 -.341E+02   0.665E+02 -.627E+02 0.333E+02   0.189E+00 0.165E+00 0.721E+00   0.351E-03 0.411E-02 0.713E-02
   0.383E+01 0.141E+03 -.126E+02   -.390E+01 -.141E+03 0.126E+02   0.654E-01 -.699E-01 -.119E-01   0.154E-03 0.706E-02 0.305E-02
   0.661E+02 0.491E+02 -.254E+02   -.659E+02 -.492E+02 0.249E+02   -.133E+00 0.863E-01 0.534E+00   0.254E-03 0.502E-02 0.747E-02
   0.423E+02 0.850E+02 -.524E+02   -.417E+02 -.856E+02 0.522E+02   -.622E+00 0.568E+00 0.183E+00   0.140E-03 0.381E-02 -.295E-02
   -.278E+02 -.117E+03 -.443E+02   0.271E+02 0.117E+03 0.446E+02   0.715E+00 -.392E+00 -.321E+00   -.457E-03 -.797E-02 -.202E-02
   -.292E+02 -.513E+02 -.142E+02   0.304E+02 0.515E+02 0.139E+02   -.121E+01 -.270E+00 0.248E+00   -.280E-03 -.574E-02 -.721E-02
   -.788E+02 -.134E+03 0.266E+02   0.784E+02 0.135E+03 -.275E+02   0.376E+00 -.647E+00 0.947E+00   0.474E-03 -.711E-02 0.563E-02
   -.838E+01 0.173E+02 -.326E+02   0.765E+01 -.172E+02 0.322E+02   0.732E+00 -.839E-01 0.418E+00   -.750E-03 0.437E-02 -.302E-02
   0.410E+02 0.370E+02 0.589E+02   -.411E+02 -.375E+02 -.579E+02   0.874E-01 0.450E+00 -.932E+00   0.252E-03 0.345E-02 -.265E-02
   -.757E+02 0.287E+03 -.188E+03   0.749E+02 -.288E+03 0.188E+03   0.831E+00 0.664E+00 0.677E+00   0.136E-02 0.137E-01 -.326E-02
   -.192E+03 0.227E+03 -.963E+02   0.192E+03 -.228E+03 0.959E+02   0.376E+00 0.432E+00 0.369E+00   0.684E-03 0.117E-01 0.140E-01
   -.110E+03 -.276E+03 0.178E+03   0.112E+03 0.276E+03 -.177E+03   -.140E+01 -.174E+00 -.716E+00   -.232E-02 -.162E-01 -.179E-02
   0.521E+02 0.378E+03 0.419E+02   -.520E+02 -.379E+03 -.409E+02   -.101E+00 0.100E+01 -.105E+01   0.362E-02 0.237E-01 0.163E-01
 -----------------------------------------------------------------------------------------------
   0.132E+01 0.325E-01 0.465E+00   0.782E-13 0.114E-12 -.995E-13   -.133E+01 -.271E-01 -.488E+00   0.607E-02 -.244E-02 0.214E-01
 
 
 POSITION                                       TOTAL-FORCE (eV/Angst)
 -----------------------------------------------------------------------------------
      5.19226      1.70582      8.50461         0.001279      0.000021     -0.000219
      3.59567      3.46163      3.52167        -0.001832      0.001964      0.002703
      0.23746      3.28241      6.84280        -0.003320      0.001385      0.003256
      1.88335      5.10989      1.56498         0.002046     -0.006213     -0.001608
      6.92643      3.44596      3.43954        -0.000194      0.001227      0.001112
      3.51185      6.89754      3.45889        -0.001493      0.001843      0.005026
      5.53789      5.28141      5.40697        -0.005394     -0.001006     -0.006486
      5.48233      8.65541      5.27467         0.002022     -0.002139     -0.002854
      1.92388      5.16988      8.65756         0.003702     -0.005576      0.001378
      1.83509      1.68929      1.75136        -0.001004     -0.001435     -0.001453
      5.33676      8.53956      8.57056         0.000263     -0.000935     -0.003652
      2.10733      1.77830      8.80342        -0.003926      0.000962     -0.000576
      3.57903     10.27687      3.49521        -0.001992     -0.000362     -0.002017
      3.38249     10.31103      6.69073        -0.001647      0.001295      0.004024
      7.03398     10.32814      0.04654        -0.001526      0.003727     -0.002180
      0.25149      0.03209      6.91192        -0.004569      0.004167      0.003932
      7.02986      6.90463      3.28620         0.005128      0.004821      0.004664
      3.45051      3.41189      6.61135        -0.000409      0.001728     -0.002253
      6.84842      3.37385      0.11478         0.002334      0.005580      0.001998
      5.38254      5.26437      8.59286        -0.000792     -0.002702     -0.000156
      3.33839      6.96324      6.72416        -0.001043     -0.000683      0.001151
      3.56321      6.97816      0.10997         0.004133      0.000725      0.000794
      0.01605      6.97114      0.10601         0.002185     -0.001267     -0.001978
      5.25873      8.60250      1.65374         0.000652     -0.001378      0.000735
      6.99279     10.32871      3.41588        -0.001440      0.000040      0.002280
      1.80421      8.64841      1.66302        -0.000021     -0.001116     -0.002867
      5.41026      1.58463      5.22118        -0.001085     -0.000642     -0.002967
      1.57922      5.23350      5.15074         0.000784     -0.005057     -0.005729
      0.35282      6.97969      6.91670        -0.002659      0.001644      0.008667
      5.20166      5.29074      1.59614        -0.001315     -0.000337     -0.002495
      1.58921      8.59939      4.98074        -0.000028     -0.005886      0.003956
      1.93347      8.53468      8.74882         0.004619     -0.000902     -0.007820
      1.63753      1.66380      4.88194         0.000088     -0.001512     -0.002188
      5.19360      1.63880      1.76564         0.001957     -0.003980      0.000353
      3.79741      3.48873      0.14202         0.001690      0.005844      0.004110
      3.58412     10.20514      0.14562         0.002803      0.006153     -0.000643
 -----------------------------------------------------------------------------------
    total drift:                               -0.002328      0.002976     -0.001444


--------------------------------------------------------------------------------------------------------



  FREE ENERGIE OF THE ION-ELECTRON SYSTEM (eV)
  ---------------------------------------------------
  free  energy   TOTEN  =      -359.54639905 eV

  energy  without entropy=     -359.55530321  energy(sigma->0) =     -359.54936710
 
 d Force = 0.3603164E-04[ 0.257E-04, 0.464E-04]  d Energy = 0.3289196E-04 0.314E-05
 d Force = 0.1652765E-01[ 0.165E-01, 0.166E-01]  d Ewald  = 0.6278603E-01-0.463E-01


--------------------------------------------------------------------------------------------------------


    POTLOK:  cpu time    0.0349: real time    0.0350


--------------------------------------------------------------------------------------------------------


 Conjugate gradient step on ions:
 trial-energy change:   -0.000033  1 .order   -0.000037   -0.000047   -0.000028
  (g-gl).g = 0.806E-04      g.g   = 0.730E-04  gl.gl    = 0.494E-04
 g(Force)  = 0.253E-04   g(Stress)= 0.478E-04 ortho     =-0.404E-05
 gamma     =   1.63355
 trial     =   0.70674
 opt step  =   1.75185  (harmonic =   1.75185) maximal distance =0.00126909
 next E    =  -359.546424   (d E  =  -0.00006)


--------------------------------------------------------------------------------------------------------


  
 reached required accuracy - stopping structural energy minimisation
     LOOP+:  cpu time    3.3509: real time    4.1367
    4ORBIT:  cpu time    0.0000: real time    0.0000

 total amount of memory used by VASP on root node    66674. kBytes
========================================================================

   base      :      30000. kBytes
   nonlr-proj:       9999. kBytes
   fftplans  :       2814. kBytes
   grid      :       5360. kBytes
   one-center:        124. kBytes
   wavefun   :      18377. kBytes
 
  
  
 General timing and accounting informations for this job:
 ========================================================
  
                  Total CPU time used (sec):      208.208
                            User time (sec):      207.226
                          System time (sec):        0.981
                         Elapsed time (sec):      229.731
  
                   Maximum memory used (kb):      275008.
                   Average memory used (kb):           0.
  
                          Minor page faults:       137295
                          Major page faults:           17
                 Voluntary context switches:         9948
