       N       E                     dE             d eps       ncg     rms          rms(c)
DAV:   1     0.189434702930E+04    0.18943E+04   -0.11189E+05  5544   0.105E+03
DAV:   2    -0.885129538899E+02   -0.19829E+04   -0.19161E+04  5736   0.388E+02
DAV:   3    -0.342218999370E+03   -0.25371E+03   -0.24104E+03  8712   0.964E+01
DAV:   4    -0.372361240475E+03   -0.30142E+02   -0.28697E+02  8440   0.303E+01
DAV:   5    -0.375411134694E+03   -0.30499E+01   -0.29859E+01  8144   0.983E+00    0.628E+01
RMM:   6    -0.365199685100E+03    0.10211E+02   -0.28284E+01  7183   0.108E+01    0.297E+01
RMM:   7    -0.366351762660E+03   -0.11521E+01   -0.29056E+01  7479   0.911E+00    0.119E+01
RMM:   8    -0.360761419018E+03    0.55903E+01   -0.75920E+00  7507   0.475E+00    0.420E+00
RMM:   9    -0.360565246409E+03    0.19617E+00   -0.27871E+00  7651   0.201E+00    0.305E+00
RMM:  10    -0.360500809798E+03    0.64437E-01   -0.55242E-01  7739   0.112E+00    0.182E+00
RMM:  11    -0.360452899858E+03    0.47910E-01   -0.16931E-01  7551   0.696E-01    0.912E-01
RMM:  12    -0.360449406331E+03    0.34935E-02   -0.73978E-02  7735   0.410E-01    0.508E-01
RMM:  13    -0.360446017705E+03    0.33886E-02   -0.21508E-02  7711   0.226E-01    0.296E-01
RMM:  14    -0.360445998197E+03    0.19508E-04   -0.10324E-02  7786   0.131E-01    0.172E-01
RMM:  15    -0.360445988802E+03    0.93950E-05   -0.45960E-03  7666   0.847E-02    0.747E-02
RMM:  16    -0.360446046535E+03   -0.57733E-04   -0.18027E-03  7415   0.429E-02    0.408E-02
RMM:  17    -0.360446062134E+03   -0.15599E-04   -0.69846E-04  6286   0.263E-02    0.205E-02
RMM:  18    -0.360446081560E+03   -0.19426E-04   -0.32890E-04  5680   0.195E-02    0.117E-02
RMM:  19    -0.360446090397E+03   -0.88374E-05   -0.14451E-04  4996   0.141E-02    0.680E-03
RMM:  20    -0.360446094119E+03   -0.37214E-05   -0.74826E-05  4104   0.109E-02
   1 F= -.36044609E+03 E0= -.36045308E+03  d E =-.360446E+03
       N       E                     dE             d eps       ncg     rms          rms(c)
DAV:   1    -0.360529441314E+03   -0.83351E-01   -0.28115E+00  6552   0.561E+00    0.199E+00
RMM:   2    -0.360506453016E+03    0.22988E-01   -0.31044E-01  7546   0.144E+00    0.751E-01
RMM:   3    -0.360489896668E+03    0.16556E-01   -0.65004E-02  7754   0.437E-01    0.530E-01
RMM:   4    -0.360483397258E+03    0.64994E-02   -0.21672E-02  7779   0.300E-01    0.304E-01
RMM:   5    -0.360481614660E+03    0.17826E-02   -0.62538E-03  7685   0.161E-01    0.211E-01
RMM:   6    -0.360481869232E+03   -0.25457E-03   -0.27845E-03  8069   0.832E-02    0.158E-01
RMM:   7    -0.360481931859E+03   -0.62627E-04   -0.10522E-03  7874   0.597E-02    0.846E-02
RMM:   8    -0.360482028825E+03   -0.96966E-04   -0.63985E-04  7204   0.378E-02    0.530E-02
RMM:   9    -0.360482118989E+03   -0.90165E-04   -0.28070E-04  6663   0.285E-02    0.390E-02
RMM:  10    -0.360482182485E+03   -0.63496E-04   -0.16744E-04  5614   0.198E-02    0.265E-02
RMM:  11    -0.360482213436E+03   -0.30951E-04   -0.71605E-05  4791   0.154E-02    0.124E-02
RMM:  12    -0.360482225869E+03   -0.12433E-04   -0.31669E-05  4078   0.133E-02    0.674E-03
RMM:  13    -0.360482230614E+03   -0.47447E-05   -0.19551E-05  3832   0.123E-02
   2 F= -.36048223E+03 E0= -.36048888E+03  d E =-.361365E-01
       N       E                     dE             d eps       ncg     rms          rms(c)
DAV:   1    -0.360642782051E+03   -0.16056E+00   -0.81363E+00  6336   0.957E+00    0.343E+00
RMM:   2    -0.360575428636E+03    0.67353E-01   -0.89317E-01  7527   0.245E+00    0.128E+00
RMM:   3    -0.360527653356E+03    0.47775E-01   -0.18871E-01  7765   0.738E-01    0.900E-01
RMM:   4    -0.360508623901E+03    0.19029E-01   -0.61438E-02  7794   0.507E-01    0.516E-01
RMM:   5    -0.360503507849E+03    0.51161E-02   -0.17647E-02  7732   0.263E-01    0.360E-01
RMM:   6    -0.360504181588E+03   -0.67374E-03   -0.75403E-03  8199   0.138E-01    0.267E-01
RMM:   7    -0.360504324793E+03   -0.14320E-03   -0.30917E-03  8282   0.998E-02    0.144E-01
RMM:   8    -0.360504578284E+03   -0.25349E-03   -0.18818E-03  8186   0.642E-02    0.914E-02
RMM:   9    -0.360504811152E+03   -0.23287E-03   -0.79205E-04  7385   0.457E-02    0.677E-02
RMM:  10    -0.360504966104E+03   -0.15495E-03   -0.43913E-04  6908   0.309E-02    0.450E-02
RMM:  11    -0.360505042516E+03   -0.76412E-04   -0.20333E-04  5713   0.236E-02    0.225E-02
RMM:  12    -0.360505072122E+03   -0.29606E-04   -0.98560E-05  5482   0.185E-02    0.919E-03
RMM:  13    -0.360505080225E+03   -0.81032E-05   -0.42282E-05  4512   0.147E-02
   3 F= -.36050508E+03 E0= -.36051106E+03  d E =-.589861E-01
       N       E                     dE             d eps       ncg     rms          rms(c)
DAV:   1    -0.360533499654E+03   -0.28428E-01   -0.29353E+00  5184   0.469E+00    0.651E-01
RMM:   2    -0.360547833777E+03   -0.14334E-01   -0.13030E-01  7524   0.924E-01    0.548E-01
RMM:   3    -0.360535662549E+03    0.12171E-01   -0.19325E-02  7616   0.292E-01    0.226E-01
RMM:   4    -0.360535232031E+03    0.43052E-03   -0.52726E-03  7892   0.101E-01    0.155E-01
RMM:   5    -0.360534865692E+03    0.36634E-03   -0.14303E-03  7765   0.707E-02    0.867E-02
RMM:   6    -0.360534849522E+03    0.16171E-04   -0.74972E-04  7880   0.488E-02    0.542E-02
RMM:   7    -0.360534817863E+03    0.31659E-04   -0.26399E-04  7169   0.260E-02    0.346E-02
RMM:   8    -0.360534814746E+03    0.31168E-05   -0.97223E-05  5612   0.163E-02
   4 F= -.36053481E+03 E0= -.36054053E+03  d E =-.297345E-01
       N       E                     dE             d eps       ncg     rms          rms(c)
DAV:   1    -0.360567443889E+03   -0.32626E-01   -0.26416E+01  5040   0.141E+01    0.193E+00
RMM:   2    -0.360692032314E+03   -0.12459E+00   -0.11675E+00  7504   0.277E+00    0.159E+00
RMM:   3    -0.360590622892E+03    0.10141E+00   -0.17725E-01  7718   0.885E-01    0.684E-01
RMM:   4    -0.360586346167E+03    0.42767E-02   -0.46412E-02  7838   0.302E-01    0.469E-01
RMM:   5    -0.360583128563E+03    0.32176E-02   -0.12895E-02  7693   0.213E-01    0.270E-01
RMM:   6    -0.360582957146E+03    0.17142E-03   -0.66335E-03  7857   0.149E-01    0.167E-01
RMM:   7    -0.360582763455E+03    0.19369E-03   -0.25256E-03  8648   0.777E-02    0.109E-01
RMM:   8    -0.360582799032E+03   -0.35577E-04   -0.11079E-03  8105   0.448E-02    0.703E-02
RMM:   9    -0.360582817802E+03   -0.18769E-04   -0.49959E-04  7360   0.333E-02    0.418E-02
RMM:  10    -0.360582821424E+03   -0.36219E-05   -0.23125E-04  6616   0.238E-02    0.248E-02
RMM:  11    -0.360582824094E+03   -0.26701E-05   -0.11330E-04  5700   0.186E-02    0.139E-02
RMM:  12    -0.360582821321E+03    0.27726E-05   -0.42101E-05  4540   0.140E-02
   5 F= -.36058282E+03 E0= -.36058771E+03  d E =-.777411E-01
       N       E                     dE             d eps       ncg     rms          rms(c)
DAV:   1    -0.360584512262E+03   -0.16882E-02   -0.20298E+00  5272   0.387E+00    0.536E-01
RMM:   2    -0.360593911467E+03   -0.93992E-02   -0.89171E-02  7511   0.763E-01    0.441E-01
RMM:   3    -0.360585898735E+03    0.80127E-02   -0.13046E-02  7635   0.236E-01    0.183E-01
RMM:   4    -0.360585616448E+03    0.28229E-03   -0.36597E-03  7902   0.836E-02    0.125E-01
RMM:   5    -0.360585367328E+03    0.24912E-03   -0.10049E-03  7846   0.591E-02    0.704E-02
RMM:   6    -0.360585361907E+03    0.54211E-05   -0.51514E-04  7861   0.402E-02    0.449E-02
RMM:   7    -0.360585344055E+03    0.17852E-04   -0.18410E-04  6556   0.218E-02    0.297E-02
RMM:   8    -0.360585341765E+03    0.22895E-05   -0.76100E-05  5239   0.155E-02
   6 F= -.36058534E+03 E0= -.36059001E+03  d E =-.802615E-01
       N       E                     dE             d eps       ncg     rms          rms(c)
DAV:   1    -0.360595443552E+03   -0.10099E-01   -0.87060E-01  5560   0.290E+00    0.663E-01
RMM:   2    -0.360596846273E+03   -0.14027E-02   -0.64354E-02  7013   0.672E-01    0.307E-01
RMM:   3    -0.360593428645E+03    0.34176E-02   -0.96278E-03  7593   0.214E-01    0.200E-01
RMM:   4    -0.360592613364E+03    0.81528E-03   -0.30303E-03  7754   0.962E-02    0.116E-01
RMM:   5    -0.360592350993E+03    0.26237E-03   -0.86765E-04  7628   0.611E-02    0.769E-02
RMM:   6    -0.360592357517E+03   -0.65235E-05   -0.41360E-04  7493   0.333E-02    0.567E-02
RMM:   7    -0.360592340622E+03    0.16895E-04   -0.16332E-04  6461   0.238E-02    0.337E-02
RMM:   8    -0.360592337087E+03    0.35341E-05   -0.96767E-05  5632   0.167E-02
   7 F= -.36059234E+03 E0= -.36059704E+03  d E =-.699532E-02
       N       E                     dE             d eps       ncg     rms          rms(c)
DAV:   1    -0.360610110367E+03   -0.17770E-01   -0.35544E+00  5312   0.585E+00    0.133E+00
RMM:   2    -0.360616036756E+03   -0.59264E-02   -0.26209E-01  7041   0.136E+00    0.623E-01
RMM:   3    -0.360601926598E+03    0.14110E-01   -0.39451E-02  7612   0.432E-01    0.407E-01
RMM:   4    -0.360598632645E+03    0.32940E-02   -0.12404E-02  7772   0.194E-01    0.238E-01
RMM:   5    -0.360597539239E+03    0.10934E-02   -0.35457E-03  7675   0.122E-01    0.158E-01
RMM:   6    -0.360597591730E+03   -0.52491E-04   -0.17226E-03  7913   0.672E-02    0.116E-01
RMM:   7    -0.360597543350E+03    0.48380E-04   -0.69110E-04  7741   0.480E-02    0.680E-02
RMM:   8    -0.360597554044E+03   -0.10694E-04   -0.39891E-04  7047   0.301E-02    0.393E-02
RMM:   9    -0.360597570072E+03   -0.16029E-04   -0.16745E-04  5603   0.229E-02    0.256E-02
RMM:  10    -0.360597576353E+03   -0.62804E-05   -0.97193E-05  5180   0.168E-02
   8 F= -.36059758E+03 E0= -.36060235E+03  d E =-.122346E-01
       N       E                     dE             d eps       ncg     rms          rms(c)
DAV:   1    -0.360601661946E+03   -0.40919E-02   -0.39883E-01  5456   0.192E+00    0.344E-01
RMM:   2    -0.360602325039E+03   -0.66309E-03   -0.22999E-02  6596   0.409E-01    0.137E-01
RMM:   3    -0.360601975832E+03    0.34921E-03   -0.27806E-03  7608   0.127E-01    0.105E-01
RMM:   4    -0.360601768834E+03    0.20700E-03   -0.91324E-04  7735   0.531E-02    0.589E-02
RMM:   5    -0.360601728681E+03    0.40153E-04   -0.32450E-04  7577   0.325E-02    0.387E-02
RMM:   6    -0.360601736742E+03   -0.80608E-05   -0.13231E-04  6697   0.195E-02    0.255E-02
RMM:   7    -0.360601738033E+03   -0.12912E-05   -0.42501E-05  4086   0.129E-02
   9 F= -.36060174E+03 E0= -.36060645E+03  d E =-.416168E-02
       N       E                     dE             d eps       ncg     rms          rms(c)
DAV:   1    -0.360608071590E+03   -0.63348E-02   -0.35779E+00  5152   0.575E+00    0.102E+00
RMM:   2    -0.360614495414E+03   -0.64238E-02   -0.20436E-01  6434   0.122E+00    0.394E-01
RMM:   3    -0.360611138926E+03    0.33565E-02   -0.23139E-02  7527   0.368E-01    0.302E-01
RMM:   4    -0.360609338841E+03    0.18001E-02   -0.73145E-03  7682   0.152E-01    0.172E-01
RMM:   5    -0.360608985243E+03    0.35360E-03   -0.26389E-03  7828   0.913E-02    0.114E-01
RMM:   6    -0.360609039543E+03   -0.54300E-04   -0.11125E-03  8089   0.560E-02    0.790E-02
RMM:   7    -0.360609035561E+03    0.39825E-05   -0.45793E-04  7540   0.363E-02    0.442E-02
RMM:   8    -0.360609070056E+03   -0.34495E-04   -0.21912E-04  6838   0.236E-02    0.281E-02
RMM:   9    -0.360609096383E+03   -0.26327E-04   -0.93174E-05  4846   0.182E-02    0.192E-02
RMM:  10    -0.360609114545E+03   -0.18163E-04   -0.60538E-05  4749   0.152E-02    0.131E-02
RMM:  11    -0.360609122537E+03   -0.79914E-05   -0.17672E-05  3573   0.121E-02
  10 F= -.36060912E+03 E0= -.36061365E+03  d E =-.115462E-01
       N       E                     dE             d eps       ncg     rms          rms(c)
DAV:   1    -0.360609637070E+03   -0.52252E-03   -0.67415E-01  5240   0.250E+00    0.441E-01
RMM:   2    -0.360610865104E+03   -0.12280E-02   -0.38374E-02  6405   0.528E-01    0.171E-01
RMM:   3    -0.360610245763E+03    0.61934E-03   -0.43573E-03  7518   0.160E-01    0.131E-01
RMM:   4    -0.360609910592E+03    0.33517E-03   -0.13753E-03  7639   0.656E-02    0.739E-02
RMM:   5    -0.360609848537E+03    0.62055E-04   -0.49927E-04  7739   0.402E-02    0.489E-02
RMM:   6    -0.360609865019E+03   -0.16482E-04   -0.21358E-04  7132   0.245E-02    0.340E-02
RMM:   7    -0.360609869085E+03   -0.40658E-05   -0.82344E-05  5593   0.166E-02
  11 F= -.36060987E+03 E0= -.36061432E+03  d E =-.122927E-01
       N       E                     dE             d eps       ncg     rms          rms(c)
DAV:   1    -0.360611685246E+03   -0.18202E-02   -0.18033E-01  5264   0.126E+00    0.119E-01
RMM:   2    -0.360612230877E+03   -0.54563E-03   -0.75739E-03  7127   0.250E-01    0.667E-02
RMM:   3    -0.360612125593E+03    0.10528E-03   -0.74232E-04  7413   0.681E-02    0.455E-02
RMM:   4    -0.360612114335E+03    0.11257E-04   -0.19025E-04  6927   0.223E-02    0.278E-02
RMM:   5    -0.360612119712E+03   -0.53764E-05   -0.78470E-05  5461   0.142E-02
  12 F= -.36061212E+03 E0= -.36061654E+03  d E =-.225063E-02
       N       E                     dE             d eps       ncg     rms          rms(c)
DAV:   1    -0.360613753235E+03   -0.16389E-02   -0.16231E+00  5040   0.378E+00    0.365E-01
RMM:   2    -0.360618701188E+03   -0.49480E-02   -0.68182E-02  7348   0.751E-01    0.213E-01
RMM:   3    -0.360617672425E+03    0.10288E-02   -0.68447E-03  7534   0.202E-01    0.141E-01
RMM:   4    -0.360617508997E+03    0.16343E-03   -0.16610E-03  8225   0.667E-02    0.849E-02
RMM:   5    -0.360617514981E+03   -0.59839E-05   -0.72999E-04  8001   0.459E-02    0.539E-02
RMM:   6    -0.360617497729E+03    0.17252E-04   -0.30114E-04  7691   0.305E-02    0.293E-02
RMM:   7    -0.360617502561E+03   -0.48328E-05   -0.10911E-04  5363   0.170E-02    0.195E-02
RMM:   8    -0.360617508438E+03   -0.58765E-05   -0.54548E-05  4284   0.144E-02
  13 F= -.36061751E+03 E0= -.36062185E+03  d E =-.763935E-02
       N       E                     dE             d eps       ncg     rms          rms(c)
DAV:   1    -0.360607591871E+03    0.99107E-02   -0.65016E+00  5040   0.756E+00    0.739E-01
RMM:   2    -0.360627264949E+03   -0.19673E-01   -0.27297E-01  7347   0.150E+00    0.423E-01
RMM:   3    -0.360623096028E+03    0.41689E-02   -0.26940E-02  7522   0.400E-01    0.281E-01
RMM:   4    -0.360622410353E+03    0.68567E-03   -0.66036E-03  8280   0.133E-01    0.169E-01
RMM:   5    -0.360622397155E+03    0.13199E-04   -0.28569E-03  8208   0.900E-02    0.111E-01
RMM:   6    -0.360622312334E+03    0.84821E-04   -0.12221E-03  8309   0.620E-02    0.616E-02
RMM:   7    -0.360622311059E+03    0.12750E-05   -0.48543E-04  8073   0.335E-02    0.400E-02
RMM:   8    -0.360622323236E+03   -0.12177E-04   -0.16950E-04  6265   0.195E-02    0.266E-02
RMM:   9    -0.360622336994E+03   -0.13758E-04   -0.87448E-05  4981   0.168E-02    0.149E-02
RMM:  10    -0.360622345227E+03   -0.82327E-05   -0.39252E-05  4636   0.143E-02
  14 F= -.36062235E+03 E0= -.36062662E+03  d E =-.124761E-01
       N       E                     dE             d eps       ncg     rms          rms(c)
DAV:   1    -0.360627639265E+03   -0.53023E-02   -0.42965E-01  5808   0.209E+00    0.561E-01
RMM:   2    -0.360627454487E+03    0.18478E-03   -0.36734E-02  7326   0.504E-01    0.239E-01
RMM:   3    -0.360625657549E+03    0.17969E-02   -0.66834E-03  7723   0.167E-01    0.165E-01
RMM:   4    -0.360625056952E+03    0.60060E-03   -0.20468E-03  7734   0.818E-02    0.938E-02
RMM:   5    -0.360624860996E+03    0.19596E-03   -0.57781E-04  7550   0.507E-02    0.611E-02
RMM:   6    -0.360624865017E+03   -0.40209E-05   -0.29628E-04  7184   0.276E-02    0.457E-02
RMM:   7    -0.360624849061E+03    0.15957E-04   -0.93112E-05  6077   0.194E-02    0.262E-02
RMM:   8    -0.360624844170E+03    0.48909E-05   -0.61420E-05  4371   0.139E-02
  15 F= -.36062484E+03 E0= -.36062919E+03  d E =-.249894E-02
       N       E                     dE             d eps       ncg     rms          rms(c)
DAV:   1    -0.360635436026E+03   -0.10587E-01   -0.14501E+00  5568   0.385E+00    0.102E+00
RMM:   2    -0.360634824224E+03    0.61180E-03   -0.12254E-01  7195   0.925E-01    0.437E-01
RMM:   3    -0.360628606044E+03    0.62182E-02   -0.21737E-02  7724   0.305E-01    0.294E-01
RMM:   4    -0.360626684146E+03    0.19219E-02   -0.66497E-03  7759   0.148E-01    0.169E-01
RMM:   5    -0.360626067052E+03    0.61709E-03   -0.18512E-03  7599   0.899E-02    0.111E-01
RMM:   6    -0.360626110337E+03   -0.43285E-04   -0.93755E-04  7852   0.483E-02    0.852E-02
RMM:   7    -0.360626089726E+03    0.20611E-04   -0.30656E-04  6889   0.343E-02    0.498E-02
RMM:   8    -0.360626094493E+03   -0.47661E-05   -0.20663E-04  6550   0.228E-02    0.301E-02
RMM:   9    -0.360626102522E+03   -0.80297E-05   -0.96329E-05  4782   0.185E-02
  16 F= -.36062610E+03 E0= -.36063059E+03  d E =-.375730E-02
       N       E                     dE             d eps       ncg     rms          rms(c)
DAV:   1    -0.360626865202E+03   -0.77071E-03   -0.32534E-01  5128   0.165E+00    0.123E-01
RMM:   2    -0.360627900488E+03   -0.10353E-02   -0.12525E-02  6982   0.323E-01    0.827E-02
RMM:   3    -0.360627677145E+03    0.22334E-03   -0.13038E-03  7351   0.897E-02    0.531E-02
RMM:   4    -0.360627669019E+03    0.81257E-05   -0.35630E-04  7418   0.263E-02    0.381E-02
RMM:   5    -0.360627657235E+03    0.11785E-04   -0.12494E-04  6297   0.175E-02    0.234E-02
RMM:   6    -0.360627654314E+03    0.29203E-05   -0.60617E-05  5139   0.147E-02
  17 F= -.36062765E+03 E0= -.36063217E+03  d E =-.155179E-02
       N       E                     dE             d eps       ncg     rms          rms(c)
DAV:   1    -0.360623954130E+03    0.37031E-02   -0.29260E+00  5040   0.495E+00    0.368E-01
RMM:   2    -0.360633201900E+03   -0.92478E-02   -0.11196E-01  6979   0.967E-01    0.243E-01
RMM:   3    -0.360631334877E+03    0.18670E-02   -0.11635E-02  7444   0.270E-01    0.157E-01
RMM:   4    -0.360631260160E+03    0.74718E-04   -0.29934E-03  8546   0.767E-02    0.113E-01
RMM:   5    -0.360631170722E+03    0.89437E-04   -0.10749E-03  7961   0.519E-02    0.700E-02
RMM:   6    -0.360631157216E+03    0.13506E-04   -0.50767E-04  7729   0.420E-02    0.331E-02
RMM:   7    -0.360631137686E+03    0.19530E-04   -0.17705E-04  6551   0.206E-02    0.167E-02
RMM:   8    -0.360631137292E+03    0.39436E-06   -0.54431E-05  4421   0.133E-02
  18 F= -.36063114E+03 E0= -.36063576E+03  d E =-.503477E-02
       N       E                     dE             d eps       ncg     rms          rms(c)
DAV:   1    -0.360603705884E+03    0.27432E-01   -0.11710E+01  5040   0.990E+00    0.753E-01
RMM:   2    -0.360640414457E+03   -0.36709E-01   -0.44668E-01  6920   0.194E+00    0.480E-01
RMM:   3    -0.360633555595E+03    0.68589E-02   -0.46940E-02  7461   0.546E-01    0.321E-01
RMM:   4    -0.360633168300E+03    0.38730E-03   -0.11792E-02  8689   0.153E-01    0.231E-01
RMM:   5    -0.360632842229E+03    0.32607E-03   -0.41773E-03  8199   0.102E-01    0.146E-01
RMM:   6    -0.360632768586E+03    0.73642E-04   -0.20218E-03  7933   0.865E-02    0.673E-02
RMM:   7    -0.360632691732E+03    0.76854E-04   -0.73803E-04  8173   0.418E-02    0.330E-02
RMM:   8    -0.360632695472E+03   -0.37396E-05   -0.25406E-04  6173   0.211E-02    0.226E-02
RMM:   9    -0.360632701239E+03   -0.57671E-05   -0.14727E-04  5842   0.192E-02    0.121E-02
RMM:  10    -0.360632701238E+03    0.78580E-09   -0.42435E-05  4243   0.125E-02
  19 F= -.36063270E+03 E0= -.36063745E+03  d E =-.659872E-02
       N       E                     dE             d eps       ncg     rms          rms(c)
DAV:   1    -0.360663812495E+03   -0.31111E-01   -0.24925E+00  5720   0.517E+00    0.173E+00
RMM:   2    -0.360658072198E+03    0.57403E-02   -0.25512E-01  7455   0.131E+00    0.732E-01
RMM:   3    -0.360640519831E+03    0.17552E-01   -0.54937E-02  7753   0.421E-01    0.500E-01
RMM:   4    -0.360634790541E+03    0.57293E-02   -0.18772E-02  7772   0.259E-01    0.272E-01
RMM:   5    -0.360633138747E+03    0.16518E-02   -0.48626E-03  7650   0.151E-01    0.175E-01
RMM:   6    -0.360633342741E+03   -0.20399E-03   -0.23829E-03  7925   0.756E-02    0.134E-01
RMM:   7    -0.360633382181E+03   -0.39440E-04   -0.76332E-04  7704   0.554E-02    0.735E-02
RMM:   8    -0.360633467018E+03   -0.84837E-04   -0.49646E-04  7033   0.327E-02    0.470E-02
RMM:   9    -0.360633540498E+03   -0.73480E-04   -0.20757E-04  6215   0.256E-02    0.317E-02
RMM:  10    -0.360633589853E+03   -0.49355E-04   -0.12331E-04  5502   0.179E-02    0.200E-02
RMM:  11    -0.360633613349E+03   -0.23496E-04   -0.55487E-05  4508   0.146E-02    0.910E-03
RMM:  12    -0.360633621351E+03   -0.80015E-05   -0.26950E-05  3938   0.131E-02
  20 F= -.36063362E+03 E0= -.36063831E+03  d E =-.920112E-03
       N       E                     dE             d eps       ncg     rms          rms(c)
DAV:   1    -0.360639558471E+03   -0.59451E-02   -0.40996E-01  5736   0.209E+00    0.698E-01
RMM:   2    -0.360638722403E+03    0.83607E-03   -0.41937E-02  7502   0.529E-01    0.300E-01
RMM:   3    -0.360635792073E+03    0.29303E-02   -0.91410E-03  7783   0.171E-01    0.205E-01
RMM:   4    -0.360634839191E+03    0.95288E-03   -0.30737E-03  7769   0.105E-01    0.112E-01
RMM:   5    -0.360634538056E+03    0.30113E-03   -0.79470E-04  7592   0.609E-02    0.708E-02
RMM:   6    -0.360634546609E+03   -0.85537E-05   -0.38280E-04  7236   0.311E-02    0.535E-02
RMM:   7    -0.360634524984E+03    0.21626E-04   -0.11195E-04  6144   0.227E-02    0.291E-02
RMM:   8    -0.360634521626E+03    0.33571E-05   -0.84786E-05  4706   0.155E-02
  21 F= -.36063452E+03 E0= -.36063923E+03  d E =-.182039E-02
       N       E                     dE             d eps       ncg     rms          rms(c)
DAV:   1    -0.360634585532E+03   -0.60548E-04   -0.62180E-03  5904   0.259E-01    0.811E-02
RMM:   2    -0.360634575406E+03    0.10126E-04   -0.62094E-04  6901   0.659E-02    0.340E-02
RMM:   3    -0.360634527952E+03    0.47453E-04   -0.11347E-04  6126   0.199E-02    0.220E-02
RMM:   4    -0.360634514758E+03    0.13194E-04   -0.37087E-05  3482   0.145E-02    0.140E-02
RMM:   5    -0.360634511428E+03    0.33301E-05   -0.11771E-05  2771   0.124E-02
  22 F= -.36063451E+03 E0= -.36063923E+03  d E =-.181019E-02
       N       E                     dE             d eps       ncg     rms          rms(c)
DAV:   1    -0.360635670194E+03   -0.11554E-02   -0.26670E-01  5096   0.148E+00    0.147E-01
RMM:   2    -0.360636330334E+03   -0.66014E-03   -0.10559E-02  7074   0.301E-01    0.831E-02
RMM:   3    -0.360636241104E+03    0.89231E-04   -0.12849E-03  7492   0.807E-02    0.632E-02
RMM:   4    -0.360636182968E+03    0.58136E-04   -0.34267E-04  7376   0.283E-02    0.380E-02
RMM:   5    -0.360636169147E+03    0.13821E-04   -0.14717E-04  6535   0.199E-02    0.213E-02
RMM:   6    -0.360636165103E+03    0.40440E-05   -0.57190E-05  4449   0.136E-02
  23 F= -.36063617E+03 E0= -.36064099E+03  d E =-.165367E-02
       N       E                     dE             d eps       ncg     rms          rms(c)
DAV:   1    -0.360635066865E+03    0.11023E-02   -0.14267E+00  5040   0.342E+00    0.342E-01
RMM:   2    -0.360638625571E+03   -0.35587E-02   -0.56924E-02  7177   0.700E-01    0.197E-01
RMM:   3    -0.360638222609E+03    0.40296E-03   -0.71899E-03  7532   0.187E-01    0.149E-01
RMM:   4    -0.360637930098E+03    0.29251E-03   -0.19296E-03  8266   0.657E-02    0.909E-02
RMM:   5    -0.360637867470E+03    0.62627E-04   -0.86369E-04  7805   0.471E-02    0.499E-02
RMM:   6    -0.360637853237E+03    0.14233E-04   -0.33217E-04  7148   0.307E-02    0.253E-02
RMM:   7    -0.360637845997E+03    0.72403E-05   -0.97943E-05  4997   0.163E-02
  24 F= -.36063785E+03 E0= -.36064289E+03  d E =-.333457E-02
       N       E                     dE             d eps       ncg     rms          rms(c)
DAV:   1    -0.360639996417E+03   -0.21432E-02   -0.42574E-01  5408   0.198E+00    0.454E-01
RMM:   2    -0.360641287218E+03   -0.12908E-02   -0.33839E-02  7194   0.466E-01    0.235E-01
RMM:   3    -0.360639241707E+03    0.20455E-02   -0.49138E-03  7621   0.146E-01    0.141E-01
RMM:   4    -0.360638890843E+03    0.35086E-03   -0.16247E-03  7753   0.683E-02    0.821E-02
RMM:   5    -0.360638765944E+03    0.12490E-03   -0.45059E-04  7586   0.456E-02    0.512E-02
RMM:   6    -0.360638783537E+03   -0.17594E-04   -0.22639E-04  7001   0.248E-02    0.390E-02
RMM:   7    -0.360638787553E+03   -0.40152E-05   -0.75678E-05  5703   0.168E-02
  25 F= -.36063879E+03 E0= -.36064386E+03  d E =-.941556E-03
       N       E                     dE             d eps       ncg     rms          rms(c)
DAV:   1    -0.360639437823E+03   -0.65429E-03   -0.20805E-01  5240   0.139E+00    0.306E-01
RMM:   2    -0.360640096723E+03   -0.65890E-03   -0.16145E-02  7103   0.325E-01    0.160E-01
RMM:   3    -0.360639112220E+03    0.98450E-03   -0.22023E-03  7566   0.987E-02    0.936E-02
RMM:   4    -0.360638962288E+03    0.14993E-03   -0.70662E-04  7595   0.450E-02    0.567E-02
RMM:   5    -0.360638914037E+03    0.48251E-04   -0.20481E-04  7275   0.306E-02    0.371E-02
RMM:   6    -0.360638927849E+03   -0.13812E-04   -0.10553E-04  6196   0.178E-02    0.289E-02
RMM:   7    -0.360638934560E+03   -0.67114E-05   -0.40955E-05  4123   0.127E-02
  26 F= -.36063893E+03 E0= -.36064403E+03  d E =-.108856E-02
       N       E                     dE             d eps       ncg     rms          rms(c)
DAV:   1    -0.360639231382E+03   -0.30353E-03   -0.61517E-02  5136   0.709E-01    0.752E-02
RMM:   2    -0.360639443102E+03   -0.21172E-03   -0.27417E-03  7366   0.147E-01    0.434E-02
RMM:   3    -0.360639428806E+03    0.14297E-04   -0.32429E-04  6811   0.387E-02    0.335E-02
RMM:   4    -0.360639420377E+03    0.84286E-05   -0.90817E-05  5505   0.149E-02
  27 F= -.36063942E+03 E0= -.36064455E+03  d E =-.485817E-03
       N       E                     dE             d eps       ncg     rms          rms(c)
DAV:   1    -0.360638959091E+03    0.46971E-03   -0.55257E-01  5040   0.213E+00    0.213E-01
RMM:   2    -0.360640783577E+03   -0.18245E-02   -0.24054E-02  7161   0.438E-01    0.119E-01
RMM:   3    -0.360640624793E+03    0.15878E-03   -0.26502E-03  7523   0.113E-01    0.946E-02
RMM:   4    -0.360640523305E+03    0.10149E-03   -0.64757E-04  7729   0.370E-02    0.620E-02
RMM:   5    -0.360640502830E+03    0.20476E-04   -0.26812E-04  7099   0.293E-02    0.356E-02
RMM:   6    -0.360640488019E+03    0.14811E-04   -0.11884E-04  6958   0.205E-02    0.169E-02
RMM:   7    -0.360640484517E+03    0.35012E-05   -0.34948E-05  3633   0.113E-02
  28 F= -.36064048E+03 E0= -.36064571E+03  d E =-.154996E-02
       N       E                     dE             d eps       ncg     rms          rms(c)
DAV:   1    -0.360635000891E+03    0.54871E-02   -0.22141E+00  5040   0.427E+00    0.421E-01
RMM:   2    -0.360642378847E+03   -0.73780E-02   -0.96698E-02  7041   0.881E-01    0.226E-01
RMM:   3    -0.360641726485E+03    0.65236E-03   -0.10250E-02  7522   0.231E-01    0.181E-01
RMM:   4    -0.360641379971E+03    0.34651E-03   -0.24683E-03  8128   0.714E-02    0.121E-01
RMM:   5    -0.360641306804E+03    0.73167E-04   -0.97942E-04  7579   0.543E-02    0.723E-02
RMM:   6    -0.360641257725E+03    0.49079E-04   -0.46004E-04  7692   0.411E-02    0.339E-02
RMM:   7    -0.360641248798E+03    0.89269E-05   -0.17669E-04  6508   0.198E-02    0.227E-02
RMM:   8    -0.360641245764E+03    0.30341E-05   -0.48339E-05  4509   0.138E-02
  29 F= -.36064125E+03 E0= -.36064668E+03  d E =-.231120E-02
       N       E                     dE             d eps       ncg     rms          rms(c)
DAV:   1    -0.360641166770E+03    0.82028E-04   -0.33982E-02  5376   0.530E-01    0.546E-02
RMM:   2    -0.360641271186E+03   -0.10442E-03   -0.14683E-03  6736   0.109E-01    0.272E-02
RMM:   3    -0.360641256092E+03    0.15094E-04   -0.13630E-04  6499   0.305E-02    0.229E-02
RMM:   4    -0.360641247998E+03    0.80944E-05   -0.25050E-05  3287   0.103E-02
  30 F= -.36064125E+03 E0= -.36064666E+03  d E =-.231344E-02
       N       E                     dE             d eps       ncg     rms          rms(c)
DAV:   1    -0.360641580604E+03   -0.32451E-03   -0.20464E-02  5208   0.439E-01    0.940E-02
RMM:   2    -0.360641609183E+03   -0.28579E-04   -0.13359E-03  7457   0.972E-02    0.469E-02
RMM:   3    -0.360641541676E+03    0.67507E-04   -0.22815E-04  7085   0.316E-02    0.308E-02
RMM:   4    -0.360641521486E+03    0.20190E-04   -0.71196E-05  6360   0.160E-02    0.181E-02
RMM:   5    -0.360641512610E+03    0.88760E-05   -0.18460E-05  3028   0.972E-03
  31 F= -.36064151E+03 E0= -.36064693E+03  d E =-.264613E-03
       N       E                     dE             d eps       ncg     rms          rms(c)
DAV:   1    -0.360642526378E+03   -0.10049E-02   -0.18311E-01  5064   0.131E+00    0.277E-01
RMM:   2    -0.360642627075E+03   -0.10070E-03   -0.11614E-02  7445   0.289E-01    0.133E-01
RMM:   3    -0.360642155392E+03    0.47168E-03   -0.20064E-03  7684   0.912E-02    0.948E-02
RMM:   4    -0.360641964852E+03    0.19054E-03   -0.60393E-04  7534   0.441E-02    0.569E-02
RMM:   5    -0.360641903098E+03    0.61754E-04   -0.22394E-04  7492   0.268E-02    0.367E-02
RMM:   6    -0.360641900123E+03    0.29753E-05   -0.96691E-05  5794   0.165E-02
  32 F= -.36064190E+03 E0= -.36064738E+03  d E =-.652125E-03
       N       E                     dE             d eps       ncg     rms          rms(c)
DAV:   1    -0.360642390525E+03   -0.48743E-03   -0.38474E-02  5688   0.625E-01    0.186E-01
RMM:   2    -0.360642312246E+03    0.78279E-04   -0.33914E-03  7528   0.151E-01    0.753E-02
RMM:   3    -0.360642183510E+03    0.12874E-03   -0.67654E-04  7741   0.493E-02    0.554E-02
RMM:   4    -0.360642117904E+03    0.65606E-04   -0.22510E-04  7545   0.281E-02    0.290E-02
RMM:   5    -0.360642099373E+03    0.18532E-04   -0.67015E-05  6272   0.164E-02    0.172E-02
RMM:   6    -0.360642101619E+03   -0.22459E-05   -0.21133E-05  3135   0.960E-03
  33 F= -.36064210E+03 E0= -.36064757E+03  d E =-.201496E-03
       N       E                     dE             d eps       ncg     rms          rms(c)
DAV:   1    -0.360642467015E+03   -0.36764E-03   -0.44942E-02  5388   0.680E-01    0.187E-01
RMM:   2    -0.360642399241E+03    0.67775E-04   -0.37401E-03  7452   0.167E-01    0.752E-02
RMM:   3    -0.360642244354E+03    0.15489E-03   -0.64081E-04  7565   0.520E-02    0.548E-02
RMM:   4    -0.360642182606E+03    0.61748E-04   -0.22407E-04  7381   0.282E-02    0.310E-02
RMM:   5    -0.360642164772E+03    0.17834E-04   -0.62425E-05  5773   0.175E-02    0.198E-02
RMM:   6    -0.360642171382E+03   -0.66107E-05   -0.27167E-05  3395   0.110E-02
  34 F= -.36064217E+03 E0= -.36064763E+03  d E =-.271259E-03
       N       E                     dE             d eps       ncg     rms          rms(c)
DAV:   1    -0.360642266255E+03   -0.10148E-03   -0.34309E-02  5104   0.530E-01    0.469E-02
RMM:   2    -0.360642374425E+03   -0.10817E-03   -0.13079E-03  7328   0.105E-01    0.315E-02
RMM:   3    -0.360642351108E+03    0.23318E-04   -0.16526E-04  6372   0.294E-02    0.221E-02
RMM:   4    -0.360642348470E+03    0.26375E-05   -0.40511E-05  4071   0.118E-02
  35 F= -.36064235E+03 E0= -.36064784E+03  d E =-.177088E-03
       N       E                     dE             d eps       ncg     rms          rms(c)
DAV:   1    -0.360641992616E+03    0.35849E-03   -0.30833E-01  5040   0.159E+00    0.139E-01
RMM:   2    -0.360642905581E+03   -0.91296E-03   -0.11421E-02  7427   0.312E-01    0.923E-02
RMM:   3    -0.360642710152E+03    0.19543E-03   -0.13971E-03  7560   0.821E-02    0.638E-02
RMM:   4    -0.360642674973E+03    0.35180E-04   -0.33713E-04  7598   0.279E-02    0.428E-02
RMM:   5    -0.360642661148E+03    0.13824E-04   -0.13164E-04  6410   0.186E-02    0.251E-02
RMM:   6    -0.360642657781E+03    0.33671E-05   -0.65856E-05  5271   0.147E-02
  36 F= -.36064266E+03 E0= -.36064821E+03  d E =-.486399E-03
       N       E                     dE             d eps       ncg     rms          rms(c)
DAV:   1    -0.360639759063E+03    0.29021E-02   -0.12343E+00  5040   0.319E+00    0.274E-01
RMM:   2    -0.360643411411E+03   -0.36523E-02   -0.45466E-02  7358   0.622E-01    0.178E-01
RMM:   3    -0.360642627408E+03    0.78400E-03   -0.52829E-03  7553   0.164E-01    0.121E-01
RMM:   4    -0.360642502686E+03    0.12472E-03   -0.12604E-03  8323   0.536E-02    0.822E-02
RMM:   5    -0.360642453223E+03    0.49463E-04   -0.49708E-04  7726   0.369E-02    0.494E-02
RMM:   6    -0.360642442483E+03    0.10740E-04   -0.24559E-04  7504   0.293E-02    0.272E-02
RMM:   7    -0.360642428629E+03    0.13854E-04   -0.87269E-05  5297   0.149E-02    0.155E-02
RMM:   8    -0.360642427627E+03    0.10023E-05   -0.36424E-05  3826   0.125E-02
  37 F= -.36064243E+03 E0= -.36064809E+03  d E =-.256244E-03
       N       E                     dE             d eps       ncg     rms          rms(c)
DAV:   1    -0.360641320585E+03    0.11080E-02   -0.67523E-01  5040   0.236E+00    0.202E-01
RMM:   2    -0.360643276006E+03   -0.19554E-02   -0.24632E-02  7241   0.459E-01    0.129E-01
RMM:   3    -0.360642809577E+03    0.46643E-03   -0.26681E-03  7551   0.121E-01    0.876E-02
RMM:   4    -0.360642734705E+03    0.74872E-04   -0.61190E-04  8095   0.383E-02    0.590E-02
RMM:   5    -0.360642704759E+03    0.29947E-04   -0.23635E-04  7254   0.264E-02    0.350E-02
RMM:   6    -0.360642702942E+03    0.18173E-05   -0.11627E-04  6855   0.205E-02    0.200E-02
RMM:   7    -0.360642696540E+03    0.64012E-05   -0.37128E-05  3841   0.118E-02
  38 F= -.36064270E+03 E0= -.36064827E+03  d E =-.525158E-03
       N       E                     dE             d eps       ncg     rms          rms(c)
DAV:   1    -0.360642854095E+03   -0.15115E-03   -0.55663E-02  5168   0.686E-01    0.972E-02
RMM:   2    -0.360642985639E+03   -0.13154E-03   -0.25853E-03  7264   0.140E-01    0.468E-02
RMM:   3    -0.360642935571E+03    0.50069E-04   -0.28517E-04  7250   0.386E-02    0.348E-02
RMM:   4    -0.360642915053E+03    0.20517E-04   -0.79140E-05  6182   0.161E-02    0.212E-02
RMM:   5    -0.360642908123E+03    0.69302E-05   -0.25435E-05  3406   0.107E-02
  39 F= -.36064291E+03 E0= -.36064852E+03  d E =-.211583E-03
       N       E                     dE             d eps       ncg     rms          rms(c)
DAV:   1    -0.360642902972E+03    0.12081E-04   -0.12721E-01  5040   0.104E+00    0.141E-01
RMM:   2    -0.360643212584E+03   -0.30961E-03   -0.59433E-03  7417   0.212E-01    0.732E-02
RMM:   3    -0.360643090608E+03    0.12198E-03   -0.68293E-04  7451   0.549E-02    0.518E-02
RMM:   4    -0.360643051984E+03    0.38624E-04   -0.19695E-04  7014   0.234E-02    0.323E-02
RMM:   5    -0.360643040356E+03    0.11628E-04   -0.81152E-05  6268   0.155E-02    0.212E-02
RMM:   6    -0.360643035238E+03    0.51174E-05   -0.29162E-05  3527   0.108E-02
  40 F= -.36064304E+03 E0= -.36064871E+03  d E =-.338698E-03
       N       E                     dE             d eps       ncg     rms          rms(c)
DAV:   1    -0.360643173617E+03   -0.13326E-03   -0.16330E-02  5528   0.382E-01    0.911E-02
RMM:   2    -0.360643185639E+03   -0.12022E-04   -0.11273E-03  7446   0.865E-02    0.413E-02
RMM:   3    -0.360643144836E+03    0.40803E-04   -0.19212E-04  6759   0.274E-02    0.297E-02
RMM:   4    -0.360643128584E+03    0.16252E-04   -0.63678E-05  5912   0.165E-02    0.163E-02
RMM:   5    -0.360643123465E+03    0.51193E-05   -0.16077E-05  2963   0.113E-02
  41 F= -.36064312E+03 E0= -.36064879E+03  d E =-.882263E-04
       N       E                     dE             d eps       ncg     rms          rms(c)
DAV:   1    -0.360643510192E+03   -0.38161E-03   -0.11785E-01  5272   0.103E+00    0.229E-01
RMM:   2    -0.360643662963E+03   -0.15277E-03   -0.78077E-03  7121   0.232E-01    0.105E-01
RMM:   3    -0.360643320638E+03    0.34232E-03   -0.11565E-03  7533   0.717E-02    0.707E-02
RMM:   4    -0.360643228856E+03    0.91782E-04   -0.39963E-04  7626   0.350E-02    0.401E-02
RMM:   5    -0.360643201078E+03    0.27779E-04   -0.11554E-04  6574   0.228E-02    0.254E-02
RMM:   6    -0.360643208847E+03   -0.77698E-05   -0.50473E-05  4488   0.130E-02
  42 F= -.36064321E+03 E0= -.36064887E+03  d E =-.173609E-03
       N       E                     dE             d eps       ncg     rms          rms(c)
DAV:   1    -0.360643256267E+03   -0.55190E-04   -0.86105E-03  5256   0.248E-01    0.233E-02
RMM:   2    -0.360643281952E+03   -0.25685E-04   -0.28397E-04  6857   0.486E-02    0.150E-02
RMM:   3    -0.360643281118E+03    0.83426E-06   -0.37482E-05  3991   0.148E-02
  43 F= -.36064328E+03 E0= -.36064895E+03  d E =-.722709E-04
       N       E                     dE             d eps       ncg     rms          rms(c)
DAV:   1    -0.360643283199E+03   -0.12462E-05   -0.77551E-02  5056   0.744E-01    0.596E-02
RMM:   2    -0.360643463024E+03   -0.17983E-03   -0.24050E-03  7038   0.141E-01    0.373E-02
RMM:   3    -0.360643446631E+03    0.16393E-04   -0.35884E-04  7001   0.384E-02    0.275E-02
RMM:   4    -0.360643442916E+03    0.37158E-05   -0.93381E-05  5547   0.141E-02
  44 F= -.36064344E+03 E0= -.36064911E+03  d E =-.234068E-03
       N       E                     dE             d eps       ncg     rms          rms(c)
DAV:   1    -0.360643012726E+03    0.43391E-03   -0.30913E-01  5040   0.149E+00    0.116E-01
RMM:   2    -0.360643727131E+03   -0.71440E-03   -0.93048E-03  6994   0.280E-01    0.737E-02
RMM:   3    -0.360643655691E+03    0.71440E-04   -0.13194E-03  7398   0.750E-02    0.551E-02
RMM:   4    -0.360643629336E+03    0.26355E-04   -0.33031E-04  7199   0.263E-02    0.344E-02
RMM:   5    -0.360643623101E+03    0.62344E-05   -0.13308E-04  6312   0.177E-02    0.199E-02
RMM:   6    -0.360643621217E+03    0.18847E-05   -0.52174E-05  4538   0.127E-02
  45 F= -.36064362E+03 E0= -.36064930E+03  d E =-.412369E-03
       N       E                     dE             d eps       ncg     rms          rms(c)
DAV:   1    -0.360644498211E+03   -0.87511E-03   -0.78798E-02  5624   0.872E-01    0.268E-01
RMM:   2    -0.360644263265E+03    0.23495E-03   -0.64179E-03  7485   0.206E-01    0.107E-01
RMM:   3    -0.360643948268E+03    0.31500E-03   -0.14227E-03  7749   0.679E-02    0.782E-02
RMM:   4    -0.360643806254E+03    0.14201E-03   -0.44472E-04  7589   0.409E-02    0.437E-02
RMM:   5    -0.360643761096E+03    0.45157E-04   -0.13456E-04  6636   0.234E-02    0.281E-02
RMM:   6    -0.360643758243E+03    0.28532E-05   -0.50535E-05  4446   0.132E-02
  46 F= -.36064376E+03 E0= -.36064947E+03  d E =-.137026E-03
       N       E                     dE             d eps       ncg     rms          rms(c)
DAV:   1    -0.360643753116E+03    0.79803E-05   -0.32547E-04  5656   0.577E-02    0.149E-02
RMM:   2    -0.360643752219E+03    0.89673E-06   -0.37618E-05  3915   0.152E-02
  47 F= -.36064375E+03 E0= -.36064946E+03  d E =-.131003E-03
       N       E                     dE             d eps       ncg     rms          rms(c)
DAV:   1    -0.360643808101E+03   -0.54985E-04   -0.34036E-02  5080   0.498E-01    0.499E-02
RMM:   2    -0.360643884306E+03   -0.76205E-04   -0.11636E-03  7310   0.980E-02    0.315E-02
RMM:   3    -0.360643866304E+03    0.18002E-04   -0.16808E-04  6670   0.264E-02    0.227E-02
RMM:   4    -0.360643860847E+03    0.54568E-05   -0.43131E-05  4128   0.115E-02
  48 F= -.36064386E+03 E0= -.36064957E+03  d E =-.108628E-03
