<?xml version="1.0" encoding="ISO-8859-1"?>
<modeling>
 <generator>
  <i name="program" type="string">vasp </i>
  <i name="version" type="string">5.4.1  </i>
  <i name="subversion" type="string">05Feb16 (build Jan 29 2020 16:04:39) complex                          parallel </i>
  <i name="platform" type="string">IFC91_ompi </i>
  <i name="date" type="string">2020 06 15 </i>
  <i name="time" type="string">13:29:32 </i>
 </generator>
 <incar>
  <i type="string" name="SYSTEM"> automatically generated by mexm</i>
  <i type="int" name="ISTART">     0</i>
  <i type="string" name="PREC">accurate               ! avoid wrap aro</i>
  <i type="string" name="ALGO"> Fast                   ! blocked Davids</i>
  <i type="int" name="ISPIN">     1</i>
  <i type="int" name="ICHARG">     2</i>
  <i type="int" name="NELM">    70</i>
  <i type="int" name="IBRION">     2</i>
  <i name="EDIFF">      0.00001000</i>
  <i name="EDIFFG">     -0.01000000</i>
  <i type="int" name="NSW">   300</i>
  <i type="int" name="ISIF">     3</i>
  <i type="int" name="ISYM">     1</i>
  <i name="ENCUT">    300.00000000</i>
  <i name="POTIM">      0.15000000</i>
  <i type="string" name="LREAL"> Auto                  ! unpublished met</i>
  <i type="int" name="ISMEAR">     1</i>
  <i name="SIGMA">      0.15000000</i>
  <i type="logical" name="LWAVE"> F  </i>
  <i type="logical" name="LCHARG"> F  </i>
  <i type="logical" name="LVTOT"> F  </i>
  <v type="int" name="KPOINT_BSE">    -1     0     0     0</v>
  <i type="int" name="NELM">    70</i>
 </incar>
 <kpoints>
  <generation param="Gamma">
   <v type="int" name="divisions">       3        3        3 </v>
   <v name="usershift">      0.00000000       0.00000000       0.00000000 </v>
   <v name="genvec1">      0.33333333       0.00000000       0.00000000 </v>
   <v name="genvec2">      0.00000000       0.33333333       0.00000000 </v>
   <v name="genvec3">      0.00000000       0.00000000       0.33333333 </v>
   <v name="shift">      0.00000000       0.00000000       0.00000000 </v>
  </generation>
  <varray name="kpointlist" >
   <v>       0.00000000       0.00000000       0.00000000 </v>
   <v>       0.33333333      -0.00000000       0.00000000 </v>
   <v>       0.00000000       0.33333333      -0.00000000 </v>
   <v>       0.33333333       0.33333333       0.00000000 </v>
   <v>      -0.33333333       0.33333333       0.00000000 </v>
   <v>       0.00000000       0.00000000       0.33333333 </v>
   <v>       0.33333333      -0.00000000       0.33333333 </v>
   <v>      -0.33333333       0.00000000       0.33333333 </v>
   <v>       0.00000000       0.33333333       0.33333333 </v>
   <v>       0.33333333       0.33333333       0.33333333 </v>
   <v>      -0.33333333       0.33333333       0.33333333 </v>
   <v>      -0.00000000      -0.33333333       0.33333333 </v>
   <v>       0.33333333      -0.33333333       0.33333333 </v>
   <v>      -0.33333333      -0.33333333       0.33333333 </v>
  </varray>
  <varray name="weights" >
   <v>       0.03703704 </v>
   <v>       0.07407407 </v>
   <v>       0.07407407 </v>
   <v>       0.07407407 </v>
   <v>       0.07407407 </v>
   <v>       0.07407407 </v>
   <v>       0.07407407 </v>
   <v>       0.07407407 </v>
   <v>       0.07407407 </v>
   <v>       0.07407407 </v>
   <v>       0.07407407 </v>
   <v>       0.07407407 </v>
   <v>       0.07407407 </v>
   <v>       0.07407407 </v>
  </varray>
 </kpoints>
 <parameters>
  <separator name="general" >
   <i type="string" name="SYSTEM">automatically generated by mexm</i>
   <i type="logical" name="LCOMPAT"> F  </i>
  </separator>
  <separator name="electronic" >
   <i type="string" name="PREC">accura</i>
   <i name="ENMAX">    300.00000000</i>
   <i name="ENAUG">    461.25700000</i>
   <i name="EDIFF">      0.00001000</i>
   <i type="int" name="IALGO">    68</i>
   <i type="int" name="IWAVPR">    11</i>
   <i type="int" name="NBANDS">   180</i>
   <i name="NELECT">    297.00000000</i>
   <i type="int" name="TURBO">     0</i>
   <i type="int" name="IRESTART">     0</i>
   <i type="int" name="NREBOOT">     0</i>
   <i type="int" name="NMIN">     0</i>
   <i name="EREF">      0.00000000</i>
   <separator name="electronic smearing" >
    <i type="int" name="ISMEAR">     1</i>
    <i name="SIGMA">      0.15000000</i>
    <i name="KSPACING">      0.50000000</i>
    <i type="logical" name="KGAMMA"> T  </i>
   </separator>
   <separator name="electronic projectors" >
    <i type="logical" name="LREAL"> T  </i>
    <v name="ROPT">     -0.00025000     -0.00025000     -0.00025000     -0.00025000</v>
    <i type="int" name="LMAXPAW">  -100</i>
    <i type="int" name="LMAXMIX">     2</i>
    <i type="logical" name="NLSPLINE"> F  </i>
   </separator>
   <separator name="electronic startup" >
    <i type="int" name="ISTART">     0</i>
    <i type="int" name="ICHARG">     2</i>
    <i type="int" name="INIWAV">     1</i>
   </separator>
   <separator name="electronic spin" >
    <i type="int" name="ISPIN">     1</i>
    <i type="logical" name="LNONCOLLINEAR"> F  </i>
    <v name="MAGMOM">      1.00000000      1.00000000      1.00000000      1.00000000      1.00000000      1.00000000      1.00000000      1.00000000      1.00000000      1.00000000      1.00000000      1.00000000      1.00000000      1.00000000      1.00000000      1.00000000      1.00000000      1.00000000      1.00000000      1.00000000
      1.00000000      1.00000000      1.00000000      1.00000000      1.00000000      1.00000000      1.00000000      1.00000000      1.00000000      1.00000000      1.00000000      1.00000000      1.00000000      1.00000000      1.00000000      1.00000000</v>
    <i name="NUPDOWN">     -1.00000000</i>
    <i type="logical" name="LSORBIT"> F  </i>
    <v name="SAXIS">      0.00000000      0.00000000      1.00000000</v>
    <i type="logical" name="LSPIRAL"> F  </i>
    <v name="QSPIRAL">      0.00000000      0.00000000      0.00000000</v>
    <i type="logical" name="LZEROZ"> F  </i>
   </separator>
   <separator name="electronic exchange-correlation" >
    <i type="logical" name="LASPH"> F  </i>
    <i type="logical" name="LMETAGGA"> F  </i>
   </separator>
   <separator name="electronic convergence" >
    <i type="int" name="NELM">    70</i>
    <i type="int" name="NELMDL">    -5</i>
    <i type="int" name="NELMIN">     2</i>
    <i name="ENINI">    300.00000000</i>
    <separator name="electronic convergence detail" >
     <i type="logical" name="LDIAG"> T  </i>
     <i type="logical" name="LSUBROT"> F  </i>
     <i name="WEIMIN">      0.00100000</i>
     <i name="EBREAK">      0.00000001</i>
     <i name="DEPER">      0.30000000</i>
     <i type="int" name="NRMM">     4</i>
     <i name="TIME">      0.40000000</i>
    </separator>
   </separator>
   <separator name="electronic mixer" >
    <i name="AMIX">      0.40000000</i>
    <i name="BMIX">      1.00000000</i>
    <i name="AMIN">      0.10000000</i>
    <i name="AMIX_MAG">      1.60000000</i>
    <i name="BMIX_MAG">      1.00000000</i>
    <separator name="electronic mixer details" >
     <i type="int" name="IMIX">     4</i>
     <i type="logical" name="MIXFIRST"> F  </i>
     <i type="int" name="MAXMIX">   -45</i>
     <i name="WC">    100.00000000</i>
     <i type="int" name="INIMIX">     1</i>
     <i type="int" name="MIXPRE">     1</i>
     <i type="int" name="MREMOVE">     5</i>
    </separator>
   </separator>
   <separator name="electronic dipolcorrection" >
    <i type="logical" name="LDIPOL"> F  </i>
    <i type="logical" name="LMONO"> F  </i>
    <i type="int" name="IDIPOL">     0</i>
    <i name="EPSILON">      1.00000000</i>
    <v name="DIPOL">   -100.00000000   -100.00000000   -100.00000000</v>
    <i name="EFIELD">      0.00000000</i>
   </separator>
  </separator>
  <separator name="grids" >
   <i type="int" name="NGX">    40</i>
   <i type="int" name="NGY">    60</i>
   <i type="int" name="NGZ">    60</i>
   <i type="int" name="NGXF">    80</i>
   <i type="int" name="NGYF">   120</i>
   <i type="int" name="NGZF">   120</i>
   <i type="logical" name="ADDGRID"> F  </i>
  </separator>
  <separator name="ionic" >
   <i type="int" name="NSW">   300</i>
   <i type="int" name="IBRION">     2</i>
   <i type="int" name="ISIF">     3</i>
   <i name="PSTRESS">      0.00000000</i>
   <i name="EDIFFG">     -0.01000000</i>
   <i type="int" name="NFREE">     1</i>
   <i name="POTIM">      0.15000000</i>
   <i name="SMASS">     -3.00000000</i>
   <i name="SCALEE">      1.00000000</i>
  </separator>
  <separator name="ionic md" >
   <i name="TEBEG">      0.00010000</i>
   <i name="TEEND">      0.00010000</i>
   <i type="int" name="NBLOCK">     1</i>
   <i type="int" name="KBLOCK">   300</i>
   <i type="int" name="NPACO">   256</i>
   <i name="APACO">     16.00000000</i>
  </separator>
  <separator name="symmetry" >
   <i type="int" name="ISYM">     1</i>
   <i name="SYMPREC">      0.00001000</i>
  </separator>
  <separator name="dos" >
   <i type="logical" name="LORBIT"> F  </i>
   <v name="RWIGS">     -1.00000000     -1.00000000     -1.00000000     -1.00000000</v>
   <i type="int" name="NEDOS">   301</i>
   <i name="EMIN">     10.00000000</i>
   <i name="EMAX">    -10.00000000</i>
   <i name="EFERMI">      0.00000000</i>
  </separator>
  <separator name="writing" >
   <i type="int" name="NWRITE">     2</i>
   <i type="logical" name="LWAVE"> F  </i>
   <i type="logical" name="LCHARG"> F  </i>
   <i type="logical" name="LPARD"> F  </i>
   <i type="logical" name="LVTOT"> F  </i>
   <i type="logical" name="LVHAR"> F  </i>
   <i type="logical" name="LELF"> F  </i>
   <i type="logical" name="LOPTICS"> F  </i>
   <v name="STM">      0.00000000      0.00000000      0.00000000      0.00000000      0.00000000      0.00000000      0.00000000</v>
  </separator>
  <separator name="performance" >
   <i type="int" name="NPAR">     4</i>
   <i type="int" name="NSIM">     4</i>
   <i type="int" name="NBLK">    -1</i>
   <i type="logical" name="LPLANE"> T  </i>
   <i type="logical" name="LSCALAPACK"> T  </i>
   <i type="logical" name="LSCAAWARE"> F  </i>
   <i type="logical" name="LSCALU"> F  </i>
   <i type="logical" name="LASYNC"> F  </i>
   <i type="logical" name="LORBITALREAL"> F  </i>
  </separator>
  <separator name="miscellaneous" >
   <i type="int" name="IDIOT">     3</i>
   <i type="logical" name="LMUSIC"> F  </i>
   <v name="POMASS">     91.22400000    178.49000000    180.94800000     92.91000000</v>
   <v name="DARWINR">      0.00000000      0.00000000      0.00000000      0.00000000</v>
   <v name="DARWINV">      1.00000000      1.00000000      1.00000000      1.00000000</v>
   <i type="logical" name="LCORR"> T  </i>
  </separator>
  <i type="logical" name="GGA_COMPAT"> T  </i>
  <i type="logical" name="LBERRY"> F  </i>
  <i type="int" name="ICORELEVEL">     0</i>
  <i type="logical" name="LDAU"> F  </i>
  <i type="int" name="I_CONSTRAINED_M">     0</i>
  <separator name="electronic exchange-correlation" >
   <i type="string" name="GGA">--</i>
   <i type="int" name="VOSKOWN">     0</i>
   <i type="logical" name="LHFCALC"> F  </i>
   <i type="string" name="PRECFOCK"></i>
   <i type="logical" name="LSYMGRAD"> F  </i>
   <i type="logical" name="LHFONE"> F  </i>
   <i type="logical" name="LRHFCALC"> F  </i>
   <i type="logical" name="LTHOMAS"> F  </i>
   <i type="logical" name="LMODELHF"> F  </i>
   <i name="ENCUT4O">     -1.00000000</i>
   <i type="int" name="EXXOEP">     0</i>
   <i type="int" name="FOURORBIT">     0</i>
   <i name="AEXX">      0.00000000</i>
   <i name="HFALPHA">      0.00000000</i>
   <i name="MCALPHA">      0.00000000</i>
   <i name="ALDAX">      1.00000000</i>
   <i name="AGGAX">      1.00000000</i>
   <i name="ALDAC">      1.00000000</i>
   <i name="AGGAC">      1.00000000</i>
   <i type="int" name="NKREDX">     1</i>
   <i type="int" name="NKREDY">     1</i>
   <i type="int" name="NKREDZ">     1</i>
   <i type="logical" name="SHIFTRED"> F  </i>
   <i type="logical" name="ODDONLY"> F  </i>
   <i type="logical" name="EVENONLY"> F  </i>
   <i type="int" name="LMAXFOCK">     0</i>
   <i type="int" name="NMAXFOCKAE">     0</i>
   <i type="logical" name="LFOCKAEDFT"> F  </i>
   <i name="HFSCREEN">      0.00000000</i>
   <i name="HFSCREENC">      0.00000000</i>
   <i type="int" name="NBANDSGWLOW">     0</i>
  </separator>
  <separator name="vdW DFT" >
   <i type="logical" name="LUSE_VDW"> F  </i>
   <i name="Zab_VDW">     -0.84910000</i>
   <i name="PARAM1">      0.12340000</i>
   <i name="PARAM2">      1.00000000</i>
   <i name="PARAM3">      0.00000000</i>
  </separator>
  <separator name="model GW" >
   <i type="int" name="MODEL_GW">     0</i>
   <i name="MODEL_EPS0">     12.24250847</i>
   <i name="MODEL_ALPHA">      1.00000000</i>
  </separator>
  <separator name="linear response parameters" >
   <i type="logical" name="LEPSILON"> F  </i>
   <i type="logical" name="LRPA"> F  </i>
   <i type="logical" name="LNABLA"> F  </i>
   <i type="logical" name="LVEL"> F  </i>
   <i type="int" name="KINTER">     0</i>
   <i name="CSHIFT">      0.10000000</i>
   <i name="OMEGAMAX">     -1.00000000</i>
   <i name="DEG_THRESHOLD">      0.00200000</i>
  </separator>
  <separator name="orbital magnetization" >
   <i type="logical" name="NUCIND"> F  </i>
   <v name="MAGPOS">      0.00000000      0.00000000      0.00000000</v>
   <i type="logical" name="LNICSALL"> T  </i>
   <i type="logical" name="ORBITALMAG"> F  </i>
   <i type="logical" name="LMAGBLOCH"> F  </i>
   <i type="logical" name="LCHIMAG"> F  </i>
   <i type="logical" name="LGAUGE"> T  </i>
   <i type="int" name="MAGATOM">     0</i>
   <v name="MAGDIPOL">      0.00000000      0.00000000      0.00000000</v>
   <v name="AVECCONST">      0.00000000      0.00000000      0.00000000</v>
  </separator>
  <separator name="response functions" >
   <i type="logical" name="LADDER"> F  </i>
   <i type="logical" name="LFXC"> F  </i>
   <i type="logical" name="LHARTREE"> T  </i>
   <i type="int" name="IBSE">     0</i>
   <v type="int" name="KPOINT">    -1     0     0     0</v>
   <i type="logical" name="LTCTE"> F  </i>
   <i type="logical" name="LTETE"> F  </i>
   <i type="logical" name="LTRIPLET"> F  </i>
   <i type="logical" name="LFXCEPS"> F  </i>
   <i type="logical" name="LFXHEG"> F  </i>
   <i type="int" name="NATURALO">     0</i>
   <i type="logical" name="L2ORDER"> F  </i>
   <i type="logical" name="LUSEW"> F  </i>
   <i name="ENCUTGW">     -2.00000000</i>
   <i name="ENCUTGWSOFT">     -2.00000000</i>
   <i name="ENCUTLF">     -1.00000000</i>
   <i type="int" name="LMAXMP2">    -1</i>
   <i name="SCISSOR">      0.00000000</i>
   <i type="int" name="NOMEGA">     0</i>
   <i type="int" name="NOMEGAR">     0</i>
   <i type="int" name="NBANDSGW">    -1</i>
   <i type="int" name="NBANDSO">    -1</i>
   <i type="int" name="NBANDSV">    -1</i>
   <i type="int" name="NELM">    70</i>
   <i type="int" name="NELMHF">     1</i>
   <i type="int" name="DIM">     3</i>
   <i type="int" name="ANTIRES">     0</i>
   <i name="OMEGAMAX">    -30.00000000</i>
   <i name="OMEGAMIN">    -30.00000000</i>
   <i name="OMEGATL">   -200.00000000</i>
   <i type="int" name="OMEGAGRID">     0</i>
   <i name="CSHIFT">     -0.10000000</i>
   <i type="logical" name="SELFENERGY"> F  </i>
   <i type="logical" name="LSPECTRAL"> F  </i>
   <i type="logical" name="LSPECTRALGW"> F  </i>
   <i type="logical" name="LSINGLES"> F  </i>
   <i type="logical" name="LFERMIGW"> F  </i>
   <i type="logical" name="ODDONLYGW"> F  </i>
   <i type="logical" name="EVENONLYGW"> F  </i>
   <i type="int" name="NKREDLFX">     1</i>
   <i type="int" name="NKREDLFY">     1</i>
   <i type="int" name="NKREDLFZ">     1</i>
   <i type="int" name="MAXMEM">  1800</i>
   <i type="int" name="TELESCOPE">     0</i>
   <i type="int" name="TAUPAR">     1</i>
   <i type="int" name="OMEGAPAR">    -1</i>
   <i name="LAMBDA">      1.00000000</i>
  </separator>
  <separator name="External order field" >
   <i name="OFIELD_KAPPA">      0.00000000</i>
   <v name="OFIELD_K">      0.00000000      0.00000000      0.00000000</v>
   <i name="OFIELD_Q6_NEAR">      0.00000000</i>
   <i name="OFIELD_Q6_FAR">      0.00000000</i>
   <i name="OFIELD_A">      0.00000000</i>
  </separator>
 </parameters>
 <atominfo>
  <atoms>      36 </atoms>
  <types>       4 </types>
  <array name="atoms" >
   <dimension dim="1">ion</dimension>
   <field type="string">element</field>
   <field type="int">atomtype</field>
   <set>
    <rc><c>Zr</c><c>   1</c></rc>
    <rc><c>Zr</c><c>   1</c></rc>
    <rc><c>Zr</c><c>   1</c></rc>
    <rc><c>Zr</c><c>   1</c></rc>
    <rc><c>Zr</c><c>   1</c></rc>
    <rc><c>Zr</c><c>   1</c></rc>
    <rc><c>Zr</c><c>   1</c></rc>
    <rc><c>Zr</c><c>   1</c></rc>
    <rc><c>Hf</c><c>   2</c></rc>
    <rc><c>Hf</c><c>   2</c></rc>
    <rc><c>Hf</c><c>   2</c></rc>
    <rc><c>Hf</c><c>   2</c></rc>
    <rc><c>Hf</c><c>   2</c></rc>
    <rc><c>Hf</c><c>   2</c></rc>
    <rc><c>Hf</c><c>   2</c></rc>
    <rc><c>Hf</c><c>   2</c></rc>
    <rc><c>Hf</c><c>   2</c></rc>
    <rc><c>Hf</c><c>   2</c></rc>
    <rc><c>Hf</c><c>   2</c></rc>
    <rc><c>Ta</c><c>   3</c></rc>
    <rc><c>Ta</c><c>   3</c></rc>
    <rc><c>Ta</c><c>   3</c></rc>
    <rc><c>Ta</c><c>   3</c></rc>
    <rc><c>Ta</c><c>   3</c></rc>
    <rc><c>Ta</c><c>   3</c></rc>
    <rc><c>Ta</c><c>   3</c></rc>
    <rc><c>Ta</c><c>   3</c></rc>
    <rc><c>Nb</c><c>   4</c></rc>
    <rc><c>Nb</c><c>   4</c></rc>
    <rc><c>Nb</c><c>   4</c></rc>
    <rc><c>Nb</c><c>   4</c></rc>
    <rc><c>Nb</c><c>   4</c></rc>
    <rc><c>Nb</c><c>   4</c></rc>
    <rc><c>Nb</c><c>   4</c></rc>
    <rc><c>Nb</c><c>   4</c></rc>
    <rc><c>Nb</c><c>   4</c></rc>
   </set>
  </array>
  <array name="atomtypes" >
   <dimension dim="1">type</dimension>
   <field type="int">atomspertype</field>
   <field type="string">element</field>
   <field>mass</field>
   <field>valence</field>
   <field type="string">pseudopotential</field>
   <set>
    <rc><c>   8</c><c>Zr</c><c>     91.22400000</c><c>     12.00000000</c><c>  PAW_PBE Zr_sv 04Jan2005               </c></rc>
    <rc><c>  11</c><c>Hf</c><c>    178.49000000</c><c>      4.00000000</c><c>  PAW_PBE Hf 20Jan2003                  </c></rc>
    <rc><c>   8</c><c>Ta</c><c>    180.94800000</c><c>      5.00000000</c><c>  PAW_PBE Ta 17Jan2003                  </c></rc>
    <rc><c>   9</c><c>Nb</c><c>     92.91000000</c><c>     13.00000000</c><c>  PAW_PBE Nb_sv 25May2007               </c></rc>
   </set>
  </array>
 </atominfo>
 <structure name="initialpos" >
  <crystal>
   <varray name="basis" >
    <v>       6.96726735      -0.00439969      -0.03521248 </v>
    <v>      -0.00613063      10.32388619       0.00587124 </v>
    <v>      -0.05204803       0.00700858      10.21239247 </v>
   </varray>
   <i name="volume">    734.55050849 </i>
   <varray name="rec_basis" >
    <v>       0.14353204       0.00008482       0.00073146 </v>
    <v>       0.00006083       0.09686282      -0.00006617 </v>
    <v>       0.00049487      -0.00005540       0.09792281 </v>
   </varray>
  </crystal>
  <varray name="positions" >
   <v>       0.48657900       0.31640600       0.32691800 </v>
   <v>       0.74125100       0.49540400       0.49489100 </v>
   <v>       0.02049100       0.99942600       0.99530500 </v>
   <v>       0.49789600       0.00026200       0.32764500 </v>
   <v>       0.25873100       0.83273900       0.50238500 </v>
   <v>       0.02553000       0.67323800       0.00094600 </v>
   <v>       0.00487800       0.32791400       0.66687600 </v>
   <v>       0.25864500       0.50115300       0.50505100 </v>
   <v>       0.47475800       0.33292500       0.00049600 </v>
   <v>       0.76630700       0.49316800       0.16614800 </v>
   <v>       0.26759900       0.81899700       0.80748600 </v>
   <v>       0.74853100       0.49593600       0.83882200 </v>
   <v>       0.22474500       0.49629600       0.18715700 </v>
   <v>       0.97587300       0.68667800       0.33448200 </v>
   <v>       0.48133000       0.66656700       0.01848500 </v>
   <v>       0.51794200       0.01873200       0.66808600 </v>
   <v>       0.98650400       0.00755600       0.66554900 </v>
   <v>       0.74061400       0.82621700       0.84074400 </v>
   <v>       0.48040400       0.00632200       0.99888400 </v>
   <v>       0.75175200       0.84199100       0.15670000 </v>
   <v>       0.24070100       0.15748500       0.49749000 </v>
   <v>       0.00578200       0.31561800       0.34759500 </v>
   <v>       0.26373000       0.50637900       0.81754100 </v>
   <v>       0.51604000       0.67841300       0.32041800 </v>
   <v>       0.53050000       0.66112900       0.66105200 </v>
   <v>       0.98023300       0.66300800       0.66681400 </v>
   <v>       0.99581000       0.99451800       0.33747300 </v>
   <v>       0.75812500       0.16940000       0.49103200 </v>
   <v>       0.21784700       0.16958100       0.17226800 </v>
   <v>       0.75371100       0.18500600       0.84465500 </v>
   <v>       0.24798500       0.17734900       0.82875900 </v>
   <v>       0.02397700       0.33242000       0.98843000 </v>
   <v>       0.74185800       0.82939300       0.50310600 </v>
   <v>       0.24658900       0.83569200       0.18495500 </v>
   <v>       0.49604900       0.32180300       0.67551500 </v>
   <v>       0.77070600       0.16489500       0.15984200 </v>
  </varray>
 </structure>
 <calculation>
  <scstep>
   <time name="dav">    1.11    1.12</time>
   <time name="total">    1.29    1.44</time>
   <energy>
    <i name="alphaZ">   1501.22589290 </i>
    <i name="ewald"> -19273.18349150 </i>
    <i name="hartreedc">  -7635.39476241 </i>
    <i name="XCdc">   -207.19723782 </i>
    <i name="pawpsdc">  22009.98238969 </i>
    <i name="pawaedc"> -20449.69638840 </i>
    <i name="eentropy">      0.00048500 </i>
    <i name="bandstr">   -200.85299761 </i>
    <i name="atom">  26149.46313945 </i>
    <i name="e_fr_energy">   1894.34702930 </i>
    <i name="e_wo_entrp">   1894.34654430 </i>
    <i name="e_0_energy">   1894.34686763 </i>
   </energy>
  </scstep>
  <scstep>
   <time name="dav">    1.18    1.19</time>
   <time name="total">    1.18    1.24</time>
   <energy>
    <i name="e_fr_energy">    -88.51295389 </i>
    <i name="e_wo_entrp">    -88.51037451 </i>
    <i name="e_0_energy">    -88.51209410 </i>
   </energy>
  </scstep>
  <scstep>
   <time name="dav">    1.47    1.48</time>
   <time name="total">    1.47    1.49</time>
   <energy>
    <i name="e_fr_energy">   -342.21899937 </i>
    <i name="e_wo_entrp">   -342.21973213 </i>
    <i name="e_0_energy">   -342.21924362 </i>
   </energy>
  </scstep>
  <scstep>
   <time name="dav">    1.54    1.55</time>
   <time name="total">    1.55    1.58</time>
   <energy>
    <i name="e_fr_energy">   -372.36124047 </i>
    <i name="e_wo_entrp">   -372.37122439 </i>
    <i name="e_0_energy">   -372.36456845 </i>
   </energy>
  </scstep>
  <scstep>
   <time name="dav">    1.59    1.62</time>
   <time name="total">    1.62    1.66</time>
   <energy>
    <i name="e_fr_energy">   -375.41113469 </i>
    <i name="e_wo_entrp">   -375.42541810 </i>
    <i name="e_0_energy">   -375.41589583 </i>
   </energy>
  </scstep>
  <scstep>
   <time name="diag">    0.08    0.08</time>
   <time name="diis">    0.75    0.75</time>
   <time name="orth">    0.01    0.01</time>
   <time name="total">    0.91    0.93</time>
   <energy>
    <i name="e_fr_energy">   -365.19968510 </i>
    <i name="e_wo_entrp">   -365.20817851 </i>
    <i name="e_0_energy">   -365.20251624 </i>
   </energy>
  </scstep>
  <scstep>
   <time name="diag">    0.08    0.08</time>
   <time name="diis">    0.77    0.78</time>
   <time name="orth">    0.01    0.01</time>
   <time name="total">    0.94    0.95</time>
   <energy>
    <i name="e_fr_energy">   -366.35176266 </i>
    <i name="e_wo_entrp">   -366.35650089 </i>
    <i name="e_0_energy">   -366.35334207 </i>
   </energy>
  </scstep>
  <scstep>
   <time name="diag">    0.08    0.08</time>
   <time name="diis">    0.77    0.78</time>
   <time name="orth">    0.01    0.01</time>
   <time name="total">    0.93    0.95</time>
   <energy>
    <i name="e_fr_energy">   -360.76141902 </i>
    <i name="e_wo_entrp">   -360.77779889 </i>
    <i name="e_0_energy">   -360.76687897 </i>
   </energy>
  </scstep>
  <scstep>
   <time name="diag">    0.08    0.08</time>
   <time name="diis">    0.83    0.87</time>
   <time name="orth">    0.01    0.01</time>
   <time name="total">    1.00    1.04</time>
   <energy>
    <i name="e_fr_energy">   -360.56524641 </i>
    <i name="e_wo_entrp">   -360.58712195 </i>
    <i name="e_0_energy">   -360.57253826 </i>
   </energy>
  </scstep>
  <scstep>
   <time name="diag">    0.08    0.08</time>
   <time name="diis">    0.79    0.80</time>
   <time name="orth">    0.01    0.01</time>
   <time name="total">    0.96    0.99</time>
   <energy>
    <i name="e_fr_energy">   -360.50080980 </i>
    <i name="e_wo_entrp">   -360.52071746 </i>
    <i name="e_0_energy">   -360.50744568 </i>
   </energy>
  </scstep>
  <scstep>
   <time name="diag">    0.08    0.08</time>
   <time name="diis">    0.78    0.79</time>
   <time name="orth">    0.01    0.01</time>
   <time name="total">    0.94    0.96</time>
   <energy>
    <i name="e_fr_energy">   -360.45289986 </i>
    <i name="e_wo_entrp">   -360.47366888 </i>
    <i name="e_0_energy">   -360.45982287 </i>
   </energy>
  </scstep>
  <scstep>
   <time name="diag">    0.09    0.09</time>
   <time name="diis">    0.75    0.91</time>
   <time name="orth">    0.01    0.02</time>
   <time name="total">    0.94    1.12</time>
   <energy>
    <i name="e_fr_energy">   -360.44940633 </i>
    <i name="e_wo_entrp">   -360.47042682 </i>
    <i name="e_0_energy">   -360.45641316 </i>
   </energy>
  </scstep>
  <scstep>
   <time name="diag">    0.08    0.13</time>
   <time name="diis">    0.79    0.81</time>
   <time name="orth">    0.01    0.01</time>
   <time name="total">    0.95    1.03</time>
   <energy>
    <i name="e_fr_energy">   -360.44601771 </i>
    <i name="e_wo_entrp">   -360.46696868 </i>
    <i name="e_0_energy">   -360.45300136 </i>
   </energy>
  </scstep>
  <scstep>
   <time name="diag">    0.15    0.15</time>
   <time name="diis">    0.70    0.91</time>
   <time name="orth">    0.01    0.01</time>
   <time name="total">    0.94    1.18</time>
   <energy>
    <i name="e_fr_energy">   -360.44599820 </i>
    <i name="e_wo_entrp">   -360.46676844 </i>
    <i name="e_0_energy">   -360.45292161 </i>
   </energy>
  </scstep>
  <scstep>
   <time name="diag">    0.08    0.09</time>
   <time name="diis">    0.80    0.80</time>
   <time name="orth">    0.01    0.01</time>
   <time name="total">    0.96    0.99</time>
   <energy>
    <i name="e_fr_energy">   -360.44598880 </i>
    <i name="e_wo_entrp">   -360.46693195 </i>
    <i name="e_0_energy">   -360.45296985 </i>
   </energy>
  </scstep>
  <scstep>
   <time name="diag">    0.08    0.08</time>
   <time name="diis">    0.78    0.78</time>
   <time name="orth">    0.01    0.01</time>
   <time name="total">    0.94    0.96</time>
   <energy>
    <i name="e_fr_energy">   -360.44604654 </i>
    <i name="e_wo_entrp">   -360.46698172 </i>
    <i name="e_0_energy">   -360.45302493 </i>
   </energy>
  </scstep>
  <scstep>
   <time name="diag">    0.08    0.08</time>
   <time name="diis">    0.67    0.67</time>
   <time name="orth">    0.01    0.01</time>
   <time name="total">    0.83    0.85</time>
   <energy>
    <i name="e_fr_energy">   -360.44606213 </i>
    <i name="e_wo_entrp">   -360.46702911 </i>
    <i name="e_0_energy">   -360.45305113 </i>
   </energy>
  </scstep>
  <scstep>
   <time name="diag">    0.08    0.08</time>
   <time name="diis">    0.61    0.62</time>
   <time name="orth">    0.01    0.01</time>
   <time name="total">    0.79    0.81</time>
   <energy>
    <i name="e_fr_energy">   -360.44608156 </i>
    <i name="e_wo_entrp">   -360.46704792 </i>
    <i name="e_0_energy">   -360.45307035 </i>
   </energy>
  </scstep>
  <scstep>
   <time name="diag">    0.08    0.08</time>
   <time name="diis">    0.48    0.63</time>
   <time name="orth">    0.01    0.01</time>
   <time name="total">    0.65    0.81</time>
   <energy>
    <i name="e_fr_energy">   -360.44609040 </i>
    <i name="e_wo_entrp">   -360.46705246 </i>
    <i name="e_0_energy">   -360.45307775 </i>
   </energy>
  </scstep>
  <scstep>
   <time name="diag">    0.08    0.08</time>
   <time name="diis">    0.44    0.44</time>
   <time name="orth">    0.01    0.01</time>
   <time name="total">    0.57    0.58</time>
   <energy>
    <i name="alphaZ">   1501.22589290 </i>
    <i name="ewald"> -19273.18349150 </i>
    <i name="hartreedc">  -7393.96944527 </i>
    <i name="XCdc">   -208.03402623 </i>
    <i name="pawpsdc">  34013.22775905 </i>
    <i name="pawaedc"> -32432.27386625 </i>
    <i name="eentropy">      0.02096551 </i>
    <i name="bandstr">  -2716.92302177 </i>
    <i name="atom">  26149.46313945 </i>
    <i name="e_fr_energy">   -360.44609412 </i>
    <i name="e_wo_entrp">   -360.46705963 </i>
    <i name="e_0_energy">   -360.45308262 </i>
   </energy>
  </scstep>
  <structure>
   <crystal>
    <varray name="basis" >
     <v>       6.96726735      -0.00439969      -0.03521248 </v>
     <v>      -0.00613063      10.32388619       0.00587124 </v>
     <v>      -0.05204803       0.00700858      10.21239247 </v>
    </varray>
    <i name="volume">    734.55050849 </i>
    <varray name="rec_basis" >
     <v>       0.14353204       0.00008482       0.00073146 </v>
     <v>       0.00006083       0.09686282      -0.00006617 </v>
     <v>       0.00049487      -0.00005540       0.09792281 </v>
    </varray>
   </crystal>
   <varray name="positions" >
    <v>       0.48657900       0.31640600       0.32691800 </v>
    <v>       0.74125100       0.49540400       0.49489100 </v>
    <v>       0.02049100       0.99942600       0.99530500 </v>
    <v>       0.49789600       0.00026200       0.32764500 </v>
    <v>       0.25873100       0.83273900       0.50238500 </v>
    <v>       0.02553000       0.67323800       0.00094600 </v>
    <v>       0.00487800       0.32791400       0.66687600 </v>
    <v>       0.25864500       0.50115300       0.50505100 </v>
    <v>       0.47475800       0.33292500       0.00049600 </v>
    <v>       0.76630700       0.49316800       0.16614800 </v>
    <v>       0.26759900       0.81899700       0.80748600 </v>
    <v>       0.74853100       0.49593600       0.83882200 </v>
    <v>       0.22474500       0.49629600       0.18715700 </v>
    <v>       0.97587300       0.68667800       0.33448200 </v>
    <v>       0.48133000       0.66656700       0.01848500 </v>
    <v>       0.51794200       0.01873200       0.66808600 </v>
    <v>       0.98650400       0.00755600       0.66554900 </v>
    <v>       0.74061400       0.82621700       0.84074400 </v>
    <v>       0.48040400       0.00632200       0.99888400 </v>
    <v>       0.75175200       0.84199100       0.15670000 </v>
    <v>       0.24070100       0.15748500       0.49749000 </v>
    <v>       0.00578200       0.31561800       0.34759500 </v>
    <v>       0.26373000       0.50637900       0.81754100 </v>
    <v>       0.51604000       0.67841300       0.32041800 </v>
    <v>       0.53050000       0.66112900       0.66105200 </v>
    <v>       0.98023300       0.66300800       0.66681400 </v>
    <v>       0.99581000       0.99451800       0.33747300 </v>
    <v>       0.75812500       0.16940000       0.49103200 </v>
    <v>       0.21784700       0.16958100       0.17226800 </v>
    <v>       0.75371100       0.18500600       0.84465500 </v>
    <v>       0.24798500       0.17734900       0.82875900 </v>
    <v>       0.02397700       0.33242000       0.98843000 </v>
    <v>       0.74185800       0.82939300       0.50310600 </v>
    <v>       0.24658900       0.83569200       0.18495500 </v>
    <v>       0.49604900       0.32180300       0.67551500 </v>
    <v>       0.77070600       0.16489500       0.15984200 </v>
   </varray>
  </structure>
  <varray name="forces" >
   <v>       0.37518916      -0.16686683      -0.20594183 </v>
   <v>      -0.00713408      -0.01705099       0.02080893 </v>
   <v>      -0.31190621       0.25679424       0.25732470 </v>
   <v>       0.24311788       0.17365494      -0.16609293 </v>
   <v>      -0.00391153       0.01975948      -0.00083703 </v>
   <v>       0.00821957      -0.01756787       0.02204147 </v>
   <v>       0.00411588       0.00023306       0.00533319 </v>
   <v>      -0.00097129      -0.00846599       0.00101121 </v>
   <v>       0.28956661      -0.15284358       0.14022206 </v>
   <v>      -0.00750014      -0.12100640       0.00671795 </v>
   <v>      -0.00247415      -0.01950797      -0.03704686 </v>
   <v>       0.00934144      -0.01021766      -0.02096484 </v>
   <v>       0.01857304       0.02889769       0.00346106 </v>
   <v>       0.00111626      -0.00208417      -0.00559812 </v>
   <v>       0.02221889      -0.01325328       0.00766774 </v>
   <v>       0.03044264       0.00360646      -0.01558321 </v>
   <v>      -0.00976553       0.00214933       0.01307000 </v>
   <v>      -0.00657647      -0.02707274      -0.02910066 </v>
   <v>       0.28279138       0.22012432       0.24439164 </v>
   <v>      -0.04475955       0.04343118      -0.02330632 </v>
   <v>       0.00297143      -0.04176922       0.00494358 </v>
   <v>      -0.34610403      -0.22511745      -0.44349082 </v>
   <v>      -0.00261275       0.00484479      -0.01624508 </v>
   <v>       0.01588230      -0.00204710      -0.03171841 </v>
   <v>       0.00068311       0.01155068       0.00117834 </v>
   <v>       0.01536910      -0.00345343       0.01885470 </v>
   <v>      -0.23954871       0.28591405      -0.28417434 </v>
   <v>      -0.04100471       0.02178223       0.00460320 </v>
   <v>      -0.10410307      -0.00480476       0.03190082 </v>
   <v>      -0.02521169       0.02480221       0.09061086 </v>
   <v>      -0.00387671       0.02840447      -0.04452192 </v>
   <v>      -0.28842691      -0.16963550       0.26059001 </v>
   <v>       0.02229109       0.02022776      -0.01738996 </v>
   <v>       0.01017715       0.01354136       0.02639664 </v>
   <v>       0.02539067      -0.00885052       0.00790793 </v>
   <v>       0.06842994      -0.14810277       0.17297630 </v>
  </varray>
  <varray name="stress" >
   <v>      -9.77106374       0.39833759      -0.35434421 </v>
   <v>       0.39833757      -7.95972564      -0.16046734 </v>
   <v>      -0.35434420      -0.16046735      -8.04160611 </v>
  </varray>
  <energy>
   <i name="e_fr_energy">   -360.44609412 </i>
   <i name="e_wo_entrp">   -360.45308262 </i>
   <i name="e_0_energy">      0.02096551 </i>
  </energy>
  <time name="totalsc">   21.97   23.27</time>
 </calculation>
 <calculation>
  <scstep>
   <time name="dav">    1.27    1.37</time>
   <time name="total">    1.42    1.59</time>
   <energy>
    <i name="alphaZ">   1508.37979322 </i>
    <i name="ewald"> -19297.38785305 </i>
    <i name="hartreedc">  -7411.90654437 </i>
    <i name="XCdc">   -206.60579904 </i>
    <i name="pawpsdc">  34013.13399266 </i>
    <i name="pawaedc"> -32432.18145586 </i>
    <i name="eentropy">      0.01990358 </i>
    <i name="bandstr">  -2683.44461791 </i>
    <i name="atom">  26149.46313945 </i>
    <i name="e_fr_energy">   -360.52944131 </i>
    <i name="e_wo_entrp">   -360.54934489 </i>
    <i name="e_0_energy">   -360.53607584 </i>
   </energy>
  </scstep>
  <scstep>
   <time name="diag">    0.08    0.12</time>
   <time name="diis">    0.76    0.85</time>
   <time name="orth">    0.01    0.01</time>
   <time name="total">    1.02    1.20</time>
   <energy>
    <i name="e_fr_energy">   -360.50645302 </i>
    <i name="e_wo_entrp">   -360.52692692 </i>
    <i name="e_0_energy">   -360.51327765 </i>
   </energy>
  </scstep>
  <scstep>
   <time name="diag">    0.08    0.08</time>
   <time name="diis">    0.80    0.81</time>
   <time name="orth">    0.01    0.01</time>
   <time name="total">    0.96    0.98</time>
   <energy>
    <i name="e_fr_energy">   -360.48989667 </i>
    <i name="e_wo_entrp">   -360.50937773 </i>
    <i name="e_0_energy">   -360.49639035 </i>
   </energy>
  </scstep>
  <scstep>
   <time name="diag">    0.08    0.08</time>
   <time name="diis">    0.88    0.88</time>
   <time name="orth">    0.01    0.01</time>
   <time name="total">    1.03    1.05</time>
   <energy>
    <i name="e_fr_energy">   -360.48339726 </i>
    <i name="e_wo_entrp">   -360.50307797 </i>
    <i name="e_0_energy">   -360.48995750 </i>
   </energy>
  </scstep>
  <scstep>
   <time name="diag">    0.08    0.08</time>
   <time name="diis">    0.79    0.79</time>
   <time name="orth">    0.01    0.01</time>
   <time name="total">    0.95    0.97</time>
   <energy>
    <i name="e_fr_energy">   -360.48161466 </i>
    <i name="e_wo_entrp">   -360.50177485 </i>
    <i name="e_0_energy">   -360.48833472 </i>
   </energy>
  </scstep>
  <scstep>
   <time name="diag">    0.08    0.08</time>
   <time name="diis">    0.83    0.84</time>
   <time name="orth">    0.01    0.01</time>
   <time name="total">    0.99    1.01</time>
   <energy>
    <i name="e_fr_energy">   -360.48186923 </i>
    <i name="e_wo_entrp">   -360.50159270 </i>
    <i name="e_0_energy">   -360.48844372 </i>
   </energy>
  </scstep>
  <scstep>
   <time name="diag">    0.14    0.14</time>
   <time name="diis">    0.73    0.88</time>
   <time name="orth">    0.01    0.01</time>
   <time name="total">    0.96    1.11</time>
   <energy>
    <i name="e_fr_energy">   -360.48193186 </i>
    <i name="e_wo_entrp">   -360.50186502 </i>
    <i name="e_0_energy">   -360.48857625 </i>
   </energy>
  </scstep>
  <scstep>
   <time name="diag">    0.09    0.09</time>
   <time name="diis">    0.75    0.76</time>
   <time name="orth">    0.01    0.01</time>
   <time name="total">    0.92    0.94</time>
   <energy>
    <i name="e_fr_energy">   -360.48202882 </i>
    <i name="e_wo_entrp">   -360.50197928 </i>
    <i name="e_0_energy">   -360.48867898 </i>
   </energy>
  </scstep>
  <scstep>
   <time name="diag">    0.14    0.14</time>
   <time name="diis">    0.76    0.77</time>
   <time name="orth">    0.01    0.01</time>
   <time name="total">    0.98    0.99</time>
   <energy>
    <i name="e_fr_energy">   -360.48211899 </i>
    <i name="e_wo_entrp">   -360.50205923 </i>
    <i name="e_0_energy">   -360.48876574 </i>
   </energy>
  </scstep>
  <scstep>
   <time name="diag">    0.09    0.09</time>
   <time name="diis">    0.59    0.59</time>
   <time name="orth">    0.01    0.01</time>
   <time name="total">    0.76    0.77</time>
   <energy>
    <i name="e_fr_energy">   -360.48218249 </i>
    <i name="e_wo_entrp">   -360.50210415 </i>
    <i name="e_0_energy">   -360.48882304 </i>
   </energy>
  </scstep>
  <scstep>
   <time name="diag">    0.08    0.08</time>
   <time name="diis">    0.61    0.62</time>
   <time name="orth">    0.01    0.01</time>
   <time name="total">    0.77    0.81</time>
   <energy>
    <i name="e_fr_energy">   -360.48221344 </i>
    <i name="e_wo_entrp">   -360.50213997 </i>
    <i name="e_0_energy">   -360.48885562 </i>
   </energy>
  </scstep>
  <scstep>
   <time name="diag">    0.08    0.08</time>
   <time name="diis">    0.46    0.46</time>
   <time name="orth">    0.01    0.01</time>
   <time name="total">    0.62    0.64</time>
   <energy>
    <i name="e_fr_energy">   -360.48222587 </i>
    <i name="e_wo_entrp">   -360.50215964 </i>
    <i name="e_0_energy">   -360.48887046 </i>
   </energy>
  </scstep>
  <scstep>
   <time name="diag">    0.08    0.09</time>
   <time name="diis">    0.46    0.46</time>
   <time name="orth">    0.01    0.01</time>
   <time name="total">    0.59    0.61</time>
   <energy>
    <i name="alphaZ">   1508.37979322 </i>
    <i name="ewald"> -19297.38785305 </i>
    <i name="hartreedc">  -7392.16763840 </i>
    <i name="XCdc">   -207.46919129 </i>
    <i name="pawpsdc">  34216.49352417 </i>
    <i name="pawaedc"> -32635.16945729 </i>
    <i name="eentropy">      0.01993406 </i>
    <i name="bandstr">  -2702.64448149 </i>
    <i name="atom">  26149.46313945 </i>
    <i name="e_fr_energy">   -360.48223061 </i>
    <i name="e_wo_entrp">   -360.50216468 </i>
    <i name="e_0_energy">   -360.48887530 </i>
   </energy>
  </scstep>
  <structure>
   <crystal>
    <varray name="basis" >
     <v>       6.95472160      -0.00388066      -0.03561520 </v>
     <v>      -0.00536200      10.30873941       0.00555759 </v>
     <v>      -0.05262076       0.00669242      10.19725896 </v>
    </varray>
    <i name="volume">    731.06670345 </i>
    <varray name="rec_basis" >
     <v>       0.14379105       0.00007439       0.00074195 </v>
     <v>       0.00005380       0.09700513      -0.00006339 </v>
     <v>       0.00050218      -0.00005261       0.09806819 </v>
    </varray>
   </crystal>
   <varray name="positions" >
    <v>       0.48735600       0.31617260       0.32662896 </v>
    <v>       0.74123638       0.49538007       0.49492045 </v>
    <v>       0.01984611       0.99978547       0.99566725 </v>
    <v>       0.49839949       0.00050582       0.32741121 </v>
    <v>       0.25872289       0.83276670       0.50238377 </v>
    <v>       0.02554729       0.67321336       0.00097731 </v>
    <v>       0.00488661       0.32791433       0.66688359 </v>
    <v>       0.25864298       0.50114113       0.50505243 </v>
    <v>       0.47536082       0.33271085       0.00069692 </v>
    <v>       0.76629134       0.49299835       0.16615756 </v>
    <v>       0.26759344       0.81896969       0.80743349 </v>
    <v>       0.74855017       0.49592170       0.83879236 </v>
    <v>       0.22478365       0.49633652       0.18716201 </v>
    <v>       0.97587526       0.68667508       0.33447408 </v>
    <v>       0.48137622       0.66654843       0.01849604 </v>
    <v>       0.51800508       0.01873710       0.66806413 </v>
    <v>       0.98648385       0.00755899       0.66556745 </v>
    <v>       0.74060000       0.82617907       0.84070273 </v>
    <v>       0.48099430       0.00663060       0.99923220 </v>
    <v>       0.75165883       0.84205187       0.15666661 </v>
    <v>       0.24070717       0.15742644       0.49749706 </v>
    <v>       0.00505806       0.31530253       0.34696418 </v>
    <v>       0.26372441       0.50638581       0.81751795 </v>
    <v>       0.51607265       0.67841017       0.32037316 </v>
    <v>       0.53050145       0.66114519       0.66105367 </v>
    <v>       0.98026512       0.66300315       0.66684083 </v>
    <v>       0.99530973       0.99491888       0.33706832 </v>
    <v>       0.75803990       0.16943050       0.49103821 </v>
    <v>       0.21763108       0.16957414       0.17231247 </v>
    <v>       0.75365962       0.18504066       0.84478321 </v>
    <v>       0.24797651       0.17738886       0.82869585 </v>
    <v>       0.02338040       0.33218169       0.98879738 </v>
    <v>       0.74190415       0.82942139       0.50308150 </v>
    <v>       0.24661044       0.83571097       0.18499247 </v>
    <v>       0.49610182       0.32179061       0.67552640 </v>
    <v>       0.77084980       0.16468727       0.16008775 </v>
   </varray>
  </structure>
  <varray name="forces" >
   <v>       0.34802866      -0.13647716      -0.18814331 </v>
   <v>      -0.00570621      -0.02523186       0.01349737 </v>
   <v>      -0.29252063       0.22091569       0.22430374 </v>
   <v>       0.21509432       0.14882019      -0.13962312 </v>
   <v>      -0.00487948       0.03317200      -0.01517537 </v>
   <v>       0.00800134      -0.01901946       0.01317617 </v>
   <v>       0.00275485       0.00776693       0.00298582 </v>
   <v>      -0.00560198      -0.02064720      -0.01709915 </v>
   <v>       0.27032500      -0.13636478       0.13004662 </v>
   <v>      -0.00718520      -0.10733943       0.00262291 </v>
   <v>      -0.00857940       0.00341972      -0.00812058 </v>
   <v>       0.01381200      -0.01111307      -0.01053392 </v>
   <v>       0.03134123       0.02252710       0.00465266 </v>
   <v>       0.01070535      -0.01366943       0.00076835 </v>
   <v>       0.02121011      -0.01610796      -0.00247753 </v>
   <v>       0.02463986      -0.00948764      -0.00889038 </v>
   <v>      -0.00517282      -0.00852103       0.01973656 </v>
   <v>      -0.00120222      -0.01770916      -0.02003187 </v>
   <v>       0.25428025       0.19784005       0.21246880 </v>
   <v>      -0.03686254       0.03713050      -0.03008194 </v>
   <v>       0.01442401      -0.02919607       0.00107696 </v>
   <v>      -0.32626681      -0.18360201      -0.40338848 </v>
   <v>      -0.00268115      -0.00315770      -0.00033610 </v>
   <v>       0.00193604      -0.01297391      -0.01529948 </v>
   <v>      -0.02225300       0.00931555      -0.00417377 </v>
   <v>       0.03224795      -0.00344236       0.01147140 </v>
   <v>      -0.21351848       0.24412005      -0.24715238 </v>
   <v>      -0.05099099       0.01822182       0.01287790 </v>
   <v>      -0.06115444      -0.00927664       0.02004369 </v>
   <v>      -0.02208073       0.01486292       0.07034175 </v>
   <v>      -0.00370557       0.02490781      -0.02979935 </v>
   <v>      -0.27552588      -0.14247983       0.25012886 </v>
   <v>       0.02175218       0.03270952      -0.01908369 </v>
   <v>       0.00953057       0.01942904       0.01558818 </v>
   <v>       0.02382244       0.00284834      -0.00609528 </v>
   <v>       0.04198138      -0.13219053       0.15971793 </v>
  </varray>
  <varray name="stress" >
   <v>      -3.42026769       0.34884433      -0.36406486 </v>
   <v>       0.34884431      -1.62078906      -0.06447950 </v>
   <v>      -0.36406488      -0.06447953      -1.77525714 </v>
  </varray>
  <energy>
   <i name="e_fr_energy">   -360.48223061 </i>
   <i name="e_wo_entrp">   -360.48887530 </i>
   <i name="e_0_energy">      0.01993406 </i>
  </energy>
  <time name="totalsc">   13.73   14.47</time>
 </calculation>
 <calculation>
  <scstep>
   <time name="dav">    1.12    1.12</time>
   <time name="total">    1.25    1.36</time>
   <energy>
    <i name="alphaZ">   1520.65100153 </i>
    <i name="ewald"> -19338.38415928 </i>
    <i name="hartreedc">  -7423.05707591 </i>
    <i name="XCdc">   -205.03112113 </i>
    <i name="pawpsdc">  34216.71266602 </i>
    <i name="pawaedc"> -32635.38595371 </i>
    <i name="eentropy">      0.01778613 </i>
    <i name="bandstr">  -2645.62906515 </i>
    <i name="atom">  26149.46313945 </i>
    <i name="e_fr_energy">   -360.64278205 </i>
    <i name="e_wo_entrp">   -360.66056819 </i>
    <i name="e_0_energy">   -360.64871076 </i>
   </energy>
  </scstep>
  <scstep>
   <time name="diag">    0.08    0.08</time>
   <time name="diis">    0.79    0.79</time>
   <time name="orth">    0.01    0.01</time>
   <time name="total">    0.95    0.98</time>
   <energy>
    <i name="e_fr_energy">   -360.57542864 </i>
    <i name="e_wo_entrp">   -360.59429984 </i>
    <i name="e_0_energy">   -360.58171904 </i>
   </energy>
  </scstep>
  <scstep>
   <time name="diag">    0.08    0.08</time>
   <time name="diis">    0.72    0.86</time>
   <time name="orth">    0.01    0.01</time>
   <time name="total">    0.88    1.04</time>
   <energy>
    <i name="e_fr_energy">   -360.52765336 </i>
    <i name="e_wo_entrp">   -360.54481372 </i>
    <i name="e_0_energy">   -360.53337348 </i>
   </energy>
  </scstep>
  <scstep>
   <time name="diag">    0.08    0.08</time>
   <time name="diis">    0.81    0.81</time>
   <time name="orth">    0.01    0.01</time>
   <time name="total">    0.98    1.00</time>
   <energy>
    <i name="e_fr_energy">   -360.50862390 </i>
    <i name="e_wo_entrp">   -360.52617009 </i>
    <i name="e_0_energy">   -360.51447263 </i>
   </energy>
  </scstep>
  <scstep>
   <time name="diag">    0.08    0.08</time>
   <time name="diis">    0.81    0.82</time>
   <time name="orth">    0.01    0.01</time>
   <time name="total">    0.99    1.00</time>
   <energy>
    <i name="e_fr_energy">   -360.50350785 </i>
    <i name="e_wo_entrp">   -360.52183581 </i>
    <i name="e_0_energy">   -360.50961717 </i>
   </energy>
  </scstep>
  <scstep>
   <time name="diag">    0.08    0.08</time>
   <time name="diis">    0.80    0.88</time>
   <time name="orth">    0.01    0.03</time>
   <time name="total">    1.00    1.12</time>
   <energy>
    <i name="e_fr_energy">   -360.50418159 </i>
    <i name="e_wo_entrp">   -360.52178705 </i>
    <i name="e_0_energy">   -360.51005008 </i>
   </energy>
  </scstep>
  <scstep>
   <time name="diag">    0.08    0.14</time>
   <time name="diis">    0.88    0.89</time>
   <time name="orth">    0.01    0.01</time>
   <time name="total">    1.05    1.14</time>
   <energy>
    <i name="e_fr_energy">   -360.50432479 </i>
    <i name="e_wo_entrp">   -360.52228633 </i>
    <i name="e_0_energy">   -360.51031197 </i>
   </energy>
  </scstep>
  <scstep>
   <time name="diag">    0.11    0.11</time>
   <time name="diis">    0.88    0.89</time>
   <time name="orth">    0.01    0.01</time>
   <time name="total">    1.09    1.12</time>
   <energy>
    <i name="e_fr_energy">   -360.50457828 </i>
    <i name="e_wo_entrp">   -360.52256030 </i>
    <i name="e_0_energy">   -360.51057229 </i>
   </energy>
  </scstep>
  <scstep>
   <time name="diag">    0.08    0.08</time>
   <time name="diis">    0.77    0.77</time>
   <time name="orth">    0.01    0.01</time>
   <time name="total">    0.92    0.94</time>
   <energy>
    <i name="e_fr_energy">   -360.50481115 </i>
    <i name="e_wo_entrp">   -360.52277466 </i>
    <i name="e_0_energy">   -360.51079899 </i>
   </energy>
  </scstep>
  <scstep>
   <time name="diag">    0.08    0.08</time>
   <time name="diis">    0.73    0.74</time>
   <time name="orth">    0.01    0.01</time>
   <time name="total">    0.89    0.91</time>
   <energy>
    <i name="e_fr_energy">   -360.50496610 </i>
    <i name="e_wo_entrp">   -360.52289893 </i>
    <i name="e_0_energy">   -360.51094371 </i>
   </energy>
  </scstep>
  <scstep>
   <time name="diag">    0.09    0.09</time>
   <time name="diis">    0.60    0.60</time>
   <time name="orth">    0.01    0.01</time>
   <time name="total">    0.76    0.78</time>
   <energy>
    <i name="e_fr_energy">   -360.50504252 </i>
    <i name="e_wo_entrp">   -360.52298517 </i>
    <i name="e_0_energy">   -360.51102340 </i>
   </energy>
  </scstep>
  <scstep>
   <time name="diag">    0.08    0.08</time>
   <time name="diis">    0.58    0.58</time>
   <time name="orth">    0.01    0.01</time>
   <time name="total">    0.75    0.77</time>
   <energy>
    <i name="e_fr_energy">   -360.50507212 </i>
    <i name="e_wo_entrp">   -360.52302495 </i>
    <i name="e_0_energy">   -360.51105640 </i>
   </energy>
  </scstep>
  <scstep>
   <time name="diag">    0.08    0.08</time>
   <time name="diis">    0.46    0.58</time>
   <time name="orth">    0.01    0.03</time>
   <time name="total">    0.61    0.76</time>
   <energy>
    <i name="alphaZ">   1520.65100153 </i>
    <i name="ewald"> -19338.38415928 </i>
    <i name="hartreedc">  -7389.58187743 </i>
    <i name="XCdc">   -206.49583452 </i>
    <i name="pawpsdc">  34573.41042212 </i>
    <i name="pawaedc"> -32991.35373801 </i>
    <i name="eentropy">      0.01795231 </i>
    <i name="bandstr">  -2678.23198640 </i>
    <i name="atom">  26149.46313945 </i>
    <i name="e_fr_energy">   -360.50508022 </i>
    <i name="e_wo_entrp">   -360.52303254 </i>
    <i name="e_0_energy">   -360.51106433 </i>
   </energy>
  </scstep>
  <structure>
   <crystal>
    <varray name="basis" >
     <v>       6.93338590      -0.00299798      -0.03630007 </v>
     <v>      -0.00405484      10.28298034       0.00502420 </v>
     <v>      -0.05359476       0.00615477      10.17152245 </v>
    </varray>
    <i name="volume">    725.16720922 </i>
    <varray name="rec_basis" >
     <v>       0.14423368       0.00005650       0.00075995 </v>
     <v>       0.00004174       0.09724812      -0.00005862 </v>
     <v>       0.00051472      -0.00004783       0.09831644 </v>
    </varray>
   </crystal>
   <varray name="positions" >
    <v>       0.48867977       0.31577501       0.32613672 </v>
    <v>       0.74121148       0.49533932       0.49497061 </v>
    <v>       0.01874741       0.00039777       0.99628417 </v>
    <v>       0.49925719       0.00092101       0.32701309 </v>
    <v>       0.25870907       0.83281387       0.50238168 </v>
    <v>       0.02557675       0.67317139       0.00103064 </v>
    <v>       0.00490127       0.32791488       0.66689651 </v>
    <v>       0.25863955       0.50112091       0.50505487 </v>
    <v>       0.47638791       0.33234609       0.00103916 </v>
    <v>       0.76626470       0.49270942       0.16617384 </v>
    <v>       0.26758398       0.81892316       0.80734407 </v>
    <v>       0.74858283       0.49589735       0.83874189 </v>
    <v>       0.22484950       0.49640554       0.18717056 </v>
    <v>       0.97587910       0.68667012       0.33446058 </v>
    <v>       0.48145497       0.66651681       0.01851484 </v>
    <v>       0.51811254       0.01874577       0.66802689 </v>
    <v>       0.98644954       0.00756409       0.66559888 </v>
    <v>       0.74057614       0.82611447       0.84063244 </v>
    <v>       0.48200000       0.00715616       0.99982531 </v>
    <v>       0.75150007       0.84215554       0.15660975 </v>
    <v>       0.24071770       0.15732671       0.49750908 </v>
    <v>       0.00382465       0.31476528       0.34588972 </v>
    <v>       0.26371487       0.50639739       0.81747870 </v>
    <v>       0.51612828       0.67840536       0.32029680 </v>
    <v>       0.53050391       0.66117277       0.66105650 </v>
    <v>       0.98031985       0.66299490       0.66688654 </v>
    <v>       0.99445727       0.99560164       0.33637906 </v>
    <v>       0.75789490       0.16948244       0.49104879 </v>
    <v>       0.21726322       0.16956248       0.17238819 </v>
    <v>       0.75357209       0.18509970       0.84500158 </v>
    <v>       0.24796203       0.17745674       0.82858830 </v>
    <v>       0.02236407       0.33177588       0.98942303 </v>
    <v>       0.74198276       0.82946975       0.50303977 </v>
    <v>       0.24664696       0.83574327       0.18505629 </v>
    <v>       0.49619181       0.32176950       0.67554581 </v>
    <v>       0.77109487       0.16433349       0.16050631 </v>
   </varray>
  </structure>
  <varray name="forces" >
   <v>       0.29856417      -0.08299004      -0.15484525 </v>
   <v>      -0.00328126      -0.03881321       0.00134496 </v>
   <v>      -0.25655074       0.15856986       0.16518164 </v>
   <v>       0.16333440       0.10399387      -0.09168378 </v>
   <v>      -0.00701821       0.05642938      -0.03986273 </v>
   <v>       0.00778641      -0.02082157      -0.00214619 </v>
   <v>       0.00121703       0.01990117      -0.00016300 </v>
   <v>      -0.01368958      -0.04111769      -0.04871299 </v>
   <v>       0.23622407      -0.10816950       0.11219688 </v>
   <v>      -0.00778084      -0.08112881      -0.00565019 </v>
   <v>      -0.01916102       0.04303220       0.04234513 </v>
   <v>       0.02222969      -0.01142737       0.00737725 </v>
   <v>       0.05383537       0.01193603       0.00644917 </v>
   <v>       0.02753366      -0.03354823       0.01210839 </v>
   <v>       0.01892502      -0.02130479      -0.02064590 </v>
   <v>       0.01440068      -0.03321839       0.00253401 </v>
   <v>       0.00420137      -0.02684849       0.03105059 </v>
   <v>       0.00826423      -0.00182758      -0.00463251 </v>
   <v>       0.20449766       0.15894354       0.15644472 </v>
   <v>      -0.02407085       0.02421334      -0.04158087 </v>
   <v>       0.03473142      -0.00736479      -0.00534374 </v>
   <v>      -0.28907899      -0.10952440      -0.33172887 </v>
   <v>      -0.00359546      -0.01753889       0.02822745 </v>
   <v>      -0.02269136      -0.03147553       0.01403068 </v>
   <v>      -0.06251917       0.00463924      -0.01336339 </v>
   <v>       0.06201361      -0.00286898      -0.00229113 </v>
   <v>      -0.16591517       0.16866187      -0.18081768 </v>
   <v>      -0.06794227       0.01271569       0.02867237 </v>
   <v>       0.01606672      -0.01765557      -0.00221123 </v>
   <v>      -0.01617403      -0.00190355       0.03327068 </v>
   <v>      -0.00394670       0.01851273      -0.00414468 </v>
   <v>      -0.25211535      -0.09545284       0.22919881 </v>
   <v>       0.02060774       0.05343239      -0.02197864 </v>
   <v>       0.00776487       0.02992357      -0.00242020 </v>
   <v>       0.02044714       0.02322374      -0.03019985 </v>
   <v>      -0.00711426      -0.10312838       0.13399012 </v>
  </varray>
  <varray name="stress" >
   <v>       7.80752344       0.25972873      -0.37837398 </v>
   <v>       0.25972870       9.56932919       0.09995609 </v>
   <v>      -0.37837392       0.09995612       9.31453432 </v>
  </varray>
  <energy>
   <i name="e_fr_energy">   -360.50508022 </i>
   <i name="e_wo_entrp">   -360.51106433 </i>
   <i name="e_0_energy">      0.01795231 </i>
  </energy>
  <time name="totalsc">   13.78   14.65</time>
 </calculation>
 <calculation>
  <scstep>
   <time name="dav">    0.94    0.94</time>
   <time name="total">    1.12    1.18</time>
   <energy>
    <i name="alphaZ">   1518.89331331 </i>
    <i name="ewald"> -19321.30134022 </i>
    <i name="hartreedc">  -7396.13111862 </i>
    <i name="XCdc">   -206.82651086 </i>
    <i name="pawpsdc">  34573.53094549 </i>
    <i name="pawaedc"> -32991.45612725 </i>
    <i name="eentropy">      0.01656362 </i>
    <i name="bandstr">  -2686.72236457 </i>
    <i name="atom">  26149.46313945 </i>
    <i name="e_fr_energy">   -360.53349965 </i>
    <i name="e_wo_entrp">   -360.55006327 </i>
    <i name="e_0_energy">   -360.53902086 </i>
   </energy>
  </scstep>
  <scstep>
   <time name="diag">    0.08    0.08</time>
   <time name="diis">    0.85    0.86</time>
   <time name="orth">    0.01    0.01</time>
   <time name="total">    1.01    1.03</time>
   <energy>
    <i name="e_fr_energy">   -360.54783378 </i>
    <i name="e_wo_entrp">   -360.56566554 </i>
    <i name="e_0_energy">   -360.55377770 </i>
   </energy>
  </scstep>
  <scstep>
   <time name="diag">    0.08    0.08</time>
   <time name="diis">    0.77    0.82</time>
   <time name="orth">    0.01    0.01</time>
   <time name="total">    0.93    0.99</time>
   <energy>
    <i name="e_fr_energy">   -360.53566255 </i>
    <i name="e_wo_entrp">   -360.55260594 </i>
    <i name="e_0_energy">   -360.54131035 </i>
   </energy>
  </scstep>
  <scstep>
   <time name="diag">    0.09    0.09</time>
   <time name="diis">    0.81    0.82</time>
   <time name="orth">    0.01    0.01</time>
   <time name="total">    0.98    1.00</time>
   <energy>
    <i name="e_fr_energy">   -360.53523203 </i>
    <i name="e_wo_entrp">   -360.55246975 </i>
    <i name="e_0_energy">   -360.54097794 </i>
   </energy>
  </scstep>
  <scstep>
   <time name="diag">    0.08    0.08</time>
   <time name="diis">    0.80    0.81</time>
   <time name="orth">    0.01    0.01</time>
   <time name="total">    0.97    0.99</time>
   <energy>
    <i name="e_fr_energy">   -360.53486569 </i>
    <i name="e_wo_entrp">   -360.55196918 </i>
    <i name="e_0_energy">   -360.54056686 </i>
   </energy>
  </scstep>
  <scstep>
   <time name="diag">    0.08    0.08</time>
   <time name="diis">    0.82    0.82</time>
   <time name="orth">    0.01    0.01</time>
   <time name="total">    0.98    0.99</time>
   <energy>
    <i name="e_fr_energy">   -360.53484952 </i>
    <i name="e_wo_entrp">   -360.55201969 </i>
    <i name="e_0_energy">   -360.54057291 </i>
   </energy>
  </scstep>
  <scstep>
   <time name="diag">    0.08    0.08</time>
   <time name="diis">    0.75    0.76</time>
   <time name="orth">    0.01    0.01</time>
   <time name="total">    0.91    0.93</time>
   <energy>
    <i name="e_fr_energy">   -360.53481786 </i>
    <i name="e_wo_entrp">   -360.55198626 </i>
    <i name="e_0_energy">   -360.54054066 </i>
   </energy>
  </scstep>
  <scstep>
   <time name="diag">    0.08    0.08</time>
   <time name="diis">    0.61    0.61</time>
   <time name="orth">    0.01    0.01</time>
   <time name="total">    0.73    0.76</time>
   <energy>
    <i name="alphaZ">   1518.89331331 </i>
    <i name="ewald"> -19321.30134022 </i>
    <i name="hartreedc">  -7401.64078909 </i>
    <i name="XCdc">   -206.59963468 </i>
    <i name="pawpsdc">  34519.74957453 </i>
    <i name="pawaedc"> -32937.50657498 </i>
    <i name="eentropy">      0.01716063 </i>
    <i name="bandstr">  -2681.60966370 </i>
    <i name="atom">  26149.46313945 </i>
    <i name="e_fr_energy">   -360.53481475 </i>
    <i name="e_wo_entrp">   -360.55197538 </i>
    <i name="e_0_energy">   -360.54053496 </i>
   </energy>
  </scstep>
  <structure>
   <crystal>
    <varray name="basis" >
     <v>       6.93350679      -0.00227327      -0.03715215 </v>
     <v>      -0.00297828      10.28914105       0.00497723 </v>
     <v>      -0.05481627       0.00610321      10.17703048 </v>
    </varray>
    <i name="volume">    726.00638460 </i>
    <varray name="rec_basis" >
     <v>       0.14423134       0.00004137       0.00077684 </v>
     <v>       0.00003155       0.09718988      -0.00005812 </v>
     <v>       0.00052651      -0.00004738       0.09826335 </v>
    </varray>
   </crystal>
   <varray name="positions" >
    <v>       0.48991302       0.31547500       0.32569138 </v>
    <v>       0.74119313       0.49526578       0.49499564 </v>
    <v>       0.01770600       0.00090336       0.99680198 </v>
    <v>       0.49999339       0.00125916       0.32670007 </v>
    <v>       0.25868761       0.83291526       0.50232375 </v>
    <v>       0.02560659       0.67312268       0.00105222 </v>
    <v>       0.00491059       0.32794322       0.66690223 </v>
    <v>       0.25860875       0.50105361       0.50498643 </v>
    <v>       0.47735692       0.33202544       0.00135875 </v>
    <v>       0.76623603       0.49246184       0.16617327 </v>
    <v>       0.26754001       0.81896240       0.80736310 </v>
    <v>       0.74864448       0.49587002       0.83872933 </v>
    <v>       0.22499260       0.49645420       0.18718410 </v>
    <v>       0.97593860       0.68662050       0.33447186 </v>
    <v>       0.48153064       0.66647220       0.01849420 </v>
    <v>       0.51819221       0.01870290       0.66801348 </v>
    <v>       0.98644283       0.00752853       0.66565770 </v>
    <v>       0.74058239       0.82608214       0.84059352 </v>
    <v>       0.48289340       0.00762252       0.00032320 </v>
    <v>       0.75137607       0.84223749       0.15652404 </v>
    <v>       0.24079519       0.15727040       0.49750726 </v>
    <v>       0.00264735       0.31436336       0.34491935 </v>
    <v>       0.26370325       0.50637796       0.81750088 </v>
    <v>       0.51610656       0.67835870       0.32028149 </v>
    <v>       0.53037405       0.66119199       0.66103828 </v>
    <v>       0.98047484       0.66298709       0.66690479 </v>
    <v>       0.99371514       0.99615425       0.33580221 </v>
    <v>       0.75768620       0.16952425       0.49109404 </v>
    <v>       0.21712725       0.16953223       0.17242004 </v>
    <v>       0.75349827       0.18512419       0.84514952 </v>
    <v>       0.24794705       0.17751413       0.82853280 </v>
    <v>       0.02137050       0.33145395       0.99003637 </v>
    <v>       0.74206191       0.82956744       0.50298932 </v>
    <v>       0.24668005       0.83580038       0.18508228 </v>
    <v>       0.49627577       0.32179258       0.67551181 </v>
    <v>       0.77119440       0.16402487       0.16089030 </v>
   </varray>
  </structure>
  <varray name="forces" >
   <v>       0.23894063      -0.06331357      -0.13043703 </v>
   <v>      -0.00558717      -0.03063506       0.00225735 </v>
   <v>      -0.21731474       0.11909156       0.12618027 </v>
   <v>       0.11709287       0.06767369      -0.05612778 </v>
   <v>      -0.00834152       0.07100257      -0.06145109 </v>
   <v>       0.01801920      -0.01542596      -0.00617202 </v>
   <v>       0.01293879       0.01194088       0.00388428 </v>
   <v>      -0.01462873      -0.05398291      -0.05887348 </v>
   <v>       0.18513257      -0.09388979       0.08088640 </v>
   <v>       0.00209568      -0.05274077      -0.00794432 </v>
   <v>      -0.01752735       0.04743715       0.06301913 </v>
   <v>       0.02385691      -0.01462207       0.00747593 </v>
   <v>       0.05867389      -0.00517213       0.01057755 </v>
   <v>       0.01859795      -0.01877654       0.01184319 </v>
   <v>       0.00692223      -0.01855220      -0.01665305 </v>
   <v>       0.01251746      -0.02996018       0.00834527 </v>
   <v>       0.00612248      -0.01707080       0.02737784 </v>
   <v>       0.00555046      -0.00728733      -0.00020539 </v>
   <v>       0.15591552       0.13124859       0.11204612 </v>
   <v>      -0.01468804       0.00338150      -0.04406389 </v>
   <v>       0.02551841       0.01260455      -0.02056255 </v>
   <v>      -0.23894077      -0.08967236      -0.25603137 </v>
   <v>       0.00332338      -0.02594520       0.03188028 </v>
   <v>      -0.02319126      -0.01723776       0.01736825 </v>
   <v>      -0.06806764       0.00732002      -0.01832621 </v>
   <v>       0.06123496      -0.00292926      -0.00786527 </v>
   <v>      -0.11727043       0.11242113      -0.12932029 </v>
   <v>      -0.05400859       0.01455378       0.02911533 </v>
   <v>       0.04220481      -0.00904478      -0.00912357 </v>
   <v>      -0.01028838       0.00844160       0.00372733 </v>
   <v>      -0.00134058       0.03605396       0.01442616 </v>
   <v>      -0.20895592      -0.08097739       0.19448411 </v>
   <v>       0.01503642       0.03515130      -0.01797370 </v>
   <v>       0.00768021       0.02521429       0.00388914 </v>
   <v>      -0.00036922       0.02173466      -0.02272421 </v>
   <v>      -0.01685450      -0.07803515       0.11507127 </v>
  </varray>
  <varray name="stress" >
   <v>       6.55061946       0.20545520      -0.34393759 </v>
   <v>       0.20545516       8.15592686       0.16999627 </v>
   <v>      -0.34393764       0.16999633       7.76217988 </v>
  </varray>
  <energy>
   <i name="e_fr_energy">   -360.53481475 </i>
   <i name="e_wo_entrp">   -360.54053496 </i>
   <i name="e_0_energy">      0.01716063 </i>
  </energy>
  <time name="totalsc">    9.38    9.73</time>
 </calculation>
 <calculation>
  <scstep>
   <time name="dav">    0.97    1.03</time>
   <time name="total">    1.13    1.28</time>
   <energy>
    <i name="alphaZ">   1513.63879811 </i>
    <i name="ewald"> -19268.30647051 </i>
    <i name="hartreedc">  -7422.79805920 </i>
    <i name="XCdc">   -207.58400278 </i>
    <i name="pawpsdc">  34520.35464806 </i>
    <i name="pawaedc"> -32938.15669460 </i>
    <i name="eentropy">      0.01302654 </i>
    <i name="bandstr">  -2707.19182896 </i>
    <i name="atom">  26149.46313945 </i>
    <i name="e_fr_energy">   -360.56744389 </i>
    <i name="e_wo_entrp">   -360.58047043 </i>
    <i name="e_0_energy">   -360.57178607 </i>
   </energy>
  </scstep>
  <scstep>
   <time name="diag">    0.08    0.08</time>
   <time name="diis">    0.86    0.87</time>
   <time name="orth">    0.01    0.01</time>
   <time name="total">    1.02    1.05</time>
   <energy>
    <i name="e_fr_energy">   -360.69203231 </i>
    <i name="e_wo_entrp">   -360.70838152 </i>
    <i name="e_0_energy">   -360.69748205 </i>
   </energy>
  </scstep>
  <scstep>
   <time name="diag">    0.08    0.08</time>
   <time name="diis">    0.81    0.82</time>
   <time name="orth">    0.01    0.01</time>
   <time name="total">    0.98    1.00</time>
   <energy>
    <i name="e_fr_energy">   -360.59062289 </i>
    <i name="e_wo_entrp">   -360.60462360 </i>
    <i name="e_0_energy">   -360.59528980 </i>
   </energy>
  </scstep>
  <scstep>
   <time name="diag">    0.08    0.08</time>
   <time name="diis">    0.83    0.84</time>
   <time name="orth">    0.01    0.01</time>
   <time name="total">    0.99    1.06</time>
   <energy>
    <i name="e_fr_energy">   -360.58634617 </i>
    <i name="e_wo_entrp">   -360.60123978 </i>
    <i name="e_0_energy">   -360.59131070 </i>
   </energy>
  </scstep>
  <scstep>
   <time name="diag">    0.09    0.09</time>
   <time name="diis">    0.80    0.81</time>
   <time name="orth">    0.01    0.01</time>
   <time name="total">    0.98    1.03</time>
   <energy>
    <i name="e_fr_energy">   -360.58312856 </i>
    <i name="e_wo_entrp">   -360.59765562 </i>
    <i name="e_0_energy">   -360.58797092 </i>
   </energy>
  </scstep>
  <scstep>
   <time name="diag">    0.11    0.11</time>
   <time name="diis">    0.81    0.82</time>
   <time name="orth">    0.01    0.01</time>
   <time name="total">    1.00    1.01</time>
   <energy>
    <i name="e_fr_energy">   -360.58295715 </i>
    <i name="e_wo_entrp">   -360.59763902 </i>
    <i name="e_0_energy">   -360.58785110 </i>
   </energy>
  </scstep>
  <scstep>
   <time name="diag">    0.08    0.08</time>
   <time name="diis">    0.89    0.89</time>
   <time name="orth">    0.01    0.01</time>
   <time name="total">    1.05    1.07</time>
   <energy>
    <i name="e_fr_energy">   -360.58276346 </i>
    <i name="e_wo_entrp">   -360.59746948 </i>
    <i name="e_0_energy">   -360.58766546 </i>
   </energy>
  </scstep>
  <scstep>
   <time name="diag">    0.08    0.08</time>
   <time name="diis">    0.92    0.92</time>
   <time name="orth">    0.02    0.02</time>
   <time name="total">    1.11    1.13</time>
   <energy>
    <i name="e_fr_energy">   -360.58279903 </i>
    <i name="e_wo_entrp">   -360.59748308 </i>
    <i name="e_0_energy">   -360.58769372 </i>
   </energy>
  </scstep>
  <scstep>
   <time name="diag">    0.09    0.09</time>
   <time name="diis">    0.77    0.78</time>
   <time name="orth">    0.01    0.01</time>
   <time name="total">    0.96    0.98</time>
   <energy>
    <i name="e_fr_energy">   -360.58281780 </i>
    <i name="e_wo_entrp">   -360.59742733 </i>
    <i name="e_0_energy">   -360.58768764 </i>
   </energy>
  </scstep>
  <scstep>
   <time name="diag">    0.08    0.08</time>
   <time name="diis">    0.69    0.70</time>
   <time name="orth">    0.01    0.01</time>
   <time name="total">    0.85    0.87</time>
   <energy>
    <i name="e_fr_energy">   -360.58282142 </i>
    <i name="e_wo_entrp">   -360.59753496 </i>
    <i name="e_0_energy">   -360.58772594 </i>
   </energy>
  </scstep>
  <scstep>
   <time name="diag">    0.08    0.08</time>
   <time name="diis">    0.61    0.61</time>
   <time name="orth">    0.01    0.01</time>
   <time name="total">    0.77    0.78</time>
   <energy>
    <i name="e_fr_energy">   -360.58282409 </i>
    <i name="e_wo_entrp">   -360.59747759 </i>
    <i name="e_0_energy">   -360.58770859 </i>
   </energy>
  </scstep>
  <scstep>
   <time name="diag">    0.09    0.09</time>
   <time name="diis">    0.49    0.49</time>
   <time name="orth">    0.01    0.01</time>
   <time name="total">    0.64    0.65</time>
   <energy>
    <i name="alphaZ">   1513.63879811 </i>
    <i name="ewald"> -19268.30647051 </i>
    <i name="hartreedc">  -7438.82458902 </i>
    <i name="XCdc">   -206.92907784 </i>
    <i name="pawpsdc">  34363.74415758 </i>
    <i name="pawaedc"> -32781.85642153 </i>
    <i name="eentropy">      0.01467670 </i>
    <i name="bandstr">  -2691.52703425 </i>
    <i name="atom">  26149.46313945 </i>
    <i name="e_fr_energy">   -360.58282132 </i>
    <i name="e_wo_entrp">   -360.59749802 </i>
    <i name="e_0_energy">   -360.58771355 </i>
   </energy>
  </scstep>
  <structure>
   <crystal>
    <varray name="basis" >
     <v>       6.93386947      -0.00009913      -0.03970839 </v>
     <v>       0.00025139      10.30762316       0.00483631 </v>
     <v>      -0.05848079       0.00594854      10.19355456 </v>
    </varray>
    <i name="volume">    728.52667648 </i>
    <varray name="rec_basis" >
     <v>       0.14422436      -0.00000391       0.00082742 </v>
     <v>       0.00000106       0.09701560      -0.00005661 </v>
     <v>       0.00056182      -0.00004604       0.09810446 </v>
    </varray>
   </crystal>
   <varray name="positions" >
    <v>       0.49361260       0.31457522       0.32435639 </v>
    <v>       0.74113811       0.49504528       0.49507068 </v>
    <v>       0.01458186       0.00241945       0.99835430 </v>
    <v>       0.50220161       0.00227284       0.32576171 </v>
    <v>       0.25862316       0.83321924       0.50215008 </v>
    <v>       0.02569615       0.67297664       0.00111692 </v>
    <v>       0.00493855       0.32802817       0.66691937 </v>
    <v>       0.25851634       0.50085184       0.50478121 </v>
    <v>       0.48026421       0.33106384       0.00231724 </v>
    <v>       0.76615015       0.49171954       0.16617155 </v>
    <v>       0.26740811       0.81908006       0.80742016 </v>
    <v>       0.74882942       0.49578804       0.83869170 </v>
    <v>       0.22542186       0.49660007       0.18722472 </v>
    <v>       0.97611713       0.68647172       0.33450571 </v>
    <v>       0.48175764       0.66633845       0.01843236 </v>
    <v>       0.51843123       0.01857433       0.66797330 </v>
    <v>       0.98642277       0.00742193       0.66583406 </v>
    <v>       0.74060112       0.82598520       0.84047679 </v>
    <v>       0.48557359       0.00902057       0.00181627 </v>
    <v>       0.75100398       0.84248323       0.15626700 </v>
    <v>       0.24102766       0.15710155       0.49750182 </v>
    <v>      -0.00088482       0.31315857       0.34200953 </v>
    <v>       0.26366839       0.50631969       0.81756735 </v>
    <v>       0.51604140       0.67821880       0.32023558 </v>
    <v>       0.52998449       0.66124966       0.66098360 </v>
    <v>       0.98093980       0.66296363       0.66695957 </v>
    <v>       0.99148823       0.99781121       0.33407241 </v>
    <v>       0.75706010       0.16964966       0.49122968 </v>
    <v>       0.21671937       0.16944154       0.17251549 </v>
    <v>       0.75327689       0.18519761       0.84559309 </v>
    <v>       0.24790206       0.17768622       0.82836638 </v>
    <v>       0.01839030       0.33048896       0.99187513 </v>
    <v>       0.74229931       0.82986034       0.50283805 </v>
    <v>       0.24677929       0.83597161       0.18516022 </v>
    <v>       0.49652762       0.32186176       0.67540989 </v>
    <v>       0.77149332       0.16309954       0.16204167 </v>
   </varray>
  </structure>
  <varray name="forces" >
   <v>       0.06558326      -0.00096382      -0.05786493 </v>
   <v>      -0.01167056      -0.00376268       0.00495551 </v>
   <v>      -0.10465160      -0.00192595       0.00997043 </v>
   <v>      -0.02272196      -0.04268597       0.05397425 </v>
   <v>      -0.01181069       0.11190920      -0.12014995 </v>
   <v>       0.04836502       0.00112233      -0.02208160 </v>
   <v>       0.05015403      -0.01129899       0.01791274 </v>
   <v>      -0.01693223      -0.08518478      -0.08543591 </v>
   <v>       0.04237623      -0.05235545      -0.01038644 </v>
   <v>       0.02487370       0.03819350      -0.01502663 </v>
   <v>      -0.01206443       0.05564207       0.11938916 </v>
   <v>       0.02731090      -0.01875845       0.00934602 </v>
   <v>       0.07541055      -0.05366474       0.02122283 </v>
   <v>      -0.00780624       0.02394179       0.01318925 </v>
   <v>      -0.02804323      -0.00903750      -0.00770735 </v>
   <v>       0.00646584      -0.02577724       0.02371990 </v>
   <v>       0.01366595       0.00792198       0.01502896 </v>
   <v>      -0.00270995      -0.02239024       0.01391261 </v>
   <v>       0.02604341       0.04565583      -0.01731286 </v>
   <v>       0.01003979      -0.06183072      -0.04927902 </v>
   <v>       0.00180141       0.06627684      -0.05921751 </v>
   <v>      -0.09391810      -0.02599194      -0.03511894 </v>
   <v>       0.02393125      -0.04239204       0.03977688 </v>
   <v>      -0.02399667       0.02614802       0.02697502 </v>
   <v>      -0.09096520       0.02020397      -0.02987511 </v>
   <v>       0.06375365      -0.00026025      -0.02537630 </v>
   <v>       0.02964492      -0.05870921       0.02474877 </v>
   <v>      -0.01494682       0.01882146       0.03266285 </v>
   <v>       0.12626136       0.01453130      -0.03050608 </v>
   <v>       0.00805696       0.03449321      -0.08979949 </v>
   <v>       0.00589196       0.08571244       0.06599565 </v>
   <v>      -0.09081894      -0.04180555       0.09250819 </v>
   <v>      -0.00129353      -0.01933359      -0.00355220 </v>
   <v>       0.00900316       0.01167359       0.02110237 </v>
   <v>      -0.06408184       0.01594377      -0.00066555 </v>
   <v>      -0.06020138      -0.00006220       0.05296450 </v>
  </varray>
  <varray name="stress" >
   <v>       2.19971042       0.05812076      -0.11647988 </v>
   <v>       0.05812078       3.15319317       0.33567037 </v>
   <v>      -0.11647984       0.33567035       2.46849490 </v>
  </varray>
  <energy>
   <i name="e_fr_energy">   -360.58282132 </i>
   <i name="e_wo_entrp">   -360.58771355 </i>
   <i name="e_0_energy">      0.01467670 </i>
  </energy>
  <time name="totalsc">   13.06   13.73</time>
 </calculation>
 <calculation>
  <scstep>
   <time name="dav">    1.06    1.07</time>
   <time name="total">    1.20    1.26</time>
   <energy>
    <i name="alphaZ">   1512.18864869 </i>
    <i name="ewald"> -19253.17566166 </i>
    <i name="hartreedc">  -7445.06825878 </i>
    <i name="XCdc">   -207.19976243 </i>
    <i name="pawpsdc">  34363.27627977 </i>
    <i name="pawaedc"> -32781.41659181 </i>
    <i name="eentropy">      0.01354187 </i>
    <i name="bandstr">  -2698.66584736 </i>
    <i name="atom">  26149.46313945 </i>
    <i name="e_fr_energy">   -360.58451226 </i>
    <i name="e_wo_entrp">   -360.59805413 </i>
    <i name="e_0_energy">   -360.58902622 </i>
   </energy>
  </scstep>
  <scstep>
   <time name="diag">    0.08    0.08</time>
   <time name="diis">    0.79    0.79</time>
   <time name="orth">    0.01    0.01</time>
   <time name="total">    0.95    0.97</time>
   <energy>
    <i name="e_fr_energy">   -360.59391147 </i>
    <i name="e_wo_entrp">   -360.60846640 </i>
    <i name="e_0_energy">   -360.59876311 </i>
   </energy>
  </scstep>
  <scstep>
   <time name="diag">    0.08    0.08</time>
   <time name="diis">    0.79    0.80</time>
   <time name="orth">    0.01    0.01</time>
   <time name="total">    0.96    0.98</time>
   <energy>
    <i name="e_fr_energy">   -360.58589874 </i>
    <i name="e_wo_entrp">   -360.59970334 </i>
    <i name="e_0_energy">   -360.59050027 </i>
   </energy>
  </scstep>
  <scstep>
   <time name="diag">    0.08    0.08</time>
   <time name="diis">    0.82    0.82</time>
   <time name="orth">    0.01    0.01</time>
   <time name="total">    0.98    1.00</time>
   <energy>
    <i name="e_fr_energy">   -360.58561645 </i>
    <i name="e_wo_entrp">   -360.59967511 </i>
    <i name="e_0_energy">   -360.59030267 </i>
   </energy>
  </scstep>
  <scstep>
   <time name="diag">    0.08    0.08</time>
   <time name="diis">    0.72    0.87</time>
   <time name="orth">    0.01    0.01</time>
   <time name="total">    0.90    1.07</time>
   <energy>
    <i name="e_fr_energy">   -360.58536733 </i>
    <i name="e_wo_entrp">   -360.59933084 </i>
    <i name="e_0_energy">   -360.59002183 </i>
   </energy>
  </scstep>
  <scstep>
   <time name="diag">    0.08    0.08</time>
   <time name="diis">    0.82    0.82</time>
   <time name="orth">    0.01    0.01</time>
   <time name="total">    0.98    1.00</time>
   <energy>
    <i name="e_fr_energy">   -360.58536191 </i>
    <i name="e_wo_entrp">   -360.59935518 </i>
    <i name="e_0_energy">   -360.59002633 </i>
   </energy>
  </scstep>
  <scstep>
[...]
       <r>    6.9061    1.0000 </r>
       <r>    6.9513    1.0000 </r>
       <r>    6.9884    1.0000 </r>
       <r>    7.0130    1.0000 </r>
       <r>    7.0509    1.0000 </r>
       <r>    7.1246    1.0004 </r>
       <r>    7.1351    1.0005 </r>
       <r>    7.1777    1.0019 </r>
       <r>    7.2017    1.0036 </r>
       <r>    7.2587    1.0128 </r>
       <r>    7.2893    1.0213 </r>
       <r>    7.3247    1.0317 </r>
       <r>    7.3460    1.0353 </r>
       <r>    7.3714    1.0322 </r>
       <r>    7.3939    1.0180 </r>
       <r>    7.4138    0.9923 </r>
       <r>    7.4437    0.9246 </r>
       <r>    7.4845    0.7687 </r>
       <r>    7.5376    0.4864 </r>
       <r>    7.5460    0.4393 </r>
       <r>    7.5734    0.2918 </r>
       <r>    7.6060    0.1458 </r>
       <r>    7.6212    0.0923 </r>
       <r>    7.6689   -0.0099 </r>
       <r>    7.7469   -0.0314 </r>
       <r>    7.7784   -0.0221 </r>
       <r>    7.8115   -0.0129 </r>
       <r>    7.8408   -0.0071 </r>
       <r>    7.8968   -0.0017 </r>
       <r>    7.9255   -0.0007 </r>
       <r>    7.9440   -0.0004 </r>
       <r>    7.9829   -0.0001 </r>
       <r>    8.0109   -0.0000 </r>
       <r>    8.0545   -0.0000 </r>
       <r>    8.0948   -0.0000 </r>
       <r>    8.1891   -0.0000 </r>
       <r>    8.2580   -0.0000 </r>
       <r>    8.3346   -0.0000 </r>
       <r>    8.4113   -0.0000 </r>
       <r>    8.4638   -0.0000 </r>
       <r>    8.5366   -0.0000 </r>
       <r>    8.7113   -0.0000 </r>
       <r>    8.8321   -0.0000 </r>
       <r>    8.9082   -0.0000 </r>
       <r>    9.4451   -0.0000 </r>
       <r>    9.4933   -0.0000 </r>
       <r>    9.5419   -0.0000 </r>
       <r>    9.5983   -0.0000 </r>
       <r>    9.6353   -0.0000 </r>
      </set>
     </set>
    </set>
   </array>
  </eigenvalues>
  <separator name="orbital magnetization" >
   <v name="MAGDIPOLOUT">      0.00000000      0.00000000      0.00000000</v>
  </separator>
  <dos>
   <i name="efermi">      7.53521114 </i>
   <total>
    <array>
     <dimension dim="1">gridpoints</dimension>
     <dimension dim="2">spin</dimension>
     <field>energy</field>
     <field>total</field>
     <field>integrated</field>
     <set>
      <set comment="spin 1">
       <r>   -49.5818     0.0000     0.0000 </r>
       <r>   -49.3747     0.0000     0.0000 </r>
       <r>   -49.1676     0.0000     0.0000 </r>
       <r>   -48.9605     0.0000     0.0000 </r>
       <r>   -48.7533     0.0000     0.0000 </r>
       <r>   -48.5462     0.0000     0.0000 </r>
       <r>   -48.3391     0.0000     0.0000 </r>
       <r>   -48.1320    -0.0000    -0.0000 </r>
       <r>   -47.9249    -0.0000    -0.0000 </r>
       <r>   -47.7178    -0.0000    -0.0000 </r>
       <r>   -47.5107    -0.0000    -0.0000 </r>
       <r>   -47.3036    -0.0000    -0.0000 </r>
       <r>   -47.0965    -0.0495    -0.0103 </r>
       <r>   -46.8894    -1.1810    -0.2548 </r>
       <r>   -46.6823    27.3051     5.4001 </r>
       <r>   -46.4752    55.9202    16.9813 </r>
       <r>   -46.2681     5.4525    18.1105 </r>
       <r>   -46.0610    -0.5310    18.0006 </r>
       <r>   -45.8539    -0.0028    18.0000 </r>
       <r>   -45.6468    -0.0000    18.0000 </r>
       <r>   -45.4397    -0.0000    18.0000 </r>
       <r>   -45.2326     0.0000    18.0000 </r>
       <r>   -45.0255     0.0000    18.0000 </r>
       <r>   -44.8184     0.0000    18.0000 </r>
       <r>   -44.6113     0.0000    18.0000 </r>
       <r>   -44.4042     0.0000    18.0000 </r>
       <r>   -44.1971     0.0000    18.0000 </r>
       <r>   -43.9900     0.0000    18.0000 </r>
       <r>   -43.7829     0.0000    18.0000 </r>
       <r>   -43.5758     0.0000    18.0000 </r>
       <r>   -43.3687     0.0000    18.0000 </r>
       <r>   -43.1616     0.0000    18.0000 </r>
       <r>   -42.9545     0.0000    18.0000 </r>
       <r>   -42.7474     0.0000    18.0000 </r>
       <r>   -42.5403     0.0000    18.0000 </r>
       <r>   -42.3332     0.0000    18.0000 </r>
       <r>   -42.1261     0.0000    18.0000 </r>
       <r>   -41.9190    -0.0000    18.0000 </r>
       <r>   -41.7119    -0.0000    18.0000 </r>
       <r>   -41.5048    -0.0000    18.0000 </r>
       <r>   -41.2977    -0.0000    18.0000 </r>
       <r>   -41.0906    -0.0027    17.9994 </r>
       <r>   -40.8835    -0.5951    17.8762 </r>
       <r>   -40.6764     6.2724    19.1752 </r>
       <r>   -40.4693    58.0174    31.1908 </r>
       <r>   -40.2622    14.6187    34.2183 </r>
       <r>   -40.0551    -1.0470    34.0015 </r>
       <r>   -39.8479    -0.0072    34.0000 </r>
       <r>   -39.6408    -0.0000    34.0000 </r>
       <r>   -39.4337    -0.0000    34.0000 </r>
       <r>   -39.2266     0.0000    34.0000 </r>
       <r>   -39.0195     0.0000    34.0000 </r>
       <r>   -38.8124     0.0000    34.0000 </r>
       <r>   -38.6053     0.0000    34.0000 </r>
       <r>   -38.3982     0.0000    34.0000 </r>
       <r>   -38.1911     0.0000    34.0000 </r>
       <r>   -37.9840     0.0000    34.0000 </r>
       <r>   -37.7769     0.0000    34.0000 </r>
       <r>   -37.5698     0.0000    34.0000 </r>
       <r>   -37.3627     0.0000    34.0000 </r>
       <r>   -37.1556     0.0000    34.0000 </r>
       <r>   -36.9485     0.0000    34.0000 </r>
       <r>   -36.7414     0.0000    34.0000 </r>
       <r>   -36.5343     0.0000    34.0000 </r>
       <r>   -36.3272     0.0000    34.0000 </r>
       <r>   -36.1201     0.0000    34.0000 </r>
       <r>   -35.9130     0.0000    34.0000 </r>
       <r>   -35.7059     0.0000    34.0000 </r>
       <r>   -35.4988     0.0000    34.0000 </r>
       <r>   -35.2917     0.0000    34.0000 </r>
       <r>   -35.0846     0.0000    34.0000 </r>
       <r>   -34.8775     0.0000    34.0000 </r>
       <r>   -34.6704     0.0000    34.0000 </r>
       <r>   -34.4633     0.0000    34.0000 </r>
       <r>   -34.2562     0.0000    34.0000 </r>
       <r>   -34.0491     0.0000    34.0000 </r>
       <r>   -33.8420     0.0000    34.0000 </r>
       <r>   -33.6349     0.0000    34.0000 </r>
       <r>   -33.4278     0.0000    34.0000 </r>
       <r>   -33.2207     0.0000    34.0000 </r>
       <r>   -33.0136     0.0000    34.0000 </r>
       <r>   -32.8065     0.0000    34.0000 </r>
       <r>   -32.5994     0.0000    34.0000 </r>
       <r>   -32.3923     0.0000    34.0000 </r>
       <r>   -32.1852     0.0000    34.0000 </r>
       <r>   -31.9781     0.0000    34.0000 </r>
       <r>   -31.7710     0.0000    34.0000 </r>
       <r>   -31.5639     0.0000    34.0000 </r>
       <r>   -31.3568     0.0000    34.0000 </r>
       <r>   -31.1497     0.0000    34.0000 </r>
       <r>   -30.9426     0.0000    34.0000 </r>
       <r>   -30.7354     0.0000    34.0000 </r>
       <r>   -30.5283     0.0000    34.0000 </r>
       <r>   -30.3212     0.0000    34.0000 </r>
       <r>   -30.1141     0.0000    34.0000 </r>
       <r>   -29.9070     0.0000    34.0000 </r>
       <r>   -29.6999     0.0000    34.0000 </r>
       <r>   -29.4928     0.0000    34.0000 </r>
       <r>   -29.2857     0.0000    34.0000 </r>
       <r>   -29.0786     0.0000    34.0000 </r>
       <r>   -28.8715     0.0000    34.0000 </r>
       <r>   -28.6644     0.0000    34.0000 </r>
       <r>   -28.4573     0.0000    34.0000 </r>
       <r>   -28.2502     0.0000    34.0000 </r>
       <r>   -28.0431     0.0000    34.0000 </r>
       <r>   -27.8360     0.0000    34.0000 </r>
       <r>   -27.6289     0.0000    34.0000 </r>
       <r>   -27.4218     0.0000    34.0000 </r>
       <r>   -27.2147     0.0000    34.0000 </r>
       <r>   -27.0076     0.0000    34.0000 </r>
       <r>   -26.8005     0.0000    34.0000 </r>
       <r>   -26.5934     0.0000    34.0000 </r>
       <r>   -26.3863     0.0000    34.0000 </r>
       <r>   -26.1792     0.0000    34.0000 </r>
       <r>   -25.9721     0.0000    34.0000 </r>
       <r>   -25.7650     0.0000    34.0000 </r>
       <r>   -25.5579     0.0000    34.0000 </r>
       <r>   -25.3508     0.0000    34.0000 </r>
       <r>   -25.1437     0.0000    34.0000 </r>
       <r>   -24.9366     0.0000    34.0000 </r>
       <r>   -24.7295     0.0000    34.0000 </r>
       <r>   -24.5224    -0.0000    34.0000 </r>
       <r>   -24.3153    -0.0000    34.0000 </r>
       <r>   -24.1082    -0.0000    34.0000 </r>
       <r>   -23.9011    -0.0000    34.0000 </r>
       <r>   -23.6940    -0.0000    34.0000 </r>
       <r>   -23.4869    -0.0469    33.9903 </r>
       <r>   -23.2798    -0.8440    33.8155 </r>
       <r>   -23.0727    21.1749    38.2009 </r>
       <r>   -22.8656    52.7555    49.1266 </r>
       <r>   -22.6585   113.6748    72.6690 </r>
       <r>   -22.4514    54.8045    84.0191 </r>
       <r>   -22.2443    19.6576    88.0902 </r>
       <r>   -22.0372    -0.3674    88.0141 </r>
       <r>   -21.8300    -0.0683    88.0000 </r>
       <r>   -21.6229    -0.0000    88.0000 </r>
       <r>   -21.4158    -0.0000    88.0000 </r>
       <r>   -21.2087     0.0000    88.0000 </r>
       <r>   -21.0016     0.0000    88.0000 </r>
       <r>   -20.7945     0.0000    88.0000 </r>
       <r>   -20.5874     0.0000    88.0000 </r>
       <r>   -20.3803    -0.0000    88.0000 </r>
       <r>   -20.1732    -0.0000    88.0000 </r>
       <r>   -19.9661    -0.0000    88.0000 </r>
       <r>   -19.7590    -0.0000    88.0000 </r>
       <r>   -19.5519    -0.0000    88.0000 </r>
       <r>   -19.3448    -0.0257    87.9947 </r>
       <r>   -19.1377    -0.7844    87.8322 </r>
       <r>   -18.9306    13.9357    90.7183 </r>
       <r>   -18.7235    65.8248   104.3508 </r>
       <r>   -18.5164   109.6703   127.0638 </r>
       <r>   -18.3093    43.9487   136.1657 </r>
       <r>   -18.1022    -0.6436   136.0324 </r>
       <r>   -17.8951    -0.1561   136.0000 </r>
       <r>   -17.6880    -0.0001   136.0000 </r>
       <r>   -17.4809    -0.0000   136.0000 </r>
       <r>   -17.2738     0.0000   136.0000 </r>
       <r>   -17.0667     0.0000   136.0000 </r>
       <r>   -16.8596     0.0000   136.0000 </r>
       <r>   -16.6525     0.0000   136.0000 </r>
       <r>   -16.4454     0.0000   136.0000 </r>
       <r>   -16.2383     0.0000   136.0000 </r>
       <r>   -16.0312     0.0000   136.0000 </r>
       <r>   -15.8241     0.0000   136.0000 </r>
       <r>   -15.6170     0.0000   136.0000 </r>
       <r>   -15.4099     0.0000   136.0000 </r>
       <r>   -15.2028     0.0000   136.0000 </r>
       <r>   -14.9957     0.0000   136.0000 </r>
       <r>   -14.7886     0.0000   136.0000 </r>
       <r>   -14.5815     0.0000   136.0000 </r>
       <r>   -14.3744     0.0000   136.0000 </r>
       <r>   -14.1673     0.0000   136.0000 </r>
       <r>   -13.9602     0.0000   136.0000 </r>
       <r>   -13.7531     0.0000   136.0000 </r>
       <r>   -13.5460     0.0000   136.0000 </r>
       <r>   -13.3389     0.0000   136.0000 </r>
       <r>   -13.1318     0.0000   136.0000 </r>
       <r>   -12.9247     0.0000   136.0000 </r>
       <r>   -12.7175     0.0000   136.0000 </r>
       <r>   -12.5104     0.0000   136.0000 </r>
       <r>   -12.3033     0.0000   136.0000 </r>
       <r>   -12.0962     0.0000   136.0000 </r>
       <r>   -11.8891     0.0000   136.0000 </r>
       <r>   -11.6820     0.0000   136.0000 </r>
       <r>   -11.4749     0.0000   136.0000 </r>
       <r>   -11.2678     0.0000   136.0000 </r>
       <r>   -11.0607     0.0000   136.0000 </r>
       <r>   -10.8536     0.0000   136.0000 </r>
       <r>   -10.6465     0.0000   136.0000 </r>
       <r>   -10.4394     0.0000   136.0000 </r>
       <r>   -10.2323     0.0000   136.0000 </r>
       <r>   -10.0252     0.0000   136.0000 </r>
       <r>    -9.8181     0.0000   136.0000 </r>
       <r>    -9.6110     0.0000   136.0000 </r>
       <r>    -9.4039     0.0000   136.0000 </r>
       <r>    -9.1968     0.0000   136.0000 </r>
       <r>    -8.9897     0.0000   136.0000 </r>
       <r>    -8.7826     0.0000   136.0000 </r>
       <r>    -8.5755     0.0000   136.0000 </r>
       <r>    -8.3684     0.0000   136.0000 </r>
       <r>    -8.1613     0.0000   136.0000 </r>
       <r>    -7.9542     0.0000   136.0000 </r>
       <r>    -7.7471     0.0000   136.0000 </r>
       <r>    -7.5400     0.0000   136.0000 </r>
       <r>    -7.3329     0.0000   136.0000 </r>
       <r>    -7.1258     0.0000   136.0000 </r>
       <r>    -6.9187     0.0000   136.0000 </r>
       <r>    -6.7116     0.0000   136.0000 </r>
       <r>    -6.5045     0.0000   136.0000 </r>
       <r>    -6.2974     0.0000   136.0000 </r>
       <r>    -6.0903     0.0000   136.0000 </r>
       <r>    -5.8832     0.0000   136.0000 </r>
       <r>    -5.6761     0.0000   136.0000 </r>
       <r>    -5.4690     0.0000   136.0000 </r>
       <r>    -5.2619     0.0000   136.0000 </r>
       <r>    -5.0548     0.0000   136.0000 </r>
       <r>    -4.8477     0.0000   136.0000 </r>
       <r>    -4.6406     0.0000   136.0000 </r>
       <r>    -4.4335     0.0000   136.0000 </r>
       <r>    -4.2264     0.0000   136.0000 </r>
       <r>    -4.0193     0.0000   136.0000 </r>
       <r>    -3.8121     0.0000   136.0000 </r>
       <r>    -3.6050     0.0000   136.0000 </r>
       <r>    -3.3979     0.0000   136.0000 </r>
       <r>    -3.1908     0.0000   136.0000 </r>
       <r>    -2.9837     0.0000   136.0000 </r>
       <r>    -2.7766     0.0000   136.0000 </r>
       <r>    -2.5695     0.0000   136.0000 </r>
       <r>    -2.3624     0.0000   136.0000 </r>
       <r>    -2.1553     0.0000   136.0000 </r>
       <r>    -1.9482     0.0000   136.0000 </r>
       <r>    -1.7411     0.0000   136.0000 </r>
       <r>    -1.5340     0.0000   136.0000 </r>
       <r>    -1.3269     0.0000   136.0000 </r>
       <r>    -1.1198     0.0000   136.0000 </r>
       <r>    -0.9127     0.0000   136.0000 </r>
       <r>    -0.7056     0.0000   136.0000 </r>
       <r>    -0.4985    -0.0000   136.0000 </r>
       <r>    -0.2914    -0.0000   136.0000 </r>
       <r>    -0.0843    -0.0000   136.0000 </r>
       <r>     0.1228    -0.0000   136.0000 </r>
       <r>     0.3299    -0.0000   136.0000 </r>
       <r>     0.5370    -0.0026   135.9995 </r>
       <r>     0.7441     0.0174   136.0031 </r>
       <r>     0.9512     0.3514   136.0758 </r>
       <r>     1.1583     1.2853   136.3420 </r>
       <r>     1.3654     1.7441   136.7032 </r>
       <r>     1.5725     2.1400   137.1464 </r>
       <r>     1.7796     4.0815   137.9917 </r>
       <r>     1.9867     3.0295   138.6191 </r>
       <r>     2.1938     3.2799   139.2984 </r>
       <r>     2.4009     4.0866   140.1448 </r>
       <r>     2.6080     4.5199   141.0808 </r>
       <r>     2.8151     3.9152   141.8917 </r>
       <r>     3.0222     7.9739   143.5431 </r>
       <r>     3.2293     8.2522   145.2522 </r>
       <r>     3.4364     7.3580   146.7760 </r>
       <r>     3.6435     8.7656   148.5914 </r>
       <r>     3.8506    10.8958   150.8479 </r>
       <r>     4.0577    17.5848   154.4898 </r>
       <r>     4.2648    23.5820   159.3737 </r>
       <r>     4.4719    25.0106   164.5534 </r>
       <r>     4.6790    31.3357   171.0431 </r>
       <r>     4.8861    35.6415   178.4246 </r>
       <r>     5.0932    41.0213   186.9202 </r>
       <r>     5.3004    40.8081   195.3716 </r>
       <r>     5.5075    33.0019   202.2064 </r>
       <r>     5.7146    33.5358   209.1517 </r>
       <r>     5.9217    30.0798   215.3813 </r>
       <r>     6.1288    15.6888   218.6305 </r>
       <r>     6.3359    48.5611   228.6876 </r>
       <r>     6.5430    65.6304   242.2798 </r>
       <r>     6.7501    57.0411   254.0932 </r>
       <r>     6.9572    54.3289   265.3448 </r>
       <r>     7.1643    53.9589   276.5198 </r>
       <r>     7.3714    57.8048   288.4913 </r>
       <r>     7.5785    51.0294   299.0596 </r>
       <r>     7.7856    48.5822   309.1211 </r>
       <r>     7.9927    49.6672   319.4073 </r>
       <r>     8.1998    41.8806   328.0809 </r>
       <r>     8.4069    31.7258   334.6513 </r>
       <r>     8.6140    24.8476   339.7973 </r>
       <r>     8.8211    21.4631   344.2424 </r>
       <r>     9.0282    14.9012   347.3285 </r>
       <r>     9.2353    12.6716   349.9528 </r>
       <r>     9.4424    24.5618   355.0396 </r>
       <r>     9.6495    19.1826   359.0124 </r>
       <r>     9.8566     5.0784   360.0641 </r>
       <r>    10.0637    -0.3027   360.0014 </r>
       <r>    10.2708    -0.0069   360.0000 </r>
       <r>    10.4779    -0.0000   360.0000 </r>
       <r>    10.6850    -0.0000   360.0000 </r>
       <r>    10.8921     0.0000   360.0000 </r>
       <r>    11.0992     0.0000   360.0000 </r>
       <r>    11.3063     0.0000   360.0000 </r>
       <r>    11.5134     0.0000   360.0000 </r>
       <r>    11.7205     0.0000   360.0000 </r>
       <r>    11.9276     0.0000   360.0000 </r>
       <r>    12.1347     0.0000   360.0000 </r>
       <r>    12.3418     0.0000   360.0000 </r>
       <r>    12.5489     0.0000   360.0000 </r>
      </set>
     </set>
    </array>
   </total>
  </dos>
 </calculation>
 <structure name="finalpos" >
  <crystal>
   <varray name="basis" >
    <v>       6.92357992       0.01298969      -0.03972919 </v>
    <v>       0.01985334      10.32773573       0.02013087 </v>
    <v>      -0.05833096       0.02095173      10.20702998 </v>
   </varray>
   <i name="volume">    729.82317764 </i>
   <varray name="rec_basis" >
    <v>       0.14443921      -0.00027927       0.00082601 </v>
    <v>      -0.00018281       0.09682739      -0.00019980 </v>
    <v>       0.00056257      -0.00019206       0.09797530 </v>
   </varray>
  </crystal>
  <varray name="positions" >
   <v>       0.50205204       0.31292819       0.32223486 </v>
   <v>       0.73691112       0.49750878       0.49743825 </v>
   <v>       0.00607453       0.00377522       0.99909474 </v>
   <v>       0.50512895      -0.00024992       0.32676216 </v>
   <v>       0.25680850       0.83874006       0.50222564 </v>
   <v>       0.03068902       0.67139981       0.00246699 </v>
   <v>       0.00735587       0.32865004       0.66577171 </v>
   <v>       0.25701385       0.49751951       0.49864068 </v>
   <v>       0.48640038       0.33060884       0.00230051 </v>
   <v>       0.76734098       0.49581868       0.16645435 </v>
   <v>       0.26162893       0.82303103       0.81106937 </v>
   <v>       0.75028722       0.49770384       0.83571004 </v>
   <v>       0.22962040       0.49297038       0.18866416 </v>
   <v>       0.97768253       0.68600141       0.33920967 </v>
   <v>       0.47930986       0.66589053       0.01706508 </v>
   <v>       0.51778386       0.01967431       0.67070934 </v>
   <v>       0.98495918       0.01006006       0.66795676 </v>
   <v>       0.74317099       0.82128191       0.83693389 </v>
   <v>       0.49358946       0.01070620       0.00046929 </v>
   <v>       0.75311176       0.83577666       0.15402551 </v>
   <v>       0.24166177       0.15704001       0.49516235 </v>
   <v>      -0.00661449       0.31041690       0.33967797 </v>
   <v>       0.26329027       0.50631332       0.81747573 </v>
   <v>       0.51324791       0.67934332       0.32063778 </v>
   <v>       0.51071092       0.66136657       0.66229486 </v>
   <v>       0.99287576       0.66219572       0.66090506 </v>
   <v>       0.99280638       0.99814619       0.33190828 </v>
   <v>       0.75754958       0.16799993       0.49250026 </v>
   <v>       0.22391409       0.16830080       0.16975364 </v>
   <v>       0.75472787       0.18963960       0.84139524 </v>
   <v>       0.24617282       0.17994743       0.83300706 </v>
   <v>       0.01425928       0.32874188       0.99542330 </v>
   <v>       0.73881779       0.82623875       0.50894484 </v>
   <v>       0.24593647       0.83856251       0.18407584 </v>
   <v>       0.49317498       0.32351756       0.67575571 </v>
   <v>       0.77055220       0.16244998       0.16588009 </v>
  </varray>
 </structure>
</modeling>
