 vasp.5.4.1 05Feb16 (build Jan 29 2020 16:04:39) complex                        
  
 executed on           IFC91_ompi date 2020.06.15  05:42:40
 running on  160 total cores
 distrk:  each k-point on   20 cores,    8 groups
 distr:  one band on NCORES_PER_BAND=   5 cores,    4 groups


--------------------------------------------------------------------------------------------------------


 INCAR:
 POTCAR:    PAW_PBE Ta 17Jan2003                  
 POTCAR:    PAW_PBE Nb_sv 25May2007               
 POTCAR:    PAW_PBE Zr_sv 04Jan2005               
 POTCAR:    PAW_PBE Hf 20Jan2003                  

 ----------------------------------------------------------------------------- 
|                                                                             |
|           W    W    AA    RRRRR   N    N  II  N    N   GGGG   !!!           |
|           W    W   A  A   R    R  NN   N  II  NN   N  G    G  !!!           |
|           W    W  A    A  R    R  N N  N  II  N N  N  G       !!!           |
|           W WW W  AAAAAA  RRRRR   N  N N  II  N  N N  G  GGG   !            |
|           WW  WW  A    A  R   R   N   NN  II  N   NN  G    G                |
|           W    W  A    A  R    R  N    N  II  N    N   GGGG   !!!           |
|                                                                             |
|      For optimal performance we recommend to set                            |
|        NCORE= 4 - approx SQRT( number of cores)                             |
|      NCORE specifies how many cores store one orbital (NPAR=cpu/NCORE).     |
|      This setting can  greatly improve the performance of VASP for DFT.     |
|      The default, NPAR=number of cores might be grossly inefficient         |
|      on modern multi-core architectures or massively parallel machines.     |
|      Do your own testing !!!!                                               |
|      Unfortunately you need to use the default for GW and RPA calculations. |
|      (for HF NCORE is supported but not extensively tested yet)             |
|                                                                             |
 ----------------------------------------------------------------------------- 


 ----------------------------------------------------------------------------- 
|                                                                             |
|           W    W    AA    RRRRR   N    N  II  N    N   GGGG   !!!           |
|           W    W   A  A   R    R  NN   N  II  NN   N  G    G  !!!           |
|           W    W  A    A  R    R  N N  N  II  N N  N  G       !!!           |
|           W WW W  AAAAAA  RRRRR   N  N N  II  N  N N  G  GGG   !            |
|           WW  WW  A    A  R   R   N   NN  II  N   NN  G    G                |
|           W    W  A    A  R    R  N    N  II  N    N   GGGG   !!!           |
|                                                                             |
|      You have enabled k-point parallelism (KPAR>1).                         |
|      This developmental code was originally  written by Paul Kent at ORNL,  |
|      and carefully double checked in Vienna.                                |
|      GW as well as linear response parallelism added by Martijn Marsman     |
|      and Georg Kresse.                                                      |
|      Carefully verify results versus KPAR=1.                                |
|      Report problems to Paul Kent and Vienna.                               |
|                                                                             |
 ----------------------------------------------------------------------------- 

 POTCAR:    PAW_PBE Ta 17Jan2003                  
   VRHFIN =Ta:  6s5d                                                            
   LEXCH  = PE                                                                  
   EATOM  =   130.6506 eV,    9.6025 Ry                                         
                                                                                
   TITEL  = PAW_PBE Ta 17Jan2003                                                
   LULTRA =        F    use ultrasoft PP ?                                      
   IUNSCR =        1    unscreen: 0-lin 1-nonlin 2-no                           
   RPACOR =    2.330    partial core radius                                     
   POMASS =  180.948; ZVAL   =    5.000    mass and valenz                      
   RCORE  =    2.900    outmost cutoff radius                                   
   RWIGS  =    2.840; RWIGS  =    1.503    wigner-seitz radius (au A)           
   ENMAX  =  223.667; ENMIN  =  167.750 eV                                      
   RCLOC  =    2.205    cutoff for local pot                                    
   LCOR   =        T    correct aug charges                                     
   LPAW   =        T    paw PP                                                  
   EAUG   =  332.075                                                            
   DEXC   =    0.000                                                            
   RMAX   =    2.970    core radius for proj-oper                               
   RAUG   =    1.300    factor for augmentation sphere                          
   RDEP   =    3.060    radius for radial grids                                 
   RDEPT  =    2.354    core radius for aug-charge                              
                                                                                
   Atomic configuration                                                         
   16 entries                                                                   
     n  l   j            E        occ.                                          
     1  0  0.50    -67341.2807   2.0000                                         
     2  0  0.50    -11566.9376   2.0000                                         
     2  1  1.50    -10134.1182   6.0000                                         
     3  0  0.50     -2648.5620   2.0000                                         
     3  1  1.50     -2222.6012   6.0000                                         
     3  2  2.50     -1726.3120  10.0000                                         
     4  0  0.50      -538.6961   2.0000                                         
     4  1  1.50      -399.0129   6.0000                                         
     4  2  2.50      -220.3959  10.0000                                         
     4  3  3.50       -23.0374  14.0000                                         
     5  0  0.50       -71.2901   2.0000                                         
     5  1  1.50       -37.8225   6.0000                                         
     5  2  2.50        -2.6455   4.0000                                         
     6  0  0.50        -4.9623   1.0000                                         
     6  1  1.50        -1.3606   0.0000                                         
     5  3  2.50        -1.3606   0.0000                                         
   Description                                                                  
     l       E           TYP  RCUT    TYP  RCUT                                 
     2     -2.6455043     23  2.500                                             
     2     -0.6258895     23  2.500                                             
     0     -4.9622780     23  2.500                                             
     0      4.7531321     23  2.500                                             
     1     -1.3605826     23  2.900                                             
     1     27.2116520     23  2.900                                             
  local pseudopotential read in
  partial core-charges read in
  partial kinetic energy density read in
  atomic valenz-charges read in
  non local Contribution for L=           2  read in
    real space projection operators read in
  non local Contribution for L=           2  read in
    real space projection operators read in
  non local Contribution for L=           0  read in
    real space projection operators read in
  non local Contribution for L=           0  read in
    real space projection operators read in
  non local Contribution for L=           1  read in
    real space projection operators read in
  non local Contribution for L=           1  read in
    real space projection operators read in
    PAW grid and wavefunctions read in
 
   number of l-projection  operators is LMAX  =           6
   number of lm-projection operators is LMMAX =          18
 
 POTCAR:    PAW_PBE Nb_sv 25May2007               
   VRHFIN =Nb: 4p5s4d                                                           
   LEXCH  = PE                                                                  
   EATOM  =  1555.1913 eV,  114.3033 Ry                                         
                                                                                
   TITEL  = PAW_PBE Nb_sv 25May2007                                             
   LULTRA =        F    use ultrasoft PP ?                                      
   IUNSCR =        1    unscreen: 0-lin 1-nonlin 2-no                           
   RPACOR =    1.800    partial core radius                                     
   POMASS =   92.910; ZVAL   =   13.000    mass and valenz                      
   RCORE  =    2.400    outmost cutoff radius                                   
   RWIGS  =    2.400; RWIGS  =    1.270    wigner-seitz radius (au A)           
   ENMAX  =  293.235; ENMIN  =  219.927 eV                                      
   ICORE  =        3    local potential                                         
   LCOR   =        T    correct aug charges                                     
   LPAW   =        T    paw PP                                                  
   EAUG   =  455.659                                                            
   DEXC   =    0.000                                                            
   RMAX   =    2.456    core radius for proj-oper                               
   RAUG   =    1.300    factor for augmentation sphere                          
   RDEP   =    2.451    radius for radial grids                                 
   RDEPT  =    1.956    core radius for aug-charge                              
                                                                                
   Atomic configuration                                                         
   11 entries                                                                   
     n  l   j            E        occ.                                          
     1  0  0.50    -18805.2457   2.0000                                         
     2  0  0.50     -2630.2869   2.0000                                         
     2  1  1.50     -2348.4046   6.0000                                         
     3  0  0.50      -438.8757   2.0000                                         
     3  1  1.50      -346.7588   6.0000                                         
     3  2  2.50      -196.2560  10.0000                                         
     4  0  0.50       -58.3859   2.0000                                         
     5  0  0.50        -3.9816   1.0000                                         
     4  1  1.50       -34.5141   6.0000                                         
     4  2  2.50        -3.0408   4.0000                                         
     4  3  2.50        -1.3606   0.0000                                         
   Description                                                                  
     l       E           TYP  RCUT    TYP  RCUT                                 
     0    -58.3859094     23  2.200                                             
     0     -3.9816262     23  2.200                                             
     1    -34.5140738     23  2.200                                             
     1     13.6058260     23  2.200                                             
     2     -3.0408010     23  2.200                                             
     2     -0.1283038     23  2.200                                             
     3     -1.3605826     23  2.400                                             
  local pseudopotential read in
  partial core-charges read in
  partial kinetic energy density read in
  atomic valenz-charges read in
  non local Contribution for L=           0  read in
    real space projection operators read in
  non local Contribution for L=           0  read in
    real space projection operators read in
  non local Contribution for L=           1  read in
    real space projection operators read in
  non local Contribution for L=           1  read in
    real space projection operators read in
  non local Contribution for L=           2  read in
    real space projection operators read in
  non local Contribution for L=           2  read in
    real space projection operators read in
    PAW grid and wavefunctions read in
 
   number of l-projection  operators is LMAX  =           6
   number of lm-projection operators is LMMAX =          18
 
 POTCAR:    PAW_PBE Zr_sv 04Jan2005               
   VRHFIN =Zr: 4s4p5s4d                                                         
   LEXCH  = PE                                                                  
   EATOM  =  1284.2219 eV,   94.3876 Ry                                         
                                                                                
   TITEL  = PAW_PBE Zr_sv 04Jan2005                                             
   LULTRA =        F    use ultrasoft PP ?                                      
   IUNSCR =        1    unscreen: 0-lin 1-nonlin 2-no                           
   RPACOR =    2.200    partial core radius                                     
   POMASS =   91.224; ZVAL   =   12.000    mass and valenz                      
   RCORE  =    2.500    outmost cutoff radius                                   
   RWIGS  =    3.070; RWIGS  =    1.625    wigner-seitz radius (au A)           
   ENMAX  =  229.898; ENMIN  =  172.424 eV                                      
   ICORE  =        3    local potential                                         
   LCOR   =        T    correct aug charges                                     
   LPAW   =        T    paw PP                                                  
   EAUG   =  461.257                                                            
   DEXC   =    0.000                                                            
   RMAX   =    2.561    core radius for proj-oper                               
   RAUG   =    1.300    factor for augmentation sphere                          
   RDEP   =    2.597    radius for radial grids                                 
   RDEPT  =    2.007    core radius for aug-charge                              
                                                                                
   Atomic configuration                                                         
   11 entries                                                                   
     n  l   j            E        occ.                                          
     1  0  0.50    -17820.0161   2.0000                                         
     2  0  0.50     -2467.0882   2.0000                                         
     2  1  1.50     -2199.6095   6.0000                                         
     3  0  0.50      -402.4863   2.0000                                         
     3  1  1.50      -315.3675   6.0000                                         
     3  2  2.50      -172.4472  10.0000                                         
     4  0  0.50       -52.4146   2.0000                                         
     5  0  0.50        -3.8421   1.0000                                         
     4  1  1.50       -30.5054   6.0000                                         
     4  2  2.50        -2.3341   3.0000                                         
     4  3  2.50        -1.3606   0.0000                                         
   Description                                                                  
     l       E           TYP  RCUT    TYP  RCUT                                 
     0    -52.4145962     23  2.200                                             
     0     -3.8421270     23  2.500                                             
     1    -30.5053914     23  2.200                                             
     1     20.4087390     23  2.200                                             
     2     -2.3340816     23  2.500                                             
     2     -0.6120942     23  2.500                                             
     3     -4.0817478     23  2.500                                             
  local pseudopotential read in
  partial core-charges read in
  partial kinetic energy density read in
  atomic valenz-charges read in
  non local Contribution for L=           0  read in
    real space projection operators read in
  non local Contribution for L=           0  read in
    real space projection operators read in
  non local Contribution for L=           1  read in
    real space projection operators read in
  non local Contribution for L=           1  read in
    real space projection operators read in
  non local Contribution for L=           2  read in
    real space projection operators read in
  non local Contribution for L=           2  read in
    real space projection operators read in
    PAW grid and wavefunctions read in
 
   number of l-projection  operators is LMAX  =           6
   number of lm-projection operators is LMMAX =          18
 
 POTCAR:    PAW_PBE Hf 20Jan2003                  
   VRHFIN =Hf: 6s5d                                                             
   LEXCH  = PE                                                                  
   EATOM  =    75.9011 eV,    5.5786 Ry                                         
                                                                                
   TITEL  = PAW_PBE Hf 20Jan2003                                                
   LULTRA =        F    use ultrasoft PP ?                                      
   IUNSCR =        1    unscreen: 0-lin 1-nonlin 2-no                           
   RPACOR =    2.500    partial core radius                                     
   POMASS =  178.490; ZVAL   =    4.000    mass and valenz                      
   RCORE  =    3.000    outmost cutoff radius                                   
   RWIGS  =    3.050; RWIGS  =    1.614    wigner-seitz radius (au A)           
   ENMAX  =  220.334; ENMIN  =  165.250 eV                                      
   RCLOC  =    2.212    cutoff for local pot                                    
   LCOR   =        T    correct aug charges                                     
   LPAW   =        T    paw PP                                                  
   EAUG   =  335.116                                                            
   DEXC   =    0.000                                                            
   RMAX   =    3.077    core radius for proj-oper                               
   RAUG   =    1.300    factor for augmentation sphere                          
   RDEP   =    3.047    radius for radial grids                                 
   RDEPT  =    2.344    core radius for aug-charge                              
                                                                                
   Atomic configuration                                                         
   16 entries                                                                   
     n  l   j            E        occ.                                          
     1  0  0.50    -65259.4397   2.0000                                         
     2  0  0.50    -11157.9882   2.0000                                         
     2  1  1.50     -9795.2113   6.0000                                         
     3  0  0.50     -2541.4058   2.0000                                         
     3  1  1.50     -2134.4770   6.0000                                         
     3  2  2.50     -1653.5418  10.0000                                         
     4  0  0.50      -510.9575   2.0000                                         
     4  1  1.50      -377.5023   6.0000                                         
     4  2  2.50      -205.2085  10.0000                                         
     4  3  3.50       -15.4905  14.0000                                         
     5  0  0.50       -65.6020   2.0000                                         
     5  1  1.50       -34.2798   6.0000                                         
     5  2  2.50        -1.9877   3.0000                                         
     6  0  0.50        -4.7357   1.0000                                         
     6  1  1.50        -1.3606   0.0000                                         
     5  3  2.50        -1.3606   0.0000                                         
   Description                                                                  
     l       E           TYP  RCUT    TYP  RCUT                                 
     2     -1.9876627     23  2.500                                             
     2      0.0744703     23  2.500                                             
     0     -4.7356889     23  2.600                                             
     0      3.2364747     23  2.600                                             
     1     -1.3605826     23  3.000                                             
     1     27.2116520     23  3.000                                             
  local pseudopotential read in
  partial core-charges read in
  partial kinetic energy density read in
  atomic valenz-charges read in
  non local Contribution for L=           2  read in
    real space projection operators read in
  non local Contribution for L=           2  read in
    real space projection operators read in
  non local Contribution for L=           0  read in
    real space projection operators read in
  non local Contribution for L=           0  read in
    real space projection operators read in
  non local Contribution for L=           1  read in
    real space projection operators read in
  non local Contribution for L=           1  read in
    real space projection operators read in
    PAW grid and wavefunctions read in
 
   number of l-projection  operators is LMAX  =           6
   number of lm-projection operators is LMMAX =          18
 
 Optimization of the real space projectors (new method)

 maximal supplied QI-value         = 12.85
 optimisation between [QCUT,QGAM] = [  8.87, 17.73] = [ 22.01, 88.06] Ry 
 Optimized for a Real-space Cutoff    1.90 Angstroem

   l    n(q)    QCUT    max X(q) W(low)/X(q) W(high)/X(q)  e(spline) 
   2      9     8.867    62.315    0.23E-03    0.62E-04    0.11E-05
   2      9     8.867    52.185    0.23E-03    0.62E-04    0.11E-05
   0     10     8.867   103.837    0.15E-04    0.23E-04    0.98E-07
   0     10     8.867    59.728    0.12E-04    0.21E-04    0.89E-07
   1     10     8.867    13.958    0.50E-04    0.22E-04    0.14E-06
   1     10     8.867     8.441    0.36E-04    0.19E-04    0.98E-07
 Optimization of the real space projectors (new method)

 maximal supplied QI-value         = 15.68
 optimisation between [QCUT,QGAM] = [  8.78, 17.72] = [ 21.60, 87.97] Ry 
 Optimized for a Real-space Cutoff    1.96 Angstroem

   l    n(q)    QCUT    max X(q) W(low)/X(q) W(high)/X(q)  e(spline) 
   0     10     8.783    10.201    0.29E-04    0.25E-05    0.69E-07
   0     10     8.783     8.174    0.45E-04    0.57E-05    0.14E-06
   1     10     8.783     3.488    0.76E-05    0.24E-04    0.95E-07
   1     10     8.783     4.917    0.78E-04    0.14E-03    0.46E-06
   2      9     8.783   153.744    0.22E-03    0.34E-04    0.15E-05
   2      9     8.783   126.342    0.22E-03    0.35E-04    0.15E-05
 Optimization of the real space projectors (new method)

 maximal supplied QI-value         = 15.12
 optimisation between [QCUT,QGAM] = [  8.77, 17.69] = [ 21.53, 87.61] Ry 
 Optimized for a Real-space Cutoff    1.74 Angstroem

   l    n(q)    QCUT    max X(q) W(low)/X(q) W(high)/X(q)  e(spline) 
   0      9     8.768    12.107    0.28E-04    0.53E-06    0.29E-07
   0      9     8.768     9.948    0.36E-04    0.50E-05    0.64E-07
   1      9     8.768     3.563    0.14E-04    0.16E-04    0.88E-07
   1      9     8.768     4.524    0.21E-03    0.33E-03    0.19E-06
   2      8     8.768    87.261    0.19E-03    0.25E-03    0.24E-06
   2      8     8.768    70.950    0.19E-03    0.24E-03    0.24E-06
 Optimization of the real space projectors (new method)

 maximal supplied QI-value         = 12.47
 optimisation between [QCUT,QGAM] = [  8.86, 17.71] = [ 21.96, 87.83] Ry 
 Optimized for a Real-space Cutoff    1.90 Angstroem

   l    n(q)    QCUT    max X(q) W(low)/X(q) W(high)/X(q)  e(spline) 
   2      9     8.855    48.111    0.22E-03    0.80E-04    0.10E-05
   2      9     8.855    40.545    0.21E-03    0.76E-04    0.95E-06
   0     10     8.855   121.658    0.27E-04    0.12E-04    0.11E-06
   0     10     8.855    71.177    0.22E-04    0.11E-04    0.99E-07
   1     10     8.855    14.183    0.65E-04    0.10E-03    0.98E-07
   1     10     8.855     8.257    0.43E-04    0.73E-04    0.72E-07
  PAW_PBE Ta 17Jan2003                  :
 energy of atom  1       EATOM= -130.6506
 kinetic energy error for atom=    0.0121 (will be added to EATOM!!)
  PAW_PBE Nb_sv 25May2007               :
 energy of atom  2       EATOM=-1555.1913
 kinetic energy error for atom=    0.0655 (will be added to EATOM!!)
  PAW_PBE Zr_sv 04Jan2005               :
 energy of atom  3       EATOM=-1284.2219
 kinetic energy error for atom=    0.0483 (will be added to EATOM!!)
  PAW_PBE Hf 20Jan2003                  :
 energy of atom  4       EATOM=  -75.9011
 kinetic energy error for atom=    0.0071 (will be added to EATOM!!)
 
 
 POSCAR: generated by pypospack                  
  positions in direct lattice
  No initial velocities read in
 exchange correlation table for  LEXCH =        8
   RHO(1)=    0.500       N(1)  =     2000
   RHO(2)=  100.500       N(2)  =     4000
 


--------------------------------------------------------------------------------------------------------


 ion  position               nearest neighbor table
   1  0.743  0.830  0.830-  12 2.78  11 2.84   6 2.88  30 2.89  33 2.89   9 2.91  27 2.97  20 3.02
                            23 3.38  10 3.42   2 3.50
   2  0.756  0.836  0.170-   3 2.77  33 2.92  32 2.92  27 2.97  34 2.99   9 3.00  20 3.00  17 3.01
                            29 3.35   5 3.43   7 3.44  23 3.45   1 3.50
   3  0.992  0.989  0.324-   5 2.76   2 2.77   8 2.83  23 2.94  29 2.96  26 3.01  25 3.02  18 3.06
                            32 3.37  27 3.39  34 3.41  34 3.65  16 3.71
   4  0.285  0.495  0.143-  14 2.70   9 2.84  17 2.97  20 3.04  21 3.05  32 3.07  36 3.07  16 3.08
                             7 3.09  24 3.19  25 3.45
   5  0.242  0.849  0.174-   3 2.76  32 2.85  33 2.87  34 2.96  27 2.96  17 2.99  20 3.07   9 3.17
                            25 3.21   2 3.43  26 3.45
   6  0.515  0.997  0.668-  10 2.85   1 2.88  19 2.97  13 2.99  23 3.03  26 3.05   8 3.11  18 3.15
                            30 3.26  34 3.36  11 3.38  33 3.42  35 3.42
   7  0.723  0.503  0.152-  14 2.71   9 2.82  17 2.97  36 2.99  21 3.02  16 3.02  20 3.04  32 3.07
                             4 3.09  15 3.20   2 3.44  29 3.51  22 3.66
   8  0.779  0.154  0.486-   3 2.83  30 2.89  34 2.90  28 2.94  21 3.04  35 3.06  16 3.11   6 3.11
                            18 3.17  29 3.31  23 3.35  22 3.75
   9  0.505  0.674  0.998-   7 2.82   4 2.84  15 2.89   1 2.91   2 3.00  13 3.02  24 3.03  33 3.10
                             5 3.17  11 3.35  17 3.39  20 3.49  20 3.55
  10  0.710  0.162  0.847-  14 2.81   6 2.85  33 2.91  35 2.92  28 2.98  30 2.98  27 3.01  36 3.02
                            19 3.07  29 3.29   1 3.42
  11  0.508  0.668  0.673-   1 2.84  15 2.91  13 2.93  24 3.04  23 3.05  22 3.05  31 3.05  26 3.06
                             9 3.35   6 3.38  35 3.49  17 3.58
  12  0.995  0.675  0.694-  13 2.74   1 2.78  22 2.91  15 2.94  24 2.97  23 2.97  26 3.05  31 3.05
                            20 3.17  30 3.43
  13  0.250  0.832  0.822-  12 2.74  33 2.89  11 2.93  30 2.97   6 2.99   9 3.02  27 3.07  20 3.08
                            26 3.23  24 3.47
  14  0.512  0.344  0.999-   4 2.70   7 2.71  10 2.81  15 2.84  24 2.91  19 2.99  29 3.01  25 3.17
                            36 3.31
  15  0.740  0.506  0.842-  14 2.84   9 2.89  11 2.91  36 2.93  12 2.94  20 2.96  28 3.00  35 3.03
                             7 3.20  24 3.42
  16  0.002  0.350  0.317-  22 3.02   7 3.02  31 3.02  25 3.04  29 3.06   4 3.08   8 3.11  18 3.11
                            32 3.21  36 3.29  21 3.48  21 3.58   3 3.71  28 3.79
  17  0.493  0.669  0.326-   4 2.97   7 2.97   5 2.99   2 3.01  26 3.12  23 3.13  22 3.17  31 3.22
                            32 3.36  34 3.36   9 3.39  21 3.43  11 3.58  32 3.70
  18  0.228  0.166  0.502-   3 3.06  30 3.07  28 3.08  16 3.11  35 3.12  34 3.13  21 3.13   6 3.15
                             8 3.17  19 3.38  26 3.42  25 3.45  31 3.46
  19  0.275  0.171  0.828-   6 2.97  14 2.99  35 3.04  30 3.05  28 3.05  10 3.07  33 3.07  36 3.20
                            27 3.20  24 3.33  18 3.38  25 3.51
  20  0.000  0.669  0.002-  15 2.96   2 3.00   1 3.02   7 3.04   4 3.04   5 3.07  24 3.07  13 3.08
                            32 3.15  12 3.17  27 3.37  36 3.44   9 3.49   9 3.55
  21  0.509  0.336  0.341-   7 3.02   8 3.04  29 3.04   4 3.05  25 3.11  18 3.13  22 3.18  31 3.19
                            35 3.22  17 3.43  16 3.48  34 3.50  16 3.58
  22  0.788  0.519  0.505-  12 2.91  28 3.00  32 3.01  16 3.02  11 3.05  35 3.08  31 3.11  17 3.17
                            21 3.18  23 3.19   7 3.66   8 3.75
  23  0.771  0.829  0.503-   3 2.94  12 2.97  30 3.00  34 3.00   6 3.03  11 3.05  17 3.13  32 3.19
                            22 3.19  26 3.28   8 3.35   1 3.38   2 3.45  26 3.77
  24  0.255  0.495  0.835-  14 2.91  12 2.97   9 3.03  11 3.04  36 3.06  20 3.07  28 3.13   4 3.19
                            35 3.20  31 3.29  19 3.33  15 3.42  13 3.47
  25  0.250  0.161  0.168-   3 3.02  27 3.04  16 3.04  34 3.06  21 3.11  36 3.11  33 3.12  14 3.17
                             5 3.21   4 3.45  18 3.45  29 3.47  19 3.51  29 3.57
  26  0.236  0.833  0.508-   3 3.01  12 3.05   6 3.05  11 3.06  34 3.08  32 3.11  17 3.12  30 3.16
                            13 3.23  23 3.28  31 3.41  18 3.42   5 3.45  23 3.77
  27  0.992  0.997  0.995-   5 2.96   2 2.97   1 2.97  10 3.01  29 3.02  25 3.04  13 3.07  30 3.20
                            19 3.20  20 3.37   3 3.39  36 3.47  33 3.51  33 3.55
  28  0.965  0.320  0.682-   8 2.94  10 2.98  15 3.00  22 3.00  19 3.05  35 3.08  18 3.08  24 3.13
                            31 3.15  30 3.20  36 3.27  16 3.79
  29  0.743  0.162  0.166-   3 2.96  36 3.01  34 3.01  14 3.01  27 3.02  21 3.04  16 3.06  33 3.11
                            10 3.29   8 3.31   2 3.35  25 3.47   7 3.51  25 3.57
  30  0.977  0.008  0.686-   1 2.89   8 2.89  13 2.97  10 2.98  23 3.00  19 3.05  18 3.07  26 3.16
                            27 3.20  28 3.20   6 3.26  12 3.43
  31  0.228  0.502  0.516-  16 3.02  12 3.05  11 3.05  32 3.08  35 3.09  22 3.11  28 3.15  21 3.19
                            17 3.22  24 3.29  26 3.41  18 3.46
  32  0.017  0.662  0.307-   5 2.85   2 2.92  22 3.01   4 3.07   7 3.07  31 3.08  26 3.11  20 3.15
                            23 3.19  16 3.21  17 3.36   3 3.37  17 3.70
  33  0.494  0.975  0.998-   5 2.87  13 2.89   1 2.89  10 2.91   2 2.92  19 3.07   9 3.10  29 3.11
                            25 3.12   6 3.42  27 3.51  27 3.55  34 3.56
  34  0.509  0.995  0.342-   8 2.90   5 2.96   2 2.99  23 3.00  29 3.01  25 3.06  26 3.08  18 3.13
                             6 3.36  17 3.36   3 3.41  21 3.50  33 3.56   3 3.65
  35  0.530  0.330  0.653-  10 2.92  15 3.03  19 3.04   8 3.06  28 3.08  22 3.08  31 3.09  18 3.12
                            24 3.20  21 3.22   6 3.42  11 3.49
  36  0.982  0.334  0.998-  15 2.93   7 2.99  29 3.01  10 3.02  24 3.06   4 3.07  25 3.11  19 3.20
                            28 3.27  16 3.29  14 3.31  20 3.44  27 3.47
 
  LATTYP: Found a triclinic cell.
 ALAT       =    10.3154849391
 B/A-ratio  =     0.6828190235
 C/A-ratio  =     0.9964541133
 COS(alpha) =     0.0003125154
 COS(beta)  =     0.0007232812
 COS(gamma) =     0.0122821355
  
  Lattice vectors:
  
 A1 = (  -0.0639002511,  -0.0037362442,  10.3152863425)
 A2 = (  -7.0434787551,  -0.0010475451,   0.0428795128)
 A3 = (  -0.0016611072, -10.2789065977,   0.0037013260)


Analysis of symmetry for initial positions (statically):
=====================================================================
 Subroutine PRICEL returns:
 Original cell was already a primitive cell.
 

 Routine SETGRP: Setting up the symmetry group for a 
 triclinic supercell.


 Subroutine GETGRP returns: Found  1 space group operations
 (whereof  1 operations were pure point group operations)
 out of a pool of  2 trial point group operations.


The static configuration has the point symmetry C_1 .


Analysis of symmetry for dynamics (positions and initial velocities):
=====================================================================
 Subroutine PRICEL returns:
 Original cell was already a primitive cell.
 

 Routine SETGRP: Setting up the symmetry group for a 
 triclinic supercell.


 Subroutine GETGRP returns: Found  1 space group operations
 (whereof  1 operations were pure point group operations)
 out of a pool of  2 trial point group operations.


The dynamic configuration has the point symmetry C_1 .


 Subroutine INISYM returns: Found  1 space group operations
 (whereof  1 operations are pure point group operations),
 and found     1 'primitive' translations

 
 
 KPOINTS: k-points                                

Automatic generation of k-mesh.
Space group operators:
 irot       det(A)        alpha          n_x          n_y          n_z        tau_x        tau_y        tau_z
    1     1.000000     0.000000     1.000000     0.000000     0.000000     0.000000     0.000000     0.000000
 
 Subroutine IBZKPT returns following result:
 ===========================================
 
 Found     14 irreducible k-points:
 
 Following reciprocal coordinates:
            Coordinates               Weight
  0.000000  0.000000  0.000000      1.000000
  0.333333  0.000000  0.000000      2.000000
  0.000000  0.333333  0.000000      2.000000
  0.333333  0.333333 -0.000000      2.000000
 -0.333333  0.333333  0.000000      2.000000
  0.000000 -0.000000  0.333333      2.000000
  0.333333  0.000000  0.333333      2.000000
 -0.333333 -0.000000  0.333333      2.000000
  0.000000  0.333333  0.333333      2.000000
  0.333333  0.333333  0.333333      2.000000
 -0.333333  0.333333  0.333333      2.000000
  0.000000 -0.333333  0.333333      2.000000
  0.333333 -0.333333  0.333333      2.000000
 -0.333333 -0.333333  0.333333      2.000000
 
 Following cartesian coordinates:
            Coordinates               Weight
  0.000000  0.000000  0.000000      1.000000
  0.236081 -0.000038  0.001462      2.000000
 -0.000024  0.161765  0.000058      2.000000
  0.236057  0.161728  0.001521      2.000000
 -0.236105  0.161803 -0.001404      2.000000
  0.000981  0.000058  0.161201      2.000000
  0.237063  0.000020  0.162663      2.000000
 -0.235100  0.000096  0.159738      2.000000
  0.000958  0.161823  0.161259      2.000000
  0.237039  0.161786  0.162722      2.000000
 -0.235124  0.161861  0.159797      2.000000
  0.001005 -0.161707  0.161142      2.000000
  0.237086 -0.161745  0.162605      2.000000
 -0.235076 -0.161670  0.159680      2.000000
 


--------------------------------------------------------------------------------------------------------




 Dimension of arrays:
   k-points           NKPTS =     14   k-points in BZ     NKDIM =     14   number of bands    NBANDS=    168
   number of dos      NEDOS =    301   number of ions     NIONS =     36
   non local maximal  LDIM  =      6   non local SUM 2l+1 LMDIM =     18
   total plane-waves  NPLWV = 144000
   max r-space proj   IRMAX =   6136   max aug-charges    IRDMAX=  13324
   dimension x,y,z NGX =    40 NGY =   60 NGZ =   60
   dimension x,y,z NGXF=    80 NGYF=  120 NGZF=  120
   support grid    NGXF=    80 NGYF=  120 NGZF=  120
   ions per type =              11   4  11  10
 NGX,Y,Z   is equivalent  to a cutoff of   9.44,  9.70,  9.67 a.u.
 NGXF,Y,Z  is equivalent  to a cutoff of  18.88, 19.41, 19.34 a.u.


 I would recommend the setting:
   dimension x,y,z NGX =    40 NGY =   58 NGZ =   58
 SYSTEM =  automatically generated by mexm         
 POSCAR =  generated by pypospack                  

 Startparameter for this run:
   NWRITE =      2    write-flag & timer
   PREC   = accura    normal or accurate (medium, high low for compatibility)
   ISTART =      0    job   : 0-new  1-cont  2-samecut
   ICHARG =      2    charge: 1-file 2-atom 10-const
   ISPIN  =      1    spin polarized calculation?
   LNONCOLLINEAR =      F non collinear calculations
   LSORBIT =      F    spin-orbit coupling
   INIWAV =      1    electr: 0-lowe 1-rand  2-diag
   LASPH  =      F    aspherical Exc in radial PAW
   METAGGA=      F    non-selfconsistent MetaGGA calc.

 Electronic Relaxation 1
   ENCUT  =  300.0 eV  22.05 Ry    4.70 a.u.   9.95 14.52 14.57*2*pi/ulx,y,z
   ENINI  =  300.0     initial cutoff
   ENAUG  =  461.3 eV  augmentation charge cutoff
   NELM   =     70;   NELMIN=  2; NELMDL= -5     # of ELM steps 
   EDIFF  = 0.1E-04   stopping-criterion for ELM
   LREAL  =      T    real-space projection
   NLSPLINE    = F    spline interpolate recip. space projectors
   LCOMPAT=      F    compatible to vasp.4.4
   GGA_COMPAT  = T    GGA compatible to vasp.4.4-vasp.4.6
   LMAXPAW     = -100 max onsite density
   LMAXMIX     =    2 max onsite mixed and CHGCAR
   VOSKOWN=      0    Vosko Wilk Nusair interpolation
   ROPT   =   -0.00025  -0.00025  -0.00025  -0.00025
 Ionic relaxation
   EDIFFG = -.1E-01   stopping-criterion for IOM
   NSW    =    300    number of steps for IOM
   NBLOCK =      1;   KBLOCK =    300    inner block; outer block 
   IBRION =      2    ionic relax: 0-MD 1-quasi-New 2-CG
   NFREE  =      1    steps in history (QN), initial steepest desc. (CG)
   ISIF   =      3    stress and relaxation
   IWAVPR =     11    prediction:  0-non 1-charg 2-wave 3-comb
   ISYM   =      1    0-nonsym 1-usesym 2-fastsym
   LCORR  =      T    Harris-Foulkes like correction to forces

   POTIM  = 0.1500    time-step for ionic-motion
   TEIN   =    0.0    initial temperature
   TEBEG  =    0.0;   TEEND  =   0.0 temperature during run
   SMASS  =  -3.00    Nose mass-parameter (am)
   estimated Nose-frequenzy (Omega)   =  0.10E-29 period in steps =****** mass=  -0.113E-26a.u.
   SCALEE = 1.0000    scale energy and forces
   NPACO  =    256;   APACO  = 16.0  distance and # of slots for P.C.
   PSTRESS=    0.0 pullay stress

  Mass of Ions in am
   POMASS = 180.95 92.91 91.22178.49
  Ionic Valenz
   ZVAL   =   5.00 13.00 12.00  4.00
  Atomic Wigner-Seitz radii
   RWIGS  =  -1.00 -1.00 -1.00 -1.00
  virtual crystal weights 
   VCA    =   1.00  1.00  1.00  1.00
   NELECT =     279.0000    total number of electrons
   NUPDOWN=      -1.0000    fix difference up-down

 DOS related values:
   EMIN   =  10.00;   EMAX   =-10.00  energy-range for DOS
   EFERMI =   0.00
   ISMEAR =     1;   SIGMA  =   0.15  broadening in eV -4-tet -1-fermi 0-gaus

 Electronic relaxation 2 (details)
   IALGO  =     68    algorithm
   LDIAG  =      T    sub-space diagonalisation (order eigenvalues)
   LSUBROT=      F    optimize rotation matrix (better conditioning)
   TURBO    =      0    0=normal 1=particle mesh
   IRESTART =      0    0=no restart 2=restart with 2 vectors
   NREBOOT  =      0    no. of reboots
   NMIN     =      0    reboot dimension
   EREF     =   0.00    reference energy to select bands
   IMIX   =      4    mixing-type and parameters
     AMIX     =   0.40;   BMIX     =  1.00
     AMIX_MAG =   1.60;   BMIX_MAG =  1.00
     AMIN     =   0.10
     WC   =   100.;   INIMIX=   1;  MIXPRE=   1;  MAXMIX= -45

 Intra band minimization:
   WEIMIN = 0.0010     energy-eigenvalue tresh-hold
   EBREAK =  0.15E-07  absolut break condition
   DEPER  =   0.30     relativ break condition  

   TIME   =   0.40     timestep for ELM

  volume/ion in A,a.u.               =      20.74       139.99
  Fermi-wavevector in a.u.,A,eV,Ry     =   1.179080  2.228138 18.915220  1.390229
  Thomas-Fermi vector in A             =   2.315397
 
 Write flags
   LWAVE  =      F    write WAVECAR
   LCHARG =      F    write CHGCAR
   LVTOT  =      F    write LOCPOT, total local potential
   LVHAR  =      F    write LOCPOT, Hartree potential only
   LELF   =      F    write electronic localiz. function (ELF)
   LORBIT =      0    0 simple, 1 ext, 2 COOP (PROOUT)


 Dipole corrections
   LMONO  =      F    monopole corrections only (constant potential shift)
   LDIPOL =      F    correct potential (dipole corrections)
   IDIPOL =      0    1-x, 2-y, 3-z, 4-all directions 
   EPSILON=  1.0000000 bulk dielectric constant

 Exchange correlation treatment:
   GGA     =    --    GGA type
   LEXCH   =     8    internal setting for exchange type
   VOSKOWN=      0    Vosko Wilk Nusair interpolation
   LHFCALC =     F    Hartree Fock is set to
   LHFONE  =     F    Hartree Fock one center treatment
   AEXX    =    0.0000 exact exchange contribution

 Linear response parameters
   LEPSILON=     F    determine dielectric tensor
   LRPA    =     F    only Hartree local field effects (RPA)
   LNABLA  =     F    use nabla operator in PAW spheres
   LVEL    =     F    velocity operator in full k-point grid
   LINTERFAST=   F  fast interpolation
   KINTER  =     0    interpolate to denser k-point grid
   CSHIFT  =0.1000    complex shift for real part using Kramers Kronig
   OMEGAMAX=  -1.0    maximum frequency
   DEG_THRESHOLD= 0.2000000E-02 threshold for treating states as degnerate
   RTIME   =    0.100 relaxation time in fs

 Orbital magnetization related:
   ORBITALMAG=     F  switch on orbital magnetization
   LCHIMAG   =     F  perturbation theory with respect to B field
   DQ        =  0.001000  dq finite difference perturbation B field



--------------------------------------------------------------------------------------------------------


 conjugate gradient relaxation of ions
 charge density and potential will be updated during run
 non-spin polarized calculation
 RMM-DIIS sequential band-by-band and
  variant of blocked Davidson during initial phase
 perform sub-space diagonalisation
    before iterative eigenvector-optimisation
 modified Broyden-mixing scheme, WC =      100.0
 initial mixing is a Kerker type mixing with AMIX =  0.4000 and BMIX =      1.0000
 Hartree-type preconditioning will be used
 using additional bands           28
 real space projection scheme for non local part
 use partial core corrections
 calculate Harris-corrections to forces 
   (improved forces if not selfconsistent)
 use gradient corrections 
 use of overlap-Matrix (Vanderbilt PP)
 Methfessel and Paxton  Order N= 1 SIGMA  =   0.15


--------------------------------------------------------------------------------------------------------


  energy-cutoff  :      300.00
  volume of cell :      746.79
      direct lattice vectors                 reciprocal lattice vectors
     7.043478755  0.001047545 -0.042879513     0.141980656 -0.000022628  0.000879521
     0.001661107 10.278906598 -0.003701326    -0.000014255  0.097286627  0.000035149
    -0.063900251 -0.003736244 10.315286343     0.000590193  0.000034814  0.096947172

  length of vectors
     7.043609353 10.278907398 10.315484939     0.141983382  0.097286635  0.096948975


 
 k-points in units of 2pi/SCALE and weight: k-points                                
   0.00000000  0.00000000  0.00000000       0.037
   0.23608118 -0.00003762  0.00146244       0.074
  -0.00002370  0.16176529  0.00005845       0.074
   0.23605747  0.16172766  0.00152089       0.074
  -0.23610488  0.16180291 -0.00140400       0.074
   0.00098136  0.00005789  0.16120085       0.074
   0.23706253  0.00002026  0.16266329       0.074
  -0.23509982  0.00009551  0.15973841       0.074
   0.00095765  0.16182317  0.16125930       0.074
   0.23703883  0.16178555  0.16272174       0.074
  -0.23512352  0.16186080  0.15979685       0.074
   0.00100506 -0.16170740  0.16114240       0.074
   0.23708623 -0.16174502  0.16260485       0.074
  -0.23507612 -0.16166977  0.15967996       0.074
 
 k-points in reciprocal lattice and weights: k-points                                
   0.00000000  0.00000000  0.00000000       0.037
   0.33333333  0.00000000  0.00000000       0.074
   0.00000000  0.33333333  0.00000000       0.074
   0.33333333  0.33333333 -0.00000000       0.074
  -0.33333333  0.33333333  0.00000000       0.074
   0.00000000 -0.00000000  0.33333333       0.074
   0.33333333  0.00000000  0.33333333       0.074
  -0.33333333 -0.00000000  0.33333333       0.074
   0.00000000  0.33333333  0.33333333       0.074
   0.33333333  0.33333333  0.33333333       0.074
  -0.33333333  0.33333333  0.33333333       0.074
   0.00000000 -0.33333333  0.33333333       0.074
   0.33333333 -0.33333333  0.33333333       0.074
  -0.33333333 -0.33333333  0.33333333       0.074
 
 position of ions in fractional coordinates (direct lattice) 
   0.74315100  0.83035900  0.82995700
   0.75568400  0.83626700  0.16959300
   0.99150700  0.98887200  0.32357500
   0.28462200  0.49524300  0.14348800
   0.24175900  0.84895300  0.17395000
   0.51478100  0.99749800  0.66776200
   0.72295000  0.50253600  0.15216900
   0.77877000  0.15436000  0.48630700
   0.50457800  0.67381900  0.99780000
   0.70988500  0.16205100  0.84745500
   0.50812400  0.66836000  0.67265600
   0.99531000  0.67491800  0.69433700
   0.24998500  0.83247500  0.82151800
   0.51231000  0.34361700  0.99863900
   0.74005100  0.50628600  0.84232000
   0.00161300  0.35009900  0.31674000
   0.49310700  0.66911600  0.32575400
   0.22785800  0.16612400  0.50175200
   0.27542700  0.17131700  0.82846100
   0.00026900  0.66873800  0.00186800
   0.50905100  0.33588300  0.34143500
   0.78784700  0.51865300  0.50474600
   0.77055600  0.82915300  0.50346500
   0.25515300  0.49510200  0.83496800
   0.25032900  0.16121300  0.16764500
   0.23614500  0.83316200  0.50825400
   0.99178200  0.99685800  0.99519700
   0.96524500  0.31995000  0.68198800
   0.74344200  0.16185300  0.16618300
   0.97742800  0.00830200  0.68568700
   0.22837800  0.50196000  0.51621600
   0.01714000  0.66218000  0.30686600
   0.49448600  0.97540900  0.99765100
   0.50861400  0.99533200  0.34236900
   0.53044400  0.32993700  0.65309700
   0.98221500  0.33405100  0.99814100
 
 position of ions in cartesian coordinates  (Angst):
   5.18271313  8.53286017  8.52630472
   5.31319629  8.59606836  1.71390170
   6.96462459 10.16435262  3.29159330
   1.99638274  5.09031859  1.46608230
   1.69311913  8.72591193  1.78083530
   3.58483583 10.25123311  6.86239061
   5.08319409  5.16570939  1.53680701
   5.45443122  1.58565086  4.98243134
   3.49134404  6.92292311 10.26846263
   4.94617651  1.66328443  8.71070166
   3.53708793  6.86802909  6.91437732
   6.96719764  6.93586750  7.11710847
   1.70965166  8.55412525  8.46039291
   3.54520210  3.52881256 10.27800780
   5.15955003  5.20169463  8.65516504
  -0.00829708  3.59745319  3.26589880
   3.45348439  6.87708032  3.33662498
   1.57312685  1.70593710  5.16533023
   1.88730993  1.75814463  8.53336816
   0.00288618  6.87388874  0.01678220
   3.56423006  3.45176755  3.49892872
   5.51779175  5.33012519  5.17089732
   5.39660059  8.52171237  5.15727561
   1.74463249  5.08625485  8.60016064
   1.75274223  1.65672924  1.71797549
   1.63218870  8.56234279  5.22957596
   6.92365800 10.24393091 10.21952520
   6.75563492  3.28719923  6.99232803
   5.22606765  1.66382976  1.68174773
   6.84069157  0.08379749  7.03111538
   1.57642307  5.15791048  5.31326520
   0.10221636  6.80535780  3.16222476
   3.42077175 10.02292853 10.26624211
   3.56218779 10.23017828  3.50614110
   3.69498604  3.38950714  6.71291618
   6.85498392  3.43097864 10.25275689
 


--------------------------------------------------------------------------------------------------------


 k-point  1 :   0.0000 0.0000 0.0000  plane waves:    8815
 k-point  2 :   0.3333 0.0000 0.0000  plane waves:    8829
 k-point  3 :   0.0000 0.3333 0.0000  plane waves:    8797
 k-point  4 :   0.3333 0.3333-0.0000  plane waves:    8817
 k-point  5 :  -0.3333 0.3333 0.0000  plane waves:    8820
 k-point  6 :   0.0000-0.0000 0.3333  plane waves:    8820
 k-point  7 :   0.3333 0.0000 0.3333  plane waves:    8806
 k-point  8 :  -0.3333-0.0000 0.3333  plane waves:    8811
 k-point  9 :   0.0000 0.3333 0.3333  plane waves:    8777
 k-point 10 :   0.3333 0.3333 0.3333  plane waves:    8831
 k-point 11 :  -0.3333 0.3333 0.3333  plane waves:    8807
 k-point 12 :   0.0000-0.3333 0.3333  plane waves:    8779
 k-point 13 :   0.3333-0.3333 0.3333  plane waves:    8826
 k-point 14 :  -0.3333-0.3333 0.3333  plane waves:    8812

 maximum and minimum number of plane-waves per node :      1791     1733

 maximum number of plane-waves:      8831
 maximum index in each direction: 
   IXMAX=   10   IYMAX=   14   IZMAX=   14
   IXMIN=  -10   IYMIN=  -14   IZMIN=  -14

 WARNING: aliasing errors must be expected set NGX to  42 to avoid them
 NGY is ok and might be reduce to  58
 NGZ is ok and might be reduce to  58
 aliasing errors are usually negligible using standard VASP settings
 and one can safely disregard these warnings

 real space projection operators:
  total allocation   :      25681.64 KBytes
  max/ min on nodes  :       5196.80       5069.11


 parallel 3D FFT for wavefunctions:
    minimum data exchange during FFTs selected (reduces bandwidth)
 parallel 3D FFT for charge:
    minimum data exchange during FFTs selected (reduces bandwidth)


 total amount of memory used by VASP on root node    66378. kBytes
========================================================================

   base      :      30000. kBytes
   nonlr-proj:       9980. kBytes
   fftplans  :       2814. kBytes
   grid      :       5360. kBytes
   one-center:        124. kBytes
   wavefun   :      18100. kBytes
 
     INWAV:  cpu time    0.0000: real time    0.0000
 Broyden mixing: mesh for mixing (old mesh)
   NGX = 19   NGY = 29   NGZ = 29
  (NGX  = 80   NGY  =120   NGZ  =120)
  gives a total of  15979 points

 initial charge density was supplied:
 charge density of overlapping atoms calculated
 number of electron     279.0000000 magnetization 
 keeping initial charge density in first step


--------------------------------------------------------------------------------------------------------


 Maximum index for non-local projection operator         1183
 Maximum index for augmentation-charges          671 (set IRDMAX)


--------------------------------------------------------------------------------------------------------


 First call to EWALD:  gamma=   0.195
 Maximum number of real-space cells 3x 2x 2
 Maximum number of reciprocal cells 2x 3x 3

 FEWALD executed in parallel
    FEWALD:  cpu time    0.0520: real time    0.0523


----------------------------------------- Iteration    1(   1)  ---------------------------------------


    POTLOK:  cpu time    0.0478: real time    0.0648
    SETDIJ:  cpu time    0.1335: real time    0.1340
     EDDAV:  cpu time    0.9238: real time    0.9459
       DOS:  cpu time    0.0019: real time    0.0020
    --------------------------------------------
      LOOP:  cpu time    1.1149: real time    1.3786

 eigenvalue-minimisations  :  5096
 total energy-change (2. order) : 0.1625294E+04  (-0.1015004E+05)
 number of electron     279.0000000 magnetization 
 augmentation part      279.0000000 magnetization 

 Free energy of the ion-electron system (eV)
  ---------------------------------------------------
  alpha Z        PSCENC =      1390.51935500
  Ewald energy   TEWEN  =    -17556.27890525
  -Hartree energ DENC   =     -5902.36241418
  -exchange      EXHF   =         0.00000000
  -V(xc)+E(xc)   XCENC  =      -488.65997014
  PAW double counting   =     19297.43001009   -17611.14445987
  entropy T*S    EENTRO =        -0.01143999
  eigenvalues    EBANDS =       -46.57449972
  atomic energy  EATOM  =     22542.37654026
  Solvation  Ediel_sol  =         0.00000000
  ---------------------------------------------------
  free energy    TOTEN  =      1625.29421620 eV

  energy without entropy =     1625.30565619  energy(sigma->0) =     1625.29802953


--------------------------------------------------------------------------------------------------------




----------------------------------------- Iteration    1(   2)  ---------------------------------------


     EDDAV:  cpu time    1.0973: real time    1.2635
       DOS:  cpu time    0.0022: real time    0.0023
    --------------------------------------------
      LOOP:  cpu time    1.1002: real time    1.3698

 eigenvalue-minimisations  :  5096
 total energy-change (2. order) :-0.1720975E+04  (-0.1651578E+04)
 number of electron     279.0000000 magnetization 
 augmentation part      279.0000000 magnetization 

 Free energy of the ion-electron system (eV)
  ---------------------------------------------------
  alpha Z        PSCENC =      1390.51935500
  Ewald energy   TEWEN  =    -17556.27890525
  -Hartree energ DENC   =     -5902.36241418
  -exchange      EXHF   =         0.00000000
  -V(xc)+E(xc)   XCENC  =      -488.65997014
  PAW double counting   =     19297.43001009   -17611.14445987
  entropy T*S    EENTRO =        -0.00041229
  eigenvalues    EBANDS =     -1767.56100419
  atomic energy  EATOM  =     22542.37654026
  Solvation  Ediel_sol  =         0.00000000
  ---------------------------------------------------
  free energy    TOTEN  =       -95.68126056 eV

  energy without entropy =      -95.68084828  energy(sigma->0) =      -95.68112313


--------------------------------------------------------------------------------------------------------




----------------------------------------- Iteration    1(   3)  ---------------------------------------


     EDDAV:  cpu time    1.3043: real time    1.4615
       DOS:  cpu time    0.0013: real time    0.0013
    --------------------------------------------
      LOOP:  cpu time    1.3059: real time    1.4832

 eigenvalue-minimisations  :  8016
 total energy-change (2. order) :-0.2457130E+03  (-0.2329905E+03)
 number of electron     279.0000000 magnetization 
 augmentation part      279.0000000 magnetization 

 Free energy of the ion-electron system (eV)
  ---------------------------------------------------
  alpha Z        PSCENC =      1390.51935500
  Ewald energy   TEWEN  =    -17556.27890525
  -Hartree energ DENC   =     -5902.36241418
  -exchange      EXHF   =         0.00000000
  -V(xc)+E(xc)   XCENC  =      -488.65997014
  PAW double counting   =     19297.43001009   -17611.14445987
  entropy T*S    EENTRO =         0.00703230
  eigenvalues    EBANDS =     -2013.28140845
  atomic energy  EATOM  =     22542.37654026
  Solvation  Ediel_sol  =         0.00000000
  ---------------------------------------------------
  free energy    TOTEN  =      -341.39422023 eV

  energy without entropy =     -341.40125253  energy(sigma->0) =     -341.39656433


--------------------------------------------------------------------------------------------------------




----------------------------------------- Iteration    1(   4)  ---------------------------------------


     EDDAV:  cpu time    1.3965: real time    1.4599
       DOS:  cpu time    0.0013: real time    0.0014
    --------------------------------------------
      LOOP:  cpu time    1.3984: real time    1.4842

 eigenvalue-minimisations  :  8048
 total energy-change (2. order) :-0.3118505E+02  (-0.2970864E+02)
 number of electron     279.0000000 magnetization 
 augmentation part      279.0000000 magnetization 

 Free energy of the ion-electron system (eV)
  ---------------------------------------------------
  alpha Z        PSCENC =      1390.51935500
  Ewald energy   TEWEN  =    -17556.27890525
  -Hartree energ DENC   =     -5902.36241418
  -exchange      EXHF   =         0.00000000
  -V(xc)+E(xc)   XCENC  =      -488.65997014
  PAW double counting   =     19297.43001009   -17611.14445987
  entropy T*S    EENTRO =         0.01068517
  eigenvalues    EBANDS =     -2044.47011008
  atomic energy  EATOM  =     22542.37654026
  Solvation  Ediel_sol  =         0.00000000
  ---------------------------------------------------
  free energy    TOTEN  =      -372.57926900 eV

  energy without entropy =     -372.58995417  energy(sigma->0) =     -372.58283072


--------------------------------------------------------------------------------------------------------




----------------------------------------- Iteration    1(   5)  ---------------------------------------


     EDDAV:  cpu time    1.2737: real time    1.3090
       DOS:  cpu time    0.0016: real time    0.0016
    CHARGE:  cpu time    0.0313: real time    0.0316
    MIXING:  cpu time    0.0015: real time    0.0015
    --------------------------------------------
      LOOP:  cpu time    1.3084: real time    1.3629

 eigenvalue-minimisations  :  7352
 total energy-change (2. order) :-0.3222964E+01  (-0.3141669E+01)
 number of electron     279.0000007 magnetization 
 augmentation part       12.7180980 magnetization 

 Broyden mixing:
  rms(total) = 0.65620E+01    rms(broyden)= 0.65617E+01
  rms(prec ) = 0.68530E+01
  weight for this iteration     100.00

 Free energy of the ion-electron system (eV)
  ---------------------------------------------------
  alpha Z        PSCENC =      1390.51935500
  Ewald energy   TEWEN  =    -17556.27890525
  -Hartree energ DENC   =     -5902.36241418
  -exchange      EXHF   =         0.00000000
  -V(xc)+E(xc)   XCENC  =      -488.65997014
  PAW double counting   =     19297.43001009   -17611.14445987
  entropy T*S    EENTRO =         0.01569185
  eigenvalues    EBANDS =     -2047.69808099
  atomic energy  EATOM  =     22542.37654026
  Solvation  Ediel_sol  =         0.00000000
  ---------------------------------------------------
  free energy    TOTEN  =      -375.80223323 eV

  energy without entropy =     -375.81792508  energy(sigma->0) =     -375.80746385


--------------------------------------------------------------------------------------------------------




----------------------------------------- Iteration    1(   6)  ---------------------------------------


    POTLOK:  cpu time    0.0297: real time    0.0303
    SETDIJ:  cpu time    0.0036: real time    0.0036
    EDDIAG:  cpu time    0.0878: real time    0.0895
  RMM-DIIS:  cpu time    0.7133: real time    0.7293
    ORTHCH:  cpu time    0.0110: real time    0.0113
       DOS:  cpu time    0.0020: real time    0.0020
    CHARGE:  cpu time    0.0285: real time    0.0288
    MIXING:  cpu time    0.0017: real time    0.0027
    --------------------------------------------
      LOOP:  cpu time    0.8782: real time    0.9202

 eigenvalue-minimisations  :  6983
 total energy-change (2. order) : 0.1012077E+02  (-0.2756266E+01)
 number of electron     279.0000007 magnetization 
 augmentation part       13.3261137 magnetization 

 Broyden mixing:
  rms(total) = 0.31186E+01    rms(broyden)= 0.31185E+01
  rms(prec ) = 0.34928E+01
  weight for this iteration     100.00

 eigenvalues of (default mixing * dielectric matrix)
  average eigenvalue GAMMA=   1.8028
  1.8028

 Free energy of the ion-electron system (eV)
  ---------------------------------------------------
  alpha Z        PSCENC =      1390.51935500
  Ewald energy   TEWEN  =    -17556.27890525
  -Hartree energ DENC   =     -5729.34006447
  -exchange      EXHF   =         0.00000000
  -V(xc)+E(xc)   XCENC  =      -491.22006026
  PAW double counting   =     24642.89749655   -22968.59165085
  entropy T*S    EENTRO =         0.00129843
  eigenvalues    EBANDS =     -2196.04547653
  atomic energy  EATOM  =     22542.37654026
  Solvation  Ediel_sol  =         0.00000000
  ---------------------------------------------------
  free energy    TOTEN  =      -365.68146713 eV

  energy without entropy =     -365.68276556  energy(sigma->0) =     -365.68189994


--------------------------------------------------------------------------------------------------------




----------------------------------------- Iteration    1(   7)  ---------------------------------------


    POTLOK:  cpu time    0.0294: real time    0.0300
    SETDIJ:  cpu time    0.0036: real time    0.0037
    EDDIAG:  cpu time    0.0762: real time    0.0778
  RMM-DIIS:  cpu time    0.7043: real time    0.7155
    ORTHCH:  cpu time    0.0112: real time    0.0113
       DOS:  cpu time    0.0013: real time    0.0013
    CHARGE:  cpu time    0.0289: real time    0.0290
    MIXING:  cpu time    0.0012: real time    0.0012
    --------------------------------------------
      LOOP:  cpu time    0.8567: real time    0.8890

 eigenvalue-minimisations  :  7047
 total energy-change (2. order) :-0.2304880E+01  (-0.3257742E+01)
 number of electron     279.0000007 magnetization 
 augmentation part       13.6656578 magnetization 

 Broyden mixing:
  rms(total) = 0.12783E+01    rms(broyden)= 0.12780E+01
  rms(prec ) = 0.33633E+01
  weight for this iteration     100.00

 eigenvalues of (default mixing * dielectric matrix)
  average eigenvalue GAMMA=   1.1712
  1.8378  0.5046

 Free energy of the ion-electron system (eV)
  ---------------------------------------------------
  alpha Z        PSCENC =      1390.51935500
  Ewald energy   TEWEN  =    -17556.27890525
  -Hartree energ DENC   =     -5694.58526068
  -exchange      EXHF   =         0.00000000
  -V(xc)+E(xc)   XCENC  =      -488.83099272
  PAW double counting   =     29448.39597052   -27769.61338388
  entropy T*S    EENTRO =         0.00459593
  eigenvalues    EBANDS =     -2239.97426604
  atomic energy  EATOM  =     22542.37654026
  Solvation  Ediel_sol  =         0.00000000
  ---------------------------------------------------
  free energy    TOTEN  =      -367.98634686 eV

  energy without entropy =     -367.99094279  energy(sigma->0) =     -367.98787884


--------------------------------------------------------------------------------------------------------




----------------------------------------- Iteration    1(   8)  ---------------------------------------


    POTLOK:  cpu time    0.0293: real time    0.0299
    SETDIJ:  cpu time    0.0037: real time    0.0037
    EDDIAG:  cpu time    0.0736: real time    0.0750
  RMM-DIIS:  cpu time    0.7055: real time    0.7224
    ORTHCH:  cpu time    0.0113: real time    0.0115
       DOS:  cpu time    0.0028: real time    0.0028
    CHARGE:  cpu time    0.0288: real time    0.0291
    MIXING:  cpu time    0.0012: real time    0.0013
    --------------------------------------------
      LOOP:  cpu time    0.8567: real time    0.9005

 eigenvalue-minimisations  :  7108
 total energy-change (2. order) : 0.6960997E+01  (-0.7919268E+00)
 number of electron     279.0000007 magnetization 
 augmentation part       13.5268680 magnetization 

 Broyden mixing:
  rms(total) = 0.41653E+00    rms(broyden)= 0.41617E+00
  rms(prec ) = 0.73367E+00
  weight for this iteration     100.00

 eigenvalues of (default mixing * dielectric matrix)
  average eigenvalue GAMMA=   1.0798
  1.8586  0.9337  0.4472

 Free energy of the ion-electron system (eV)
  ---------------------------------------------------
  alpha Z        PSCENC =      1390.51935500
  Ewald energy   TEWEN  =    -17556.27890525
  -Hartree energ DENC   =     -5658.54273029
  -exchange      EXHF   =         0.00000000
  -V(xc)+E(xc)   XCENC  =      -488.48697099
  PAW double counting   =     30909.24991285   -29229.48463291
  entropy T*S    EENTRO =         0.01675652
  eigenvalues    EBANDS =     -2270.39467528
  atomic energy  EATOM  =     22542.37654026
  Solvation  Ediel_sol  =         0.00000000
  ---------------------------------------------------
  free energy    TOTEN  =      -361.02535010 eV

  energy without entropy =     -361.04210662  energy(sigma->0) =     -361.03093560


--------------------------------------------------------------------------------------------------------




----------------------------------------- Iteration    1(   9)  ---------------------------------------


    POTLOK:  cpu time    0.0301: real time    0.0306
    SETDIJ:  cpu time    0.0037: real time    0.0038
    EDDIAG:  cpu time    0.0757: real time    0.0766
  RMM-DIIS:  cpu time    0.7390: real time    0.7441
    ORTHCH:  cpu time    0.0112: real time    0.0112
       DOS:  cpu time    0.0017: real time    0.0017
    CHARGE:  cpu time    0.0296: real time    0.0296
    MIXING:  cpu time    0.0014: real time    0.0014
    --------------------------------------------
      LOOP:  cpu time    0.8930: real time    0.9223

 eigenvalue-minimisations  :  7293
 total energy-change (2. order) : 0.3258748E+00  (-0.3045197E+00)
 number of electron     279.0000007 magnetization 
 augmentation part       13.3956105 magnetization 

 Broyden mixing:
  rms(total) = 0.27603E+00    rms(broyden)= 0.27595E+00
  rms(prec ) = 0.35401E+00
  weight for this iteration     100.00

 eigenvalues of (default mixing * dielectric matrix)
  average eigenvalue GAMMA=   1.0825
  1.7131  1.7131  0.4520  0.4520

 Free energy of the ion-electron system (eV)
  ---------------------------------------------------
  alpha Z        PSCENC =      1390.51935500
  Ewald energy   TEWEN  =    -17556.27890525
  -Hartree energ DENC   =     -5653.69966325
  -exchange      EXHF   =         0.00000000
  -V(xc)+E(xc)   XCENC  =      -488.23871853
  PAW double counting   =     31173.30124013   -29490.86981411
  entropy T*S    EENTRO =         0.02000853
  eigenvalues    EBANDS =     -2277.82951813
  atomic energy  EATOM  =     22542.37654026
  Solvation  Ediel_sol  =         0.00000000
  ---------------------------------------------------
  free energy    TOTEN  =      -360.69947534 eV

  energy without entropy =     -360.71948387  energy(sigma->0) =     -360.70614485


--------------------------------------------------------------------------------------------------------




----------------------------------------- Iteration    1(  10)  ---------------------------------------


    POTLOK:  cpu time    0.0294: real time    0.0297
    SETDIJ:  cpu time    0.0043: real time    0.0044
    EDDIAG:  cpu time    0.0763: real time    0.0768
  RMM-DIIS:  cpu time    0.8216: real time    0.8258
    ORTHCH:  cpu time    0.0116: real time    0.0116
       DOS:  cpu time    0.0086: real time    0.0087
    CHARGE:  cpu time    0.0539: real time    0.0541
    MIXING:  cpu time    0.0013: real time    0.0013
    --------------------------------------------
      LOOP:  cpu time    1.0077: real time    1.0394

 eigenvalue-minimisations  :  7316
 total energy-change (2. order) : 0.2277854E-04  (-0.6291211E-01)
 number of electron     279.0000006 magnetization 
 augmentation part       13.3033943 magnetization 

 Broyden mixing:
  rms(total) = 0.15925E+00    rms(broyden)= 0.15920E+00
  rms(prec ) = 0.26520E+00
  weight for this iteration     100.00

 eigenvalues of (default mixing * dielectric matrix)
  average eigenvalue GAMMA=   1.1055
  1.9201  1.9201  0.7572  0.4804  0.4495

 Free energy of the ion-electron system (eV)
  ---------------------------------------------------
  alpha Z        PSCENC =      1390.51935500
  Ewald energy   TEWEN  =    -17556.27890525
  -Hartree energ DENC   =     -5663.96596372
  -exchange      EXHF   =         0.00000000
  -V(xc)+E(xc)   XCENC  =      -487.39477613
  PAW double counting   =     31434.46471923   -29746.34495736
  entropy T*S    EENTRO =         0.02116337
  eigenvalues    EBANDS =     -2274.09662796
  atomic energy  EATOM  =     22542.37654026
  Solvation  Ediel_sol  =         0.00000000
  ---------------------------------------------------
  free energy    TOTEN  =      -360.69945257 eV

  energy without entropy =     -360.72061594  energy(sigma->0) =     -360.70650702


--------------------------------------------------------------------------------------------------------




----------------------------------------- Iteration    1(  11)  ---------------------------------------


    POTLOK:  cpu time    0.0287: real time    0.0291
    SETDIJ:  cpu time    0.0037: real time    0.0038
    EDDIAG:  cpu time    0.0752: real time    0.0764
  RMM-DIIS:  cpu time    0.7911: real time    0.8084
    ORTHCH:  cpu time    0.0110: real time    0.0111
       DOS:  cpu time    0.0024: real time    0.0025
    CHARGE:  cpu time    0.0459: real time    0.0463
    MIXING:  cpu time    0.0014: real time    0.0014
    --------------------------------------------
      LOOP:  cpu time    0.9598: real time    1.0161

 eigenvalue-minimisations  :  7238
 total energy-change (2. order) : 0.2607494E-01  (-0.1809295E-01)
 number of electron     279.0000006 magnetization 
 augmentation part       13.2637488 magnetization 

 Broyden mixing:
  rms(total) = 0.81712E-01    rms(broyden)= 0.81664E-01
  rms(prec ) = 0.16354E+00
  weight for this iteration     100.00

 eigenvalues of (default mixing * dielectric matrix)
  average eigenvalue GAMMA=   1.0771
  2.1302  1.9473  0.9936  0.4893  0.4893  0.4129

 Free energy of the ion-electron system (eV)
  ---------------------------------------------------
  alpha Z        PSCENC =      1390.51935500
  Ewald energy   TEWEN  =    -17556.27890525
  -Hartree energ DENC   =     -5669.06691140
  -exchange      EXHF   =         0.00000000
  -V(xc)+E(xc)   XCENC  =      -486.89496302
  PAW double counting   =     31615.76136642   -29923.94549626
  entropy T*S    EENTRO =         0.02148941
  eigenvalues    EBANDS =     -2273.16585280
  atomic energy  EATOM  =     22542.37654026
  Solvation  Ediel_sol  =         0.00000000
  ---------------------------------------------------
  free energy    TOTEN  =      -360.67337763 eV

  energy without entropy =     -360.69486704  energy(sigma->0) =     -360.68054077


--------------------------------------------------------------------------------------------------------




----------------------------------------- Iteration    1(  12)  ---------------------------------------


    POTLOK:  cpu time    0.0328: real time    0.0334
    SETDIJ:  cpu time    0.0097: real time    0.0098
    EDDIAG:  cpu time    0.0839: real time    0.0852
  RMM-DIIS:  cpu time    0.6515: real time    0.8078
    ORTHCH:  cpu time    0.0112: real time    0.0114
       DOS:  cpu time    0.0009: real time    0.0009
    CHARGE:  cpu time    0.0295: real time    0.0298
    MIXING:  cpu time    0.0014: real time    0.0015
    --------------------------------------------
      LOOP:  cpu time    0.8216: real time    1.0217

 eigenvalue-minimisations  :  7336
 total energy-change (2. order) : 0.6887730E-02  (-0.7609049E-02)
 number of electron     279.0000006 magnetization 
 augmentation part       13.2585510 magnetization 

 Broyden mixing:
  rms(total) = 0.40856E-01    rms(broyden)= 0.40831E-01
  rms(prec ) = 0.66805E-01
  weight for this iteration     100.00

 eigenvalues of (default mixing * dielectric matrix)
  average eigenvalue GAMMA=   1.0393
  2.1267  1.9148  1.2446  0.6286  0.5590  0.4304  0.3708

 Free energy of the ion-electron system (eV)
  ---------------------------------------------------
  alpha Z        PSCENC =      1390.51935500
  Ewald energy   TEWEN  =    -17556.27890525
  -Hartree energ DENC   =     -5673.36213142
  -exchange      EXHF   =         0.00000000
  -V(xc)+E(xc)   XCENC  =      -486.61227009
  PAW double counting   =     31745.23536166   -30051.16562795
  entropy T*S    EENTRO =         0.02143216
  eigenvalues    EBANDS =     -2271.40024427
  atomic energy  EATOM  =     22542.37654026
  Solvation  Ediel_sol  =         0.00000000
  ---------------------------------------------------
  free energy    TOTEN  =      -360.66648990 eV

  energy without entropy =     -360.68792206  energy(sigma->0) =     -360.67363395


--------------------------------------------------------------------------------------------------------




----------------------------------------- Iteration    1(  13)  ---------------------------------------


    POTLOK:  cpu time    0.0291: real time    0.0298
    SETDIJ:  cpu time    0.0036: real time    0.0036
    EDDIAG:  cpu time    0.0749: real time    0.0764
  RMM-DIIS:  cpu time    0.7814: real time    0.7988
    ORTHCH:  cpu time    0.0111: real time    0.0113
       DOS:  cpu time    0.0095: real time    0.0096
    CHARGE:  cpu time    0.0469: real time    0.0473
    MIXING:  cpu time    0.0014: real time    0.0014
    --------------------------------------------
      LOOP:  cpu time    0.9585: real time    1.0048

 eigenvalue-minimisations  :  7279
 total energy-change (2. order) : 0.1061948E-02  (-0.2519094E-02)
 number of electron     279.0000006 magnetization 
 augmentation part       13.2557430 magnetization 

 Broyden mixing:
  rms(total) = 0.24774E-01    rms(broyden)= 0.24763E-01
  rms(prec ) = 0.34845E-01
  weight for this iteration     100.00

 eigenvalues of (default mixing * dielectric matrix)
  average eigenvalue GAMMA=   1.0479
  2.0842  2.0842  1.3920  0.9626  0.5377  0.5377  0.4166  0.3684

 Free energy of the ion-electron system (eV)
  ---------------------------------------------------
  alpha Z        PSCENC =      1390.51935500
  Ewald energy   TEWEN  =    -17556.27890525
  -Hartree energ DENC   =     -5673.70283850
  -exchange      EXHF   =         0.00000000
  -V(xc)+E(xc)   XCENC  =      -486.57173427
  PAW double counting   =     31805.99323725   -30111.16354671
  entropy T*S    EENTRO =         0.02239131
  eigenvalues    EBANDS =     -2271.85992705
  atomic energy  EATOM  =     22542.37654026
  Solvation  Ediel_sol  =         0.00000000
  ---------------------------------------------------
  free energy    TOTEN  =      -360.66542795 eV

  energy without entropy =     -360.68781926  energy(sigma->0) =     -360.67289172


--------------------------------------------------------------------------------------------------------




----------------------------------------- Iteration    1(  14)  ---------------------------------------


    POTLOK:  cpu time    0.0285: real time    0.0290
    SETDIJ:  cpu time    0.0079: real time    0.0080
    EDDIAG:  cpu time    0.0747: real time    0.0760
  RMM-DIIS:  cpu time    0.7442: real time    0.7613
    ORTHCH:  cpu time    0.0111: real time    0.0113
       DOS:  cpu time    0.0020: real time    0.0021
    CHARGE:  cpu time    0.0289: real time    0.0293
    MIXING:  cpu time    0.0016: real time    0.0016
    --------------------------------------------
      LOOP:  cpu time    0.8995: real time    0.9393

 eigenvalue-minimisations  :  7403
 total energy-change (2. order) :-0.2181187E-03  (-0.1074743E-02)
 number of electron     279.0000006 magnetization 
 augmentation part       13.2555777 magnetization 

 Broyden mixing:
  rms(total) = 0.13900E-01    rms(broyden)= 0.13896E-01
  rms(prec ) = 0.19374E-01
  weight for this iteration     100.00

 eigenvalues of (default mixing * dielectric matrix)
  average eigenvalue GAMMA=   1.0787
  2.2269  2.2269  1.6515  1.0962  0.6280  0.6280  0.4438  0.4438  0.3634

 Free energy of the ion-electron system (eV)
  ---------------------------------------------------
  alpha Z        PSCENC =      1390.51935500
  Ewald energy   TEWEN  =    -17556.27890525
  -Hartree energ DENC   =     -5673.74806295
  -exchange      EXHF   =         0.00000000
  -V(xc)+E(xc)   XCENC  =      -486.57412567
  PAW double counting   =     31839.85979400   -30144.61784689
  entropy T*S    EENTRO =         0.02224139
  eigenvalues    EBANDS =     -2272.22463596
  atomic energy  EATOM  =     22542.37654026
  Solvation  Ediel_sol  =         0.00000000
  ---------------------------------------------------
  free energy    TOTEN  =      -360.66564607 eV

  energy without entropy =     -360.68788746  energy(sigma->0) =     -360.67305987


--------------------------------------------------------------------------------------------------------




----------------------------------------- Iteration    1(  15)  ---------------------------------------


    POTLOK:  cpu time    0.0289: real time    0.0292
    SETDIJ:  cpu time    0.0035: real time    0.0036
    EDDIAG:  cpu time    0.1443: real time    0.1462
  RMM-DIIS:  cpu time    0.7537: real time    0.7765
    ORTHCH:  cpu time    0.0111: real time    0.0114
       DOS:  cpu time    0.0019: real time    0.0019
    CHARGE:  cpu time    0.0284: real time    0.0288
    MIXING:  cpu time    0.0016: real time    0.0017
    --------------------------------------------
      LOOP:  cpu time    0.9741: real time    1.0242

 eigenvalue-minimisations  :  7284
 total energy-change (2. order) :-0.4118514E-03  (-0.5410388E-03)
 number of electron     279.0000006 magnetization 
 augmentation part       13.2542065 magnetization 

 Broyden mixing:
  rms(total) = 0.79707E-02    rms(broyden)= 0.79680E-02
  rms(prec ) = 0.16457E-01
  weight for this iteration     100.00

 eigenvalues of (default mixing * dielectric matrix)
  average eigenvalue GAMMA=   1.0644
  2.5699  2.1149  1.6275  1.2510  0.6835  0.6835  0.4700  0.4700  0.3629  0.4104

 Free energy of the ion-electron system (eV)
  ---------------------------------------------------
  alpha Z        PSCENC =      1390.51935500
  Ewald energy   TEWEN  =    -17556.27890525
  -Hartree energ DENC   =     -5673.86157804
  -exchange      EXHF   =         0.00000000
  -V(xc)+E(xc)   XCENC  =      -486.56955623
  PAW double counting   =     31866.16330272   -30170.57155158
  entropy T*S    EENTRO =         0.02222029
  eigenvalues    EBANDS =     -2272.46588508
  atomic energy  EATOM  =     22542.37654026
  Solvation  Ediel_sol  =         0.00000000
  ---------------------------------------------------
  free energy    TOTEN  =      -360.66605792 eV

  energy without entropy =     -360.68827821  energy(sigma->0) =     -360.67346468


--------------------------------------------------------------------------------------------------------




----------------------------------------- Iteration    1(  16)  ---------------------------------------


    POTLOK:  cpu time    0.0291: real time    0.0298
    SETDIJ:  cpu time    0.0164: real time    0.0165
    EDDIAG:  cpu time    0.0845: real time    0.0853
  RMM-DIIS:  cpu time    0.6644: real time    0.6746
    ORTHCH:  cpu time    0.0112: real time    0.0112
       DOS:  cpu time    0.0025: real time    0.0025
    CHARGE:  cpu time    0.0319: real time    0.0326
    MIXING:  cpu time    0.0016: real time    0.0017
    --------------------------------------------
      LOOP:  cpu time    0.8424: real time    0.8905

 eigenvalue-minimisations  :  6582
 total energy-change (2. order) :-0.9994769E-04  (-0.2210537E-03)
 number of electron     279.0000006 magnetization 
 augmentation part       13.2531456 magnetization 

 Broyden mixing:
  rms(total) = 0.41972E-02    rms(broyden)= 0.41957E-02
  rms(prec ) = 0.89907E-02
  weight for this iteration     100.00

 eigenvalues of (default mixing * dielectric matrix)
  average eigenvalue GAMMA=   1.0319
  2.6074  2.1077  1.7123  1.2237  0.7573  0.7573  0.5146  0.5146  0.4097  0.3604
  0.3856

 Free energy of the ion-electron system (eV)
  ---------------------------------------------------
  alpha Z        PSCENC =      1390.51935500
  Ewald energy   TEWEN  =    -17556.27890525
  -Hartree energ DENC   =     -5674.11868828
[...]
     90       4.9584      2.00000
     91       5.0056      2.00000
     92       5.0520      2.00000
     93       5.0728      2.00000
     94       5.1350      2.00000
     95       5.1895      2.00000
     96       5.2902      2.00000
     97       5.3252      2.00000
     98       5.3762      2.00000
     99       5.4206      2.00000
    100       5.4821      2.00000
    101       5.5896      2.00000
    102       5.7107      2.00000
    103       5.7504      2.00000
    104       5.8071      2.00000
    105       5.8385      2.00000
    106       5.8654      2.00000
    107       5.9146      2.00000
    108       5.9290      2.00000
    109       5.9741      2.00000
    110       5.9880      2.00000
    111       6.0202      2.00000
    112       6.0461      2.00000
    113       6.1023      2.00000
    114       6.1360      2.00000
    115       6.1883      2.00000
    116       6.2595      2.00000
    117       6.2882      2.00000
    118       6.3085      2.00000
    119       6.3717      2.00000
    120       6.4045      2.00000
    121       6.4315      2.00000
    122       6.4621      2.00000
    123       6.5345      2.00000
    124       6.5508      2.00000
    125       6.5764      2.00000
    126       6.6326      2.00001
    127       6.6524      2.00001
    128       6.7286      2.00028
    129       6.7505      2.00060
    130       6.7570      2.00074
    131       6.7891      2.00206
    132       6.8068      2.00345
    133       6.8372      2.00779
    134       6.8552      2.01200
    135       6.9074      2.03390
    136       6.9478      2.05806
    137       7.0016      2.06614
    138       7.0404      2.00394
    139       7.0731      1.86849
    140       7.1212      1.50121
    141       7.1620      1.06751
    142       7.2100      0.54633
    143       7.2687      0.10117
    144       7.2843      0.03334
    145       7.3161     -0.04753
    146       7.3393     -0.06856
    147       7.3990     -0.05171
    148       7.4290     -0.03367
    149       7.4495     -0.02335
    150       7.5238     -0.00403
    151       7.5497     -0.00189
    152       7.5836     -0.00064
    153       7.6042     -0.00031
    154       7.6397     -0.00008
    155       7.6656     -0.00003
    156       7.7145     -0.00000
    157       7.7569     -0.00000
    158       7.8278     -0.00000
    159       7.8669     -0.00000
    160       7.9265     -0.00000
    161       8.0015     -0.00000
    162       8.0187     -0.00000
    163       8.0722     -0.00000
    164       8.1654     -0.00000
    165       8.2994     -0.00000
    166       8.4366     -0.00000
    167       8.5415     -0.00000
    168       8.8980     -0.00000


--------------------------------------------------------------------------------------------------------


 soft charge-density along one line, spin component           1
         0         1         2         3         4         5         6         7         8         9
 total charge-density along one line
 
 pseudopotential strength for first ion, spin component:           1
 -6.402   0.002  -0.001   0.002  -0.001  -7.606   0.003  -0.001
  0.002  -6.407  -0.001   0.001   0.001   0.003  -7.612  -0.001
 -0.001  -0.001  -6.414   0.000   0.001  -0.001  -0.001  -7.620
  0.002   0.001   0.000  -6.408   0.000   0.003   0.001   0.000
 -0.001   0.001   0.001   0.000  -6.411  -0.001   0.001   0.001
 -7.606   0.003  -0.001   0.003  -0.001  -9.013   0.003  -0.001
  0.003  -7.612  -0.001   0.001   0.001   0.003  -9.021  -0.001
 -0.001  -0.001  -7.620   0.000   0.001  -0.001  -0.001  -9.031
  0.003   0.001   0.000  -7.612   0.000   0.004   0.002   0.000
 -0.001   0.001   0.001   0.000  -7.617  -0.001   0.001   0.001
 -0.001  -0.002   0.002  -0.001   0.000  -0.001  -0.002   0.002
 -0.001  -0.003   0.003  -0.002   0.000  -0.001  -0.003   0.003
  0.002   0.001  -0.001  -0.003  -0.002   0.003   0.001  -0.001
 -0.003   0.001   0.005   0.003  -0.000  -0.004   0.001   0.006
  0.000  -0.003  -0.004  -0.000   0.007   0.000  -0.004  -0.004
 -0.001   0.002   0.000   0.005   0.001  -0.001   0.002   0.000
  0.005   0.001  -0.004  -0.002   0.001   0.006   0.001  -0.004
  0.001   0.005   0.004   0.003  -0.008   0.002   0.006   0.004
 total augmentation occupancy for first ion, spin component:           1
  5.580   0.081  -0.056   0.218  -0.058  -2.910  -0.025   0.034  -0.093   0.024   0.049  -0.011  -0.048   0.051  -0.079  -0.002
  0.081   5.271  -0.012   0.077  -0.017  -0.025  -2.758  -0.002  -0.034   0.020   0.061  -0.010  -0.105  -0.025   0.049  -0.002
 -0.056  -0.012   5.038  -0.036   0.061   0.033  -0.002  -2.797   0.020  -0.041  -0.052   0.024   0.031  -0.068   0.029   0.001
  0.218   0.077  -0.036   5.327  -0.073  -0.093  -0.034   0.020  -2.784   0.037  -0.005  -0.010   0.048  -0.100  -0.057   0.004
 -0.058  -0.017   0.061  -0.073   5.096   0.024   0.021  -0.041   0.037  -2.851  -0.029   0.008   0.035   0.018  -0.078   0.002
 -2.910  -0.025   0.033  -0.093   0.024   1.542   0.002  -0.020   0.040  -0.010  -0.031   0.005   0.029  -0.027   0.042   0.001
 -0.025  -2.758  -0.002  -0.034   0.021   0.002   1.465   0.005   0.012  -0.017  -0.025   0.005   0.054   0.014  -0.026   0.001
  0.034  -0.002  -2.797   0.020  -0.041  -0.020   0.005   1.565  -0.010   0.026   0.035  -0.014  -0.018   0.038  -0.019  -0.001
 -0.093  -0.034   0.020  -2.784   0.037   0.040   0.012  -0.010   1.477  -0.020   0.007   0.004  -0.026   0.052   0.032  -0.002
  0.024   0.020  -0.041   0.037  -2.851  -0.010  -0.017   0.026  -0.020   1.606   0.021  -0.005  -0.020  -0.009   0.045  -0.001
  0.049   0.061  -0.052  -0.005  -0.029  -0.031  -0.025   0.035   0.007   0.021   2.245  -0.236  -0.016  -0.036  -0.027  -0.000
 -0.011  -0.010   0.024  -0.010   0.008   0.005   0.005  -0.014   0.004  -0.005  -0.236   0.027  -0.000  -0.001   0.000   0.000
 -0.048  -0.105   0.031   0.048   0.035   0.029   0.054  -0.018  -0.026  -0.020  -0.016  -0.000   0.312  -0.012   0.001   0.008
  0.051  -0.025  -0.068  -0.100   0.018  -0.027   0.014   0.038   0.052  -0.009  -0.036  -0.001  -0.012   0.296  -0.001  -0.000
 -0.079   0.049   0.029  -0.057  -0.078   0.042  -0.026  -0.019   0.032   0.045  -0.027   0.000   0.001  -0.001   0.300  -0.000
 -0.002  -0.002   0.001   0.004   0.002   0.001   0.001  -0.001  -0.002  -0.001  -0.000   0.000   0.008  -0.000  -0.000   0.000
  0.004  -0.001  -0.005  -0.003   0.000  -0.002   0.001   0.003   0.002  -0.000  -0.000  -0.000  -0.000   0.007  -0.000  -0.000
 -0.002   0.004   0.003  -0.001  -0.006   0.001  -0.002  -0.002   0.001   0.004  -0.002   0.000  -0.000  -0.000   0.007  -0.000


------------------------ aborting loop because EDIFF is reached ----------------------------------------


    CHARGE:  cpu time    0.0271: real time    0.0275
    FORLOC:  cpu time    0.0133: real time    0.0135
    FORNL :  cpu time    0.2792: real time    0.2853
    STRESS:  cpu time    0.8394: real time    0.8599
    FORCOR:  cpu time    0.0427: real time    0.0434
    FORHAR:  cpu time    0.0192: real time    0.0194
    MIXING:  cpu time    0.0013: real time    0.0013
    OFIELD:  cpu time    0.0000: real time    0.0000

  FORCE on cell =-STRESS in cart. coord.  units (eV):
  Direction    XX          YY          ZZ          XY          YZ          ZX
  --------------------------------------------------------------------------------------
  Alpha Z  1398.38710  1398.38710  1398.38710
  Ewald   -5530.42356 -6415.01163 -5604.99046   339.44591  -248.91655   160.57717
  Hartree  2209.62516  1369.04143  2125.82403   307.79222  -249.80436   119.25902
  E(xc)   -1202.90779 -1202.87527 -1202.85060    -0.38325     0.24347    -0.79561
  Local   -1305.05469   416.68393 -1147.77664  -645.84593   498.00564  -278.93359
  n-local  -290.24681  -295.61660  -296.81669     1.69759    -3.76333    -2.77869
  augment   144.25057   145.24177   145.05964    -0.49642     0.63700     0.14731
  Kinetic  4576.53538  4584.33083  4583.32953    -2.21520     3.57983     2.46027
  Fock        0.00000     0.00000     0.00000     0.00000     0.00000     0.00000
  -------------------------------------------------------------------------------------
  Total       0.16536     0.18156     0.16592    -0.00509    -0.01830    -0.06413
  in kB       0.35677     0.39172     0.35798    -0.01097    -0.03947    -0.13836
  external pressure =        0.37 kB  Pullay stress =        0.00 kB


 VOLUME and BASIS-vectors are now :
 -----------------------------------------------------------------------------
  energy-cutoff  :      300.00
  volume of cell :      742.59
      direct lattice vectors                 reciprocal lattice vectors
     6.991212251  0.004254763 -0.042747749     0.143042097 -0.000090230  0.000872038
     0.006439144 10.276098628  0.007049910    -0.000059630  0.097313279 -0.000066522
    -0.063012280  0.007027494 10.336759400     0.000591592 -0.000066743  0.096745770

  length of vectors
     6.991344235 10.276103064 10.336953847     0.143044784  0.097313320  0.096747602


 FORCES acting on ions
    electron-ion (+dipol)            ewald-force                    non-local-force                 convergence-correction
 -----------------------------------------------------------------------------------------------
   0.298E+02 -.151E+03 -.775E+02   -.305E+02 0.151E+03 0.769E+02   0.700E+00 0.350E+00 0.576E+00   -.353E-02 0.508E-02 -.273E-02
   0.269E+01 -.877E+02 0.161E+02   -.255E+01 0.883E+02 -.159E+02   -.136E+00 -.552E+00 -.182E+00   -.725E-03 -.469E-02 0.108E-02
   0.379E+02 -.972E+01 0.616E+02   -.385E+02 0.913E+01 -.622E+02   0.628E+00 0.591E+00 0.633E+00   -.348E-02 -.307E-02 0.603E-02
   0.491E+02 -.358E+02 -.450E+02   -.482E+02 0.356E+02 0.444E+02   -.912E+00 0.186E+00 0.630E+00   -.451E-03 0.303E-02 0.181E-02
   -.779E+00 -.502E+02 0.640E+01   0.548E+00 0.510E+02 -.606E+01   0.235E+00 -.754E+00 -.341E+00   0.520E-03 -.648E-02 0.318E-02
   -.611E+02 -.701E+02 -.221E+01   0.617E+02 0.697E+02 0.285E+01   -.611E+00 0.320E+00 -.654E+00   0.704E-02 0.105E-01 0.114E-02
   -.482E+02 -.248E+02 -.319E+02   0.473E+02 0.247E+02 0.313E+02   0.977E+00 0.107E+00 0.659E+00   0.611E-03 0.247E-02 0.315E-02
   0.229E+02 0.372E+02 -.214E+02   -.225E+02 -.376E+02 0.209E+02   -.433E+00 0.344E+00 0.508E+00   -.111E-03 0.709E-02 0.134E-01
   -.141E+02 -.995E+02 -.902E+02   0.145E+02 0.998E+02 0.902E+02   -.439E+00 -.270E+00 0.413E-01   0.296E-02 -.239E-02 -.681E-03
   -.680E+02 0.826E+02 0.891E+01   0.674E+02 -.829E+02 -.865E+01   0.537E+00 0.253E+00 -.246E+00   0.463E-03 0.445E-02 -.127E-01
   0.908E+01 -.164E+02 0.346E+02   -.878E+01 0.166E+02 -.338E+02   -.302E+00 -.189E+00 -.827E+00   0.321E-02 -.780E-02 -.511E-02
   0.566E+01 -.500E+02 0.984E+02   -.620E+01 0.506E+02 -.975E+02   0.556E+00 -.527E+00 -.890E+00   -.111E-01 -.318E-01 -.159E-01
   -.106E+03 -.310E+03 -.186E+03   0.107E+03 0.310E+03 0.185E+03   -.100E+01 0.437E+00 0.943E+00   0.799E-02 0.363E-02 -.123E-01
   -.876E+02 0.224E+03 -.104E+03   0.887E+02 -.224E+03 0.104E+03   -.106E+01 -.594E+00 -.138E+00   0.587E-02 0.381E-02 -.422E-01
   0.969E+01 0.159E+03 -.165E+02   -.104E+02 -.158E+03 0.165E+02   0.704E+00 -.824E+00 -.147E-01   -.732E-02 -.267E-01 -.210E-01
   0.358E+02 0.427E+02 0.415E+02   -.361E+02 -.420E+02 -.421E+02   0.345E+00 -.684E+00 0.547E+00   -.644E-02 0.128E-01 0.324E-01
   0.436E+02 -.888E+02 0.137E+03   -.440E+02 0.892E+02 -.138E+03   0.305E+00 -.358E+00 0.112E+01   0.446E-02 -.729E-02 0.169E-01
   -.345E-01 0.592E+02 -.496E+02   -.996E+00 -.593E+02 0.498E+02   0.103E+01 0.903E-01 -.234E+00   -.263E-02 0.204E-01 0.294E-01
   0.879E+02 0.131E+03 0.178E+02   -.865E+02 -.131E+03 -.183E+02   -.141E+01 0.634E-01 0.578E+00   0.779E-02 0.200E-01 -.268E-01
   0.310E+02 -.154E+03 -.306E+03   -.315E+02 0.154E+03 0.306E+03   0.445E+00 -.113E+00 -.370E-01   -.645E-02 -.444E-02 0.216E-02
   -.464E+02 0.108E+03 -.426E+02   0.466E+02 -.108E+03 0.427E+02   -.266E+00 0.374E-01 -.997E-01   0.767E-02 0.169E-01 0.373E-01
   0.151E+02 0.150E+03 0.905E+02   -.147E+02 -.149E+03 -.898E+02   -.394E+00 -.470E+00 -.704E+00   -.962E-02 -.171E-01 0.483E-02
   0.295E+02 -.264E+03 0.141E+03   -.295E+02 0.264E+03 -.141E+03   0.760E-01 -.146E+00 -.588E+00   -.121E-01 -.447E-02 0.137E-02
   0.216E+01 0.153E+03 0.395E+02   -.155E+01 -.152E+03 -.393E+02   -.614E+00 -.289E+00 -.235E+00   0.816E-02 -.260E-01 -.198E-01
   0.486E+02 0.213E+03 0.543E+02   -.489E+02 -.213E+03 -.541E+02   0.319E+00 0.788E+00 -.184E+00   -.102E-03 0.760E-02 -.280E-02
   -.200E+02 -.147E+03 0.176E+03   0.201E+02 0.147E+03 -.176E+03   -.102E+00 0.190E+00 -.480E+00   0.106E-01 -.436E-02 -.372E-02
   0.490E+02 -.272E+02 -.272E+02   -.494E+02 0.267E+02 0.274E+02   0.409E+00 0.512E+00 -.224E+00   -.550E-02 0.151E-02 -.631E-02
   0.122E+02 0.804E+02 0.888E+01   -.130E+02 -.807E+02 -.863E+01   0.761E+00 0.371E+00 -.256E+00   -.303E-02 -.272E-02 -.127E-02
   -.158E+02 0.825E+02 0.158E+02   0.160E+02 -.829E+02 -.158E+02   -.244E+00 0.343E+00 0.215E-01   0.648E-03 0.111E-02 -.167E-02
   0.481E+02 -.709E+02 -.216E+02   -.489E+02 0.709E+02 0.220E+02   0.834E+00 0.164E-01 -.476E+00   -.578E-02 0.976E-02 0.311E-03
   -.153E+02 0.390E+02 0.248E+02   0.150E+02 -.386E+02 -.243E+02   0.249E+00 -.378E+00 -.480E+00   0.266E-02 -.508E-02 0.266E-02
   -.810E+01 -.265E+02 0.436E+02   0.819E+01 0.268E+02 -.444E+02   -.982E-01 -.364E+00 0.782E+00   -.844E-03 -.277E-02 0.290E-02
   -.511E+02 -.480E+01 -.463E+02   0.515E+02 0.399E+01 0.463E+02   -.408E+00 0.816E+00 0.382E-01   0.544E-02 0.182E-02 -.607E-02
   -.302E+02 -.120E+02 0.439E+02   0.307E+02 0.115E+02 -.444E+02   -.515E+00 0.430E+00 0.517E+00   0.279E-02 -.197E-02 0.644E-02
   -.974E+01 0.629E+02 0.289E+02   0.105E+02 -.630E+02 -.286E+02   -.793E+00 0.808E-01 -.331E+00   0.232E-02 -.141E-02 0.105E-02
   0.127E+02 0.784E+02 -.221E+02   -.134E+02 -.780E+02 0.222E+02   0.703E+00 -.427E+00 -.645E-01   -.213E-02 -.177E-03 -.990E-02
 -----------------------------------------------------------------------------------------------
   -.789E-01 0.641E+00 0.118E+00   -.155E-12 0.369E-12 0.284E-13   0.809E-01 -.612E+00 -.958E-01   -.623E-04 -.288E-01 -.236E-01
 
 
 POSITION                                       TOTAL-FORCE (eV/Angst)
 -----------------------------------------------------------------------------------
      5.09229      8.51418      8.52835        -0.004536     -0.001733      0.000835
      5.24996      8.59051      1.71258        -0.005011     -0.004442     -0.002384
      6.90190     10.11267      3.31846        -0.000341     -0.002159     -0.003328
      1.96879      5.07641      1.46055        -0.005134      0.002141      0.003064
      1.70451      8.72452      1.78090         0.004246     -0.003980     -0.002335
      3.56113     10.26033      6.88950        -0.000454      0.004110     -0.004478
      5.04605      5.15025      1.55423         0.003466     -0.002662     -0.003386
      5.45265      1.58697      4.98611         0.001810     -0.000460     -0.001356
      3.46049      6.93096     10.30275        -0.001882     -0.003043      0.000492
      4.93406      1.68299      8.71230         0.000979      0.000783      0.003882
      3.50813      6.88965      7.03967         0.003348      0.000799      0.003458
      6.91788      6.94405      7.14265        -0.000478      0.003693     -0.002599
      1.76418      8.52371      8.50195         0.001645      0.001766      0.002597
      3.52598      3.52042     10.29976        -0.001240     -0.004846     -0.000700
      5.09532      5.23577      8.61580        -0.000023      0.003407     -0.000475
      0.00808      3.64833      3.31646         0.002610     -0.000709      0.001763
      3.40473      6.86507      3.31067         0.002745     -0.002182      0.001278
      1.56219      1.68754      5.17308         0.001716     -0.003592     -0.000698
      1.86841      1.77715      8.54559        -0.005137      0.001222     -0.000566
     -0.00699      6.86883      0.03396        -0.002808      0.000105      0.001855
      3.53675      3.43669      3.48706         0.000074     -0.001548     -0.001234
      5.37419      5.37625      5.22665        -0.000669      0.001522      0.004757
      5.28694      8.48967      5.21958         0.000058     -0.005166      0.003675
      1.74432      5.11764      8.60335         0.002260      0.001349     -0.002343
      1.69063      1.65771      1.73300        -0.004720     -0.000922      0.001358
      1.69944      8.51316      5.26850         0.002331     -0.002955      0.000291
      6.88240     10.23447     10.23864         0.001436      0.000027      0.003440
      6.72801      3.31905      6.97209         0.002093      0.000358     -0.004356
      5.25298      1.68216      1.68120         0.001034      0.005938     -0.000646
      6.81605      0.05773      7.03446         0.003679     -0.000070     -0.000098
      1.64074      5.24681      5.36232         0.002673      0.002994      0.003867
      0.08803      6.82808      3.21019        -0.001165      0.002321     -0.002691
      3.40381     10.08859     10.30697        -0.002205      0.005898     -0.000159
      3.56628     10.26090      3.50955         0.000900      0.003944     -0.001420
      3.67087      3.37989      6.71725        -0.002536      0.000088     -0.002382
      6.79597      3.46646     10.24656        -0.000765     -0.001995      0.001025
 -----------------------------------------------------------------------------------
    total drift:                                0.001951     -0.000032     -0.001692


--------------------------------------------------------------------------------------------------------



  FREE ENERGIE OF THE ION-ELECTRON SYSTEM (eV)
  ---------------------------------------------------
  free  energy   TOTEN  =      -360.86166664 eV

  energy  without entropy=     -360.88389380  energy(sigma->0) =     -360.86907569
 
 d Force = 0.6312546E-04[ 0.528E-04, 0.735E-04]  d Energy = 0.2854025E-04 0.346E-04
 d Force = 0.5865383E-01[ 0.584E-01, 0.589E-01]  d Ewald  = 0.3970974E+01-0.391E+01


--------------------------------------------------------------------------------------------------------


    POTLOK:  cpu time    0.0344: real time    0.0349


--------------------------------------------------------------------------------------------------------


 Conjugate gradient step on ions:
 trial-energy change:   -0.000029  1 .order   -0.000068   -0.000191    0.000055
  (g-gl).g = 0.287E-04      g.g   = 0.568E-04  gl.gl    = 0.832E-04
 g(Force)  = 0.197E-04   g(Stress)= 0.371E-04 ortho     =-0.350E-05
 gamma     =   0.34547
 trial     =   3.43611
 opt step  =   2.66839  (harmonic =   2.66839) maximal distance =0.00051893
 next E    =  -360.861712   (d E  =  -0.00007)


--------------------------------------------------------------------------------------------------------


  
 reached required accuracy - stopping structural energy minimisation
     LOOP+:  cpu time    5.8957: real time    6.6308
    4ORBIT:  cpu time    0.0000: real time    0.0000

 total amount of memory used by VASP on root node    66378. kBytes
========================================================================

   base      :      30000. kBytes
   nonlr-proj:       9980. kBytes
   fftplans  :       2814. kBytes
   grid      :       5360. kBytes
   one-center:        124. kBytes
   wavefun   :      18100. kBytes
 
  
  
 General timing and accounting informations for this job:
 ========================================================
  
                  Total CPU time used (sec):      284.398
                            User time (sec):      282.896
                          System time (sec):        1.502
                         Elapsed time (sec):      311.804
  
                   Maximum memory used (kb):      291608.
                   Average memory used (kb):           0.
  
                          Minor page faults:       154325
                          Major page faults:           31
                 Voluntary context switches:        11812
