       N       E                     dE             d eps       ncg     rms          rms(c)
DAV:   1     0.173361846472E+04    0.17336E+04   -0.10583E+05  5248   0.104E+03
DAV:   2    -0.867335979076E+02   -0.18204E+04   -0.17507E+04  5300   0.367E+02
DAV:   3    -0.338951206761E+03   -0.25222E+03   -0.23908E+03  8128   0.103E+02
DAV:   4    -0.370376658308E+03   -0.31425E+02   -0.29980E+02  8288   0.313E+01
DAV:   5    -0.373648477840E+03   -0.32718E+01   -0.31888E+01  7488   0.996E+00    0.655E+01
RMM:   6    -0.363530089221E+03    0.10118E+02   -0.29389E+01  7107   0.105E+01    0.309E+01
RMM:   7    -0.365008296798E+03   -0.14782E+01   -0.26483E+01  7233   0.820E+00    0.123E+01
RMM:   8    -0.359047005864E+03    0.59613E+01   -0.76817E+00  7356   0.443E+00    0.411E+00
RMM:   9    -0.358757079447E+03    0.28993E+00   -0.26779E+00  7372   0.202E+00    0.270E+00
RMM:  10    -0.358718999774E+03    0.38080E-01   -0.48912E-01  7470   0.111E+00    0.166E+00
RMM:  11    -0.358687885389E+03    0.31114E-01   -0.15798E-01  7303   0.613E-01    0.857E-01
RMM:  12    -0.358684757979E+03    0.31274E-02   -0.71053E-02  7466   0.422E-01    0.420E-01
RMM:  13    -0.358684321882E+03    0.43610E-03   -0.25147E-02  7468   0.214E-01    0.254E-01
RMM:  14    -0.358684703259E+03   -0.38138E-03   -0.12545E-02  7552   0.124E-01    0.143E-01
RMM:  15    -0.358685075375E+03   -0.37212E-03   -0.56599E-03  7485   0.716E-02    0.646E-02
RMM:  16    -0.358685207461E+03   -0.13209E-03   -0.24425E-03  6638   0.431E-02    0.341E-02
RMM:  17    -0.358685274025E+03   -0.66563E-04   -0.10927E-03  5896   0.300E-02    0.165E-02
RMM:  18    -0.358685320864E+03   -0.46839E-04   -0.57272E-04  5720   0.228E-02    0.975E-03
RMM:  19    -0.358685339571E+03   -0.18707E-04   -0.24589E-04  4660   0.152E-02    0.578E-03
RMM:  20    -0.358685346186E+03   -0.66147E-05   -0.11401E-04  4379   0.124E-02    0.272E-03
RMM:  21    -0.358685350146E+03   -0.39607E-05   -0.57871E-05  3987   0.109E-02
   1 F= -.35868535E+03 E0= -.35869135E+03  d E =-.358685E+03
       N       E                     dE             d eps       ncg     rms          rms(c)
DAV:   1    -0.358737251908E+03   -0.51906E-01   -0.17953E+00  5824   0.429E+00    0.157E+00
RMM:   2    -0.358723275793E+03    0.13976E-01   -0.15259E-01  7009   0.101E+00    0.515E-01
RMM:   3    -0.358718886171E+03    0.43896E-02   -0.40390E-02  7554   0.368E-01    0.393E-01
RMM:   4    -0.358713814261E+03    0.50719E-02   -0.10089E-02  7502   0.208E-01    0.205E-01
RMM:   5    -0.358713576739E+03    0.23752E-03   -0.33242E-03  7440   0.109E-01    0.163E-01
RMM:   6    -0.358713681000E+03   -0.10426E-03   -0.12876E-03  7774   0.610E-02    0.105E-01
RMM:   7    -0.358713748777E+03   -0.67778E-04   -0.60619E-04  6775   0.427E-02    0.523E-02
RMM:   8    -0.358713807419E+03   -0.58642E-04   -0.31598E-04  6380   0.277E-02    0.362E-02
RMM:   9    -0.358713840187E+03   -0.32768E-04   -0.11164E-04  5311   0.195E-02    0.279E-02
RMM:  10    -0.358713879047E+03   -0.38860E-04   -0.66829E-05  4595   0.160E-02    0.119E-02
RMM:  11    -0.358713893311E+03   -0.14264E-04   -0.37058E-05  4109   0.137E-02    0.449E-03
RMM:  12    -0.358713895859E+03   -0.25473E-05   -0.16508E-05  3470   0.123E-02
   2 F= -.35871390E+03 E0= -.35871994E+03  d E =-.285457E-01
       N       E                     dE             d eps       ncg     rms          rms(c)
DAV:   1    -0.358878547492E+03   -0.16465E+00   -0.10460E+01  5292   0.104E+01    0.384E+00
RMM:   2    -0.358797093386E+03    0.81454E-01   -0.88508E-01  6904   0.247E+00    0.125E+00
RMM:   3    -0.358771207364E+03    0.25886E-01   -0.23541E-01  7506   0.895E-01    0.963E-01
RMM:   4    -0.358741279994E+03    0.29927E-01   -0.61238E-02  7502   0.511E-01    0.499E-01
RMM:   5    -0.358739978825E+03    0.13012E-02   -0.19877E-02  7454   0.270E-01    0.398E-01
RMM:   6    -0.358740533132E+03   -0.55431E-03   -0.77087E-03  8105   0.150E-01    0.252E-01
RMM:   7    -0.358740815777E+03   -0.28264E-03   -0.36060E-03  8199   0.104E-01    0.128E-01
RMM:   8    -0.358741107811E+03   -0.29203E-03   -0.18145E-03  7913   0.618E-02    0.913E-02
RMM:   9    -0.358741273249E+03   -0.16544E-03   -0.66121E-04  7235   0.418E-02    0.682E-02
RMM:  10    -0.358741456316E+03   -0.18307E-03   -0.40275E-04  6521   0.313E-02    0.311E-02
RMM:  11    -0.358741509250E+03   -0.52933E-04   -0.20936E-04  5794   0.234E-02    0.103E-02
RMM:  12    -0.358741520851E+03   -0.11601E-04   -0.86297E-05  5236   0.171E-02    0.681E-03
RMM:  13    -0.358741523554E+03   -0.27037E-05   -0.22577E-05  3932   0.133E-02
   3 F= -.35874152E+03 E0= -.35874760E+03  d E =-.561734E-01
       N       E                     dE             d eps       ncg     rms          rms(c)
DAV:   1    -0.358762770864E+03   -0.21250E-01   -0.14764E+00  4992   0.329E+00    0.492E-01
RMM:   2    -0.358767222722E+03   -0.44519E-02   -0.63655E-02  7260   0.640E-01    0.315E-01
RMM:   3    -0.358763830627E+03    0.33921E-02   -0.96907E-03  7372   0.198E-01    0.169E-01
RMM:   4    -0.358763546058E+03    0.28457E-03   -0.23692E-03  7430   0.709E-02    0.111E-01
RMM:   5    -0.358763403652E+03    0.14241E-03   -0.83463E-04  7449   0.490E-02    0.653E-02
RMM:   6    -0.358763386939E+03    0.16713E-04   -0.37427E-04  7366   0.318E-02    0.376E-02
RMM:   7    -0.358763382787E+03    0.41517E-05   -0.15381E-04  6055   0.186E-02    0.243E-02
RMM:   8    -0.358763379030E+03    0.37577E-05   -0.47507E-05  4291   0.131E-02
   4 F= -.35876338E+03 E0= -.35876958E+03  d E =-.218555E-01
       N       E                     dE             d eps       ncg     rms          rms(c)
DAV:   1    -0.358799701202E+03   -0.36318E-01   -0.13276E+01  4816   0.988E+00    0.146E+00
RMM:   2    -0.358837704320E+03   -0.38003E-01   -0.56377E-01  7263   0.191E+00    0.916E-01
RMM:   3    -0.358810628129E+03    0.27076E-01   -0.87291E-02  7460   0.591E-01    0.508E-01
RMM:   4    -0.358807844304E+03    0.27838E-02   -0.19924E-02  7401   0.207E-01    0.334E-01
RMM:   5    -0.358806637406E+03    0.12069E-02   -0.73891E-03  7465   0.145E-01    0.198E-01
RMM:   6    -0.358806513009E+03    0.12440E-03   -0.32482E-03  7529   0.960E-02    0.115E-01
RMM:   7    -0.358806526720E+03   -0.13711E-04   -0.14312E-03  7919   0.537E-02    0.755E-02
RMM:   8    -0.358806536118E+03   -0.93987E-05   -0.51624E-04  6410   0.311E-02    0.446E-02
RMM:   9    -0.358806547456E+03   -0.11337E-04   -0.28904E-04  6134   0.257E-02    0.266E-02
RMM:  10    -0.358806550006E+03   -0.25503E-05   -0.11658E-04  5319   0.179E-02    0.151E-02
RMM:  11    -0.358806550032E+03   -0.25459E-07   -0.58865E-05  4519   0.142E-02
   5 F= -.35880655E+03 E0= -.35881293E+03  d E =-.650265E-01
       N       E                     dE             d eps       ncg     rms          rms(c)
DAV:   1    -0.358758903666E+03    0.47646E-01   -0.53111E+01  4816   0.198E+01    0.286E+00
RMM:   2    -0.358895476039E+03   -0.13657E+00   -0.22481E+00  7259   0.389E+00    0.170E+00
RMM:   3    -0.358812737278E+03    0.82739E-01   -0.34696E-01  7471   0.118E+00    0.102E+00
RMM:   4    -0.358800006584E+03    0.12731E-01   -0.74514E-02  7413   0.424E-01    0.667E-01
RMM:   5    -0.358795506330E+03    0.45003E-02   -0.30052E-02  7458   0.289E-01    0.403E-01
RMM:   6    -0.358794782760E+03    0.72357E-03   -0.12397E-02  7512   0.192E-01    0.234E-01
RMM:   7    -0.358794885922E+03   -0.10316E-03   -0.56328E-03  8330   0.105E-01    0.151E-01
RMM:   8    -0.358794957383E+03   -0.71461E-04   -0.22902E-03  8022   0.616E-02    0.911E-02
RMM:   9    -0.358794997804E+03   -0.40420E-04   -0.10197E-03  7299   0.423E-02    0.550E-02
RMM:  10    -0.358795025959E+03   -0.28156E-04   -0.46047E-04  6531   0.301E-02    0.308E-02
RMM:  11    -0.358795031930E+03   -0.59706E-05   -0.19828E-04  5903   0.219E-02    0.139E-02
RMM:  12    -0.358795033737E+03   -0.18070E-05   -0.85962E-05  5009   0.156E-02
   6 F= -.35879503E+03 E0= -.35880089E+03  d E =-.535102E-01
       N       E                     dE             d eps       ncg     rms          rms(c)
DAV:   1    -0.358813286777E+03   -0.18255E-01   -0.18580E+01  4816   0.117E+01    0.174E+00
RMM:   2    -0.358865092150E+03   -0.51805E-01   -0.80059E-01  7273   0.226E+00    0.105E+00
RMM:   3    -0.358821618762E+03    0.43473E-01   -0.11181E-01  7348   0.683E-01    0.556E-01
RMM:   4    -0.358818926881E+03    0.26919E-02   -0.29932E-02  7461   0.249E-01    0.371E-01
RMM:   5    -0.358817120944E+03    0.18059E-02   -0.95198E-03  7528   0.174E-01    0.218E-01
RMM:   6    -0.358817172530E+03   -0.51585E-04   -0.42754E-03  7631   0.107E-01    0.132E-01
RMM:   7    -0.358817237297E+03   -0.64767E-04   -0.17001E-03  7992   0.611E-02    0.822E-02
RMM:   8    -0.358817300873E+03   -0.63577E-04   -0.67297E-04  6671   0.349E-02    0.479E-02
RMM:   9    -0.358817336011E+03   -0.35137E-04   -0.33217E-04  6449   0.289E-02    0.281E-02
RMM:  10    -0.358817358341E+03   -0.22330E-04   -0.13688E-04  5463   0.187E-02    0.166E-02
RMM:  11    -0.358817369815E+03   -0.11475E-04   -0.67470E-05  4728   0.152E-02    0.789E-03
RMM:  12    -0.358817371791E+03   -0.19758E-05   -0.22101E-05  3501   0.124E-02
   7 F= -.35881737E+03 E0= -.35882369E+03  d E =-.758482E-01
       N       E                     dE             d eps       ncg     rms          rms(c)
DAV:   1    -0.358825247984E+03   -0.78782E-02   -0.65956E-01  4896   0.243E+00    0.406E-01
RMM:   2    -0.358826282787E+03   -0.10348E-02   -0.30798E-02  7292   0.474E-01    0.180E-01
RMM:   3    -0.358825749745E+03    0.53304E-03   -0.44270E-03  7393   0.132E-01    0.126E-01
RMM:   4    -0.358825407970E+03    0.34177E-03   -0.11428E-03  7338   0.625E-02    0.685E-02
RMM:   5    -0.358825357278E+03    0.50693E-04   -0.50267E-04  7445   0.369E-02    0.464E-02
RMM:   6    -0.358825340888E+03    0.16390E-04   -0.17058E-04  6413   0.224E-02    0.292E-02
RMM:   7    -0.358825334963E+03    0.59249E-05   -0.70658E-05  4596   0.150E-02
   8 F= -.35882533E+03 E0= -.35883175E+03  d E =-.796317E-02
       N       E                     dE             d eps       ncg     rms          rms(c)
DAV:   1    -0.358838655842E+03   -0.13315E-01   -0.59322E+00  4816   0.728E+00    0.120E+00
RMM:   2    -0.358847931880E+03   -0.92760E-02   -0.27424E-01  7297   0.142E+00    0.536E-01
RMM:   3    -0.358843358933E+03    0.45729E-02   -0.39690E-02  7447   0.392E-01    0.372E-01
RMM:   4    -0.358840398819E+03    0.29601E-02   -0.10366E-02  7331   0.187E-01    0.201E-01
RMM:   5    -0.358840004780E+03    0.39404E-03   -0.46087E-03  7532   0.110E-01    0.137E-01
RMM:   6    -0.358839920353E+03    0.84427E-04   -0.16263E-03  7988   0.666E-02    0.871E-02
RMM:   7    -0.358839929340E+03   -0.89866E-05   -0.76692E-04  7506   0.409E-02    0.482E-02
RMM:   8    -0.358839935866E+03   -0.65258E-05   -0.31897E-04  6269   0.282E-02    0.306E-02
RMM:   9    -0.358839945870E+03   -0.10004E-04   -0.18886E-04  5838   0.224E-02    0.227E-02
RMM:  10    -0.358839948275E+03   -0.24051E-05   -0.71309E-05  5167   0.158E-02
   9 F= -.35883995E+03 E0= -.35884667E+03  d E =-.225765E-01
       N       E                     dE             d eps       ncg     rms          rms(c)
DAV:   1    -0.358821045565E+03    0.18900E-01   -0.23727E+01  4816   0.146E+01    0.235E+00
RMM:   2    -0.358859520090E+03   -0.38475E-01   -0.10931E+00  7303   0.283E+00    0.107E+00
RMM:   3    -0.358842049428E+03    0.17471E-01   -0.16023E-01  7493   0.791E-01    0.749E-01
RMM:   4    -0.358830116741E+03    0.11933E-01   -0.40737E-02  7314   0.376E-01    0.408E-01
RMM:   5    -0.358828473230E+03    0.16435E-02   -0.18295E-02  7463   0.220E-01    0.278E-01
RMM:   6    -0.358828084667E+03    0.38856E-03   -0.63507E-03  8027   0.132E-01    0.176E-01
RMM:   7    -0.358828144437E+03   -0.59770E-04   -0.31405E-03  8402   0.805E-02    0.961E-02
RMM:   8    -0.358828186443E+03   -0.42005E-04   -0.13416E-03  7872   0.519E-02    0.614E-02
RMM:   9    -0.358828222703E+03   -0.36260E-04   -0.61335E-04  7138   0.371E-02    0.459E-02
RMM:  10    -0.358828256223E+03   -0.33520E-04   -0.32032E-04  6786   0.255E-02    0.270E-02
RMM:  11    -0.358828256273E+03   -0.49105E-07   -0.11531E-04  5541   0.191E-02    0.886E-03
RMM:  12    -0.358828256262E+03    0.10565E-07   -0.52536E-05  4748   0.151E-02
  10 F= -.35882826E+03 E0= -.35883553E+03  d E =-.108845E-01
       N       E                     dE             d eps       ncg     rms          rms(c)
DAV:   1    -0.358841999079E+03   -0.13743E-01   -0.12196E+01  4816   0.104E+01    0.174E+00
RMM:   2    -0.358858915331E+03   -0.16916E-01   -0.56370E-01  7302   0.203E+00    0.763E-01
RMM:   3    -0.358848760804E+03    0.10155E-01   -0.78893E-02  7275   0.555E-01    0.526E-01
RMM:   4    -0.358842747661E+03    0.60131E-02   -0.20846E-02  7393   0.268E-01    0.286E-01
RMM:   5    -0.358841997559E+03    0.75010E-03   -0.91307E-03  7660   0.159E-01    0.195E-01
RMM:   6    -0.358841909808E+03    0.87751E-04   -0.31799E-03  8021   0.950E-02    0.123E-01
RMM:   7    -0.358841993362E+03   -0.83554E-04   -0.14855E-03  8160   0.573E-02    0.678E-02
RMM:   8    -0.358842044166E+03   -0.50804E-04   -0.58705E-04  6963   0.370E-02    0.435E-02
RMM:   9    -0.358842085044E+03   -0.40878E-04   -0.31257E-04  6437   0.284E-02    0.319E-02
RMM:  10    -0.358842120389E+03   -0.35345E-04   -0.14932E-04  5735   0.201E-02    0.175E-02
RMM:  11    -0.358842135913E+03   -0.15524E-04   -0.59916E-05  4995   0.157E-02    0.615E-03
RMM:  12    -0.358842139188E+03   -0.32756E-05   -0.21809E-05  3879   0.123E-02
  11 F= -.35884214E+03 E0= -.35884902E+03  d E =-.247674E-01
       N       E                     dE             d eps       ncg     rms          rms(c)
DAV:   1    -0.358850608540E+03   -0.84726E-02   -0.65800E-01  5096   0.250E+00    0.627E-01
RMM:   2    -0.358849484536E+03    0.11240E-02   -0.39057E-02  6704   0.531E-01    0.227E-01
RMM:   3    -0.358848611974E+03    0.87256E-03   -0.76927E-03  7423   0.179E-01    0.173E-01
RMM:   4    -0.358847797359E+03    0.81461E-03   -0.20509E-03  7501   0.866E-02    0.920E-02
RMM:   5    -0.358847754768E+03    0.42591E-04   -0.69251E-04  7370   0.520E-02    0.706E-02
RMM:   6    -0.358847773199E+03   -0.18431E-04   -0.27442E-04  6825   0.279E-02    0.437E-02
RMM:   7    -0.358847794848E+03   -0.21649E-04   -0.11658E-04  6077   0.206E-02    0.224E-02
RMM:   8    -0.358847808086E+03   -0.13239E-04   -0.57392E-05  4323   0.139E-02    0.138E-02
RMM:   9    -0.358847816287E+03   -0.82006E-05   -0.28179E-05  3744   0.114E-02
  12 F= -.35884782E+03 E0= -.35885472E+03  d E =-.567710E-02
       N       E                     dE             d eps       ncg     rms          rms(c)
DAV:   1    -0.358866585348E+03   -0.18777E-01   -0.32682E+00  5040   0.557E+00    0.141E+00
RMM:   2    -0.358861083506E+03    0.55018E-02   -0.19528E-01  6798   0.118E+00    0.508E-01
RMM:   3    -0.358856887880E+03    0.41956E-02   -0.39030E-02  7439   0.396E-01    0.388E-01
RMM:   4    -0.358852840009E+03    0.40479E-02   -0.10583E-02  7520   0.195E-01    0.207E-01
RMM:   5    -0.358852621457E+03    0.21855E-03   -0.36441E-03  7425   0.117E-01    0.159E-01
RMM:   6    -0.358852678764E+03   -0.57307E-04   -0.14808E-03  7749   0.636E-02    0.983E-02
RMM:   7    -0.358852750522E+03   -0.71759E-04   -0.64537E-04  6977   0.450E-02    0.504E-02
RMM:   8    -0.358852795785E+03   -0.45262E-04   -0.29020E-04  6177   0.257E-02    0.337E-02
RMM:   9    -0.358852823706E+03   -0.27921E-04   -0.13315E-04  5162   0.219E-02    0.250E-02
RMM:  10    -0.358852853826E+03   -0.30120E-04   -0.80117E-05  4989   0.157E-02    0.117E-02
RMM:  11    -0.358852865165E+03   -0.11339E-04   -0.27812E-05  3922   0.127E-02    0.467E-03
RMM:  12    -0.358852867192E+03   -0.20272E-05   -0.18215E-05  3501   0.114E-02
  13 F= -.35885287E+03 E0= -.35885979E+03  d E =-.107280E-01
       N       E                     dE             d eps       ncg     rms          rms(c)
DAV:   1    -0.358855019019E+03   -0.21539E-02   -0.23062E-01  4920   0.139E+00    0.105E-01
RMM:   2    -0.358855586213E+03   -0.56719E-03   -0.78255E-03  6994   0.254E-01    0.616E-02
RMM:   3    -0.358855519906E+03    0.66307E-04   -0.95285E-04  7160   0.695E-02    0.441E-02
RMM:   4    -0.358855503973E+03    0.15933E-04   -0.26238E-04  6889   0.234E-02    0.269E-02
RMM:   5    -0.358855498888E+03    0.50855E-05   -0.87336E-05  5115   0.150E-02
  14 F= -.35885550E+03 E0= -.35886244E+03  d E =-.263170E-02
       N       E                     dE             d eps       ncg     rms          rms(c)
DAV:   1    -0.358857349261E+03   -0.18453E-02   -0.20735E+00  4816   0.417E+00    0.315E-01
RMM:   2    -0.358862439485E+03   -0.50902E-02   -0.70143E-02  7017   0.759E-01    0.185E-01
RMM:   3    -0.358861888894E+03    0.55059E-03   -0.86708E-03  7251   0.207E-01    0.133E-01
RMM:   4    -0.358861736259E+03    0.15263E-03   -0.23102E-03  8252   0.696E-02    0.805E-02
RMM:   5    -0.358861706393E+03    0.29866E-04   -0.93153E-04  7617   0.464E-02    0.419E-02
RMM:   6    -0.358861708951E+03   -0.25584E-05   -0.35545E-04  6907   0.297E-02    0.189E-02
RMM:   7    -0.358861710789E+03   -0.18375E-05   -0.10870E-04  4936   0.157E-02    0.123E-02
RMM:   8    -0.358861715311E+03   -0.45227E-05   -0.60016E-05  4087   0.133E-02
  15 F= -.35886172E+03 E0= -.35886871E+03  d E =-.884812E-02
       N       E                     dE             d eps       ncg     rms          rms(c)
DAV:   1    -0.358849312940E+03    0.12398E-01   -0.83043E+00  4816   0.835E+00    0.633E-01
RMM:   2    -0.358869406619E+03   -0.20094E-01   -0.27923E-01  6984   0.152E+00    0.364E-01
RMM:   3    -0.358867306042E+03    0.21006E-02   -0.34072E-02  7254   0.415E-01    0.265E-01
RMM:   4    -0.358866636199E+03    0.66984E-03   -0.89398E-03  8267   0.139E-01    0.160E-01
RMM:   5    -0.358866510788E+03    0.12541E-03   -0.36178E-03  8065   0.926E-02    0.835E-02
RMM:   6    -0.358866515625E+03   -0.48367E-05   -0.13539E-03  8174   0.595E-02    0.375E-02
RMM:   7    -0.358866531578E+03   -0.15953E-04   -0.50800E-04  7184   0.292E-02    0.243E-02
RMM:   8    -0.358866546676E+03   -0.15098E-04   -0.21457E-04  5870   0.209E-02    0.160E-02
RMM:   9    -0.358866550747E+03   -0.40708E-05   -0.76927E-05  4716   0.156E-02
  16 F= -.35886655E+03 E0= -.35887361E+03  d E =-.136836E-01
       N       E                     dE             d eps       ncg     rms          rms(c)
DAV:   1    -0.358873250220E+03   -0.67035E-02   -0.86136E-01  5128   0.284E+00    0.731E-01
RMM:   2    -0.358872159621E+03    0.10906E-02   -0.56853E-02  7173   0.612E-01    0.281E-01
RMM:   3    -0.358870147320E+03    0.20123E-02   -0.11283E-02  7473   0.202E-01    0.196E-01
RMM:   4    -0.358869267786E+03    0.87953E-03   -0.29497E-03  7511   0.105E-01    0.107E-01
RMM:   5    -0.358869112191E+03    0.15559E-03   -0.97611E-04  7381   0.591E-02    0.805E-02
RMM:   6    -0.358869103431E+03    0.87598E-05   -0.39709E-04  6982   0.328E-02    0.509E-02
RMM:   7    -0.358869094475E+03    0.89561E-05   -0.16110E-04  6115   0.235E-02    0.248E-02
RMM:   8    -0.358869095121E+03   -0.64643E-06   -0.86095E-05  4840   0.164E-02
  17 F= -.35886910E+03 E0= -.35887623E+03  d E =-.254437E-02
       N       E                     dE             d eps       ncg     rms          rms(c)
DAV:   1    -0.358872540613E+03   -0.34461E-02   -0.70930E-01  5064   0.258E+00    0.656E-01
RMM:   2    -0.358871669637E+03    0.87098E-03   -0.46458E-02  7164   0.556E-01    0.251E-01
RMM:   3    -0.358870012204E+03    0.16574E-02   -0.90366E-03  7458   0.182E-01    0.173E-01
RMM:   4    -0.358869321417E+03    0.69079E-03   -0.23782E-03  7509   0.938E-02    0.956E-02
RMM:   5    -0.358869201667E+03    0.11975E-03   -0.78146E-04  7387   0.528E-02    0.731E-02
RMM:   6    -0.358869199192E+03    0.24748E-05   -0.32237E-04  6937   0.293E-02    0.473E-02
RMM:   7    -0.358869194063E+03    0.51287E-05   -0.13340E-04  5940   0.214E-02    0.236E-02
RMM:   8    -0.358869195365E+03   -0.13019E-05   -0.80160E-05  4705   0.159E-02
  18 F= -.35886920E+03 E0= -.35887640E+03  d E =-.264462E-02
       N       E                     dE             d eps       ncg     rms          rms(c)
DAV:   1    -0.358869896631E+03   -0.70257E-03   -0.98362E-02  5272   0.958E-01    0.252E-01
RMM:   2    -0.358869734461E+03    0.16217E-03   -0.65464E-03  7167   0.206E-01    0.989E-02
RMM:   3    -0.358869507775E+03    0.22669E-03   -0.13453E-03  7451   0.692E-02    0.696E-02
RMM:   4    -0.358869397794E+03    0.10998E-03   -0.34338E-04  7404   0.366E-02    0.374E-02
RMM:   5    -0.358869379278E+03    0.18516E-04   -0.10975E-04  6523   0.210E-02    0.271E-02
RMM:   6    -0.358869382071E+03   -0.27935E-05   -0.31646E-05  3199   0.113E-02
  19 F= -.35886938E+03 E0= -.35887656E+03  d E =-.283132E-02
       N       E                     dE             d eps       ncg     rms          rms(c)
DAV:   1    -0.358870675476E+03   -0.12962E-02   -0.27258E-01  4848   0.151E+00    0.188E-01
RMM:   2    -0.358871084961E+03   -0.40948E-03   -0.96222E-03  7275   0.281E-01    0.866E-02
RMM:   3    -0.358871028082E+03    0.56879E-04   -0.11472E-03  7272   0.721E-02    0.567E-02
RMM:   4    -0.358870984609E+03    0.43473E-04   -0.34133E-04  7243   0.291E-02    0.367E-02
RMM:   5    -0.358870982148E+03    0.24618E-05   -0.13316E-04  6375   0.187E-02    0.229E-02
RMM:   6    -0.358870984208E+03   -0.20604E-05   -0.48294E-05  4015   0.122E-02
  20 F= -.35887098E+03 E0= -.35887815E+03  d E =-.160214E-02
       N       E                     dE             d eps       ncg     rms          rms(c)
DAV:   1    -0.358870311009E+03    0.67114E-03   -0.23408E+00  4816   0.442E+00    0.565E-01
RMM:   2    -0.358873856307E+03   -0.35453E-02   -0.84013E-02  7287   0.828E-01    0.261E-01
RMM:   3    -0.358873416235E+03    0.44007E-03   -0.10728E-02  7274   0.213E-01    0.167E-01
RMM:   4    -0.358873076723E+03    0.33951E-03   -0.32687E-03  7733   0.877E-02    0.110E-01
RMM:   5    -0.358873033618E+03    0.43105E-04   -0.13174E-03  7769   0.561E-02    0.671E-02
RMM:   6    -0.358873030060E+03    0.35583E-05   -0.51347E-04  7481   0.342E-02    0.407E-02
RMM:   7    -0.358873049754E+03   -0.19694E-04   -0.17403E-04  5492   0.213E-02    0.227E-02
RMM:   8    -0.358873062800E+03   -0.13046E-04   -0.11657E-04  5023   0.182E-02    0.131E-02
RMM:   9    -0.358873069589E+03   -0.67888E-05   -0.51140E-05  4745   0.149E-02
  21 F= -.35887307E+03 E0= -.35888020E+03  d E =-.368752E-02
       N       E                     dE             d eps       ncg     rms          rms(c)
DAV:   1    -0.358873758289E+03   -0.69549E-03   -0.48070E-02  5008   0.672E-01    0.147E-01
RMM:   2    -0.358873715699E+03    0.42590E-04   -0.26945E-03  7169   0.139E-01    0.549E-02
RMM:   3    -0.358873667359E+03    0.48341E-04   -0.44194E-04  7215   0.418E-02    0.390E-02
RMM:   4    -0.358873632061E+03    0.35297E-04   -0.11951E-04  6457   0.207E-02    0.222E-02
RMM:   5    -0.358873628571E+03    0.34908E-05   -0.38343E-05  3784   0.117E-02
  22 F= -.35887363E+03 E0= -.35888073E+03  d E =-.558982E-03
       N       E                     dE             d eps       ncg     rms          rms(c)
DAV:   1    -0.358875622329E+03   -0.19903E-02   -0.43183E-01  4816   0.202E+00    0.444E-01
RMM:   2    -0.358875217427E+03    0.40490E-03   -0.24963E-02  7218   0.419E-01    0.168E-01
RMM:   3    -0.358874729809E+03    0.48762E-03   -0.41186E-03  7254   0.124E-01    0.123E-01
RMM:   4    -0.358874382573E+03    0.34724E-03   -0.11344E-03  7334   0.631E-02    0.725E-02
RMM:   5    -0.358874340546E+03    0.42026E-04   -0.45582E-04  7499   0.349E-02    0.547E-02
RMM:   6    -0.358874347066E+03   -0.65200E-05   -0.16690E-04  6469   0.226E-02    0.333E-02
RMM:   7    -0.358874358207E+03   -0.11141E-04   -0.84608E-05  4959   0.165E-02    0.154E-02
RMM:   8    -0.358874366714E+03   -0.85070E-05   -0.48159E-05  4288   0.141E-02
  23 F= -.35887437E+03 E0= -.35888142E+03  d E =-.129713E-02
       N       E                     dE             d eps       ncg     rms          rms(c)
DAV:   1    -0.358874966284E+03   -0.60808E-03   -0.47324E-02  5152   0.668E-01    0.160E-01
RMM:   2    -0.358874946711E+03    0.19574E-04   -0.28264E-03  7218   0.143E-01    0.629E-02
RMM:   3    -0.358874899234E+03    0.47477E-04   -0.57152E-04  7435   0.455E-02    0.475E-02
RMM:   4    -0.358874839355E+03    0.59879E-04   -0.16029E-04  7021   0.241E-02    0.239E-02
RMM:   5    -0.358874832447E+03    0.69083E-05   -0.53631E-05  4605   0.141E-02
  24 F= -.35887483E+03 E0= -.35888190E+03  d E =-.465732E-03
       N       E                     dE             d eps       ncg     rms          rms(c)
DAV:   1    -0.358876504325E+03   -0.16650E-02   -0.42292E-01  4968   0.200E+00    0.456E-01
RMM:   2    -0.358876282373E+03    0.22195E-03   -0.24051E-02  7129   0.417E-01    0.175E-01
RMM:   3    -0.358875812385E+03    0.46999E-03   -0.43810E-03  7400   0.133E-01    0.131E-01
RMM:   4    -0.358875344474E+03    0.46791E-03   -0.12066E-03  7452   0.670E-02    0.688E-02
RMM:   5    -0.358875306665E+03    0.37810E-04   -0.45623E-04  7406   0.385E-02    0.525E-02
RMM:   6    -0.358875294445E+03    0.12220E-04   -0.17499E-04  6589   0.226E-02    0.312E-02
RMM:   7    -0.358875287725E+03    0.67203E-05   -0.73227E-05  4833   0.167E-02
  25 F= -.35887529E+03 E0= -.35888236E+03  d E =-.921010E-03
       N       E                     dE             d eps       ncg     rms          rms(c)
DAV:   1    -0.358875469218E+03   -0.17477E-03   -0.47497E-02  4968   0.622E-01    0.316E-02
RMM:   2    -0.358875589952E+03   -0.12073E-03   -0.13592E-03  6613   0.105E-01    0.210E-02
RMM:   3    -0.358875582517E+03    0.74347E-05   -0.15843E-04  5593   0.333E-02    0.169E-02
RMM:   4    -0.358875583070E+03   -0.55296E-06   -0.56623E-05  4089   0.116E-02
  26 F= -.35887558E+03 E0= -.35888266E+03  d E =-.295345E-03
       N       E                     dE             d eps       ncg     rms          rms(c)
DAV:   1    -0.358875256419E+03    0.32610E-03   -0.42728E-01  4856   0.187E+00    0.944E-02
RMM:   2    -0.358876331758E+03   -0.10753E-02   -0.11879E-02  6104   0.310E-01    0.565E-02
RMM:   3    -0.358876298663E+03    0.33094E-04   -0.15770E-03  6963   0.101E-01    0.475E-02
RMM:   4    -0.358876296416E+03    0.22474E-05   -0.33801E-04  7596   0.246E-02    0.321E-02
RMM:   5    -0.358876295476E+03    0.94029E-06   -0.11202E-04  5982   0.170E-02    0.175E-02
RMM:   6    -0.358876291590E+03    0.38862E-05   -0.39969E-05  3920   0.137E-02
  27 F= -.35887629E+03 E0= -.35888337E+03  d E =-.100386E-02
       N       E                     dE             d eps       ncg     rms          rms(c)
DAV:   1    -0.358872745897E+03    0.35496E-02   -0.17097E+00  4816   0.374E+00    0.189E-01
RMM:   2    -0.358877029139E+03   -0.42832E-02   -0.47422E-02  6055   0.619E-01    0.110E-01
RMM:   3    -0.358876865518E+03    0.16362E-03   -0.60359E-03  7056   0.204E-01    0.925E-02
RMM:   4    -0.358876860297E+03    0.52215E-05   -0.12659E-03  8401   0.473E-02    0.643E-02
RMM:   5    -0.358876858827E+03    0.14694E-05   -0.42654E-04  7565   0.334E-02    0.385E-02
RMM:   6    -0.358876847296E+03    0.11531E-04   -0.17209E-04  6955   0.255E-02    0.136E-02
RMM:   7    -0.358876847151E+03    0.14530E-06   -0.46492E-05  3886   0.122E-02
  28 F= -.35887685E+03 E0= -.35888394E+03  d E =-.155943E-02
       N       E                     dE             d eps       ncg     rms          rms(c)
DAV:   1    -0.358880141082E+03   -0.32938E-02   -0.37366E-01  5208   0.191E+00    0.594E-01
RMM:   2    -0.358878297033E+03    0.18440E-02   -0.24810E-02  6926   0.414E-01    0.197E-01
RMM:   3    -0.358877786750E+03    0.51028E-03   -0.60524E-03  7481   0.148E-01    0.150E-01
RMM:   4    -0.358877114796E+03    0.67195E-03   -0.16833E-03  7489   0.828E-02    0.782E-02
RMM:   5    -0.358877087045E+03    0.27751E-04   -0.56999E-04  7371   0.430E-02    0.618E-02
RMM:   6    -0.358877109244E+03   -0.22199E-04   -0.19383E-04  6670   0.241E-02    0.368E-02
RMM:   7    -0.358877131150E+03   -0.21907E-04   -0.92789E-05  5762   0.181E-02    0.176E-02
RMM:   8    -0.358877143287E+03   -0.12137E-04   -0.43899E-05  4033   0.131E-02    0.118E-02
RMM:   9    -0.358877150506E+03   -0.72192E-05   -0.22128E-05  3668   0.113E-02
  29 F= -.35887715E+03 E0= -.35888423E+03  d E =-.303355E-03
       N       E                     dE             d eps       ncg     rms          rms(c)
DAV:   1    -0.358877406458E+03   -0.26317E-03   -0.22172E-02  5360   0.464E-01    0.148E-01
RMM:   2    -0.358877308930E+03    0.97528E-04   -0.15341E-03  6975   0.103E-01    0.512E-02
RMM:   3    -0.358877275145E+03    0.33785E-04   -0.38544E-04  7209   0.370E-02    0.392E-02
RMM:   4    -0.358877229242E+03    0.45903E-04   -0.10325E-04  6218   0.214E-02    0.200E-02
RMM:   5    -0.358877221869E+03    0.73735E-05   -0.21411E-05  2726   0.133E-02
  30 F= -.35887722E+03 E0= -.35888431E+03  d E =-.374717E-03
       N       E                     dE             d eps       ncg     rms          rms(c)
DAV:   1    -0.358877248919E+03   -0.19677E-04   -0.25636E-01  4824   0.139E+00    0.105E-01
RMM:   2    -0.358877769552E+03   -0.52063E-03   -0.69003E-03  6998   0.232E-01    0.573E-02
RMM:   3    -0.358877698701E+03    0.70851E-04   -0.79327E-04  7056   0.639E-02    0.421E-02
RMM:   4    -0.358877690723E+03    0.79782E-05   -0.20109E-04  6600   0.200E-02    0.283E-02
RMM:   5    -0.358877685389E+03    0.53345E-05   -0.63499E-05  4403   0.126E-02
  31 F= -.35887769E+03 E0= -.35888482E+03  d E =-.463520E-03
       N       E                     dE             d eps       ncg     rms          rms(c)
DAV:   1    -0.358877463421E+03    0.22730E-03   -0.20259E-01  4816   0.123E+00    0.925E-02
RMM:   2    -0.358877890218E+03   -0.42680E-03   -0.55751E-03  7104   0.206E-01    0.521E-02
RMM:   3    -0.358877848819E+03    0.41400E-04   -0.75246E-04  7040   0.575E-02    0.383E-02
RMM:   4    -0.358877846330E+03    0.24884E-05   -0.19937E-04  6386   0.193E-02    0.253E-02
RMM:   5    -0.358877843275E+03    0.30551E-05   -0.61039E-05  4191   0.123E-02
  32 F= -.35887784E+03 E0= -.35888503E+03  d E =-.621407E-03
       N       E                     dE             d eps       ncg     rms          rms(c)
DAV:   1    -0.358878689433E+03   -0.84310E-03   -0.59819E-02  5368   0.793E-01    0.270E-01
RMM:   2    -0.358878302001E+03    0.38743E-03   -0.48244E-03  7201   0.183E-01    0.904E-02
RMM:   3    -0.358878174781E+03    0.12722E-03   -0.12907E-03  7473   0.651E-02    0.697E-02
RMM:   4    -0.358878023052E+03    0.15173E-03   -0.33834E-04  7304   0.390E-02    0.353E-02
RMM:   5    -0.358878008631E+03    0.14421E-04   -0.11655E-04  6419   0.210E-02    0.274E-02
RMM:   6    -0.358878002723E+03    0.59076E-05   -0.34440E-05  3461   0.119E-02
  33 F= -.35887800E+03 E0= -.35888520E+03  d E =-.159448E-03
       N       E                     dE             d eps       ncg     rms          rms(c)
DAV:   1    -0.358878008654E+03   -0.22956E-07   -0.11699E-03  5528   0.112E-01    0.342E-02
RMM:   2    -0.358878001859E+03    0.67950E-05   -0.98274E-05  6336   0.265E-02
  34 F= -.35887800E+03 E0= -.35888520E+03  d E =-.158584E-03
       N       E                     dE             d eps       ncg     rms          rms(c)
DAV:   1    -0.358878158798E+03   -0.15014E-03   -0.33672E-02  4888   0.537E-01    0.824E-02
RMM:   2    -0.358878178481E+03   -0.19682E-04   -0.14235E-03  7297   0.102E-01    0.392E-02
RMM:   3    -0.358878162946E+03    0.15535E-04   -0.22612E-04  6620   0.288E-02    0.268E-02
RMM:   4    -0.358878152908E+03    0.10037E-04   -0.75376E-05  5553   0.164E-02    0.153E-02
RMM:   5    -0.358878149881E+03    0.30277E-05   -0.23260E-05  3168   0.101E-02
  35 F= -.35887815E+03 E0= -.35888533E+03  d E =-.148022E-03
       N       E                     dE             d eps       ncg     rms          rms(c)
DAV:   1    -0.358878299198E+03   -0.14629E-03   -0.16329E-01  4816   0.118E+00    0.180E-01
RMM:   2    -0.358878433462E+03   -0.13426E-03   -0.69504E-03  7296   0.223E-01    0.874E-02
RMM:   3    -0.358878312561E+03    0.12090E-03   -0.10958E-03  7366   0.604E-02    0.627E-02
RMM:   4    -0.358878243825E+03    0.68736E-04   -0.32933E-04  7137   0.317E-02    0.363E-02
RMM:   5    -0.358878233987E+03    0.98382E-05   -0.13931E-04  6362   0.205E-02    0.231E-02
RMM:   6    -0.358878235570E+03   -0.15833E-05   -0.46795E-05  3885   0.122E-02
  36 F= -.35887824E+03 E0= -.35888539E+03  d E =-.233711E-03
       N       E                     dE             d eps       ncg     rms          rms(c)
DAV:   1    -0.358878261411E+03   -0.27424E-04   -0.10978E-02  4912   0.308E-01    0.488E-02
RMM:   2    -0.358878275235E+03   -0.13825E-04   -0.46285E-04  7228   0.589E-02    0.229E-02
RMM:   3    -0.358878265817E+03    0.94185E-05   -0.63432E-05  5337   0.165E-02
  37 F= -.35887827E+03 E0= -.35888543E+03  d E =-.263958E-03
       N       E                     dE             d eps       ncg     rms          rms(c)
DAV:   1    -0.358878254606E+03    0.20629E-04   -0.34709E-02  4952   0.532E-01    0.328E-02
RMM:   2    -0.358878337993E+03   -0.83387E-04   -0.99265E-04  6089   0.888E-02    0.181E-02
RMM:   3    -0.358878327361E+03    0.10632E-04   -0.93635E-05  5097   0.296E-02    0.142E-02
RMM:   4    -0.358878326175E+03    0.11858E-05   -0.24815E-05  3349   0.924E-03
  38 F= -.35887833E+03 E0= -.35888550E+03  d E =-.603582E-04
       N       E                     dE             d eps       ncg     rms          rms(c)
DAV:   1    -0.358878310324E+03    0.17037E-04   -0.19948E-02  4976   0.401E-01    0.257E-02
RMM:   2    -0.358878362708E+03   -0.52384E-04   -0.60836E-04  6454   0.685E-02    0.159E-02
RMM:   3    -0.358878358269E+03    0.44393E-05   -0.71078E-05  4404   0.215E-02
  39 F= -.35887836E+03 E0= -.35888554E+03  d E =-.924519E-04
       N       E                     dE             d eps       ncg     rms          rms(c)
DAV:   1    -0.358878200690E+03    0.16202E-03   -0.79806E-02  4944   0.802E-01    0.521E-02
RMM:   2    -0.358878402035E+03   -0.20134E-03   -0.23958E-03  6553   0.134E-01    0.309E-02
RMM:   3    -0.358878390856E+03    0.11178E-04   -0.32760E-04  6579   0.409E-02    0.246E-02
RMM:   4    -0.358878390023E+03    0.83293E-06   -0.74961E-05  4725   0.125E-02
  40 F= -.35887839E+03 E0= -.35888559E+03  d E =-.124206E-03
       N       E                     dE             d eps       ncg     rms          rms(c)
DAV:   1    -0.358878485770E+03   -0.94913E-04   -0.23511E-02  4896   0.438E-01    0.533E-02
RMM:   2    -0.358878517289E+03   -0.31520E-04   -0.81616E-04  7245   0.799E-02    0.272E-02
RMM:   3    -0.358878513675E+03    0.36139E-05   -0.12697E-04  5626   0.226E-02    0.194E-02
RMM:   4    -0.358878507418E+03    0.62572E-05   -0.48414E-05  4020   0.126E-02
  41 F= -.35887851E+03 E0= -.35888573E+03  d E =-.117395E-03
       N       E                     dE             d eps       ncg     rms          rms(c)
DAV:   1    -0.358878485319E+03    0.28356E-04   -0.11294E-01  4816   0.960E-01    0.111E-01
RMM:   2    -0.358878632065E+03   -0.14675E-03   -0.38093E-03  7274   0.174E-01    0.552E-02
RMM:   3    -0.358878616534E+03    0.15531E-04   -0.59773E-04  7209   0.490E-02    0.374E-02
RMM:   4    -0.358878596808E+03    0.19725E-04   -0.19613E-04  6401   0.215E-02    0.208E-02
RMM:   5    -0.358878596416E+03    0.39256E-06   -0.67904E-05  4217   0.128E-02
  42 F= -.35887860E+03 E0= -.35888585E+03  d E =-.206392E-03
       N       E                     dE             d eps       ncg     rms          rms(c)
DAV:   1    -0.358878600302E+03   -0.34941E-05   -0.37264E-03  5024   0.174E-01    0.221E-02
RMM:   2    -0.358878605796E+03   -0.54941E-05   -0.12042E-04  5958   0.320E-02    0.981E-03
RMM:   3    -0.358878603974E+03    0.18224E-05   -0.93087E-06  2684   0.101E-02
  43 F= -.35887860E+03 E0= -.35888586E+03  d E =-.213951E-03
       N       E                     dE             d eps       ncg     rms          rms(c)
DAV:   1    -0.358878719219E+03   -0.11342E-03   -0.32155E-02  4864   0.530E-01    0.104E-01
RMM:   2    -0.358878718168E+03    0.10518E-05   -0.15190E-03  7281   0.105E-01    0.425E-02
RMM:   3    -0.358878688663E+03    0.29505E-04   -0.24552E-04  6812   0.292E-02    0.319E-02
RMM:   4    -0.358878663778E+03    0.24885E-04   -0.64817E-05  5881   0.168E-02    0.181E-02
RMM:   5    -0.358878659186E+03    0.45922E-05   -0.21307E-05  3014   0.104E-02
  44 F= -.35887866E+03 E0= -.35888590E+03  d E =-.552118E-04
