       N       E                     dE             d eps       ncg     rms          rms(c)
DAV:   1     0.164665917827E+04    0.16467E+04   -0.10340E+05  5264   0.102E+03
DAV:   2    -0.104483141102E+03   -0.17511E+04   -0.16782E+04  5324   0.357E+02
DAV:   3    -0.349260837778E+03   -0.24478E+03   -0.23171E+03  8240   0.100E+02
DAV:   4    -0.378807992658E+03   -0.29547E+02   -0.28133E+02  8152   0.300E+01
DAV:   5    -0.381747065562E+03   -0.29391E+01   -0.28894E+01  7504   0.969E+00    0.669E+01
RMM:   6    -0.372038709969E+03    0.97084E+01   -0.29703E+01  7162   0.981E+00    0.320E+01
RMM:   7    -0.376230208582E+03   -0.41915E+01   -0.34600E+01  7354   0.801E+00    0.158E+01
RMM:   8    -0.366611882261E+03    0.96183E+01   -0.10986E+01  7050   0.459E+00    0.429E+00
RMM:   9    -0.366190682342E+03    0.42120E+00   -0.30760E+00  7397   0.227E+00    0.269E+00
RMM:  10    -0.366176739359E+03    0.13943E-01   -0.60092E-01  7507   0.106E+00    0.171E+00
RMM:  11    -0.366140266526E+03    0.36473E-01   -0.15023E-01  7331   0.557E-01    0.998E-01
RMM:  12    -0.366138339935E+03    0.19266E-02   -0.80811E-02  7475   0.457E-01    0.459E-01
RMM:  13    -0.366134841393E+03    0.34985E-02   -0.23016E-02  7452   0.230E-01    0.245E-01
RMM:  14    -0.366134638260E+03    0.20313E-03   -0.97898E-03  7534   0.120E-01    0.136E-01
RMM:  15    -0.366134867245E+03   -0.22898E-03   -0.45287E-03  7511   0.710E-02    0.813E-02
RMM:  16    -0.366134926175E+03   -0.58930E-04   -0.16032E-03  6903   0.405E-02    0.450E-02
RMM:  17    -0.366134917814E+03    0.83612E-05   -0.66922E-04  6283   0.280E-02    0.200E-02
RMM:  18    -0.366134935410E+03   -0.17596E-04   -0.30649E-04  5792   0.196E-02    0.107E-02
RMM:  19    -0.366134941838E+03   -0.64279E-05   -0.13276E-04  4599   0.135E-02    0.583E-03
RMM:  20    -0.366134942870E+03   -0.10322E-05   -0.41375E-05  3791   0.106E-02
   1 F= -.36613494E+03 E0= -.36614047E+03  d E =-.366135E+03
       N       E                     dE             d eps       ncg     rms          rms(c)
DAV:   1    -0.366222439246E+03   -0.87497E-01   -0.26792E+00  5520   0.520E+00    0.204E+00
RMM:   2    -0.366200690168E+03    0.21749E-01   -0.24545E-01  7242   0.126E+00    0.734E-01
RMM:   3    -0.366188467353E+03    0.12223E-01   -0.69064E-02  7421   0.434E-01    0.546E-01
RMM:   4    -0.366179696344E+03    0.87710E-02   -0.18884E-02  7516   0.279E-01    0.291E-01
RMM:   5    -0.366178583055E+03    0.11133E-02   -0.56587E-03  7390   0.152E-01    0.214E-01
RMM:   6    -0.366178810088E+03   -0.22703E-03   -0.23916E-03  7650   0.762E-02    0.128E-01
RMM:   7    -0.366178897119E+03   -0.87030E-04   -0.93205E-04  7369   0.542E-02    0.696E-02
RMM:   8    -0.366178967060E+03   -0.69941E-04   -0.47593E-04  6671   0.311E-02    0.502E-02
RMM:   9    -0.366179033233E+03   -0.66173E-04   -0.19428E-04  6090   0.243E-02    0.356E-02
RMM:  10    -0.366179085117E+03   -0.51885E-04   -0.10413E-04  5172   0.173E-02    0.179E-02
RMM:  11    -0.366179104781E+03   -0.19664E-04   -0.50745E-05  4333   0.142E-02    0.732E-03
RMM:  12    -0.366179110910E+03   -0.61292E-05   -0.22275E-05  3794   0.123E-02
   2 F= -.36617911E+03 E0= -.36618467E+03  d E =-.441680E-01
       N       E                     dE             d eps       ncg     rms          rms(c)
DAV:   1    -0.366379217920E+03   -0.20011E+00   -0.10259E+01  5168   0.102E+01    0.406E+00
RMM:   2    -0.366293628034E+03    0.85590E-01   -0.93095E-01  7217   0.246E+00    0.143E+00
RMM:   3    -0.366248258554E+03    0.45369E-01   -0.26364E-01  7417   0.853E-01    0.107E+00
RMM:   4    -0.366214354127E+03    0.33904E-01   -0.71693E-02  7504   0.545E-01    0.570E-01
RMM:   5    -0.366210327875E+03    0.40263E-02   -0.21549E-02  7416   0.295E-01    0.423E-01
RMM:   6    -0.366211100318E+03   -0.77244E-03   -0.90134E-03  7714   0.149E-01    0.249E-01
RMM:   7    -0.366211407159E+03   -0.30684E-03   -0.36573E-03  7951   0.105E-01    0.135E-01
RMM:   8    -0.366211647405E+03   -0.24025E-03   -0.18306E-03  7896   0.599E-02    0.100E-01
RMM:   9    -0.366211861458E+03   -0.21405E-03   -0.70111E-04  7092   0.415E-02    0.728E-02
RMM:  10    -0.366212028009E+03   -0.16655E-03   -0.35449E-04  6144   0.290E-02    0.351E-02
RMM:  11    -0.366212086853E+03   -0.58844E-04   -0.18325E-04  5709   0.236E-02    0.139E-02
RMM:  12    -0.366212106016E+03   -0.19163E-04   -0.11145E-04  5352   0.178E-02    0.959E-03
RMM:  13    -0.366212109404E+03   -0.33874E-05   -0.27222E-05  3932   0.132E-02
   3 F= -.36621211E+03 E0= -.36621770E+03  d E =-.771665E-01
       N       E                     dE             d eps       ncg     rms          rms(c)
DAV:   1    -0.366246766633E+03   -0.34661E-01   -0.23035E+00  5056   0.378E+00    0.598E-01
RMM:   2    -0.366250649979E+03   -0.38833E-02   -0.65231E-02  7204   0.677E-01    0.345E-01
RMM:   3    -0.366247088681E+03    0.35613E-02   -0.11652E-02  7355   0.188E-01    0.218E-01
RMM:   4    -0.366246545049E+03    0.54363E-03   -0.27571E-03  7570   0.831E-02    0.140E-01
RMM:   5    -0.366246406231E+03    0.13882E-03   -0.11642E-03  7568   0.594E-02    0.787E-02
RMM:   6    -0.366246375486E+03    0.30746E-04   -0.47371E-04  7559   0.352E-02    0.466E-02
RMM:   7    -0.366246364924E+03    0.10562E-04   -0.17670E-04  6691   0.203E-02    0.306E-02
RMM:   8    -0.366246361563E+03    0.33601E-05   -0.60185E-05  4805   0.123E-02
   4 F= -.36624636E+03 E0= -.36625214E+03  d E =-.342522E-01
       N       E                     dE             d eps       ncg     rms          rms(c)
DAV:   1    -0.366308164085E+03   -0.61799E-01   -0.20698E+01  4856   0.113E+01    0.176E+00
RMM:   2    -0.366342160791E+03   -0.33997E-01   -0.58101E-01  7186   0.203E+00    0.102E+00
RMM:   3    -0.366313146206E+03    0.29015E-01   -0.10648E-01  7362   0.568E-01    0.662E-01
RMM:   4    -0.366307928033E+03    0.52182E-02   -0.23853E-02  7552   0.246E-01    0.428E-01
RMM:   5    -0.366306765943E+03    0.11621E-02   -0.10437E-02  7489   0.181E-01    0.241E-01
RMM:   6    -0.366306489941E+03    0.27600E-03   -0.42400E-03  7623   0.106E-01    0.145E-01
RMM:   7    -0.366306455478E+03    0.34464E-04   -0.16539E-03  8055   0.612E-02    0.951E-02
RMM:   8    -0.366306477665E+03   -0.22187E-04   -0.66125E-04  6953   0.326E-02    0.557E-02
RMM:   9    -0.366306477343E+03    0.32210E-06   -0.29958E-04  6474   0.280E-02    0.293E-02
RMM:  10    -0.366306475025E+03    0.23175E-05   -0.11803E-04  5350   0.178E-02    0.160E-02
RMM:  11    -0.366306474683E+03    0.34233E-06   -0.56524E-05  4513   0.141E-02
   5 F= -.36630647E+03 E0= -.36631269E+03  d E =-.943653E-01
       N       E                     dE             d eps       ncg     rms          rms(c)
DAV:   1    -0.366313762344E+03   -0.72873E-02   -0.41016E+00  4928   0.504E+00    0.790E-01
RMM:   2    -0.366320234778E+03   -0.64724E-02   -0.11405E-01  7190   0.896E-01    0.447E-01
RMM:   3    -0.366314270245E+03    0.59645E-02   -0.20546E-02  7367   0.249E-01    0.289E-01
RMM:   4    -0.366313278704E+03    0.99154E-03   -0.48419E-03  7608   0.110E-01    0.185E-01
RMM:   5    -0.366313057217E+03    0.22149E-03   -0.20715E-03  7586   0.799E-02    0.105E-01
RMM:   6    -0.366313013607E+03    0.43610E-04   -0.84379E-04  7658   0.465E-02    0.643E-02
RMM:   7    -0.366313003143E+03    0.10463E-04   -0.32972E-04  6930   0.276E-02    0.416E-02
RMM:   8    -0.366313002600E+03    0.54288E-06   -0.11036E-04  5476   0.163E-02    0.227E-02
RMM:   9    -0.366313000216E+03    0.23842E-05   -0.68632E-05  5036   0.148E-02
   6 F= -.36631300E+03 E0= -.36631934E+03  d E =-.100891E+00
       N       E                     dE             d eps       ncg     rms          rms(c)
DAV:   1    -0.366323878164E+03   -0.10876E-01   -0.58734E-01  5152   0.231E+00    0.615E-01
RMM:   2    -0.366322495063E+03    0.13831E-02   -0.36689E-02  7046   0.508E-01    0.223E-01
RMM:   3    -0.366321630432E+03    0.86463E-03   -0.66279E-03  7345   0.161E-01    0.159E-01
RMM:   4    -0.366321044789E+03    0.58564E-03   -0.18046E-03  7504   0.785E-02    0.923E-02
RMM:   5    -0.366320933059E+03    0.11173E-03   -0.64559E-04  7481   0.458E-02    0.690E-02
RMM:   6    -0.366320921820E+03    0.11239E-04   -0.24066E-04  6884   0.258E-02    0.402E-02
RMM:   7    -0.366320914718E+03    0.71017E-05   -0.11831E-04  6128   0.198E-02    0.190E-02
RMM:   8    -0.366320914126E+03    0.59262E-06   -0.58156E-05  4276   0.144E-02
   7 F= -.36632091E+03 E0= -.36632751E+03  d E =-.791391E-02
       N       E                     dE             d eps       ncg     rms          rms(c)
DAV:   1    -0.366341250182E+03   -0.20335E-01   -0.27331E+00  4928   0.497E+00    0.132E+00
RMM:   2    -0.366334835851E+03    0.64143E-02   -0.17157E-01  7075   0.110E+00    0.482E-01
RMM:   3    -0.366330767215E+03    0.40686E-02   -0.31078E-02  7362   0.343E-01    0.345E-01
RMM:   4    -0.366328081532E+03    0.26857E-02   -0.84532E-03  7521   0.170E-01    0.202E-01
RMM:   5    -0.366327576064E+03    0.50547E-03   -0.30994E-03  7533   0.981E-02    0.151E-01
RMM:   6    -0.366327558663E+03    0.17400E-04   -0.11511E-03  7740   0.557E-02    0.877E-02
RMM:   7    -0.366327560697E+03   -0.20335E-05   -0.61051E-04  7082   0.412E-02    0.412E-02
RMM:   8    -0.366327572053E+03   -0.11356E-04   -0.25311E-04  5924   0.257E-02    0.300E-02
RMM:   9    -0.366327581341E+03   -0.92886E-05   -0.12607E-04  5316   0.200E-02    0.249E-02
RMM:  10    -0.366327582430E+03   -0.10885E-05   -0.49133E-05  4591   0.139E-02
   8 F= -.36632758E+03 E0= -.36633471E+03  d E =-.145822E-01
       N       E                     dE             d eps       ncg     rms          rms(c)
DAV:   1    -0.366333893765E+03   -0.63124E-02   -0.37810E-01  5008   0.182E+00    0.437E-01
RMM:   2    -0.366334006659E+03   -0.11289E-03   -0.21141E-02  7263   0.380E-01    0.187E-01
RMM:   3    -0.366333206580E+03    0.80008E-03   -0.41606E-03  7368   0.115E-01    0.129E-01
RMM:   4    -0.366332798213E+03    0.40837E-03   -0.11235E-03  7473   0.633E-02    0.678E-02
RMM:   5    -0.366332744267E+03    0.53946E-04   -0.40244E-04  7491   0.366E-02    0.464E-02
RMM:   6    -0.366332751221E+03   -0.69539E-05   -0.14156E-04  6347   0.197E-02    0.279E-02
RMM:   7    -0.366332760405E+03   -0.91836E-05   -0.61008E-05  4519   0.143E-02
   9 F= -.36633276E+03 E0= -.36634006E+03  d E =-.517797E-02
       N       E                     dE             d eps       ncg     rms          rms(c)
DAV:   1    -0.366350462666E+03   -0.17711E-01   -0.33977E+00  4928   0.544E+00    0.131E+00
RMM:   2    -0.366351053945E+03   -0.59128E-03   -0.18573E-01  7219   0.113E+00    0.547E-01
RMM:   3    -0.366343965920E+03    0.70880E-02   -0.35564E-02  7349   0.343E-01    0.373E-01
RMM:   4    -0.366340393547E+03    0.35724E-02   -0.96980E-03  7505   0.187E-01    0.195E-01
RMM:   5    -0.366339962790E+03    0.43076E-03   -0.33893E-03  7502   0.107E-01    0.137E-01
RMM:   6    -0.366340018536E+03   -0.55746E-04   -0.12644E-03  7724   0.574E-02    0.843E-02
RMM:   7    -0.366340083740E+03   -0.65204E-04   -0.56424E-04  6897   0.396E-02    0.435E-02
RMM:   8    -0.366340125799E+03   -0.42059E-04   -0.27282E-04  6142   0.261E-02    0.306E-02
RMM:   9    -0.366340151453E+03   -0.25653E-04   -0.12850E-04  5295   0.203E-02    0.236E-02
RMM:  10    -0.366340172360E+03   -0.20907E-04   -0.54241E-05  4788   0.145E-02    0.123E-02
RMM:  11    -0.366340184167E+03   -0.11807E-04   -0.24250E-05  3925   0.124E-02    0.405E-03
RMM:  12    -0.366340186894E+03   -0.27276E-05   -0.15657E-05  3472   0.114E-02
  10 F= -.36634019E+03 E0= -.36634797E+03  d E =-.126045E-01
       N       E                     dE             d eps       ncg     rms          rms(c)
DAV:   1    -0.366340320258E+03   -0.13609E-03   -0.30461E-02  5152   0.516E-01    0.122E-01
RMM:   2    -0.366340330966E+03   -0.10708E-04   -0.16411E-03  7194   0.106E-01    0.507E-02
RMM:   3    -0.366340271226E+03    0.59741E-04   -0.31513E-04  7043   0.325E-02    0.338E-02
RMM:   4    -0.366340243777E+03    0.27449E-04   -0.83950E-05  5972   0.178E-02    0.175E-02
RMM:   5    -0.366340241181E+03    0.25958E-05   -0.25532E-05  3250   0.112E-02
  11 F= -.36634024E+03 E0= -.36634807E+03  d E =-.126588E-01
       N       E                     dE             d eps       ncg     rms          rms(c)
DAV:   1    -0.366341992426E+03   -0.17486E-02   -0.12096E-01  4920   0.940E-01    0.813E-02
RMM:   2    -0.366342274799E+03   -0.28237E-03   -0.32422E-03  7052   0.155E-01    0.524E-02
RMM:   3    -0.366342170042E+03    0.10476E-03   -0.43023E-04  7008   0.445E-02    0.331E-02
RMM:   4    -0.366342165772E+03    0.42698E-05   -0.11650E-04  6103   0.160E-02    0.215E-02
RMM:   5    -0.366342164367E+03    0.14051E-05   -0.35497E-05  3686   0.101E-02
  12 F= -.36634216E+03 E0= -.36635003E+03  d E =-.192319E-02
       N       E                     dE             d eps       ncg     rms          rms(c)
DAV:   1    -0.366345482220E+03   -0.33164E-02   -0.10889E+00  4816   0.282E+00    0.240E-01
RMM:   2    -0.366348012512E+03   -0.25303E-02   -0.28899E-02  7134   0.463E-01    0.157E-01
RMM:   3    -0.366347073379E+03    0.93913E-03   -0.38608E-03  7251   0.130E-01    0.983E-02
RMM:   4    -0.366347026673E+03    0.46706E-04   -0.10223E-03  8042   0.459E-02    0.626E-02
RMM:   5    -0.366347003207E+03    0.23466E-04   -0.37623E-04  7211   0.306E-02    0.313E-02
RMM:   6    -0.366347004048E+03   -0.84072E-06   -0.13712E-04  6303   0.196E-02    0.141E-02
RMM:   7    -0.366347004428E+03   -0.38061E-06   -0.33388E-05  3831   0.124E-02
  13 F= -.36634700E+03 E0= -.36635501E+03  d E =-.676325E-02
       N       E                     dE             d eps       ncg     rms          rms(c)
DAV:   1    -0.366346556041E+03    0.44801E-03   -0.43581E+00  4816   0.564E+00    0.479E-01
RMM:   2    -0.366356487598E+03   -0.99316E-02   -0.11518E-01  7124   0.926E-01    0.311E-01
RMM:   3    -0.366352824030E+03    0.36636E-02   -0.15238E-02  7267   0.260E-01    0.196E-01
RMM:   4    -0.366352616323E+03    0.20771E-03   -0.40275E-03  8114   0.909E-02    0.124E-01
RMM:   5    -0.366352516609E+03    0.99714E-04   -0.14829E-03  7717   0.614E-02    0.617E-02
RMM:   6    -0.366352518389E+03   -0.17795E-05   -0.55247E-04  7861   0.386E-02    0.274E-02
RMM:   7    -0.366352523243E+03   -0.48541E-05   -0.17284E-04  5489   0.190E-02    0.175E-02
RMM:   8    -0.366352532059E+03   -0.88163E-05   -0.10509E-04  4765   0.169E-02    0.104E-02
RMM:   9    -0.366352534269E+03   -0.22097E-05   -0.33610E-05  3846   0.123E-02
  14 F= -.36635253E+03 E0= -.36636079E+03  d E =-.122931E-01
       N       E                     dE             d eps       ncg     rms          rms(c)
DAV:   1    -0.366351868699E+03    0.66336E-03   -0.94916E-01  4856   0.264E+00    0.225E-01
RMM:   2    -0.366354048280E+03   -0.21796E-02   -0.25181E-02  7146   0.433E-01    0.146E-01
RMM:   3    -0.366353260952E+03    0.78733E-03   -0.33928E-03  7255   0.122E-01    0.922E-02
RMM:   4    -0.366353218262E+03    0.42689E-04   -0.90357E-04  8030   0.430E-02    0.584E-02
RMM:   5    -0.366353198248E+03    0.20015E-04   -0.33409E-04  7113   0.290E-02    0.290E-02
RMM:   6    -0.366353199280E+03   -0.10326E-05   -0.12477E-04  6075   0.185E-02    0.130E-02
RMM:   7    -0.366353199911E+03   -0.63099E-06   -0.31466E-05  3781   0.122E-02
  15 F= -.36635320E+03 E0= -.36636158E+03  d E =-.129587E-01
       N       E                     dE             d eps       ncg     rms          rms(c)
DAV:   1    -0.366364134422E+03   -0.10935E-01   -0.13640E+00  5040   0.351E+00    0.104E+00
RMM:   2    -0.366359059480E+03    0.50749E-02   -0.81931E-02  6941   0.747E-01    0.357E-01
RMM:   3    -0.366357126826E+03    0.19327E-02   -0.18447E-02  7384   0.253E-01    0.260E-01
RMM:   4    -0.366355253368E+03    0.18735E-02   -0.49439E-03  7520   0.139E-01    0.146E-01
RMM:   5    -0.366355016093E+03    0.23727E-03   -0.17068E-03  7496   0.738E-02    0.111E-01
RMM:   6    -0.366355003929E+03    0.12164E-04   -0.57885E-04  7493   0.394E-02    0.654E-02
RMM:   7    -0.366354999531E+03    0.43982E-05   -0.27222E-04  6481   0.298E-02    0.294E-02
RMM:   8    -0.366355004593E+03   -0.50618E-05   -0.15844E-04  5989   0.204E-02    0.224E-02
RMM:   9    -0.366355005779E+03   -0.11861E-05   -0.46048E-05  4228   0.144E-02
  16 F= -.36635501E+03 E0= -.36636355E+03  d E =-.180587E-02
       N       E                     dE             d eps       ncg     rms          rms(c)
DAV:   1    -0.366355193284E+03   -0.18869E-03   -0.18525E-02  5376   0.408E-01    0.127E-01
RMM:   2    -0.366355111083E+03    0.82200E-04   -0.12102E-03  7101   0.894E-02    0.466E-02
RMM:   3    -0.366355083659E+03    0.27424E-04   -0.29225E-04  6907   0.317E-02    0.347E-02
RMM:   4    -0.366355052549E+03    0.31110E-04   -0.73933E-05  5688   0.183E-02    0.195E-02
RMM:   5    -0.366355047242E+03    0.53071E-05   -0.18464E-05  2753   0.125E-02
  17 F= -.36635505E+03 E0= -.36636357E+03  d E =-.184733E-02
       N       E                     dE             d eps       ncg     rms          rms(c)
DAV:   1    -0.366356188562E+03   -0.11360E-02   -0.47511E-01  4928   0.187E+00    0.174E-01
RMM:   2    -0.366357074301E+03   -0.88574E-03   -0.12804E-02  7141   0.323E-01    0.902E-02
RMM:   3    -0.366356962024E+03    0.11228E-03   -0.15536E-03  7271   0.820E-02    0.624E-02
RMM:   4    -0.366356941709E+03    0.20315E-04   -0.37985E-04  7791   0.313E-02    0.443E-02
RMM:   5    -0.366356938061E+03    0.36476E-05   -0.14135E-04  6603   0.192E-02    0.258E-02
RMM:   6    -0.366356935954E+03    0.21071E-05   -0.65599E-05  5327   0.138E-02
  18 F= -.36635694E+03 E0= -.36636549E+03  d E =-.188871E-02
       N       E                     dE             d eps       ncg     rms          rms(c)
DAV:   1    -0.366353343539E+03    0.35945E-02   -0.36914E+00  4928   0.522E+00    0.490E-01
RMM:   2    -0.366360181468E+03   -0.68379E-02   -0.99841E-02  7195   0.899E-01    0.254E-01
RMM:   3    -0.366359407281E+03    0.77419E-03   -0.12656E-02  7302   0.228E-01    0.172E-01
RMM:   4    -0.366359257636E+03    0.14965E-03   -0.31167E-03  8305   0.895E-02    0.121E-01
RMM:   5    -0.366359223396E+03    0.34241E-04   -0.11811E-03  7994   0.537E-02    0.696E-02
RMM:   6    -0.366359188768E+03    0.34627E-04   -0.49285E-04  7852   0.363E-02    0.363E-02
RMM:   7    -0.366359197404E+03   -0.86358E-05   -0.16267E-04  5844   0.194E-02    0.205E-02
RMM:   8    -0.366359205850E+03   -0.84460E-05   -0.64511E-05  4652   0.157E-02
  19 F= -.36635921E+03 E0= -.36636784E+03  d E =-.415861E-02
       N       E                     dE             d eps       ncg     rms          rms(c)
DAV:   1    -0.366360546061E+03   -0.13487E-02   -0.17221E-01  5008   0.121E+00    0.261E-01
RMM:   2    -0.366360533397E+03    0.12665E-04   -0.84414E-03  7163   0.244E-01    0.102E-01
RMM:   3    -0.366360351910E+03    0.18149E-03   -0.13716E-03  7308   0.713E-02    0.709E-02
RMM:   4    -0.366360236731E+03    0.11518E-03   -0.40604E-04  7454   0.367E-02    0.389E-02
RMM:   5    -0.366360225401E+03    0.11330E-04   -0.14110E-04  6678   0.212E-02    0.284E-02
RMM:   6    -0.366360231095E+03   -0.56946E-05   -0.43614E-05  4039   0.124E-02
  20 F= -.36636023E+03 E0= -.36636885E+03  d E =-.102525E-02
       N       E                     dE             d eps       ncg     rms          rms(c)
DAV:   1    -0.366361917250E+03   -0.16918E-02   -0.54928E-01  4928   0.215E+00    0.468E-01
RMM:   2    -0.366361832086E+03    0.85163E-04   -0.27117E-02  7194   0.437E-01    0.184E-01
RMM:   3    -0.366361224374E+03    0.60771E-03   -0.44222E-03  7317   0.125E-01    0.128E-01
RMM:   4    -0.366360847168E+03    0.37721E-03   -0.13090E-03  7513   0.661E-02    0.721E-02
RMM:   5    -0.366360805727E+03    0.41442E-04   -0.47298E-04  7476   0.382E-02    0.530E-02
RMM:   6    -0.366360820029E+03   -0.14302E-04   -0.17119E-04  6613   0.210E-02    0.340E-02
RMM:   7    -0.366360836059E+03   -0.16029E-04   -0.75013E-05  5141   0.162E-02    0.172E-02
RMM:   8    -0.366360847570E+03   -0.11512E-04   -0.45774E-05  4311   0.139E-02    0.102E-02
RMM:   9    -0.366360852543E+03   -0.49731E-05   -0.18044E-05  3523   0.119E-02
  21 F= -.36636085E+03 E0= -.36636945E+03  d E =-.164669E-02
       N       E                     dE             d eps       ncg     rms          rms(c)
DAV:   1    -0.366361414552E+03   -0.56698E-03   -0.53213E-02  5088   0.659E-01    0.123E-01
RMM:   2    -0.366361461608E+03   -0.47056E-04   -0.23121E-03  7259   0.131E-01    0.519E-02
RMM:   3    -0.366361430176E+03    0.31432E-04   -0.39442E-04  7216   0.372E-02    0.372E-02
RMM:   4    -0.366361402512E+03    0.27664E-04   -0.10607E-04  6306   0.186E-02    0.219E-02
RMM:   5    -0.366361395756E+03    0.67557E-05   -0.35007E-05  3739   0.119E-02
  22 F= -.36636140E+03 E0= -.36637000E+03  d E =-.543213E-03
       N       E                     dE             d eps       ncg     rms          rms(c)
DAV:   1    -0.366362373876E+03   -0.97136E-03   -0.47688E-01  4928   0.197E+00    0.354E-01
RMM:   2    -0.366362743187E+03   -0.36931E-03   -0.19685E-02  7254   0.383E-01    0.147E-01
RMM:   3    -0.366362446160E+03    0.29703E-03   -0.30507E-03  7275   0.105E-01    0.102E-01
RMM:   4    -0.366362236251E+03    0.20991E-03   -0.83346E-04  7565   0.518E-02    0.600E-02
RMM:   5    -0.366362200384E+03    0.35867E-04   -0.33505E-04  7372   0.312E-02    0.410E-02
RMM:   6    -0.366362187965E+03    0.12419E-04   -0.11856E-04  6424   0.178E-02    0.260E-02
RMM:   7    -0.366362182333E+03    0.56317E-05   -0.47938E-05  4223   0.131E-02
  23 F= -.36636218E+03 E0= -.36637083E+03  d E =-.132979E-02
       N       E                     dE             d eps       ncg     rms          rms(c)
DAV:   1    -0.366362206845E+03   -0.18881E-04   -0.30277E-02  5168   0.496E-01    0.875E-02
RMM:   2    -0.366362232539E+03   -0.25693E-04   -0.12628E-03  7138   0.962E-02    0.357E-02
RMM:   3    -0.366362211782E+03    0.20757E-04   -0.20035E-04  6636   0.277E-02    0.250E-02
RMM:   4    -0.366362198823E+03    0.12959E-04   -0.53618E-05  4550   0.148E-02    0.152E-02
RMM:   5    -0.366362195828E+03    0.29948E-05   -0.19634E-05  3053   0.113E-02
  24 F= -.36636220E+03 E0= -.36637086E+03  d E =-.134328E-02
       N       E                     dE             d eps       ncg     rms          rms(c)
DAV:   1    -0.366362411157E+03   -0.21233E-03   -0.12085E-02  5040   0.325E-01    0.548E-02
RMM:   2    -0.366362426594E+03   -0.15437E-04   -0.56308E-04  6761   0.643E-02    0.197E-02
RMM:   3    -0.366362416736E+03    0.98586E-05   -0.62670E-05  5403   0.193E-02
  25 F= -.36636242E+03 E0= -.36637109E+03  d E =-.220907E-03
       N       E                     dE             d eps       ncg     rms          rms(c)
DAV:   1    -0.366362852724E+03   -0.42613E-03   -0.10879E-01  4944   0.970E-01    0.175E-01
RMM:   2    -0.366362950001E+03   -0.97277E-04   -0.52462E-03  7162   0.194E-01    0.667E-02
RMM:   3    -0.366362877666E+03    0.72335E-04   -0.68407E-04  7211   0.532E-02    0.429E-02
RMM:   4    -0.366362850266E+03    0.27400E-04   -0.21445E-04  7154   0.254E-02    0.273E-02
RMM:   5    -0.366362842708E+03    0.75586E-05   -0.65583E-05  4830   0.139E-02
  26 F= -.36636284E+03 E0= -.36637154E+03  d E =-.646879E-03
       N       E                     dE             d eps       ncg     rms          rms(c)
DAV:   1    -0.366362659822E+03    0.19044E-03   -0.43527E-01  4928   0.194E+00    0.348E-01
RMM:   2    -0.366363097523E+03   -0.43770E-03   -0.20482E-02  7148   0.387E-01    0.132E-01
RMM:   3    -0.366362852318E+03    0.24520E-03   -0.27127E-03  7205   0.107E-01    0.880E-02
RMM:   4    -0.366362713893E+03    0.13843E-03   -0.82057E-04  7542   0.491E-02    0.541E-02
RMM:   5    -0.366362688138E+03    0.25755E-04   -0.29636E-04  7178   0.280E-02    0.391E-02
RMM:   6    -0.366362678902E+03    0.92364E-05   -0.11234E-04  6208   0.175E-02    0.238E-02
RMM:   7    -0.366362673743E+03    0.51590E-05   -0.43587E-05  4133   0.131E-02
  27 F= -.36636267E+03 E0= -.36637143E+03  d E =-.477915E-03
       N       E                     dE             d eps       ncg     rms          rms(c)
DAV:   1    -0.366362936553E+03   -0.25765E-03   -0.15004E-01  4928   0.114E+00    0.211E-01
RMM:   2    -0.366363070343E+03   -0.13379E-03   -0.71460E-03  7057   0.230E-01    0.797E-02
RMM:   3    -0.366362983451E+03    0.86893E-04   -0.92299E-04  7149   0.656E-02    0.543E-02
RMM:   4    -0.366362926289E+03    0.57161E-04   -0.26140E-04  7353   0.288E-02    0.327E-02
RMM:   5    -0.366362916549E+03    0.97398E-05   -0.88772E-05  6172   0.165E-02
  28 F= -.36636292E+03 E0= -.36637164E+03  d E =-.720721E-03
       N       E                     dE             d eps       ncg     rms          rms(c)
DAV:   1    -0.366363128435E+03   -0.20215E-03   -0.12926E-02  5032   0.345E-01    0.792E-02
RMM:   2    -0.366363119431E+03    0.90042E-05   -0.78040E-04  6225   0.741E-02    0.314E-02
RMM:   3    -0.366363092780E+03    0.26651E-04   -0.11390E-04  5920   0.245E-02    0.222E-02
RMM:   4    -0.366363083524E+03    0.92561E-05   -0.22138E-05  2730   0.129E-02
  29 F= -.36636308E+03 E0= -.36637181E+03  d E =-.166974E-03
       N       E                     dE             d eps       ncg     rms          rms(c)
DAV:   1    -0.366363674663E+03   -0.58188E-03   -0.11579E-01  4928   0.103E+00    0.251E-01
RMM:   2    -0.366363597098E+03    0.77566E-04   -0.72506E-03  6896   0.224E-01    0.963E-02
RMM:   3    -0.366363399785E+03    0.19731E-03   -0.12263E-03  7249   0.706E-02    0.698E-02
RMM:   4    -0.366363287425E+03    0.11236E-03   -0.34185E-04  7335   0.343E-02    0.406E-02
RMM:   5    -0.366363276642E+03    0.10783E-04   -0.11064E-04  6284   0.213E-02    0.296E-02
RMM:   6    -0.366363286004E+03   -0.93622E-05   -0.44209E-05  3987   0.134E-02
  30 F= -.36636329E+03 E0= -.36637202E+03  d E =-.369455E-03
       N       E                     dE             d eps       ncg     rms          rms(c)
DAV:   1    -0.366363355275E+03   -0.78633E-04   -0.21061E-03  5152   0.131E-01    0.218E-02
RMM:   2    -0.366363361823E+03   -0.65482E-05   -0.10306E-04  5433   0.260E-02    0.109E-02
RMM:   3    -0.366363359230E+03    0.25928E-05   -0.96797E-06  2731   0.110E-02
  31 F= -.36636336E+03 E0= -.36637210E+03  d E =-.732264E-04
       N       E                     dE             d eps       ncg     rms          rms(c)
DAV:   1    -0.366363509634E+03   -0.14781E-03   -0.18787E-02  4880   0.386E-01    0.719E-02
RMM:   2    -0.366363527457E+03   -0.17823E-04   -0.84726E-04  7239   0.760E-02    0.311E-02
RMM:   3    -0.366363511506E+03    0.15951E-04   -0.13469E-04  6412   0.210E-02    0.218E-02
RMM:   4    -0.366363503516E+03    0.79892E-05   -0.34037E-05  3814   0.131E-02
  32 F= -.36636350E+03 E0= -.36637227E+03  d E =-.217512E-03
       N       E                     dE             d eps       ncg     rms          rms(c)
DAV:   1    -0.366363611470E+03   -0.99964E-04   -0.75009E-02  4816   0.775E-01    0.146E-01
RMM:   2    -0.366363685427E+03   -0.73958E-04   -0.33888E-03  7301   0.153E-01    0.636E-02
RMM:   3    -0.366363625078E+03    0.60350E-04   -0.55003E-04  7264   0.416E-02    0.449E-02
RMM:   4    -0.366363584286E+03    0.40791E-04   -0.16309E-04  6749   0.224E-02    0.249E-02
RMM:   5    -0.366363583356E+03    0.93010E-06   -0.68427E-05  5213   0.140E-02
  33 F= -.36636358E+03 E0= -.36637239E+03  d E =-.297352E-03
       N       E                     dE             d eps       ncg     rms          rms(c)
DAV:   1    -0.366363657331E+03   -0.73044E-04   -0.31392E-03  5376   0.163E-01    0.490E-02
RMM:   2    -0.366363658635E+03   -0.13046E-05   -0.22304E-04  7235   0.363E-02    0.202E-02
RMM:   3    -0.366363656577E+03    0.20580E-05   -0.56734E-05  5207   0.124E-02
  34 F= -.36636366E+03 E0= -.36637249E+03  d E =-.732212E-04
       N       E                     dE             d eps       ncg     rms          rms(c)
DAV:   1    -0.366363886578E+03   -0.22794E-03   -0.27729E-02  4960   0.484E-01    0.125E-01
RMM:   2    -0.366363831010E+03    0.55568E-04   -0.16251E-03  7291   0.104E-01    0.478E-02
RMM:   3    -0.366363785148E+03    0.45862E-04   -0.30239E-04  6922   0.313E-02    0.327E-02
RMM:   4    -0.366363764765E+03    0.20383E-04   -0.84522E-05  6144   0.190E-02    0.198E-02
RMM:   5    -0.366363759304E+03    0.54611E-05   -0.24296E-05  3198   0.111E-02
  35 F= -.36636376E+03 E0= -.36637262E+03  d E =-.175948E-03
       N       E                     dE             d eps       ncg     rms          rms(c)
DAV:   1    -0.366363788711E+03   -0.23946E-04   -0.52334E-03  4904   0.212E-01    0.501E-02
RMM:   2    -0.366363781019E+03    0.76917E-05   -0.29207E-04  7201   0.441E-02    0.199E-02
RMM:   3    -0.366363771022E+03    0.99977E-05   -0.53075E-05  5547   0.135E-02
  36 F= -.36636377E+03 E0= -.36637267E+03  d E =-.187666E-03
       N       E                     dE             d eps       ncg     rms          rms(c)
DAV:   1    -0.366363823552E+03   -0.42532E-04   -0.21000E-02  4960   0.421E-01    0.105E-01
RMM:   2    -0.366363776952E+03    0.46600E-04   -0.12058E-03  7256   0.900E-02    0.399E-02
RMM:   3    -0.366363740669E+03    0.36283E-04   -0.21651E-04  6652   0.268E-02    0.275E-02
RMM:   4    -0.366363726342E+03    0.14327E-04   -0.59275E-05  4896   0.173E-02    0.178E-02
RMM:   5    -0.366363723195E+03    0.31477E-05   -0.18148E-05  2960   0.114E-02
  37 F= -.36636372E+03 E0= -.36637265E+03  d E =-.139839E-03
       N       E                     dE             d eps       ncg     rms          rms(c)
DAV:   1    -0.366363806545E+03   -0.80202E-04   -0.10962E-02  5072   0.306E-01    0.818E-02
RMM:   2    -0.366363778926E+03    0.27618E-04   -0.60879E-04  7073   0.649E-02    0.310E-02
RMM:   3    -0.366363764618E+03    0.14308E-04   -0.11461E-04  6297   0.209E-02    0.212E-02
RMM:   4    -0.366363753684E+03    0.10935E-04   -0.25318E-05  2790   0.130E-02    0.124E-02
RMM:   5    -0.366363751871E+03    0.18123E-05   -0.79816E-06  2535   0.944E-03
  38 F= -.36636375E+03 E0= -.36637265E+03  d E =-.168515E-03
       N       E                     dE             d eps       ncg     rms          rms(c)
DAV:   1    -0.366363756049E+03   -0.23652E-05   -0.41425E-04  5136   0.589E-02    0.133E-02
RMM:   2    -0.366363755467E+03    0.58187E-06   -0.19072E-05  2580   0.123E-02
  39 F= -.36636376E+03 E0= -.36637265E+03  d E =-.172111E-03
       N       E                     dE             d eps       ncg     rms          rms(c)
DAV:   1    -0.366363800176E+03   -0.44127E-04   -0.26892E-03  4912   0.144E-01    0.149E-02
RMM:   2    -0.366363806983E+03   -0.68072E-05   -0.80425E-05  4636   0.265E-02
  40 F= -.36636381E+03 E0= -.36637271E+03  d E =-.515160E-04
       N       E                     dE             d eps       ncg     rms          rms(c)
DAV:   1    -0.366363898866E+03   -0.98690E-04   -0.24562E-02  4856   0.434E-01    0.435E-02
RMM:   2    -0.366363949896E+03   -0.51029E-04   -0.76004E-04  6956   0.785E-02    0.223E-02
RMM:   3    -0.366363944678E+03    0.52183E-05   -0.99819E-05  5264   0.215E-02
  41 F= -.36636394E+03 E0= -.36637288E+03  d E =-.189210E-03
       N       E                     dE             d eps       ncg     rms          rms(c)
DAV:   1    -0.366363963996E+03   -0.14100E-04   -0.97587E-02  4816   0.863E-01    0.844E-02
RMM:   2    -0.366364158519E+03   -0.19452E-03   -0.29653E-03  7155   0.154E-01    0.450E-02
RMM:   3    -0.366364143304E+03    0.15215E-04   -0.41162E-04  6985   0.391E-02    0.300E-02
RMM:   4    -0.366364141182E+03    0.21220E-05   -0.10907E-04  5480   0.160E-02    0.209E-02
RMM:   5    -0.366364136826E+03    0.43558E-05   -0.32492E-05  3555   0.103E-02
  42 F= -.36636414E+03 E0= -.36637312E+03  d E =-.381359E-03
       N       E                     dE             d eps       ncg     rms          rms(c)
DAV:   1    -0.366363503136E+03    0.63805E-03   -0.39020E-01  4816   0.173E+00    0.165E-01
RMM:   2    -0.366364287192E+03   -0.78406E-03   -0.11462E-02  7173   0.308E-01    0.833E-02
RMM:   3    -0.366364229782E+03    0.57409E-04   -0.14494E-03  7274   0.770E-02    0.553E-02
RMM:   4    -0.366364218484E+03    0.11298E-04   -0.36078E-04  7445   0.276E-02    0.398E-02
RMM:   5    -0.366364208686E+03    0.97982E-05   -0.13473E-04  6477   0.188E-02    0.221E-02
RMM:   6    -0.366364201631E+03    0.70550E-05   -0.52802E-05  4410   0.124E-02
  43 F= -.36636420E+03 E0= -.36637329E+03  d E =-.446164E-03
       N       E                     dE             d eps       ncg     rms          rms(c)
DAV:   1    -0.366364128656E+03    0.80030E-04   -0.58834E-02  4816   0.672E-01    0.656E-02
RMM:   2    -0.366364240379E+03   -0.11172E-03   -0.16725E-03  6826   0.119E-01    0.294E-02
RMM:   3    -0.366364226511E+03    0.13868E-04   -0.17598E-04  6686   0.317E-02    0.209E-02
RMM:   4    -0.366364222050E+03    0.44611E-05   -0.34034E-05  3694   0.114E-02
  44 F= -.36636422E+03 E0= -.36637327E+03  d E =-.466582E-03
       N       E                     dE             d eps       ncg     rms          rms(c)
DAV:   1    -0.366364372861E+03   -0.14635E-03   -0.12542E-02  5128   0.336E-01    0.957E-02
RMM:   2    -0.366364332998E+03    0.39862E-04   -0.79336E-04  6724   0.737E-02    0.356E-02
RMM:   3    -0.366364309489E+03    0.23510E-04   -0.15491E-04  6344   0.253E-02    0.255E-02
RMM:   4    -0.366364292187E+03    0.17301E-04   -0.32219E-05  3164   0.144E-02    0.155E-02
RMM:   5    -0.366364291492E+03    0.69543E-06   -0.10411E-05  2680   0.112E-02
  45 F= -.36636429E+03 E0= -.36637335E+03  d E =-.694425E-04
       N       E                     dE             d eps       ncg     rms          rms(c)
DAV:   1    -0.366364495654E+03   -0.20347E-03   -0.32070E-02  4968   0.538E-01    0.149E-01
RMM:   2    -0.366364417837E+03    0.77817E-04   -0.20147E-03  6968   0.118E-01    0.538E-02
RMM:   3    -0.366364364900E+03    0.52937E-04   -0.39186E-04  7182   0.384E-02    0.393E-02
RMM:   4    -0.366364327388E+03    0.37512E-04   -0.10594E-04  6116   0.205E-02    0.229E-02
RMM:   5    -0.366364324045E+03    0.33432E-05   -0.26685E-05  3149   0.135E-02
  46 F= -.36636432E+03 E0= -.36637340E+03  d E =-.101995E-03
       N       E                     dE             d eps       ncg     rms          rms(c)
DAV:   1    -0.366364365796E+03   -0.38408E-04   -0.30744E-03  5136   0.151E-01    0.202E-02
RMM:   2    -0.366364373333E+03   -0.75377E-05   -0.11098E-04  6911   0.298E-02    0.121E-02
RMM:   3    -0.366364373549E+03   -0.21513E-06   -0.12454E-05  2927   0.103E-02
  47 F= -.36636437E+03 E0= -.36637347E+03  d E =-.495038E-04
       N       E                     dE             d eps       ncg     rms          rms(c)
DAV:   1    -0.366364445603E+03   -0.72269E-04   -0.27500E-02  4840   0.451E-01    0.472E-02
RMM:   2    -0.366364478468E+03   -0.32866E-04   -0.84672E-04  7245   0.825E-02    0.265E-02
RMM:   3    -0.366364469985E+03    0.84829E-05   -0.12701E-04  5338   0.228E-02    0.182E-02
RMM:   4    -0.366364468665E+03    0.13201E-05   -0.65431E-05  4440   0.141E-02
  48 F= -.36636447E+03 E0= -.36637360E+03  d E =-.144620E-03
