<?xml version="1.0" encoding="ISO-8859-1"?>
<modeling>
 <generator>
  <i name="program" type="string">vasp </i>
  <i name="version" type="string">5.4.1  </i>
  <i name="subversion" type="string">05Feb16 (build Jan 29 2020 16:04:39) complex                          parallel </i>
  <i name="platform" type="string">IFC91_ompi </i>
  <i name="date" type="string">2020 06 15 </i>
  <i name="time" type="string">06:05:26 </i>
 </generator>
 <incar>
  <i type="string" name="SYSTEM"> automatically generated by mexm</i>
  <i type="int" name="ISTART">     0</i>
  <i type="string" name="PREC">accurate               ! avoid wrap aro</i>
  <i type="string" name="ALGO"> Fast                   ! blocked Davids</i>
  <i type="int" name="ISPIN">     1</i>
  <i type="int" name="ICHARG">     2</i>
  <i type="int" name="NELM">    70</i>
  <i type="int" name="IBRION">     2</i>
  <i name="EDIFF">      0.00001000</i>
  <i name="EDIFFG">     -0.01000000</i>
  <i type="int" name="NSW">   300</i>
  <i type="int" name="ISIF">     3</i>
  <i type="int" name="ISYM">     1</i>
  <i name="ENCUT">    300.00000000</i>
  <i name="POTIM">      0.15000000</i>
  <i type="string" name="LREAL"> Auto                  ! unpublished met</i>
  <i type="int" name="ISMEAR">     1</i>
  <i name="SIGMA">      0.15000000</i>
  <i type="logical" name="LWAVE"> F  </i>
  <i type="logical" name="LCHARG"> F  </i>
  <i type="logical" name="LVTOT"> F  </i>
  <v type="int" name="KPOINT_BSE">    -1     0     0     0</v>
  <i type="int" name="NELM">    70</i>
 </incar>
 <kpoints>
  <generation param="Gamma">
   <v type="int" name="divisions">       3        3        3 </v>
   <v name="usershift">      0.00000000       0.00000000       0.00000000 </v>
   <v name="genvec1">      0.33333333      -0.00000000       0.00000000 </v>
   <v name="genvec2">     -0.00000000       0.33333333      -0.00000000 </v>
   <v name="genvec3">      0.00000000       0.00000000       0.33333333 </v>
   <v name="shift">      0.00000000       0.00000000       0.00000000 </v>
  </generation>
  <varray name="kpointlist" >
   <v>       0.00000000       0.00000000       0.00000000 </v>
   <v>       0.33333333      -0.00000000       0.00000000 </v>
   <v>       0.00000000       0.33333333      -0.00000000 </v>
   <v>       0.33333333       0.33333333      -0.00000000 </v>
   <v>      -0.33333333       0.33333333       0.00000000 </v>
   <v>       0.00000000       0.00000000       0.33333333 </v>
   <v>       0.33333333       0.00000000       0.33333333 </v>
   <v>      -0.33333333      -0.00000000       0.33333333 </v>
   <v>      -0.00000000       0.33333333       0.33333333 </v>
   <v>       0.33333333       0.33333333       0.33333333 </v>
   <v>      -0.33333333       0.33333333       0.33333333 </v>
   <v>       0.00000000      -0.33333333       0.33333333 </v>
   <v>       0.33333333      -0.33333333       0.33333333 </v>
   <v>      -0.33333333      -0.33333333       0.33333333 </v>
  </varray>
  <varray name="weights" >
   <v>       0.03703704 </v>
   <v>       0.07407407 </v>
   <v>       0.07407407 </v>
   <v>       0.07407407 </v>
   <v>       0.07407407 </v>
   <v>       0.07407407 </v>
   <v>       0.07407407 </v>
   <v>       0.07407407 </v>
   <v>       0.07407407 </v>
   <v>       0.07407407 </v>
   <v>       0.07407407 </v>
   <v>       0.07407407 </v>
   <v>       0.07407407 </v>
   <v>       0.07407407 </v>
  </varray>
 </kpoints>
 <parameters>
  <separator name="general" >
   <i type="string" name="SYSTEM">automatically generated by mexm</i>
   <i type="logical" name="LCOMPAT"> F  </i>
  </separator>
  <separator name="electronic" >
   <i type="string" name="PREC">accura</i>
   <i name="ENMAX">    300.00000000</i>
   <i name="ENAUG">    461.25700000</i>
   <i name="EDIFF">      0.00001000</i>
   <i type="int" name="IALGO">    68</i>
   <i type="int" name="IWAVPR">    11</i>
   <i type="int" name="NBANDS">   172</i>
   <i name="NELECT">    282.00000000</i>
   <i type="int" name="TURBO">     0</i>
   <i type="int" name="IRESTART">     0</i>
   <i type="int" name="NREBOOT">     0</i>
   <i type="int" name="NMIN">     0</i>
   <i name="EREF">      0.00000000</i>
   <separator name="electronic smearing" >
    <i type="int" name="ISMEAR">     1</i>
    <i name="SIGMA">      0.15000000</i>
    <i name="KSPACING">      0.50000000</i>
    <i type="logical" name="KGAMMA"> T  </i>
   </separator>
   <separator name="electronic projectors" >
    <i type="logical" name="LREAL"> T  </i>
    <v name="ROPT">     -0.00025000     -0.00025000     -0.00025000     -0.00025000</v>
    <i type="int" name="LMAXPAW">  -100</i>
    <i type="int" name="LMAXMIX">     2</i>
    <i type="logical" name="NLSPLINE"> F  </i>
   </separator>
   <separator name="electronic startup" >
    <i type="int" name="ISTART">     0</i>
    <i type="int" name="ICHARG">     2</i>
    <i type="int" name="INIWAV">     1</i>
   </separator>
   <separator name="electronic spin" >
    <i type="int" name="ISPIN">     1</i>
    <i type="logical" name="LNONCOLLINEAR"> F  </i>
    <v name="MAGMOM">      1.00000000      1.00000000      1.00000000      1.00000000      1.00000000      1.00000000      1.00000000      1.00000000      1.00000000      1.00000000      1.00000000      1.00000000      1.00000000      1.00000000      1.00000000      1.00000000      1.00000000      1.00000000      1.00000000      1.00000000
      1.00000000      1.00000000      1.00000000      1.00000000      1.00000000      1.00000000      1.00000000      1.00000000      1.00000000      1.00000000      1.00000000      1.00000000      1.00000000      1.00000000      1.00000000      1.00000000</v>
    <i name="NUPDOWN">     -1.00000000</i>
    <i type="logical" name="LSORBIT"> F  </i>
    <v name="SAXIS">      0.00000000      0.00000000      1.00000000</v>
    <i type="logical" name="LSPIRAL"> F  </i>
    <v name="QSPIRAL">      0.00000000      0.00000000      0.00000000</v>
    <i type="logical" name="LZEROZ"> F  </i>
   </separator>
   <separator name="electronic exchange-correlation" >
    <i type="logical" name="LASPH"> F  </i>
    <i type="logical" name="LMETAGGA"> F  </i>
   </separator>
   <separator name="electronic convergence" >
    <i type="int" name="NELM">    70</i>
    <i type="int" name="NELMDL">    -5</i>
    <i type="int" name="NELMIN">     2</i>
    <i name="ENINI">    300.00000000</i>
    <separator name="electronic convergence detail" >
     <i type="logical" name="LDIAG"> T  </i>
     <i type="logical" name="LSUBROT"> F  </i>
     <i name="WEIMIN">      0.00100000</i>
     <i name="EBREAK">      0.00000001</i>
     <i name="DEPER">      0.30000000</i>
     <i type="int" name="NRMM">     4</i>
     <i name="TIME">      0.40000000</i>
    </separator>
   </separator>
   <separator name="electronic mixer" >
    <i name="AMIX">      0.40000000</i>
    <i name="BMIX">      1.00000000</i>
    <i name="AMIN">      0.10000000</i>
    <i name="AMIX_MAG">      1.60000000</i>
    <i name="BMIX_MAG">      1.00000000</i>
    <separator name="electronic mixer details" >
     <i type="int" name="IMIX">     4</i>
     <i type="logical" name="MIXFIRST"> F  </i>
     <i type="int" name="MAXMIX">   -45</i>
     <i name="WC">    100.00000000</i>
     <i type="int" name="INIMIX">     1</i>
     <i type="int" name="MIXPRE">     1</i>
     <i type="int" name="MREMOVE">     5</i>
    </separator>
   </separator>
   <separator name="electronic dipolcorrection" >
    <i type="logical" name="LDIPOL"> F  </i>
    <i type="logical" name="LMONO"> F  </i>
    <i type="int" name="IDIPOL">     0</i>
    <i name="EPSILON">      1.00000000</i>
    <v name="DIPOL">   -100.00000000   -100.00000000   -100.00000000</v>
    <i name="EFIELD">      0.00000000</i>
   </separator>
  </separator>
  <separator name="grids" >
   <i type="int" name="NGX">    40</i>
   <i type="int" name="NGY">    60</i>
   <i type="int" name="NGZ">    60</i>
   <i type="int" name="NGXF">    80</i>
   <i type="int" name="NGYF">   120</i>
   <i type="int" name="NGZF">   120</i>
   <i type="logical" name="ADDGRID"> F  </i>
  </separator>
  <separator name="ionic" >
   <i type="int" name="NSW">   300</i>
   <i type="int" name="IBRION">     2</i>
   <i type="int" name="ISIF">     3</i>
   <i name="PSTRESS">      0.00000000</i>
   <i name="EDIFFG">     -0.01000000</i>
   <i type="int" name="NFREE">     1</i>
   <i name="POTIM">      0.15000000</i>
   <i name="SMASS">     -3.00000000</i>
   <i name="SCALEE">      1.00000000</i>
  </separator>
  <separator name="ionic md" >
   <i name="TEBEG">      0.00010000</i>
   <i name="TEEND">      0.00010000</i>
   <i type="int" name="NBLOCK">     1</i>
   <i type="int" name="KBLOCK">   300</i>
   <i type="int" name="NPACO">   256</i>
   <i name="APACO">     16.00000000</i>
  </separator>
  <separator name="symmetry" >
   <i type="int" name="ISYM">     1</i>
   <i name="SYMPREC">      0.00001000</i>
  </separator>
  <separator name="dos" >
   <i type="logical" name="LORBIT"> F  </i>
   <v name="RWIGS">     -1.00000000     -1.00000000     -1.00000000     -1.00000000</v>
   <i type="int" name="NEDOS">   301</i>
   <i name="EMIN">     10.00000000</i>
   <i name="EMAX">    -10.00000000</i>
   <i name="EFERMI">      0.00000000</i>
  </separator>
  <separator name="writing" >
   <i type="int" name="NWRITE">     2</i>
   <i type="logical" name="LWAVE"> F  </i>
   <i type="logical" name="LCHARG"> F  </i>
   <i type="logical" name="LPARD"> F  </i>
   <i type="logical" name="LVTOT"> F  </i>
   <i type="logical" name="LVHAR"> F  </i>
   <i type="logical" name="LELF"> F  </i>
   <i type="logical" name="LOPTICS"> F  </i>
   <v name="STM">      0.00000000      0.00000000      0.00000000      0.00000000      0.00000000      0.00000000      0.00000000</v>
  </separator>
  <separator name="performance" >
   <i type="int" name="NPAR">     4</i>
   <i type="int" name="NSIM">     4</i>
   <i type="int" name="NBLK">    -1</i>
   <i type="logical" name="LPLANE"> T  </i>
   <i type="logical" name="LSCALAPACK"> T  </i>
   <i type="logical" name="LSCAAWARE"> F  </i>
   <i type="logical" name="LSCALU"> F  </i>
   <i type="logical" name="LASYNC"> F  </i>
   <i type="logical" name="LORBITALREAL"> F  </i>
  </separator>
  <separator name="miscellaneous" >
   <i type="int" name="IDIOT">     3</i>
   <i type="logical" name="LMUSIC"> F  </i>
   <v name="POMASS">    180.94800000     91.22400000    178.49000000     92.91000000</v>
   <v name="DARWINR">      0.00000000      0.00000000      0.00000000      0.00000000</v>
   <v name="DARWINV">      1.00000000      1.00000000      1.00000000      1.00000000</v>
   <i type="logical" name="LCORR"> T  </i>
  </separator>
  <i type="logical" name="GGA_COMPAT"> T  </i>
  <i type="logical" name="LBERRY"> F  </i>
  <i type="int" name="ICORELEVEL">     0</i>
  <i type="logical" name="LDAU"> F  </i>
  <i type="int" name="I_CONSTRAINED_M">     0</i>
  <separator name="electronic exchange-correlation" >
   <i type="string" name="GGA">--</i>
   <i type="int" name="VOSKOWN">     0</i>
   <i type="logical" name="LHFCALC"> F  </i>
   <i type="string" name="PRECFOCK"></i>
   <i type="logical" name="LSYMGRAD"> F  </i>
   <i type="logical" name="LHFONE"> F  </i>
   <i type="logical" name="LRHFCALC"> F  </i>
   <i type="logical" name="LTHOMAS"> F  </i>
   <i type="logical" name="LMODELHF"> F  </i>
   <i name="ENCUT4O">     -1.00000000</i>
   <i type="int" name="EXXOEP">     0</i>
   <i type="int" name="FOURORBIT">     0</i>
   <i name="AEXX">      0.00000000</i>
   <i name="HFALPHA">      0.00000000</i>
   <i name="MCALPHA">      0.00000000</i>
   <i name="ALDAX">      1.00000000</i>
   <i name="AGGAX">      1.00000000</i>
   <i name="ALDAC">      1.00000000</i>
   <i name="AGGAC">      1.00000000</i>
   <i type="int" name="NKREDX">     1</i>
   <i type="int" name="NKREDY">     1</i>
   <i type="int" name="NKREDZ">     1</i>
   <i type="logical" name="SHIFTRED"> F  </i>
   <i type="logical" name="ODDONLY"> F  </i>
   <i type="logical" name="EVENONLY"> F  </i>
   <i type="int" name="LMAXFOCK">     0</i>
   <i type="int" name="NMAXFOCKAE">     0</i>
   <i type="logical" name="LFOCKAEDFT"> F  </i>
   <i name="HFSCREEN">      0.00000000</i>
   <i name="HFSCREENC">      0.00000000</i>
   <i type="int" name="NBANDSGWLOW">     0</i>
  </separator>
  <separator name="vdW DFT" >
   <i type="logical" name="LUSE_VDW"> F  </i>
   <i name="Zab_VDW">     -0.84910000</i>
   <i name="PARAM1">      0.12340000</i>
   <i name="PARAM2">      1.00000000</i>
   <i name="PARAM3">      0.00000000</i>
  </separator>
  <separator name="model GW" >
   <i type="int" name="MODEL_GW">     0</i>
   <i name="MODEL_EPS0">     12.21758958</i>
   <i name="MODEL_ALPHA">      1.00000000</i>
  </separator>
  <separator name="linear response parameters" >
   <i type="logical" name="LEPSILON"> F  </i>
   <i type="logical" name="LRPA"> F  </i>
   <i type="logical" name="LNABLA"> F  </i>
   <i type="logical" name="LVEL"> F  </i>
   <i type="int" name="KINTER">     0</i>
   <i name="CSHIFT">      0.10000000</i>
   <i name="OMEGAMAX">     -1.00000000</i>
   <i name="DEG_THRESHOLD">      0.00200000</i>
  </separator>
  <separator name="orbital magnetization" >
   <i type="logical" name="NUCIND"> F  </i>
   <v name="MAGPOS">      0.00000000      0.00000000      0.00000000</v>
   <i type="logical" name="LNICSALL"> T  </i>
   <i type="logical" name="ORBITALMAG"> F  </i>
   <i type="logical" name="LMAGBLOCH"> F  </i>
   <i type="logical" name="LCHIMAG"> F  </i>
   <i type="logical" name="LGAUGE"> T  </i>
   <i type="int" name="MAGATOM">     0</i>
   <v name="MAGDIPOL">      0.00000000      0.00000000      0.00000000</v>
   <v name="AVECCONST">      0.00000000      0.00000000      0.00000000</v>
  </separator>
  <separator name="response functions" >
   <i type="logical" name="LADDER"> F  </i>
   <i type="logical" name="LFXC"> F  </i>
   <i type="logical" name="LHARTREE"> T  </i>
   <i type="int" name="IBSE">     0</i>
   <v type="int" name="KPOINT">    -1     0     0     0</v>
   <i type="logical" name="LTCTE"> F  </i>
   <i type="logical" name="LTETE"> F  </i>
   <i type="logical" name="LTRIPLET"> F  </i>
   <i type="logical" name="LFXCEPS"> F  </i>
   <i type="logical" name="LFXHEG"> F  </i>
   <i type="int" name="NATURALO">     0</i>
   <i type="logical" name="L2ORDER"> F  </i>
   <i type="logical" name="LUSEW"> F  </i>
   <i name="ENCUTGW">     -2.00000000</i>
   <i name="ENCUTGWSOFT">     -2.00000000</i>
   <i name="ENCUTLF">     -1.00000000</i>
   <i type="int" name="LMAXMP2">    -1</i>
   <i name="SCISSOR">      0.00000000</i>
   <i type="int" name="NOMEGA">     0</i>
   <i type="int" name="NOMEGAR">     0</i>
   <i type="int" name="NBANDSGW">    -1</i>
   <i type="int" name="NBANDSO">    -1</i>
   <i type="int" name="NBANDSV">    -1</i>
   <i type="int" name="NELM">    70</i>
   <i type="int" name="NELMHF">     1</i>
   <i type="int" name="DIM">     3</i>
   <i type="int" name="ANTIRES">     0</i>
   <i name="OMEGAMAX">    -30.00000000</i>
   <i name="OMEGAMIN">    -30.00000000</i>
   <i name="OMEGATL">   -200.00000000</i>
   <i type="int" name="OMEGAGRID">     0</i>
   <i name="CSHIFT">     -0.10000000</i>
   <i type="logical" name="SELFENERGY"> F  </i>
   <i type="logical" name="LSPECTRAL"> F  </i>
   <i type="logical" name="LSPECTRALGW"> F  </i>
   <i type="logical" name="LSINGLES"> F  </i>
   <i type="logical" name="LFERMIGW"> F  </i>
   <i type="logical" name="ODDONLYGW"> F  </i>
   <i type="logical" name="EVENONLYGW"> F  </i>
   <i type="int" name="NKREDLFX">     1</i>
   <i type="int" name="NKREDLFY">     1</i>
   <i type="int" name="NKREDLFZ">     1</i>
   <i type="int" name="MAXMEM">  1800</i>
   <i type="int" name="TELESCOPE">     0</i>
   <i type="int" name="TAUPAR">     1</i>
   <i type="int" name="OMEGAPAR">    -1</i>
   <i name="LAMBDA">      1.00000000</i>
  </separator>
  <separator name="External order field" >
   <i name="OFIELD_KAPPA">      0.00000000</i>
   <v name="OFIELD_K">      0.00000000      0.00000000      0.00000000</v>
   <i name="OFIELD_Q6_NEAR">      0.00000000</i>
   <i name="OFIELD_Q6_FAR">      0.00000000</i>
   <i name="OFIELD_A">      0.00000000</i>
  </separator>
 </parameters>
 <atominfo>
  <atoms>      36 </atoms>
  <types>       4 </types>
  <array name="atoms" >
   <dimension dim="1">ion</dimension>
   <field type="string">element</field>
   <field type="int">atomtype</field>
   <set>
    <rc><c>Ta</c><c>   1</c></rc>
    <rc><c>Ta</c><c>   1</c></rc>
    <rc><c>Ta</c><c>   1</c></rc>
    <rc><c>Ta</c><c>   1</c></rc>
    <rc><c>Ta</c><c>   1</c></rc>
    <rc><c>Ta</c><c>   1</c></rc>
    <rc><c>Ta</c><c>   1</c></rc>
    <rc><c>Ta</c><c>   1</c></rc>
    <rc><c>Ta</c><c>   1</c></rc>
    <rc><c>Ta</c><c>   1</c></rc>
    <rc><c>Ta</c><c>   1</c></rc>
    <rc><c>Ta</c><c>   1</c></rc>
    <rc><c>Ta</c><c>   1</c></rc>
    <rc><c>Zr</c><c>   2</c></rc>
    <rc><c>Zr</c><c>   2</c></rc>
    <rc><c>Zr</c><c>   2</c></rc>
    <rc><c>Zr</c><c>   2</c></rc>
    <rc><c>Zr</c><c>   2</c></rc>
    <rc><c>Zr</c><c>   2</c></rc>
    <rc><c>Zr</c><c>   2</c></rc>
    <rc><c>Zr</c><c>   2</c></rc>
    <rc><c>Zr</c><c>   2</c></rc>
    <rc><c>Zr</c><c>   2</c></rc>
    <rc><c>Hf</c><c>   3</c></rc>
    <rc><c>Hf</c><c>   3</c></rc>
    <rc><c>Hf</c><c>   3</c></rc>
    <rc><c>Hf</c><c>   3</c></rc>
    <rc><c>Hf</c><c>   3</c></rc>
    <rc><c>Hf</c><c>   3</c></rc>
    <rc><c>Hf</c><c>   3</c></rc>
    <rc><c>Hf</c><c>   3</c></rc>
    <rc><c>Nb</c><c>   4</c></rc>
    <rc><c>Nb</c><c>   4</c></rc>
    <rc><c>Nb</c><c>   4</c></rc>
    <rc><c>Nb</c><c>   4</c></rc>
    <rc><c>Nb</c><c>   4</c></rc>
   </set>
  </array>
  <array name="atomtypes" >
   <dimension dim="1">type</dimension>
   <field type="int">atomspertype</field>
   <field type="string">element</field>
   <field>mass</field>
   <field>valence</field>
   <field type="string">pseudopotential</field>
   <set>
    <rc><c>  13</c><c>Ta</c><c>    180.94800000</c><c>      5.00000000</c><c>  PAW_PBE Ta 17Jan2003                  </c></rc>
    <rc><c>  10</c><c>Zr</c><c>     91.22400000</c><c>     12.00000000</c><c>  PAW_PBE Zr_sv 04Jan2005               </c></rc>
    <rc><c>   8</c><c>Hf</c><c>    178.49000000</c><c>      4.00000000</c><c>  PAW_PBE Hf 20Jan2003                  </c></rc>
    <rc><c>   5</c><c>Nb</c><c>     92.91000000</c><c>     13.00000000</c><c>  PAW_PBE Nb_sv 25May2007               </c></rc>
   </set>
  </array>
 </atominfo>
 <structure name="initialpos" >
  <crystal>
   <varray name="basis" >
    <v>       6.95119003       0.00728792      -0.03714296 </v>
    <v>       0.01087452      10.28792047       0.01231614 </v>
    <v>      -0.05491132       0.01242089      10.25093714 </v>
   </varray>
   <i name="volume">    733.05537458 </i>
   <varray name="rec_basis" >
    <v>       0.14386454      -0.00015299       0.00077083 </v>
    <v>      -0.00010254       0.09720162      -0.00011833 </v>
    <v>       0.00052140      -0.00011734       0.09755499 </v>
   </varray>
  </crystal>
  <varray name="positions" >
   <v>       0.49987100       0.33811000       0.34230500 </v>
   <v>       0.72981500       0.83271300       0.83470600 </v>
   <v>       0.73510900       0.83677700       0.15703800 </v>
   <v>       0.98968400       0.97853800       0.31596800 </v>
   <v>       0.27754600       0.49275700       0.14412800 </v>
   <v>       0.26525100       0.84339200       0.15728500 </v>
   <v>       0.51557100       0.99998500       0.66331800 </v>
   <v>       0.72947400       0.49663600       0.15760900 </v>
   <v>       0.78015500       0.15325700       0.48609200 </v>
   <v>       0.50358000       0.66888400       0.00027000 </v>
   <v>       0.71130100       0.16064100       0.84147400 </v>
   <v>       0.50089200       0.66779800       0.68128000 </v>
   <v>       0.23457800       0.51910500       0.52236900 </v>
   <v>       0.01243900       0.35356900       0.32920900 </v>
   <v>       0.49049400       0.66338700       0.32601900 </v>
   <v>       0.22335900       0.15332500       0.49527500 </v>
   <v>       0.27860400       0.16744100       0.83406000 </v>
   <v>       0.99698800       0.66887800       0.00428900 </v>
   <v>       0.77480100       0.52286300       0.50918400 </v>
   <v>       0.75977400       0.82542600       0.50921200 </v>
   <v>       0.25533800       0.49711200       0.83344700 </v>
   <v>       0.25201300       0.16241300       0.16525200 </v>
   <v>       0.24621000       0.82600400       0.51114900 </v>
   <v>       0.99230200       0.99850300       0.99517400 </v>
   <v>       0.97954000       0.32549600       0.67219300 </v>
   <v>       0.74857300       0.16669300       0.16908800 </v>
   <v>       0.98222200       0.00462400       0.68781800 </v>
   <v>       0.01328500       0.66767300       0.31138200 </v>
   <v>       0.51157100       0.99450200       0.34001900 </v>
   <v>       0.51460800       0.33344700       0.65147800 </v>
   <v>       0.97922700       0.33349100       0.99178800 </v>
   <v>       0.99934600       0.67300400       0.69263700 </v>
   <v>       0.26393500       0.83407100       0.83501900 </v>
   <v>       0.51613900       0.34215200       0.99916100 </v>
   <v>       0.73575700       0.50839800       0.83371300 </v>
   <v>       0.50064100       0.98894600       0.99959600 </v>
  </varray>
 </structure>
 <calculation>
  <scstep>
   <time name="dav">    1.06    1.08</time>
   <time name="total">    1.16    1.44</time>
   <energy>
    <i name="alphaZ">   1455.15236068 </i>
    <i name="ewald"> -17973.89930134 </i>
    <i name="hartreedc">  -5957.66533577 </i>
    <i name="XCdc">   -508.24356815 </i>
    <i name="pawpsdc">  19658.58924266 </i>
    <i name="pawaedc"> -17940.46808315 </i>
    <i name="eentropy">     -0.01317627 </i>
    <i name="bandstr">     -9.61069311 </i>
    <i name="atom">  22922.81773272 </i>
    <i name="e_fr_energy">   1646.65917827 </i>
    <i name="e_wo_entrp">   1646.67235454 </i>
    <i name="e_0_energy">   1646.66357036 </i>
   </energy>
  </scstep>
  <scstep>
   <time name="dav">    0.96    0.98</time>
   <time name="total">    0.96    1.10</time>
   <energy>
    <i name="e_fr_energy">   -104.48314110 </i>
    <i name="e_wo_entrp">   -104.48506267 </i>
    <i name="e_0_energy">   -104.48378162 </i>
   </energy>
  </scstep>
  <scstep>
   <time name="dav">    1.51    1.55</time>
   <time name="total">    1.51    1.57</time>
   <energy>
    <i name="e_fr_energy">   -349.26083778 </i>
    <i name="e_wo_entrp">   -349.25610670 </i>
    <i name="e_0_energy">   -349.25926075 </i>
   </energy>
  </scstep>
  <scstep>
   <time name="dav">    1.39    1.44</time>
   <time name="total">    1.39    1.46</time>
   <energy>
    <i name="e_fr_energy">   -378.80799266 </i>
    <i name="e_wo_entrp">   -378.81329125 </i>
    <i name="e_0_energy">   -378.80975885 </i>
   </energy>
  </scstep>
  <scstep>
   <time name="dav">    1.34    1.37</time>
   <time name="total">    1.37    1.43</time>
   <energy>
    <i name="e_fr_energy">   -381.74706556 </i>
    <i name="e_wo_entrp">   -381.75379118 </i>
    <i name="e_0_energy">   -381.74930743 </i>
   </energy>
  </scstep>
  <scstep>
   <time name="diag">    0.08    0.08</time>
   <time name="diis">    0.73    0.74</time>
   <time name="orth">    0.01    0.01</time>
   <time name="total">    0.97    1.01</time>
   <energy>
    <i name="e_fr_energy">   -372.03870997 </i>
    <i name="e_wo_entrp">   -372.03902875 </i>
    <i name="e_0_energy">   -372.03881623 </i>
   </energy>
  </scstep>
  <scstep>
   <time name="diag">    0.08    0.10</time>
   <time name="diis">    0.74    0.83</time>
   <time name="orth">    0.01    0.01</time>
   <time name="total">    0.92    1.07</time>
   <energy>
    <i name="e_fr_energy">   -376.23020858 </i>
    <i name="e_wo_entrp">   -376.23691388 </i>
    <i name="e_0_energy">   -376.23244368 </i>
   </energy>
  </scstep>
  <scstep>
   <time name="diag">    0.08    0.08</time>
   <time name="diis">    0.82    0.84</time>
   <time name="orth">    0.01    0.01</time>
   <time name="total">    0.98    1.03</time>
   <energy>
    <i name="e_fr_energy">   -366.61188226 </i>
    <i name="e_wo_entrp">   -366.62849680 </i>
    <i name="e_0_energy">   -366.61742044 </i>
   </energy>
  </scstep>
  <scstep>
   <time name="diag">    0.08    0.08</time>
   <time name="diis">    0.84    0.86</time>
   <time name="orth">    0.01    0.01</time>
   <time name="total">    1.01    1.05</time>
   <energy>
    <i name="e_fr_energy">   -366.19068234 </i>
    <i name="e_wo_entrp">   -366.20270952 </i>
    <i name="e_0_energy">   -366.19469140 </i>
   </energy>
  </scstep>
  <scstep>
   <time name="diag">    0.08    0.08</time>
   <time name="diis">    0.79    0.80</time>
   <time name="orth">    0.01    0.01</time>
   <time name="total">    0.96    0.99</time>
   <energy>
    <i name="e_fr_energy">   -366.17673936 </i>
    <i name="e_wo_entrp">   -366.19299446 </i>
    <i name="e_0_energy">   -366.18215773 </i>
   </energy>
  </scstep>
  <scstep>
   <time name="diag">    0.08    0.08</time>
   <time name="diis">    0.75    0.79</time>
   <time name="orth">    0.01    0.01</time>
   <time name="total">    0.91    0.97</time>
   <energy>
    <i name="e_fr_energy">   -366.14026653 </i>
    <i name="e_wo_entrp">   -366.15545678 </i>
    <i name="e_0_energy">   -366.14532994 </i>
   </energy>
  </scstep>
  <scstep>
   <time name="diag">    0.08    0.08</time>
   <time name="diis">    0.82    0.83</time>
   <time name="orth">    0.01    0.01</time>
   <time name="total">    0.97    1.03</time>
   <energy>
    <i name="e_fr_energy">   -366.13833994 </i>
    <i name="e_wo_entrp">   -366.15540465 </i>
    <i name="e_0_energy">   -366.14402817 </i>
   </energy>
  </scstep>
  <scstep>
   <time name="diag">    0.08    0.09</time>
   <time name="diis">    0.73    0.88</time>
   <time name="orth">    0.01    0.01</time>
   <time name="total">    0.90    1.09</time>
   <energy>
    <i name="e_fr_energy">   -366.13484139 </i>
    <i name="e_wo_entrp">   -366.15153838 </i>
    <i name="e_0_energy">   -366.14040706 </i>
   </energy>
  </scstep>
  <scstep>
   <time name="diag">    0.08    0.08</time>
   <time name="diis">    0.76    0.77</time>
   <time name="orth">    0.01    0.01</time>
   <time name="total">    0.91    0.95</time>
   <energy>
    <i name="e_fr_energy">   -366.13463826 </i>
    <i name="e_wo_entrp">   -366.15117046 </i>
    <i name="e_0_energy">   -366.14014899 </i>
   </energy>
  </scstep>
  <scstep>
   <time name="diag">    0.12    0.12</time>
   <time name="diis">    0.77    0.78</time>
   <time name="orth">    0.02    0.02</time>
   <time name="total">    0.97    1.02</time>
   <energy>
    <i name="e_fr_energy">   -366.13486725 </i>
    <i name="e_wo_entrp">   -366.15128876 </i>
    <i name="e_0_energy">   -366.14034108 </i>
   </energy>
  </scstep>
  <scstep>
   <time name="diag">    0.08    0.08</time>
   <time name="diis">    0.70    0.72</time>
   <time name="orth">    0.01    0.01</time>
   <time name="total">    0.86    0.90</time>
   <energy>
    <i name="e_fr_energy">   -366.13492618 </i>
    <i name="e_wo_entrp">   -366.15141474 </i>
    <i name="e_0_energy">   -366.14042236 </i>
   </energy>
  </scstep>
  <scstep>
   <time name="diag">    0.08    0.08</time>
   <time name="diis">    0.66    0.67</time>
   <time name="orth">    0.02    0.02</time>
   <time name="total">    0.86    0.90</time>
   <energy>
    <i name="e_fr_energy">   -366.13491781 </i>
    <i name="e_wo_entrp">   -366.15146303 </i>
    <i name="e_0_energy">   -366.14043289 </i>
   </energy>
  </scstep>
  <scstep>
   <time name="diag">    0.09    0.13</time>
   <time name="diis">    0.72    0.72</time>
   <time name="orth">    0.01    0.01</time>
   <time name="total">    0.89    0.97</time>
   <energy>
    <i name="e_fr_energy">   -366.13493541 </i>
    <i name="e_wo_entrp">   -366.15150967 </i>
    <i name="e_0_energy">   -366.14046016 </i>
   </energy>
  </scstep>
  <scstep>
   <time name="diag">    0.08    0.08</time>
   <time name="diis">    0.48    0.49</time>
   <time name="orth">    0.01    0.01</time>
   <time name="total">    0.67    0.71</time>
   <energy>
    <i name="e_fr_energy">   -366.13494184 </i>
    <i name="e_wo_entrp">   -366.15151937 </i>
    <i name="e_0_energy">   -366.14046768 </i>
   </energy>
  </scstep>
  <scstep>
   <time name="diag">    0.13    0.13</time>
   <time name="diis">    0.40    0.41</time>
   <time name="orth">    0.01    0.01</time>
   <time name="total">    0.58    0.62</time>
   <energy>
    <i name="alphaZ">   1455.15236068 </i>
    <i name="ewald"> -17973.89930134 </i>
    <i name="hartreedc">  -5736.11238748 </i>
    <i name="XCdc">   -505.84783399 </i>
    <i name="pawpsdc">  32540.46940107 </i>
    <i name="pawaedc"> -30811.40355681 </i>
    <i name="eentropy">      0.01657526 </i>
    <i name="bandstr">  -2257.32793297 </i>
    <i name="atom">  22922.81773272 </i>
    <i name="e_fr_energy">   -366.13494287 </i>
    <i name="e_wo_entrp">   -366.15151813 </i>
    <i name="e_0_energy">   -366.14046796 </i>
   </energy>
  </scstep>
  <structure>
   <crystal>
    <varray name="basis" >
     <v>       6.95119003       0.00728792      -0.03714296 </v>
     <v>       0.01087452      10.28792047       0.01231614 </v>
     <v>      -0.05491132       0.01242089      10.25093714 </v>
    </varray>
    <i name="volume">    733.05537458 </i>
    <varray name="rec_basis" >
     <v>       0.14386454      -0.00015299       0.00077083 </v>
     <v>      -0.00010254       0.09720162      -0.00011833 </v>
     <v>       0.00052140      -0.00011734       0.09755499 </v>
    </varray>
   </crystal>
   <varray name="positions" >
    <v>       0.49987100       0.33811000       0.34230500 </v>
    <v>       0.72981500       0.83271300       0.83470600 </v>
    <v>       0.73510900       0.83677700       0.15703800 </v>
    <v>       0.98968400       0.97853800       0.31596800 </v>
    <v>       0.27754600       0.49275700       0.14412800 </v>
    <v>       0.26525100       0.84339200       0.15728500 </v>
    <v>       0.51557100       0.99998500       0.66331800 </v>
    <v>       0.72947400       0.49663600       0.15760900 </v>
    <v>       0.78015500       0.15325700       0.48609200 </v>
    <v>       0.50358000       0.66888400       0.00027000 </v>
    <v>       0.71130100       0.16064100       0.84147400 </v>
    <v>       0.50089200       0.66779800       0.68128000 </v>
    <v>       0.23457800       0.51910500       0.52236900 </v>
    <v>       0.01243900       0.35356900       0.32920900 </v>
    <v>       0.49049400       0.66338700       0.32601900 </v>
    <v>       0.22335900       0.15332500       0.49527500 </v>
    <v>       0.27860400       0.16744100       0.83406000 </v>
    <v>       0.99698800       0.66887800       0.00428900 </v>
    <v>       0.77480100       0.52286300       0.50918400 </v>
    <v>       0.75977400       0.82542600       0.50921200 </v>
    <v>       0.25533800       0.49711200       0.83344700 </v>
    <v>       0.25201300       0.16241300       0.16525200 </v>
    <v>       0.24621000       0.82600400       0.51114900 </v>
    <v>       0.99230200       0.99850300       0.99517400 </v>
    <v>       0.97954000       0.32549600       0.67219300 </v>
    <v>       0.74857300       0.16669300       0.16908800 </v>
    <v>       0.98222200       0.00462400       0.68781800 </v>
    <v>       0.01328500       0.66767300       0.31138200 </v>
    <v>       0.51157100       0.99450200       0.34001900 </v>
    <v>       0.51460800       0.33344700       0.65147800 </v>
    <v>       0.97922700       0.33349100       0.99178800 </v>
    <v>       0.99934600       0.67300400       0.69263700 </v>
    <v>       0.26393500       0.83407100       0.83501900 </v>
    <v>       0.51613900       0.34215200       0.99916100 </v>
    <v>       0.73575700       0.50839800       0.83371300 </v>
    <v>       0.50064100       0.98894600       0.99959600 </v>
   </varray>
  </structure>
  <varray name="forces" >
   <v>       0.07712754       0.03563135      -0.25699120 </v>
   <v>       0.01437127      -0.00145270      -0.00905773 </v>
   <v>      -0.01520637       0.00118141       0.02625969 </v>
   <v>      -0.00376517       0.01002974       0.00086516 </v>
   <v>       0.12186996      -0.29640455       0.49015560 </v>
   <v>       0.02274974       0.00282636       0.00327479 </v>
   <v>       0.03834099      -0.04869384       0.05074310 </v>
   <v>      -0.18982058      -0.32853389       0.44799797 </v>
   <v>      -0.47458436       0.36197836      -0.17974248 </v>
   <v>       0.01335566       0.01899564       0.00814468 </v>
   <v>       0.00922910      -0.00429789      -0.00542485 </v>
   <v>       0.00792586       0.03940661       0.04020853 </v>
   <v>       0.29087571      -0.26569930      -0.25681422 </v>
   <v>       0.09273667       0.00483614      -0.07185082 </v>
   <v>       0.01462485      -0.14124740      -0.04003220 </v>
   <v>       0.32520442       0.26397509      -0.16071876 </v>
   <v>      -0.00358493      -0.02001344      -0.00884501 </v>
   <v>      -0.00593538       0.01422253      -0.03439881 </v>
   <v>      -0.25512583      -0.24934812      -0.18850191 </v>
   <v>       0.00621931       0.02196075       0.00923760 </v>
   <v>      -0.01403678       0.01663037      -0.01751032 </v>
   <v>       0.20300835       0.23135771       0.20442950 </v>
   <v>      -0.00272251       0.01168588      -0.01021029 </v>
   <v>       0.01949299       0.00812269      -0.01656193 </v>
   <v>       0.00580331      -0.02479342       0.07048672 </v>
   <v>      -0.24146022       0.25002444       0.20904821 </v>
   <v>      -0.00066652      -0.01140762       0.02533282 </v>
   <v>      -0.02339791       0.01962554      -0.01691244 </v>
   <v>      -0.00314455       0.09789930      -0.02618116 </v>
   <v>      -0.00520965       0.00028197      -0.37687350 </v>
   <v>       0.00886858      -0.00776002      -0.01859312 </v>
   <v>      -0.01343959       0.01552348       0.02123862 </v>
   <v>      -0.04369918      -0.00751921       0.01534250 </v>
   <v>       0.02780858      -0.03944360       0.06655840 </v>
   <v>       0.00793283       0.01247024       0.01242239 </v>
   <v>      -0.01174619       0.00794941      -0.00652551 </v>
  </varray>
  <varray name="stress" >
   <v>      -9.00686037       0.17123578       0.00547318 </v>
   <v>       0.17123578      -8.83070657       0.52713487 </v>
   <v>       0.00547317       0.52713488      -9.17053296 </v>
  </varray>
  <energy>
   <i name="e_fr_energy">   -366.13494287 </i>
   <i name="e_wo_entrp">   -366.14046796 </i>
   <i name="e_0_energy">      0.01657526 </i>
  </energy>
  <time name="totalsc">   21.40   23.02</time>
 </calculation>
 <calculation>
  <scstep>
   <time name="dav">    0.99    1.02</time>
   <time name="total">    1.13    1.27</time>
   <energy>
    <i name="alphaZ">   1462.40539247 </i>
    <i name="ewald"> -18007.83689911 </i>
    <i name="hartreedc">  -5741.69106645 </i>
    <i name="XCdc">   -504.56357760 </i>
    <i name="pawpsdc">  32540.49611198 </i>
    <i name="pawaedc"> -30811.42901776 </i>
    <i name="eentropy">      0.01559747 </i>
    <i name="bandstr">  -2226.43671297 </i>
    <i name="atom">  22922.81773272 </i>
    <i name="e_fr_energy">   -366.22243925 </i>
    <i name="e_wo_entrp">   -366.23803672 </i>
    <i name="e_0_energy">   -366.22763840 </i>
   </energy>
  </scstep>
  <scstep>
   <time name="diag">    0.08    0.08</time>
   <time name="diis">    0.78    0.79</time>
   <time name="orth">    0.01    0.01</time>
   <time name="total">    1.09    1.13</time>
   <energy>
    <i name="e_fr_energy">   -366.20069017 </i>
    <i name="e_wo_entrp">   -366.21841135 </i>
    <i name="e_0_energy">   -366.20659723 </i>
   </energy>
  </scstep>
  <scstep>
   <time name="diag">    0.09    0.09</time>
   <time name="diis">    0.79    0.80</time>
   <time name="orth">    0.02    0.02</time>
   <time name="total">    1.00    1.05</time>
   <energy>
    <i name="e_fr_energy">   -366.18846735 </i>
    <i name="e_wo_entrp">   -366.20462542 </i>
    <i name="e_0_energy">   -366.19385338 </i>
   </energy>
  </scstep>
  <scstep>
   <time name="diag">    0.08    0.08</time>
   <time name="diis">    0.80    0.83</time>
   <time name="orth">    0.01    0.01</time>
   <time name="total">    0.96    1.03</time>
   <energy>
    <i name="e_fr_energy">   -366.17969634 </i>
    <i name="e_wo_entrp">   -366.19628606 </i>
    <i name="e_0_energy">   -366.18522625 </i>
   </energy>
  </scstep>
  <scstep>
   <time name="diag">    0.08    0.08</time>
   <time name="diis">    0.77    0.80</time>
   <time name="orth">    0.01    0.01</time>
   <time name="total">    0.93    0.99</time>
   <energy>
    <i name="e_fr_energy">   -366.17858306 </i>
    <i name="e_wo_entrp">   -366.19532413 </i>
    <i name="e_0_energy">   -366.18416341 </i>
   </energy>
  </scstep>
  <scstep>
   <time name="diag">    0.08    0.08</time>
   <time name="diis">    0.91    0.93</time>
   <time name="orth">    0.01    0.01</time>
   <time name="total">    1.09    1.15</time>
   <energy>
    <i name="e_fr_energy">   -366.17881009 </i>
    <i name="e_wo_entrp">   -366.19550231 </i>
    <i name="e_0_energy">   -366.18437416 </i>
   </energy>
  </scstep>
  <scstep>
   <time name="diag">    0.08    0.08</time>
   <time name="diis">    0.77    0.79</time>
   <time name="orth">    0.01    0.01</time>
   <time name="total">    0.95    0.99</time>
   <energy>
    <i name="e_fr_energy">   -366.17889712 </i>
    <i name="e_wo_entrp">   -366.19558348 </i>
    <i name="e_0_energy">   -366.18445924 </i>
   </energy>
  </scstep>
  <scstep>
   <time name="diag">    0.13    0.13</time>
   <time name="diis">    0.71    0.73</time>
   <time name="orth">    0.01    0.01</time>
   <time name="total">    0.92    0.96</time>
   <energy>
    <i name="e_fr_energy">   -366.17896706 </i>
    <i name="e_wo_entrp">   -366.19565657 </i>
    <i name="e_0_energy">   -366.18453023 </i>
   </energy>
  </scstep>
  <scstep>
   <time name="diag">    0.08    0.08</time>
   <time name="diis">    0.66    0.68</time>
   <time name="orth">    0.01    0.01</time>
   <time name="total">    0.82    0.86</time>
   <energy>
    <i name="e_fr_energy">   -366.17903323 </i>
    <i name="e_wo_entrp">   -366.19572059 </i>
    <i name="e_0_energy">   -366.18459569 </i>
   </energy>
  </scstep>
  <scstep>
   <time name="diag">    0.08    0.08</time>
   <time name="diis">    0.55    0.56</time>
   <time name="orth">    0.01    0.01</time>
   <time name="total">    0.71    0.74</time>
   <energy>
    <i name="e_fr_energy">   -366.17908512 </i>
    <i name="e_wo_entrp">   -366.19577678 </i>
    <i name="e_0_energy">   -366.18464900 </i>
   </energy>
  </scstep>
  <scstep>
   <time name="diag">    0.08    0.08</time>
   <time name="diis">    0.48    0.49</time>
   <time name="orth">    0.01    0.01</time>
   <time name="total">    0.64    0.67</time>
   <energy>
    <i name="e_fr_energy">   -366.17910478 </i>
    <i name="e_wo_entrp">   -366.19578992 </i>
    <i name="e_0_energy">   -366.18466650 </i>
   </energy>
  </scstep>
  <scstep>
   <time name="diag">    0.08    0.08</time>
   <time name="diis">    0.41    0.43</time>
   <time name="orth">    0.01    0.01</time>
   <time name="total">    0.54    0.58</time>
   <energy>
    <i name="alphaZ">   1462.40539247 </i>
    <i name="ewald"> -18007.83689911 </i>
    <i name="hartreedc">  -5723.87167463 </i>
    <i name="XCdc">   -505.30352131 </i>
    <i name="pawpsdc">  32759.62787864 </i>
    <i name="pawaedc"> -31030.27860363 </i>
    <i name="eentropy">      0.01668555 </i>
    <i name="bandstr">  -2243.75610160 </i>
    <i name="atom">  22922.81773272 </i>
    <i name="e_fr_energy">   -366.17911091 </i>
    <i name="e_wo_entrp">   -366.19579646 </i>
    <i name="e_0_energy">   -366.18467276 </i>
   </energy>
  </scstep>
  <structure>
   <crystal>
    <varray name="basis" >
     <v>       6.93967404       0.00749142      -0.03707260 </v>
     <v>       0.01118055      10.27121114       0.01329290 </v>
     <v>      -0.05480963       0.01339293      10.23364673 </v>
    </varray>
    <i name="volume">    729.41967003 </i>
    <varray name="rec_basis" >
     <v>       0.14410328      -0.00015786       0.00077200 </v>
     <v>      -0.00010578       0.09735978      -0.00012798 </v>
     <v>       0.00052217      -0.00012704       0.09771984 </v>
    </varray>
   </crystal>
   <varray name="positions" >
    <v>       0.50002864       0.33816045       0.34194268 </v>
    <v>       0.72984482       0.83271095       0.83469332 </v>
    <v>       0.73507763       0.83677864       0.15707496 </v>
    <v>       0.98967615       0.97855211       0.31596918 </v>
    <v>       0.27780587       0.49233900       0.14482147 </v>
    <v>       0.26529840       0.84339594       0.15728979 </v>
    <v>       0.51565150       0.99991635       0.66339002 </v>
    <v>       0.72908450       0.49617334       0.15824065 </v>
    <v>       0.77916405       0.15376724       0.48583403 </v>
    <v>       0.50360786       0.66891069       0.00028157 </v>
    <v>       0.71132017       0.16063495       0.84146642 </v>
    <v>       0.50090886       0.66785336       0.68133676 </v>
    <v>       0.23518136       0.51873123       0.52200905 </v>
    <v>       0.01263128       0.35357579       0.32910825 </v>
    <v>       0.49052432       0.66318834       0.32596283 </v>
    <v>       0.22403374       0.15369615       0.49505009 </v>
    <v>       0.27859648       0.16741287       0.83404752 </v>
    <v>       0.99697523       0.66889808       0.00424036 </v>
    <v>       0.77426825       0.52251292       0.50891635 </v>
    <v>       0.75978700       0.82545687       0.50922505 </v>
    <v>       0.25530854       0.49713545       0.83342214 </v>
    <v>       0.25243746       0.16273782       0.16554177 </v>
    <v>       0.24620419       0.82602046       0.51113454 </v>
    <v>       0.99234238       0.99851443       0.99515075 </v>
    <v>       0.97955292       0.32546099       0.67229261 </v>
    <v>       0.74807203       0.16704473       0.16938091 </v>
    <v>       0.98222092       0.00460791       0.68785378 </v>
    <v>       0.01323605       0.66770067       0.31135791 </v>
    <v>       0.51156394       0.99463977       0.33998185 </v>
    <v>       0.51459295       0.33344805       0.65094585 </v>
    <v>       0.97924528       0.33348010       0.99176183 </v>
    <v>       0.99931822       0.67302582       0.69266686 </v>
    <v>       0.26384420       0.83406046       0.83504034 </v>
    <v>       0.51619773       0.34209636       0.99925525 </v>
    <v>       0.73577363       0.50841551       0.83373058 </v>
    <v>       0.50061645       0.98895721       0.99958668 </v>
   </varray>
  </structure>
  <varray name="forces" >
   <v>       0.06909035       0.03219906      -0.21347292 </v>
   <v>       0.03637793      -0.00151658       0.00000071 </v>
   <v>      -0.00781293      -0.00881032       0.02606815 </v>
   <v>       0.00811025       0.03144632       0.01034642 </v>
   <v>       0.08535714      -0.27109112       0.45257587 </v>
   <v>       0.01609315      -0.00814301       0.00131411 </v>
   <v>       0.01647688      -0.04011321       0.02862544 </v>
   <v>      -0.13811909      -0.29466048       0.41463131 </v>
   <v>      -0.43292932       0.34040592      -0.15349316 </v>
   <v>       0.00380745       0.00715587       0.01818600 </v>
   <v>       0.02274701       0.00516081      -0.00950419 </v>
   <v>       0.00549465       0.03419164       0.02027104 </v>
   <v>       0.27147222      -0.25175629      -0.25256246 </v>
   <v>       0.07787858      -0.00237240      -0.06095542 </v>
   <v>       0.01246162      -0.11700265      -0.01817173 </v>
   <v>       0.29940326       0.24798627      -0.14284932 </v>
   <v>      -0.01624972      -0.01402935      -0.01518868 </v>
   <v>      -0.00184018      -0.00418537      -0.02123398 </v>
   <v>      -0.23261166      -0.23040732      -0.18849918 </v>
   <v>       0.00751055       0.01535302       0.00266392 </v>
   <v>      -0.02065077       0.00970008      -0.02326320 </v>
   <v>       0.17694650       0.21613301       0.17477821 </v>
   <v>      -0.00518779       0.01506816      -0.01334689 </v>
   <v>       0.02294386       0.02863776       0.00273391 </v>
   <v>       0.01362528      -0.02302924       0.06035612 </v>
   <v>      -0.20860263       0.22934377       0.18304163 </v>
   <v>       0.01252583       0.00802022      -0.01196251 </v>
   <v>      -0.02623177       0.00900963       0.00307284 </v>
   <v>      -0.01587290       0.07974013      -0.02031262 </v>
   <v>      -0.00944124      -0.00701434      -0.34075002 </v>
   <v>       0.01891499      -0.01372775      -0.01120602 </v>
   <v>      -0.01314091       0.00198025       0.00082739 </v>
   <v>      -0.05610748      -0.00780288       0.02002827 </v>
   <v>       0.00497642      -0.05067227       0.06503211 </v>
   <v>       0.02135462       0.00737369       0.00800970 </v>
   <v>      -0.01877013       0.02742900       0.00420915 </v>
  </varray>
  <varray name="stress" >
   <v>      -2.29386538       0.15906728       0.05485340 </v>
   <v>       0.15906730      -2.33653670       0.50090386 </v>
   <v>       0.05485344       0.50090390      -2.64727620 </v>
  </varray>
  <energy>
   <i name="e_fr_energy">   -366.17911091 </i>
   <i name="e_wo_entrp">   -366.18467276 </i>
   <i name="e_0_energy">      0.01668555 </i>
  </energy>
  <time name="totalsc">   12.39   13.15</time>
 </calculation>
 <calculation>
  <scstep>
   <time name="dav">    0.90    0.97</time>
   <time name="total">    1.00    1.22</time>
   <energy>
    <i name="alphaZ">   1476.72378515 </i>
    <i name="ewald"> -18074.13054735 </i>
    <i name="hartreedc">  -5735.11141585 </i>
    <i name="XCdc">   -502.78248949 </i>
    <i name="pawpsdc">  32759.87793137 </i>
    <i name="pawaedc"> -31030.50737390 </i>
    <i name="eentropy">      0.01472832 </i>
    <i name="bandstr">  -2183.28156889 </i>
    <i name="atom">  22922.81773272 </i>
    <i name="e_fr_energy">   -366.37921792 </i>
    <i name="e_wo_entrp">   -366.39394624 </i>
    <i name="e_0_energy">   -366.38412736 </i>
   </energy>
  </scstep>
  <scstep>
   <time name="diag">    0.08    0.08</time>
   <time name="diis">    0.80    0.82</time>
   <time name="orth">    0.01    0.01</time>
   <time name="total">    0.97    1.02</time>
   <energy>
    <i name="e_fr_energy">   -366.29362803 </i>
    <i name="e_wo_entrp">   -366.31227015 </i>
    <i name="e_0_energy">   -366.29984207 </i>
   </energy>
  </scstep>
  <scstep>
   <time name="diag">    0.08    0.09</time>
   <time name="diis">    0.77    0.79</time>
   <time name="orth">    0.01    0.01</time>
   <time name="total">    0.95    1.06</time>
   <energy>
    <i name="e_fr_energy">   -366.24825855 </i>
    <i name="e_wo_entrp">   -366.26395629 </i>
    <i name="e_0_energy">   -366.25349113 </i>
   </energy>
  </scstep>
  <scstep>
   <time name="diag">    0.12    0.12</time>
   <time name="diis">    0.76    0.78</time>
   <time name="orth">    0.01    0.01</time>
   <time name="total">    0.95    1.01</time>
   <energy>
    <i name="e_fr_energy">   -366.21435413 </i>
    <i name="e_wo_entrp">   -366.23099288 </i>
    <i name="e_0_energy">   -366.21990038 </i>
   </energy>
  </scstep>
  <scstep>
   <time name="diag">    0.11    0.11</time>
   <time name="diis">    0.83    0.85</time>
   <time name="orth">    0.01    0.01</time>
   <time name="total">    1.01    1.08</time>
   <energy>
    <i name="e_fr_energy">   -366.21032787 </i>
    <i name="e_wo_entrp">   -366.22721667 </i>
    <i name="e_0_energy">   -366.21595747 </i>
   </energy>
  </scstep>
  <scstep>
   <time name="diag">    0.07    0.08</time>
   <time name="diis">    0.81    0.83</time>
   <time name="orth">    0.01    0.02</time>
   <time name="total">    0.98    1.04</time>
   <energy>
    <i name="e_fr_energy">   -366.21110032 </i>
    <i name="e_wo_entrp">   -366.22787327 </i>
    <i name="e_0_energy">   -366.21669130 </i>
   </energy>
  </scstep>
  <scstep>
   <time name="diag">    0.07    0.08</time>
   <time name="diis">    0.81    0.83</time>
   <time name="orth">    0.01    0.01</time>
   <time name="total">    0.97    1.02</time>
   <energy>
    <i name="e_fr_energy">   -366.21140716 </i>
    <i name="e_wo_entrp">   -366.22818408 </i>
    <i name="e_0_energy">   -366.21699947 </i>
   </energy>
  </scstep>
  <scstep>
   <time name="diag">    0.11    0.11</time>
   <time name="diis">    0.84    0.86</time>
   <time name="orth">    0.01    0.01</time>
   <time name="total">    1.03    1.07</time>
   <energy>
    <i name="e_fr_energy">   -366.21164741 </i>
    <i name="e_wo_entrp">   -366.22842906 </i>
    <i name="e_0_energy">   -366.21724129 </i>
   </energy>
  </scstep>
  <scstep>
   <time name="diag">    0.08    0.08</time>
   <time name="diis">    0.71    0.74</time>
   <time name="orth">    0.01    0.01</time>
   <time name="total">    0.87    0.96</time>
   <energy>
    <i name="e_fr_energy">   -366.21186146 </i>
    <i name="e_wo_entrp">   -366.22863690 </i>
    <i name="e_0_energy">   -366.21745327 </i>
   </energy>
  </scstep>
  <scstep>
   <time name="diag">    0.08    0.08</time>
   <time name="diis">    0.69    0.71</time>
   <time name="orth">    0.03    0.03</time>
   <time name="total">    0.87    0.92</time>
   <energy>
    <i name="e_fr_energy">   -366.21202801 </i>
    <i name="e_wo_entrp">   -366.22881337 </i>
    <i name="e_0_energy">   -366.21762313 </i>
   </energy>
  </scstep>
  <scstep>
   <time name="diag">    0.08    0.08</time>
   <time name="diis">    0.59    0.61</time>
   <time name="orth">    0.01    0.01</time>
   <time name="total">    0.75    0.79</time>
   <energy>
    <i name="e_fr_energy">   -366.21208685 </i>
    <i name="e_wo_entrp">   -366.22885403 </i>
    <i name="e_0_energy">   -366.21767591 </i>
   </energy>
  </scstep>
  <scstep>
   <time name="diag">    0.08    0.08</time>
   <time name="diis">    0.55    0.57</time>
   <time name="orth">    0.01    0.01</time>
   <time name="total">    0.71    0.76</time>
   <energy>
    <i name="e_fr_energy">   -366.21210602 </i>
    <i name="e_wo_entrp">   -366.22887982 </i>
    <i name="e_0_energy">   -366.21769729 </i>
   </energy>
  </scstep>
  <scstep>
   <time name="diag">    0.08    0.08</time>
   <time name="diis">    0.43    0.44</time>
   <time name="orth">    0.01    0.01</time>
   <time name="total">    0.56    0.62</time>
   <energy>
    <i name="alphaZ">   1476.72378515 </i>
    <i name="ewald"> -18074.13054735 </i>
    <i name="hartreedc">  -5700.40434963 </i>
    <i name="XCdc">   -504.22458359 </i>
    <i name="pawpsdc">  33203.96461236 </i>
    <i name="pawaedc"> -31473.89171233 </i>
    <i name="eentropy">      0.01677525 </i>
    <i name="bandstr">  -2217.08382199 </i>
    <i name="atom">  22922.81773272 </i>
    <i name="e_fr_energy">   -366.21210940 </i>
    <i name="e_wo_entrp">   -366.22888466 </i>
    <i name="e_0_energy">   -366.21770115 </i>
   </energy>
  </scstep>
  <structure>
   <crystal>
    <varray name="basis" >
     <v>       6.91716217       0.00788924      -0.03693506 </v>
     <v>       0.01177880      10.23854714       0.01520232 </v>
     <v>      -0.05461086       0.01529310      10.19984682 </v>
    </varray>
    <i name="volume">    722.34717796 </i>
    <varray name="rec_basis" >
     <v>       0.14457228      -0.00016747       0.00077430 </v>
     <v>      -0.00011218       0.09767045      -0.00014704 </v>
     <v>       0.00052368      -0.00014618       0.09804371 </v>
    </varray>
   </crystal>
   <varray name="positions" >
    <v>       0.50033732       0.33825930       0.34123319 </v>
    <v>       0.72990322       0.83270694       0.83466850 </v>
    <v>       0.73501620       0.83678184       0.15714733 </v>
    <v>       0.98966077       0.97857975       0.31597148 </v>
    <v>       0.27831476       0.49152042       0.14617946 </v>
    <v>       0.26539121       0.84340364       0.15729917 </v>
    <v>       0.51580914       0.99978193       0.66353105 </v>
    <v>       0.72832186       0.49526734       0.15947760 </v>
    <v>       0.77722365       0.15476637       0.48532878 </v>
    <v>       0.50366240       0.66896294       0.00030421 </v>
    <v>       0.71135769       0.16062310       0.84145157 </v>
    <v>       0.50094188       0.66796173       0.68144790 </v>
    <v>       0.23636283       0.51799942       0.52130429 </v>
    <v>       0.01300777       0.35358909       0.32891095 </v>
    <v>       0.49058370       0.66279938       0.32585288 </v>
    <v>       0.22535489       0.15442287       0.49460961 </v>
    <v>       0.27858176       0.16735778       0.83402308 </v>
    <v>       0.99695021       0.66893739       0.00414512 </v>
    <v>       0.77322510       0.52182754       0.50839233 </v>
    <v>       0.75981246       0.82551731       0.50925060 </v>
    <v>       0.25525086       0.49718136       0.83337347 </v>
    <v>       0.25326855       0.16337374       0.16610912 </v>
    <v>       0.24619282       0.82605269       0.51110623 </v>
    <v>       0.99242146       0.99853680       0.99510522 </v>
    <v>       0.97957823       0.32539243       0.67248765 </v>
    <v>       0.74709105       0.16773339       0.16995439 </v>
    <v>       0.98221881       0.00457640       0.68792385 </v>
    <v>       0.01314020       0.66775486       0.31131074 </v>
    <v>       0.51155011       0.99490954       0.33990906 </v>
    <v>       0.51456348       0.33345021       0.64990384 </v>
    <v>       0.97928106       0.33345877       0.99171058 </v>
    <v>       0.99926382       0.67306854       0.69272532 </v>
    <v>       0.26366641       0.83403982       0.83508214 </v>
    <v>       0.51631274       0.34198738       0.99943982 </v>
    <v>       0.73580619       0.50844979       0.83376499 </v>
    <v>       0.50056839       0.98897917       0.99956844 </v>
   </varray>
  </structure>
  <varray name="forces" >
   <v>       0.05054109       0.02364582      -0.12073146 </v>
   <v>       0.07995896      -0.00169369       0.01922960 </v>
   <v>       0.00659851      -0.02775599       0.02531687 </v>
   <v>       0.03167028       0.07327371       0.02870040 </v>
   <v>       0.01081959      -0.21780999       0.37372994 </v>
   <v>       0.00438845      -0.02883431      -0.00249157 </v>
   <v>      -0.02649599      -0.02272427      -0.01559976 </v>
   <v>      -0.03151601      -0.22137863       0.34335225 </v>
   <v>      -0.34940962       0.29637020      -0.10164237 </v>
   <v>      -0.01414849      -0.01603096       0.03830666 </v>
   <v>       0.04926496       0.02430512      -0.01716261 </v>
   <v>       0.00081648       0.02282183      -0.01950202 </v>
   <v>       0.23155678      -0.22220856      -0.24364633 </v>
   <v>       0.04602294      -0.01757784      -0.03764537 </v>
   <v>       0.00839325      -0.06499665       0.02468393 </v>
   <v>       0.24885546       0.21482885      -0.10682618 </v>
   <v>      -0.04082536      -0.00242515      -0.02679309 </v>
   <v>       0.00464346      -0.04023273       0.00568065 </v>
   <v>      -0.18761942      -0.19215682      -0.18676784 </v>
   <v>       0.01014001       0.00192042      -0.01079837 </v>
   <v>      -0.03373985      -0.00284003      -0.03496689 </v>
   <v>       0.12285235       0.18168238       0.11245556 </v>
   <v>      -0.01007983       0.02067484      -0.01895097 </v>
   <v>       0.02920859       0.06914135       0.04148407 </v>
   <v>       0.02859415      -0.01879926       0.03978626 </v>
   <v>      -0.14047497       0.18451101       0.12807315 </v>
   <v>       0.03784932       0.04512894      -0.08492305 </v>
   <v>      -0.03211435      -0.01079531       0.04239385 </v>
   <v>      -0.04074317       0.04141182      -0.00933015 </v>
   <v>      -0.01735674      -0.02125994      -0.26313116 </v>
   <v>       0.04068592      -0.02625077       0.00292983 </v>
   <v>      -0.01320187      -0.02410482      -0.03882154 </v>
   <v>      -0.08156005      -0.00912726       0.02956081 </v>
   <v>      -0.03915007      -0.07229716       0.05941492 </v>
   <v>       0.04746013      -0.00301037      -0.00085143 </v>
   <v>      -0.03188488       0.06459423       0.02548343 </v>
  </varray>
  <varray name="stress" >
   <v>      11.44283005       0.13239001       0.14962776 </v>
   <v>       0.13239000      10.91344803       0.42402372 </v>
   <v>       0.14962778       0.42402370      10.74740697 </v>
  </varray>
  <energy>
   <i name="e_fr_energy">   -366.21210940 </i>
   <i name="e_wo_entrp">   -366.21770115 </i>
   <i name="e_0_energy">      0.01677525 </i>
  </energy>
  <time name="totalsc">   13.30   14.42</time>
 </calculation>
 <calculation>
  <scstep>
   <time name="dav">    0.93    0.95</time>
   <time name="total">    1.08    1.21</time>
   <energy>
    <i name="alphaZ">   1475.12567731 </i>
    <i name="ewald"> -18073.33507056 </i>
    <i name="hartreedc">  -5692.87299055 </i>
    <i name="XCdc">   -504.51936126 </i>
    <i name="pawpsdc">  33204.61420397 </i>
    <i name="pawaedc"> -31474.50780840 </i>
    <i name="eentropy">      0.01711286 </i>
    <i name="bandstr">  -2223.58626272 </i>
    <i name="atom">  22922.81773272 </i>
    <i name="e_fr_energy">   -366.24676663 </i>
    <i name="e_wo_entrp">   -366.26387949 </i>
    <i name="e_0_energy">   -366.25247092 </i>
   </energy>
  </scstep>
  <scstep>
   <time name="diag">    0.13    0.13</time>
   <time name="diis">    0.75    0.76</time>
   <time name="orth">    0.01    0.01</time>
   <time name="total">    0.96    0.99</time>
   <energy>
    <i name="e_fr_energy">   -366.25064998 </i>
    <i name="e_wo_entrp">   -366.26848627 </i>
    <i name="e_0_energy">   -366.25659541 </i>
   </energy>
  </scstep>
  <scstep>
   <time name="diag">    0.08    0.08</time>
   <time name="diis">    0.78    0.80</time>
   <time name="orth">    0.01    0.01</time>
   <time name="total">    0.97    1.00</time>
   <energy>
    <i name="e_fr_energy">   -366.24708868 </i>
    <i name="e_wo_entrp">   -366.26413239 </i>
    <i name="e_0_energy">   -366.25276992 </i>
   </energy>
  </scstep>
  <scstep>
   <time name="diag">    0.08    0.08</time>
   <time name="diis">    0.77    0.79</time>
   <time name="orth">    0.01    0.01</time>
   <time name="total">    0.93    0.97</time>
   <energy>
    <i name="e_fr_energy">   -366.24654505 </i>
    <i name="e_wo_entrp">   -366.26391380 </i>
    <i name="e_0_energy">   -366.25233463 </i>
   </energy>
  </scstep>
  <scstep>
   <time name="diag">    0.08    0.08</time>
   <time name="diis">    0.77    0.79</time>
   <time name="orth">    0.01    0.01</time>
   <time name="total">    0.92    0.97</time>
   <energy>
    <i name="e_fr_energy">   -366.24640623 </i>
    <i name="e_wo_entrp">   -366.26374999 </i>
    <i name="e_0_energy">   -366.25218749 </i>
   </energy>
  </scstep>
  <scstep>
   <time name="diag">    0.08    0.08</time>
   <time name="diis">    0.81    0.83</time>
   <time name="orth">    0.01    0.01</time>
   <time name="total">    0.96    1.01</time>
   <energy>
    <i name="e_fr_energy">   -366.24637549 </i>
    <i name="e_wo_entrp">   -366.26365907 </i>
    <i name="e_0_energy">   -366.25213668 </i>
   </energy>
  </scstep>
  <scstep>
   <time name="diag">    0.08    0.08</time>
   <time name="diis">    0.69    0.70</time>
   <time name="orth">    0.01    0.01</time>
   <time name="total">    0.84    0.88</time>
   <energy>
    <i name="e_fr_energy">   -366.24636492 </i>
    <i name="e_wo_entrp">   -366.26372761 </i>
    <i name="e_0_energy">   -366.25215249 </i>
   </energy>
  </scstep>
  <scstep>
   <time name="diag">    0.08    0.08</time>
   <time name="diis">    0.50    0.51</time>
   <time name="orth">    0.01    0.01</time>
   <time name="total">    0.62    0.65</time>
   <energy>
    <i name="alphaZ">   1475.12567731 </i>
    <i name="ewald"> -18073.33507056 </i>
    <i name="hartreedc">  -5696.57778052 </i>
    <i name="XCdc">   -504.35414102 </i>
    <i name="pawpsdc">  33147.05018740 </i>
    <i name="pawaedc"> -31416.85467596 </i>
    <i name="eentropy">      0.01732101 </i>
    <i name="bandstr">  -2220.13561194 </i>
    <i name="atom">  22922.81773272 </i>
    <i name="e_fr_energy">   -366.24636156 </i>
    <i name="e_wo_entrp">   -366.26368257 </i>
    <i name="e_0_energy">   -366.25213523 </i>
   </energy>
  </scstep>
  <structure>
   <crystal>
    <varray name="basis" >
     <v>       6.92006429       0.00818297      -0.03678966 </v>
     <v>       0.01222190      10.24230835       0.01657931 </v>
     <v>      -0.05440415       0.01666342      10.20286954 </v>
    </varray>
    <i name="volume">    723.12974768 </i>
    <varray name="rec_basis" >
     <v>       0.14451163      -0.00017369       0.00077085 </v>
     <v>      -0.00011630       0.09763464      -0.00016008 </v>
     <v>       0.00052127      -0.00015928       0.09801468 </v>
    </varray>
   </crystal>
   <varray name="positions" >
    <v>       0.50053931       0.33832417       0.34082396 </v>
    <v>       0.73005966       0.83270335       0.83468128 </v>
    <v>       0.73500394       0.83675163       0.15720394 </v>
    <v>       0.98970799       0.97867313       0.31600500 </v>
    <v>       0.27853207       0.49095907       0.14712565 </v>
    <v>       0.26543422       0.84337399       0.15730002 </v>
    <v>       0.51582524       0.99970467       0.66356738 </v>
    <v>       0.72797981       0.49466852       0.16034258 </v>
    <v>       0.77589221       0.15548582       0.48501670 </v>
    <v>       0.50366003       0.66896483       0.00035633 </v>
    <v>       0.71145436       0.16064600       0.84142665 </v>
    <v>       0.50095570       0.66802917       0.68146840 </v>
    <v>       0.23720234       0.51746731       0.52075893 </v>
    <v>       0.01322906       0.35357434       0.32879277 </v>
    <v>       0.49062091       0.66257649       0.32583886 </v>
    <v>       0.22627732       0.15494470       0.49432029 </v>
    <v>       0.27850754       0.16733399       0.83398305 </v>
    <v>       0.99694851       0.66890699       0.00411509 </v>
    <v>       0.77250925       0.52134771       0.50797834 </v>
    <v>       0.75983911       0.82554269       0.50924821 </v>
    <v>       0.25517192       0.49719588       0.83331488 </v>
    <v>       0.25379393       0.16382295       0.16645502 </v>
    <v>       0.24617137       0.82608850       0.51107375 </v>
    <v>       0.99250095       0.99862347       0.99513488 </v>
    <v>       0.97963621       0.32534472       0.67260792 </v>
    <v>       0.74648002       0.16820638       0.17031878 </v>
    <v>       0.98228050       0.00461542       0.68785451 </v>
    <v>       0.01305004       0.66776344       0.31134056 </v>
    <v>       0.51147643       0.99506002       0.33987019 </v>
    <v>       0.51452079       0.33342754       0.64920495 </v>
    <v>       0.97936298       0.33342084       0.99169452 </v>
    <v>       0.99922053       0.67305777       0.69270366 </v>
    <v>       0.26346191       0.83402164       0.83513127 </v>
    <v>       0.51629204       0.34186373       0.99957802 </v>
    <v>       0.73589812       0.50845949       0.83377753 </v>
    <v>       0.50049666       0.98906064       0.99959006 </v>
   </varray>
  </structure>
  <varray name="forces" >
   <v>       0.03861323       0.02360546      -0.06670567 </v>
   <v>       0.07541204      -0.00258861       0.02330864 </v>
   <v>       0.00174903      -0.02399325       0.01098862 </v>
   <v>       0.02774750       0.08573323       0.02478158 </v>
   <v>       0.00502177      -0.18409221       0.29958789 </v>
   <v>       0.00781864      -0.02757554      -0.01274689 </v>
   <v>      -0.02677417      -0.01203666      -0.02159698 </v>
   <v>      -0.00894433      -0.18223404       0.26841855 </v>
   <v>      -0.28258822       0.24786614      -0.07836709 </v>
   <v>      -0.01353925      -0.02669663       0.05101586 </v>
   <v>       0.03134258       0.02183915      -0.01568465 </v>
   <v>       0.00446106       0.01514509      -0.01588659 </v>
   <v>       0.19389419      -0.18014313      -0.21495922 </v>
   <v>       0.02634409      -0.01839553      -0.02364787 </v>
   <v>       0.00144530      -0.03595400       0.02547807 </v>
   <v>       0.20243333       0.18352427      -0.08637336 </v>
   <v>      -0.02633539      -0.00435946      -0.03339481 </v>
   <v>       0.00078717      -0.05498256       0.02253141 </v>
   <v>      -0.14625555      -0.15946876      -0.16420861 </v>
   <v>       0.01468092      -0.00164598      -0.00261760 </v>
   <v>      -0.02384444       0.00255510      -0.04253825 </v>
   <v>       0.09184021       0.15030802       0.07656426 </v>
   <v>      -0.01563029       0.01622893      -0.01154296 </v>
   <v>       0.02304814       0.07612105       0.05995788 </v>
   <v>       0.02231158      -0.01765059       0.02574014 </v>
   <v>      -0.09956721       0.14940015       0.09638867 </v>
   <v>       0.02721361       0.06711484      -0.11252128 </v>
   <v>      -0.02754537      -0.01799231       0.05574528 </v>
   <v>      -0.03932666       0.01224584      -0.00715426 </v>
   <v>      -0.00893102      -0.02525627      -0.20265101 </v>
   <v>       0.03169184      -0.02407203       0.01173097 </v>
   <v>      -0.01545147      -0.03840936      -0.05375132 </v>
   <v>      -0.06956516      -0.01577451       0.03329354 </v>
   <v>      -0.03958803      -0.05938087       0.05958210 </v>
   <v>       0.04192167       0.00619460      -0.00666873 </v>
   <v>      -0.02589136       0.05482042       0.02790368 </v>
  </varray>
  <varray name="stress" >
   <v>       9.90995717       0.10137567       0.14587593 </v>
   <v>       0.10137566       9.13600520       0.29571531 </v>
   <v>       0.14587594       0.29571529       8.95635139 </v>
  </varray>
  <energy>
   <i name="e_fr_energy">   -366.24636156 </i>
   <i name="e_wo_entrp">   -366.25213523 </i>
   <i name="e_0_energy">      0.01732101 </i>
  </energy>
  <time name="totalsc">    8.93    9.44</time>
 </calculation>
 <calculation>
  <scstep>
   <time name="dav">    0.95    0.98</time>
   <time name="total">    1.08    1.23</time>
   <energy>
    <i name="alphaZ">   1470.34559235 </i>
    <i name="ewald"> -18069.47666192 </i>
    <i name="hartreedc">  -5675.19037883 </i>
    <i name="XCdc">   -505.23694130 </i>
    <i name="pawpsdc">  33147.45875039 </i>
    <i name="pawaedc"> -31417.30585082 </i>
    <i name="eentropy">      0.01795415 </i>
    <i name="bandstr">  -2239.73836081 </i>
    <i name="atom">  22922.81773272 </i>
    <i name="e_fr_energy">   -366.30816409 </i>
    <i name="e_wo_entrp">   -366.32611823 </i>
    <i name="e_0_energy">   -366.31414880 </i>
   </energy>
  </scstep>
  <scstep>
   <time name="diag">    0.08    0.08</time>
   <time name="diis">    0.77    0.79</time>
   <time name="orth">    0.01    0.01</time>
   <time name="total">    0.93    0.97</time>
   <energy>
    <i name="e_fr_energy">   -366.34216079 </i>
    <i name="e_wo_entrp">   -366.36236915 </i>
    <i name="e_0_energy">   -366.34889691 </i>
   </energy>
  </scstep>
  <scstep>
   <time name="diag">    0.08    0.08</time>
   <time name="diis">    0.79    0.80</time>
   <time name="orth">    0.01    0.01</time>
   <time name="total">    0.94    0.98</time>
   <energy>
    <i name="e_fr_energy">   -366.31314621 </i>
    <i name="e_wo_entrp">   -366.33090624 </i>
    <i name="e_0_energy">   -366.31906622 </i>
   </energy>
  </scstep>
  <scstep>
   <time name="diag">    0.08    0.08</time>
   <time name="diis">    0.82    0.84</time>
   <time name="orth">    0.01    0.01</time>
   <time name="total">    0.98    1.03</time>
   <energy>
    <i name="e_fr_energy">   -366.30792803 </i>
    <i name="e_wo_entrp">   -366.32667891 </i>
    <i name="e_0_energy">   -366.31417832 </i>
   </energy>
  </scstep>
  <scstep>
   <time name="diag">    0.08    0.08</time>
   <time name="diis">    0.76    0.78</time>
   <time name="orth">    0.01    0.01</time>
   <time name="total">    0.92    0.96</time>
   <energy>
    <i name="e_fr_energy">   -366.30676594 </i>
    <i name="e_wo_entrp">   -366.32537545 </i>
    <i name="e_0_energy">   -366.31296911 </i>
   </energy>
  </scstep>
  <scstep>
   <time name="diag">    0.08    0.08</time>
   <time name="diis">    0.78    0.80</time>
   <time name="orth">    0.01    0.01</time>
   <time name="total">    0.93    0.97</time>
   <energy>
    <i name="e_fr_energy">   -366.30648994 </i>
    <i name="e_wo_entrp">   -366.32502986 </i>
    <i name="e_0_energy">   -366.31266991 </i>
   </energy>
  </scstep>
  <scstep>
   <time name="diag">    0.10    0.10</time>
   <time name="diis">    0.84    0.86</time>
   <time name="orth">    0.01    0.01</time>
   <time name="total">    1.02    1.06</time>
   <energy>
    <i name="e_fr_energy">   -366.30645548 </i>
    <i name="e_wo_entrp">   -366.32515791 </i>
    <i name="e_0_energy">   -366.31268962 </i>
   </energy>
  </scstep>
  <scstep>
   <time name="diag">    0.13    0.13</time>
   <time name="diis">    0.73    0.74</time>
   <time name="orth">    0.01    0.01</time>
   <time name="total">    0.93    0.97</time>
   <energy>
    <i name="e_fr_energy">   -366.30647766 </i>
    <i name="e_wo_entrp">   -366.32504507 </i>
    <i name="e_0_energy">   -366.31266680 </i>
   </energy>
  </scstep>
  <scstep>
   <time name="diag">    0.08    0.13</time>
   <time name="diis">    0.71    0.73</time>
   <time name="orth">    0.01    0.01</time>
   <time name="total">    0.91    1.00</time>
   <energy>
    <i name="e_fr_energy">   -366.30647734 </i>
    <i name="e_wo_entrp">   -366.32511374 </i>
    <i name="e_0_energy">   -366.31268947 </i>
   </energy>
  </scstep>
  <scstep>
   <time name="diag">    0.14    0.14</time>
   <time name="diis">    0.61    0.62</time>
   <time name="orth">    0.01    0.01</time>
   <time name="total">    0.83    0.86</time>
   <energy>
    <i name="e_fr_energy">   -366.30647503 </i>
    <i name="e_wo_entrp">   -366.32511218 </i>
    <i name="e_0_energy">   -366.31268741 </i>
   </energy>
  </scstep>
  <scstep>
   <time name="diag">    0.08    0.08</time>
   <time name="diis">    0.48    0.49</time>
   <time name="orth">    0.01    0.01</time>
   <time name="total">    0.61    0.65</time>
   <energy>
    <i name="alphaZ">   1470.34559235 </i>
    <i name="ewald"> -18069.47666192 </i>
    <i name="hartreedc">  -5685.86543698 </i>
    <i name="XCdc">   -504.76170797 </i>
    <i name="pawpsdc">  32980.13141423 </i>
    <i name="pawaedc"> -31250.31384032 </i>
    <i name="eentropy">      0.01863365 </i>
    <i name="bandstr">  -2229.20220044 </i>
    <i name="atom">  22922.81773272 </i>
    <i name="e_fr_energy">   -366.30647468 </i>
    <i name="e_wo_entrp">   -366.32510833 </i>
    <i name="e_0_energy">   -366.31268590 </i>
   </energy>
  </scstep>
  <structure>
   <crystal>
    <varray name="basis" >
     <v>       6.92877067       0.00906417      -0.03635348 </v>
     <v>       0.01355119      10.25359200       0.02071029 </v>
     <v>      -0.05378402       0.02077438      10.21193768 </v>
    </varray>
    <i name="volume">    725.48063828 </i>
    <varray name="rec_basis" >
     <v>       0.14432999      -0.00019228       0.00076055 </v>
     <v>      -0.00012863       0.09752737      -0.00019908 </v>
     <v>       0.00051406      -0.00019847       0.09792772 </v>
    </varray>
   </crystal>
   <varray name="positions" >
    <v>       0.50114504       0.33851888       0.33959660 </v>
    <v>       0.73052877       0.83269256       0.83471961 </v>
    <v>       0.73496717       0.83666101       0.15737375 </v>
    <v>       0.98984957       0.97895314       0.31610552 </v>
    <v>       0.27918376       0.48927523       0.14996359 </v>
    <v>       0.26556322       0.84328507       0.15730257 </v>
    <v>       0.51587350       0.99947295       0.66367639 </v>
    <v>       0.72695412       0.49287242       0.16293702 </v>
    <v>       0.77189947       0.15764362       0.48408051 </v>
    <v>       0.50365294       0.66897046       0.00051263 </v>
    <v>       0.71174424       0.16071468       0.84135188 </v>
    <v>       0.50099713       0.66823141       0.68152985 </v>
    <v>       0.23971997       0.51587173       0.51912351 </v>
    <v>       0.01389268       0.35353011       0.32843832 </v>
    <v>       0.49073254       0.66190808       0.32579692 </v>
    <v>       0.22904338       0.15650964       0.49345235 </v>
    <v>       0.27828499       0.16726266       0.83386299 </v>
    <v>       0.99694341       0.66881581       0.00402504 </v>
    <v>       0.77036271       0.51990898       0.50673698 </v>
    <v>       0.75991901       0.82561880       0.50924103 </v>
    <v>       0.25493523       0.49723947       0.83313917 </v>
    <v>       0.25536930       0.16516989       0.16749222 </v>
    <v>       0.24610704       0.82619588       0.51097632 </v>
    <v>       0.99273930       0.99888336       0.99522381 </v>
    <v>       0.97981006       0.32520161       0.67296865 </v>
    <v>       0.74464756       0.16962475       0.17141144 </v>
    <v>       0.98246550       0.00473247       0.68764655 </v>
    <v>       0.01277968       0.66778914       0.31143002 </v>
    <v>       0.51125546       0.99551132       0.33975354 </v>
    <v>       0.51439286       0.33335985       0.64710893 </v>
    <v>       0.97960864       0.33330709       0.99164637 </v>
    <v>       0.99909073       0.67302547       0.69263871 </v>
    <v>       0.26284867       0.83396709       0.83527863 </v>
    <v>       0.51623000       0.34149283       0.99999258 </v>
    <v>       0.73617382       0.50848855       0.83381513 </v>
    <v>       0.50028157       0.98930496       0.99965486 </v>
   </varray>
  </structure>
  <varray name="forces" >
   <v>      -0.00156053       0.02168132       0.10427750 </v>
   <v>       0.06493513      -0.00628221       0.03785303 </v>
   <v>      -0.00747794      -0.01234476      -0.03020384 </v>
   <v>       0.01698647       0.11675044       0.00661344 </v>
   <v>      -0.01910515      -0.07943142       0.08217789 </v>
   <v>       0.01395055      -0.02457422      -0.04219491 </v>
   <v>      -0.02643872       0.01955090      -0.03846412 </v>
   <v>       0.06817852      -0.05645865       0.04578332 </v>
   <v>      -0.09658650       0.10461081      -0.01149368 </v>
   <v>      -0.01155033      -0.04873689       0.08534057 </v>
   <v>      -0.01730985       0.01236700      -0.00985649 </v>
   <v>       0.01368292      -0.00349524      -0.00592772 </v>
   <v>       0.08849402      -0.05900021      -0.13809129 </v>
   <v>      -0.03804330      -0.02307072       0.02255384 </v>
   <v>      -0.02079021       0.05192273       0.02703389 </v>
   <v>       0.07690984       0.09102475      -0.02196866 </v>
   <v>       0.01356023      -0.01144625      -0.05325423 </v>
   <v>      -0.01102233      -0.09164473       0.06838248 </v>
   <v>      -0.02906350      -0.06488064      -0.10051910 </v>
   <v>       0.03223999      -0.01042098       0.02208468 </v>
   <v>       0.00395060       0.02293070      -0.07009937 </v>
   <v>      -0.00840899       0.05369529      -0.03549397 </v>
   <v>      -0.03569859       0.00181081       0.01265399 </v>
   <v>       0.00541591       0.09100219       0.11238595 </v>
   <v>       0.00283671      -0.01700571      -0.01524627 </v>
   <v>       0.02987219       0.03641931      -0.00136782 </v>
   <v>      -0.00445129       0.12325902      -0.18407518 </v>
   <v>      -0.01314542      -0.03677973       0.08897662 </v>
   <v>      -0.03382672      -0.07322537      -0.00469731 </v>
   <v>       0.01496852      -0.03995426      -0.01809172 </v>
   <v>       0.00826581      -0.02078394       0.04275549 </v>
   <v>      -0.02132250      -0.07179037      -0.08860516 </v>
   <v>      -0.03801704      -0.03555204       0.04221227 </v>
   <v>      -0.04152329      -0.02097858       0.05996751 </v>
   <v>       0.02871026       0.03653013      -0.02425169 </v>
   <v>      -0.00761544       0.02430150       0.03285006 </v>
  </varray>
  <varray name="stress" >
   <v>       5.05947355      -0.00107892       0.17824012 </v>
   <v>      -0.00107891       3.53156292      -0.15332399 </v>
   <v>       0.17824009      -0.15332403       3.35852934 </v>
  </varray>
  <energy>
   <i name="e_fr_energy">   -366.30647468 </i>
   <i name="e_wo_entrp">   -366.31268590 </i>
   <i name="e_0_energy">      0.01863365 </i>
  </energy>
  <time name="totalsc">   11.74   12.75</time>
 </calculation>
 <calculation>
  <scstep>
   <time name="dav">    0.91    0.93</time>
   <time name="total">    1.04    1.17</time>
   <energy>
    <i name="alphaZ">   1468.22688088 </i>
    <i name="ewald"> -18067.04678801 </i>
    <i name="hartreedc">  -5676.96916390 </i>
    <i name="XCdc">   -505.15112279 </i>
    <i name="pawpsdc">  32979.57820360 </i>
    <i name="pawaedc"> -31249.79391158 </i>
    <i name="eentropy">      0.01862122 </i>
    <i name="bandstr">  -2237.99421449 </i>
    <i name="atom">  22922.81773272 </i>
    <i name="e_fr_energy">   -366.31376234 </i>
    <i name="e_wo_entrp">   -366.33238356 </i>
    <i name="e_0_energy">   -366.31996942 </i>
   </energy>
  </scstep>
  <scstep>
   <time name="diag">    0.08    0.08</time>
   <time name="diis">    0.75    0.76</time>
   <time name="orth">    0.01    0.01</time>
   <time name="total">    0.90    0.94</time>
   <energy>
    <i name="e_fr_energy">   -366.32023478 </i>
    <i name="e_wo_entrp">   -366.33998293 </i>
    <i name="e_0_energy">   -366.32681749 </i>
   </energy>
  </scstep>
  <scstep>
   <time name="diag">    0.08    0.08</time>
   <time name="diis">    0.75    0.76</time>
   <time name="orth">    0.01    0.01</time>
   <time name="total">    0.91    0.97</time>
   <energy>
    <i name="e_fr_energy">   -366.31427025 </i>
    <i name="e_wo_entrp">   -366.33289440 </i>
    <i name="e_0_energy">   -366.32047830 </i>
   </energy>
  </scstep>
  <scstep>
   <time name="diag">    0.08    0.08</time>
   <time name="diis">    0.83    0.85</time>
   <time name="orth">    0.01    0.01</time>
   <time name="total">    0.98    1.02</time>
   <energy>
    <i name="e_fr_energy">   -366.31327870 </i>
    <i name="e_wo_entrp">   -366.33235887 </i>
    <i name="e_0_energy">   -366.31963876 </i>
   </energy>
  </scstep>
  <scstep>
   <time name="diag">    0.08    0.08</time>
   <time name="diis">    0.77    0.79</time>
   <time name="orth">    0.01    0.01</time>
   <time name="total">    0.92    0.97</time>
   <energy>
    <i name="e_fr_energy">   -366.31305722 </i>
    <i name="e_wo_entrp">   -366.33204978 </i>
    <i name="e_0_energy">   -366.31938807 </i>
   </energy>
  </scstep>
  <scstep>
   <time name="diag">    0.08    0.08</time>
   <time name="diis">    0.80    0.82</time>
   <time name="orth">    0.01    0.01</time>
   <time name="total">    0.97    1.02</time>
   <energy>
    <i name="e_fr_energy">   -366.31301361 </i>
    <i name="e_wo_entrp">   -366.33199958 </i>
    <i name="e_0_energy">   -366.31934226 </i>
   </energy>
  </scstep>
  <scstep>
   <time name="diag">    0.12    0.13</time>
   <time name="diis">    0.82    0.85</time>
   <time name="orth">    0.01    0.01</time>
   <time name="total">    1.02    1.10</time>
   <energy>
    <i name="e_fr_energy">   -366.31300314 </i>
    <i name="e_wo_entrp">   -366.33203916 </i>
    <i name="e_0_energy">   -366.31934848 </i>
   </energy>
  </scstep>
  <scstep>
   <time name="diag">    0.08    0.08</time>
   <time name="diis">    0.57    0.59</time>
   <time name="orth">    0.01    0.01</time>
   <time name="total">    0.75    0.80</time>
   <energy>
    <i name="e_fr_energy">   -366.31300260 </i>
    <i name="e_wo_entrp">   -366.33198585 </i>
    <i name="e_0_energy">   -366.31933035 </i>
   </energy>
  </scstep>
  <scstep>
[...]
       <r>    6.6287    1.0000 </r>
       <r>    6.6446    1.0000 </r>
       <r>    6.7048    1.0000 </r>
       <r>    6.7631    1.0000 </r>
       <r>    6.8007    1.0000 </r>
       <r>    6.8449    1.0001 </r>
       <r>    6.8782    1.0003 </r>
       <r>    6.9294    1.0013 </r>
       <r>    6.9453    1.0021 </r>
       <r>    6.9694    1.0039 </r>
       <r>    6.9861    1.0059 </r>
       <r>    7.0287    1.0141 </r>
       <r>    7.0351    1.0158 </r>
       <r>    7.0709    1.0265 </r>
       <r>    7.1352    1.0325 </r>
       <r>    7.1643    1.0120 </r>
       <r>    7.2047    0.9348 </r>
       <r>    7.2268    0.8627 </r>
       <r>    7.2803    0.6094 </r>
       <r>    7.3036    0.4788 </r>
       <r>    7.3601    0.1887 </r>
       <r>    7.3812    0.1075 </r>
       <r>    7.4087    0.0315 </r>
       <r>    7.4559   -0.0288 </r>
       <r>    7.5016   -0.0336 </r>
       <r>    7.5099   -0.0318 </r>
       <r>    7.5593   -0.0173 </r>
       <r>    7.5948   -0.0089 </r>
       <r>    7.6175   -0.0054 </r>
       <r>    7.6589   -0.0018 </r>
       <r>    7.7061   -0.0004 </r>
       <r>    7.7299   -0.0002 </r>
       <r>    7.7738   -0.0000 </r>
       <r>    7.8526   -0.0000 </r>
       <r>    7.9173   -0.0000 </r>
       <r>    7.9332   -0.0000 </r>
       <r>    8.0206   -0.0000 </r>
       <r>    8.0437   -0.0000 </r>
       <r>    8.1367   -0.0000 </r>
       <r>    8.1864   -0.0000 </r>
       <r>    8.2207   -0.0000 </r>
       <r>    8.4420   -0.0000 </r>
       <r>    8.5250   -0.0000 </r>
       <r>    8.6264   -0.0000 </r>
       <r>    9.1215   -0.0000 </r>
       <r>    9.1686   -0.0000 </r>
       <r>    9.2564   -0.0000 </r>
       <r>    9.3154   -0.0000 </r>
       <r>    9.3738   -0.0000 </r>
      </set>
     </set>
    </set>
   </array>
  </eigenvalues>
  <separator name="orbital magnetization" >
   <v name="MAGDIPOLOUT">      0.00000000      0.00000000      0.00000000</v>
  </separator>
  <dos>
   <i name="efermi">      7.29983994 </i>
   <total>
    <array>
     <dimension dim="1">gridpoints</dimension>
     <dimension dim="2">spin</dimension>
     <field>energy</field>
     <field>total</field>
     <field>integrated</field>
     <set>
      <set comment="spin 1">
       <r>   -49.8527     0.0000     0.0000 </r>
       <r>   -49.6457     0.0000     0.0000 </r>
       <r>   -49.4387     0.0000     0.0000 </r>
       <r>   -49.2316     0.0000     0.0000 </r>
       <r>   -49.0246     0.0000     0.0000 </r>
       <r>   -48.8176     0.0000     0.0000 </r>
       <r>   -48.6106     0.0000     0.0000 </r>
       <r>   -48.4036    -0.0000    -0.0000 </r>
       <r>   -48.1965    -0.0000    -0.0000 </r>
       <r>   -47.9895    -0.0000    -0.0000 </r>
       <r>   -47.7825    -0.0000    -0.0000 </r>
       <r>   -47.5755    -0.0000    -0.0000 </r>
       <r>   -47.3685    -0.0308    -0.0064 </r>
       <r>   -47.1614    -0.1392    -0.0352 </r>
       <r>   -46.9544     8.5962     1.7444 </r>
       <r>   -46.7474    24.2038     6.7551 </r>
       <r>   -46.5404    16.5633    10.1840 </r>
       <r>   -46.3333    -0.8690    10.0041 </r>
       <r>   -46.1263    -0.0200    10.0000 </r>
       <r>   -45.9193    -0.0000    10.0000 </r>
       <r>   -45.7123    -0.0000    10.0000 </r>
       <r>   -45.5053     0.0000    10.0000 </r>
       <r>   -45.2982     0.0000    10.0000 </r>
       <r>   -45.0912     0.0000    10.0000 </r>
       <r>   -44.8842     0.0000    10.0000 </r>
       <r>   -44.6772     0.0000    10.0000 </r>
       <r>   -44.4702     0.0000    10.0000 </r>
       <r>   -44.2631     0.0000    10.0000 </r>
       <r>   -44.0561     0.0000    10.0000 </r>
       <r>   -43.8491     0.0000    10.0000 </r>
       <r>   -43.6421     0.0000    10.0000 </r>
       <r>   -43.4351     0.0000    10.0000 </r>
       <r>   -43.2280     0.0000    10.0000 </r>
       <r>   -43.0210     0.0000    10.0000 </r>
       <r>   -42.8140     0.0000    10.0000 </r>
       <r>   -42.6070     0.0000    10.0000 </r>
       <r>   -42.4000     0.0000    10.0000 </r>
       <r>   -42.1929    -0.0000    10.0000 </r>
       <r>   -41.9859    -0.0000    10.0000 </r>
       <r>   -41.7789    -0.0000    10.0000 </r>
       <r>   -41.5719    -0.0000    10.0000 </r>
       <r>   -41.3649    -0.0023     9.9995 </r>
       <r>   -41.1578    -0.7470     9.8449 </r>
       <r>   -40.9508     7.7242    11.4440 </r>
       <r>   -40.7438    75.4380    27.0612 </r>
       <r>   -40.5368    15.3869    30.2466 </r>
       <r>   -40.3298    -1.1848    30.0013 </r>
       <r>   -40.1227    -0.0062    30.0000 </r>
       <r>   -39.9157    -0.0000    30.0000 </r>
       <r>   -39.7087    -0.0000    30.0000 </r>
       <r>   -39.5017     0.0000    30.0000 </r>
       <r>   -39.2947     0.0000    30.0000 </r>
       <r>   -39.0876     0.0000    30.0000 </r>
       <r>   -38.8806     0.0000    30.0000 </r>
       <r>   -38.6736     0.0000    30.0000 </r>
       <r>   -38.4666     0.0000    30.0000 </r>
       <r>   -38.2595     0.0000    30.0000 </r>
       <r>   -38.0525     0.0000    30.0000 </r>
       <r>   -37.8455     0.0000    30.0000 </r>
       <r>   -37.6385     0.0000    30.0000 </r>
       <r>   -37.4315     0.0000    30.0000 </r>
       <r>   -37.2244     0.0000    30.0000 </r>
       <r>   -37.0174     0.0000    30.0000 </r>
       <r>   -36.8104     0.0000    30.0000 </r>
       <r>   -36.6034     0.0000    30.0000 </r>
       <r>   -36.3964     0.0000    30.0000 </r>
       <r>   -36.1893     0.0000    30.0000 </r>
       <r>   -35.9823     0.0000    30.0000 </r>
       <r>   -35.7753     0.0000    30.0000 </r>
       <r>   -35.5683     0.0000    30.0000 </r>
       <r>   -35.3613     0.0000    30.0000 </r>
       <r>   -35.1542     0.0000    30.0000 </r>
       <r>   -34.9472     0.0000    30.0000 </r>
       <r>   -34.7402     0.0000    30.0000 </r>
       <r>   -34.5332     0.0000    30.0000 </r>
       <r>   -34.3262     0.0000    30.0000 </r>
       <r>   -34.1191     0.0000    30.0000 </r>
       <r>   -33.9121     0.0000    30.0000 </r>
       <r>   -33.7051     0.0000    30.0000 </r>
       <r>   -33.4981     0.0000    30.0000 </r>
       <r>   -33.2911     0.0000    30.0000 </r>
       <r>   -33.0840     0.0000    30.0000 </r>
       <r>   -32.8770     0.0000    30.0000 </r>
       <r>   -32.6700     0.0000    30.0000 </r>
       <r>   -32.4630     0.0000    30.0000 </r>
       <r>   -32.2560     0.0000    30.0000 </r>
       <r>   -32.0489     0.0000    30.0000 </r>
       <r>   -31.8419     0.0000    30.0000 </r>
       <r>   -31.6349     0.0000    30.0000 </r>
       <r>   -31.4279     0.0000    30.0000 </r>
       <r>   -31.2208     0.0000    30.0000 </r>
       <r>   -31.0138     0.0000    30.0000 </r>
       <r>   -30.8068     0.0000    30.0000 </r>
       <r>   -30.5998     0.0000    30.0000 </r>
       <r>   -30.3928     0.0000    30.0000 </r>
       <r>   -30.1857     0.0000    30.0000 </r>
       <r>   -29.9787     0.0000    30.0000 </r>
       <r>   -29.7717     0.0000    30.0000 </r>
       <r>   -29.5647     0.0000    30.0000 </r>
       <r>   -29.3577     0.0000    30.0000 </r>
       <r>   -29.1506     0.0000    30.0000 </r>
       <r>   -28.9436     0.0000    30.0000 </r>
       <r>   -28.7366     0.0000    30.0000 </r>
       <r>   -28.5296     0.0000    30.0000 </r>
       <r>   -28.3226     0.0000    30.0000 </r>
       <r>   -28.1155     0.0000    30.0000 </r>
       <r>   -27.9085     0.0000    30.0000 </r>
       <r>   -27.7015     0.0000    30.0000 </r>
       <r>   -27.4945     0.0000    30.0000 </r>
       <r>   -27.2875     0.0000    30.0000 </r>
       <r>   -27.0804     0.0000    30.0000 </r>
       <r>   -26.8734     0.0000    30.0000 </r>
       <r>   -26.6664     0.0000    30.0000 </r>
       <r>   -26.4594     0.0000    30.0000 </r>
       <r>   -26.2524     0.0000    30.0000 </r>
       <r>   -26.0453     0.0000    30.0000 </r>
       <r>   -25.8383     0.0000    30.0000 </r>
       <r>   -25.6313     0.0000    30.0000 </r>
       <r>   -25.4243     0.0000    30.0000 </r>
       <r>   -25.2173     0.0000    30.0000 </r>
       <r>   -25.0102     0.0000    30.0000 </r>
       <r>   -24.8032     0.0000    30.0000 </r>
       <r>   -24.5962    -0.0000    30.0000 </r>
       <r>   -24.3892    -0.0000    30.0000 </r>
       <r>   -24.1822    -0.0000    30.0000 </r>
       <r>   -23.9751    -0.0000    30.0000 </r>
       <r>   -23.7681    -0.0053    29.9989 </r>
       <r>   -23.5611    -0.4028    29.9155 </r>
       <r>   -23.3541     5.9017    31.1373 </r>
       <r>   -23.1470    20.4686    35.3747 </r>
       <r>   -22.9400    46.8685    45.0775 </r>
       <r>   -22.7330    56.7501    56.8259 </r>
       <r>   -22.5260    14.6149    59.8515 </r>
       <r>   -22.3190     0.8367    60.0247 </r>
       <r>   -22.1119    -0.1192    60.0000 </r>
       <r>   -21.9049    -0.0002    60.0000 </r>
       <r>   -21.6979    -0.0000    60.0000 </r>
       <r>   -21.4909    -0.0000    60.0000 </r>
       <r>   -21.2839     0.0000    60.0000 </r>
       <r>   -21.0768     0.0000    60.0000 </r>
       <r>   -20.8698     0.0000    60.0000 </r>
       <r>   -20.6628    -0.0000    60.0000 </r>
       <r>   -20.4558    -0.0000    60.0000 </r>
       <r>   -20.2488    -0.0000    60.0000 </r>
       <r>   -20.0417    -0.0000    60.0000 </r>
       <r>   -19.8347    -0.0000    60.0000 </r>
       <r>   -19.6277    -0.0500    59.9896 </r>
       <r>   -19.4207    -0.6659    59.8518 </r>
       <r>   -19.2137    17.6615    63.5081 </r>
       <r>   -19.0066    85.0863    81.1227 </r>
       <r>   -18.7996   130.8181   108.2047 </r>
       <r>   -18.5926    55.3919   119.6720 </r>
       <r>   -18.3856     1.9476   120.0752 </r>
       <r>   -18.1786    -0.3618   120.0003 </r>
       <r>   -17.9715    -0.0014   120.0000 </r>
       <r>   -17.7645    -0.0000   120.0000 </r>
       <r>   -17.5575    -0.0000   120.0000 </r>
       <r>   -17.3505     0.0000   120.0000 </r>
       <r>   -17.1435     0.0000   120.0000 </r>
       <r>   -16.9364     0.0000   120.0000 </r>
       <r>   -16.7294     0.0000   120.0000 </r>
       <r>   -16.5224     0.0000   120.0000 </r>
       <r>   -16.3154     0.0000   120.0000 </r>
       <r>   -16.1083     0.0000   120.0000 </r>
       <r>   -15.9013     0.0000   120.0000 </r>
       <r>   -15.6943     0.0000   120.0000 </r>
       <r>   -15.4873     0.0000   120.0000 </r>
       <r>   -15.2803     0.0000   120.0000 </r>
       <r>   -15.0732     0.0000   120.0000 </r>
       <r>   -14.8662     0.0000   120.0000 </r>
       <r>   -14.6592     0.0000   120.0000 </r>
       <r>   -14.4522     0.0000   120.0000 </r>
       <r>   -14.2452     0.0000   120.0000 </r>
       <r>   -14.0381     0.0000   120.0000 </r>
       <r>   -13.8311     0.0000   120.0000 </r>
       <r>   -13.6241     0.0000   120.0000 </r>
       <r>   -13.4171     0.0000   120.0000 </r>
       <r>   -13.2101     0.0000   120.0000 </r>
       <r>   -13.0030     0.0000   120.0000 </r>
       <r>   -12.7960     0.0000   120.0000 </r>
       <r>   -12.5890     0.0000   120.0000 </r>
       <r>   -12.3820     0.0000   120.0000 </r>
       <r>   -12.1750     0.0000   120.0000 </r>
       <r>   -11.9679     0.0000   120.0000 </r>
       <r>   -11.7609     0.0000   120.0000 </r>
       <r>   -11.5539     0.0000   120.0000 </r>
       <r>   -11.3469     0.0000   120.0000 </r>
       <r>   -11.1399     0.0000   120.0000 </r>
       <r>   -10.9328     0.0000   120.0000 </r>
       <r>   -10.7258     0.0000   120.0000 </r>
       <r>   -10.5188     0.0000   120.0000 </r>
       <r>   -10.3118     0.0000   120.0000 </r>
       <r>   -10.1048     0.0000   120.0000 </r>
       <r>    -9.8977     0.0000   120.0000 </r>
       <r>    -9.6907     0.0000   120.0000 </r>
       <r>    -9.4837     0.0000   120.0000 </r>
       <r>    -9.2767     0.0000   120.0000 </r>
       <r>    -9.0697     0.0000   120.0000 </r>
       <r>    -8.8626     0.0000   120.0000 </r>
       <r>    -8.6556     0.0000   120.0000 </r>
       <r>    -8.4486     0.0000   120.0000 </r>
       <r>    -8.2416     0.0000   120.0000 </r>
       <r>    -8.0345     0.0000   120.0000 </r>
       <r>    -7.8275     0.0000   120.0000 </r>
       <r>    -7.6205     0.0000   120.0000 </r>
       <r>    -7.4135     0.0000   120.0000 </r>
       <r>    -7.2065     0.0000   120.0000 </r>
       <r>    -6.9994     0.0000   120.0000 </r>
       <r>    -6.7924     0.0000   120.0000 </r>
       <r>    -6.5854     0.0000   120.0000 </r>
       <r>    -6.3784     0.0000   120.0000 </r>
       <r>    -6.1714     0.0000   120.0000 </r>
       <r>    -5.9643     0.0000   120.0000 </r>
       <r>    -5.7573     0.0000   120.0000 </r>
       <r>    -5.5503     0.0000   120.0000 </r>
       <r>    -5.3433     0.0000   120.0000 </r>
       <r>    -5.1363     0.0000   120.0000 </r>
       <r>    -4.9292     0.0000   120.0000 </r>
       <r>    -4.7222     0.0000   120.0000 </r>
       <r>    -4.5152     0.0000   120.0000 </r>
       <r>    -4.3082     0.0000   120.0000 </r>
       <r>    -4.1012     0.0000   120.0000 </r>
       <r>    -3.8941     0.0000   120.0000 </r>
       <r>    -3.6871     0.0000   120.0000 </r>
       <r>    -3.4801     0.0000   120.0000 </r>
       <r>    -3.2731     0.0000   120.0000 </r>
       <r>    -3.0661     0.0000   120.0000 </r>
       <r>    -2.8590     0.0000   120.0000 </r>
       <r>    -2.6520     0.0000   120.0000 </r>
       <r>    -2.4450     0.0000   120.0000 </r>
       <r>    -2.2380     0.0000   120.0000 </r>
       <r>    -2.0310     0.0000   120.0000 </r>
       <r>    -1.8239     0.0000   120.0000 </r>
       <r>    -1.6169     0.0000   120.0000 </r>
       <r>    -1.4099     0.0000   120.0000 </r>
       <r>    -1.2029     0.0000   120.0000 </r>
       <r>    -0.9958     0.0000   120.0000 </r>
       <r>    -0.7888    -0.0000   120.0000 </r>
       <r>    -0.5818    -0.0000   120.0000 </r>
       <r>    -0.3748    -0.0000   120.0000 </r>
       <r>    -0.1678    -0.0000   120.0000 </r>
       <r>     0.0393    -0.0001   120.0000 </r>
       <r>     0.2463    -0.0114   119.9976 </r>
       <r>     0.4533     0.1512   120.0289 </r>
       <r>     0.6603     0.6625   120.1661 </r>
       <r>     0.8673     1.4210   120.4602 </r>
       <r>     1.0744     1.9519   120.8643 </r>
       <r>     1.2814     2.8737   121.4593 </r>
       <r>     1.4884     4.5910   122.4097 </r>
       <r>     1.6954     2.0879   122.8419 </r>
       <r>     1.9024     4.8721   123.8506 </r>
       <r>     2.1095     3.4501   124.5648 </r>
       <r>     2.3165     3.1175   125.2102 </r>
       <r>     2.5235     6.8852   126.6356 </r>
       <r>     2.7305     7.5562   128.1999 </r>
       <r>     2.9375     8.0953   129.8757 </r>
       <r>     3.1446     8.0725   131.5469 </r>
       <r>     3.3516     8.4480   133.2958 </r>
       <r>     3.5586    13.4058   136.0711 </r>
       <r>     3.7656    20.0276   140.2172 </r>
       <r>     3.9726    19.4686   144.2476 </r>
       <r>     4.1797    27.2165   149.8820 </r>
       <r>     4.3867    31.6643   156.4372 </r>
       <r>     4.5937    32.6021   163.1865 </r>
       <r>     4.8007    37.6786   170.9867 </r>
       <r>     5.0077    38.3815   178.9325 </r>
       <r>     5.2148    35.6280   186.3082 </r>
       <r>     5.4218    31.6729   192.8652 </r>
       <r>     5.6288    31.4264   199.3711 </r>
       <r>     5.8358    14.4553   202.3636 </r>
       <r>     6.0428    47.4912   212.1953 </r>
       <r>     6.2499    61.9307   225.0162 </r>
       <r>     6.4569    58.3391   237.0936 </r>
       <r>     6.6639    51.6810   247.7926 </r>
       <r>     6.8709    53.8700   258.9448 </r>
       <r>     7.0780    58.1209   270.9770 </r>
       <r>     7.2850    50.1449   281.3580 </r>
       <r>     7.4920    44.0916   290.4859 </r>
       <r>     7.6990    52.0230   301.2557 </r>
       <r>     7.9060    43.2207   310.2033 </r>
       <r>     8.1131    35.5022   317.5530 </r>
       <r>     8.3201    28.8291   323.5212 </r>
       <r>     8.5271    21.0442   327.8778 </r>
       <r>     8.7341    15.7197   331.1321 </r>
       <r>     8.9411    14.5007   334.1340 </r>
       <r>     9.1482    22.7612   338.8460 </r>
       <r>     9.3552    19.7873   342.9424 </r>
       <r>     9.5622     5.4334   344.0672 </r>
       <r>     9.7692    -0.3172   344.0016 </r>
       <r>     9.9762    -0.0076   344.0000 </r>
       <r>    10.1833    -0.0000   344.0000 </r>
       <r>    10.3903    -0.0000   344.0000 </r>
       <r>    10.5973     0.0000   344.0000 </r>
       <r>    10.8043     0.0000   344.0000 </r>
       <r>    11.0113     0.0000   344.0000 </r>
       <r>    11.2184     0.0000   344.0000 </r>
       <r>    11.4254     0.0000   344.0000 </r>
       <r>    11.6324     0.0000   344.0000 </r>
       <r>    11.8394     0.0000   344.0000 </r>
       <r>    12.0464     0.0000   344.0000 </r>
       <r>    12.2535     0.0000   344.0000 </r>
      </set>
     </set>
    </array>
   </total>
  </dos>
 </calculation>
 <structure name="finalpos" >
  <crystal>
   <varray name="basis" >
    <v>       6.95329757       0.00535379      -0.03175106 </v>
    <v>       0.00811993      10.25454641       0.01760628 </v>
    <v>      -0.04730601       0.01773852      10.19155329 </v>
   </varray>
   <i name="volume">    726.66940747 </i>
   <varray name="rec_basis" >
    <v>       0.14381979      -0.00011503       0.00066777 </v>
    <v>      -0.00007586       0.09751807      -0.00017008 </v>
    <v>       0.00044819      -0.00016882       0.09812284 </v>
   </varray>
  </crystal>
  <varray name="positions" >
   <v>       0.50065131       0.34216988       0.34301397 </v>
   <v>       0.73340667       0.83282539       0.83536016 </v>
   <v>       0.73724209       0.83700840       0.15612731 </v>
   <v>       0.99417066       0.98303600       0.31542468 </v>
   <v>       0.27876447       0.48632531       0.15482351 </v>
   <v>       0.26381344       0.84092154       0.15245472 </v>
   <v>       0.51667896       0.99997296       0.66247128 </v>
   <v>       0.72769678       0.49271156       0.16468148 </v>
   <v>       0.75942014       0.15926470       0.48132410 </v>
   <v>       0.50435844       0.66772159       0.00135530 </v>
   <v>       0.71072506       0.16090458       0.84278046 </v>
   <v>       0.50329942       0.66869940       0.68239821 </v>
   <v>       0.24711395       0.51197190       0.51488229 </v>
   <v>       0.00805821       0.35105723       0.33022749 </v>
   <v>       0.49167018       0.66551129       0.32546526 </v>
   <v>       0.23876346       0.16052458       0.49289867 </v>
   <v>       0.27837872       0.16667356       0.83207372 </v>
   <v>       0.99713332       0.66613040       0.00534102 </v>
   <v>       0.76728787       0.51954922       0.50558999 </v>
   <v>       0.76330589       0.82638142       0.50859403 </v>
   <v>       0.25570547       0.49769797       0.83091946 </v>
   <v>       0.25605308       0.16775259       0.16803716 </v>
   <v>       0.24222154       0.82607378       0.51381778 </v>
   <v>       0.99228948       0.00146086       0.99697958 </v>
   <v>       0.98034271       0.32463554       0.67140062 </v>
   <v>       0.74144117       0.16865453       0.17402319 </v>
   <v>       0.97916012       0.01042619       0.68274554 </v>
   <v>       0.01361210       0.66635811       0.31334022 </v>
   <v>       0.50345894       0.98778453       0.33779534 </v>
   <v>       0.51849644       0.33311134       0.64937211 </v>
   <v>       0.98042933       0.33223301       0.99345109 </v>
   <v>       0.99862819       0.67099178       0.69146417 </v>
   <v>       0.26134333       0.83318229       0.83532265 </v>
   <v>       0.51553425       0.34184638       0.00073187 </v>
   <v>       0.73878880       0.50944602       0.83429802 </v>
   <v>       0.50054902       0.98899517      -0.00098247 </v>
  </varray>
 </structure>
</modeling>
