       N       E                     dE             d eps       ncg     rms          rms(c)
DAV:   1     0.206696551084E+04    0.20670E+04   -0.11720E+05  5680   0.106E+03
DAV:   2    -0.386245990794E+02   -0.21056E+04   -0.20221E+04  5684   0.384E+02
DAV:   3    -0.327275621345E+03   -0.28865E+03   -0.27366E+03  9016   0.106E+02
DAV:   4    -0.363876635390E+03   -0.36601E+02   -0.35038E+02  8936   0.328E+01
DAV:   5    -0.367552984739E+03   -0.36763E+01   -0.36126E+01  8088   0.101E+01    0.641E+01
RMM:   6    -0.357599907726E+03    0.99531E+01   -0.26560E+01  7595   0.100E+01    0.303E+01
RMM:   7    -0.360307156630E+03   -0.27072E+01   -0.28801E+01  7841   0.770E+00    0.128E+01
RMM:   8    -0.353394717058E+03    0.69124E+01   -0.73946E+00  7811   0.394E+00    0.435E+00
RMM:   9    -0.353052580617E+03    0.34214E+00   -0.27628E+00  7896   0.195E+00    0.298E+00
RMM:  10    -0.353041433610E+03    0.11147E-01   -0.55337E-01  7846   0.113E+00    0.175E+00
RMM:  11    -0.353006178556E+03    0.35255E-01   -0.17094E-01  7766   0.615E-01    0.903E-01
RMM:  12    -0.353001204434E+03    0.49741E-02   -0.77229E-02  7918   0.415E-01    0.439E-01
RMM:  13    -0.352998586506E+03    0.26179E-02   -0.20631E-02  7920   0.200E-01    0.246E-01
RMM:  14    -0.352998711196E+03   -0.12469E-03   -0.90458E-03  8223   0.108E-01    0.143E-01
RMM:  15    -0.352998984349E+03   -0.27315E-03   -0.43470E-03  7972   0.690E-02    0.752E-02
RMM:  16    -0.352999011125E+03   -0.26776E-04   -0.16412E-03  6919   0.392E-02    0.434E-02
RMM:  17    -0.352999005361E+03    0.57645E-05   -0.75411E-04  6441   0.293E-02    0.154E-02
RMM:  18    -0.352999028693E+03   -0.23332E-04   -0.33721E-04  5986   0.200E-02    0.957E-03
RMM:  19    -0.352999035506E+03   -0.68135E-05   -0.12299E-04  5295   0.136E-02    0.506E-03
RMM:  20    -0.352999038183E+03   -0.26768E-05   -0.57199E-05  4462   0.109E-02
   1 F= -.35299904E+03 E0= -.35300694E+03  d E =-.352999E+03
       N       E                     dE             d eps       ncg     rms          rms(c)
DAV:   1    -0.353000532612E+03   -0.14971E-02   -0.55573E-02  6392   0.717E-01    0.241E-01
RMM:   2    -0.353000185133E+03    0.34748E-03   -0.39807E-03  7305   0.161E-01    0.761E-02
RMM:   3    -0.353000092665E+03    0.92468E-04   -0.88059E-04  7887   0.578E-02    0.507E-02
RMM:   4    -0.353000012713E+03    0.79952E-04   -0.22206E-04  7382   0.292E-02    0.320E-02
RMM:   5    -0.353000002115E+03    0.10598E-04   -0.77033E-05  5866   0.155E-02    0.243E-02
RMM:   6    -0.352999995503E+03    0.66123E-05   -0.23464E-05  3534   0.110E-02
   2 F= -.35300000E+03 E0= -.35300790E+03  d E =-.957319E-03
       N       E                     dE             d eps       ncg     rms          rms(c)
DAV:   1    -0.353006226901E+03   -0.62248E-02   -0.49824E-01  6064   0.215E+00    0.717E-01
RMM:   2    -0.353002882670E+03    0.33442E-02   -0.34621E-02  7131   0.479E-01    0.226E-01
RMM:   3    -0.353002049612E+03    0.83306E-03   -0.76514E-03  7933   0.172E-01    0.151E-01
RMM:   4    -0.353001344748E+03    0.70486E-03   -0.18924E-03  7991   0.855E-02    0.960E-02
RMM:   5    -0.353001280636E+03    0.64111E-04   -0.66122E-04  7914   0.435E-02    0.749E-02
RMM:   6    -0.353001276242E+03    0.43943E-05   -0.23428E-04  7105   0.273E-02    0.433E-02
RMM:   7    -0.353001271065E+03    0.51767E-05   -0.13203E-04  6430   0.208E-02    0.194E-02
RMM:   8    -0.353001272476E+03   -0.14107E-05   -0.69854E-05  4672   0.156E-02
   3 F= -.35300127E+03 E0= -.35300920E+03  d E =-.223429E-02
       N       E                     dE             d eps       ncg     rms          rms(c)
DAV:   1    -0.353002686029E+03   -0.14150E-02   -0.95446E-02  6032   0.898E-01    0.243E-01
RMM:   2    -0.353002444200E+03    0.24183E-03   -0.52511E-03  7502   0.184E-01    0.914E-02
RMM:   3    -0.353002320583E+03    0.12362E-03   -0.11510E-03  7936   0.601E-02    0.698E-02
RMM:   4    -0.353002196064E+03    0.12452E-03   -0.30605E-04  7893   0.312E-02    0.361E-02
RMM:   5    -0.353002185047E+03    0.11017E-04   -0.10271E-04  6897   0.204E-02    0.261E-02
RMM:   6    -0.353002189816E+03   -0.47690E-05   -0.32160E-05  3704   0.106E-02
   4 F= -.35300219E+03 E0= -.35301011E+03  d E =-.917340E-03
       N       E                     dE             d eps       ncg     rms          rms(c)
DAV:   1    -0.353006271519E+03   -0.40865E-02   -0.72642E-01  5696   0.248E+00    0.646E-01
RMM:   2    -0.353004617031E+03    0.16545E-02   -0.38745E-02  7292   0.514E-01    0.231E-01
RMM:   3    -0.353003675808E+03    0.94122E-03   -0.76811E-03  7872   0.169E-01    0.178E-01
RMM:   4    -0.353002848555E+03    0.82725E-03   -0.20152E-03  7991   0.797E-02    0.944E-02
RMM:   5    -0.353002793111E+03    0.55443E-04   -0.68424E-04  7879   0.521E-02    0.723E-02
RMM:   6    -0.353002826511E+03   -0.33400E-04   -0.28594E-04  7044   0.260E-02    0.461E-02
RMM:   7    -0.353002848424E+03   -0.21913E-04   -0.11544E-04  6155   0.208E-02    0.244E-02
RMM:   8    -0.353002865002E+03   -0.16578E-04   -0.71617E-05  5096   0.147E-02    0.150E-02
RMM:   9    -0.353002875015E+03   -0.10013E-04   -0.27318E-05  4013   0.112E-02    0.976E-03
RMM:  10    -0.353002882932E+03   -0.79169E-05   -0.16868E-05  3642   0.102E-02
   5 F= -.35300288E+03 E0= -.35301077E+03  d E =-.161046E-02
       N       E                     dE             d eps       ncg     rms          rms(c)
DAV:   1    -0.353003210848E+03   -0.33583E-03   -0.43822E-02  5952   0.609E-01    0.162E-01
RMM:   2    -0.353003117755E+03    0.93093E-04   -0.23894E-03  7276   0.126E-01    0.589E-02
RMM:   3    -0.353003058960E+03    0.58795E-04   -0.49674E-04  7857   0.428E-02    0.452E-02
RMM:   4    -0.353003002618E+03    0.56341E-04   -0.12285E-04  6965   0.204E-02    0.240E-02
RMM:   5    -0.353002993449E+03    0.91692E-05   -0.33684E-05  3672   0.138E-02
   6 F= -.35300299E+03 E0= -.35301089E+03  d E =-.172097E-02
       N       E                     dE             d eps       ncg     rms          rms(c)
DAV:   1    -0.353003281231E+03   -0.27861E-03   -0.56256E-02  5648   0.657E-01    0.110E-01
RMM:   2    -0.353003330523E+03   -0.49292E-04   -0.19729E-03  7362   0.119E-01    0.453E-02
RMM:   3    -0.353003281679E+03    0.48844E-04   -0.29197E-04  7482   0.354E-02    0.319E-02
RMM:   4    -0.353003252762E+03    0.28916E-04   -0.66586E-05  5872   0.160E-02    0.191E-02
RMM:   5    -0.353003248230E+03    0.45326E-05   -0.22782E-05  3279   0.115E-02
   7 F= -.35300325E+03 E0= -.35301114E+03  d E =-.254781E-03
       N       E                     dE             d eps       ncg     rms          rms(c)
DAV:   1    -0.353003581955E+03   -0.32919E-03   -0.24220E-01  5584   0.136E+00    0.237E-01
RMM:   2    -0.353003772812E+03   -0.19086E-03   -0.86770E-03  7590   0.249E-01    0.991E-02
RMM:   3    -0.353003594445E+03    0.17837E-03   -0.13860E-03  7805   0.730E-02    0.686E-02
RMM:   4    -0.353003475862E+03    0.11858E-03   -0.35326E-04  8122   0.332E-02    0.379E-02
RMM:   5    -0.353003465158E+03    0.10704E-04   -0.13715E-04  7056   0.215E-02    0.276E-02
RMM:   6    -0.353003458946E+03    0.62119E-05   -0.48371E-05  4762   0.122E-02
   8 F= -.35300346E+03 E0= -.35301133E+03  d E =-.465497E-03
       N       E                     dE             d eps       ncg     rms          rms(c)
DAV:   1    -0.353003686646E+03   -0.22149E-03   -0.52389E-02  5376   0.633E-01    0.880E-02
RMM:   2    -0.353003772550E+03   -0.85904E-04   -0.18476E-03  7689   0.116E-01    0.434E-02
RMM:   3    -0.353003743782E+03    0.28767E-04   -0.27059E-04  7119   0.331E-02    0.321E-02
RMM:   4    -0.353003727704E+03    0.16079E-04   -0.79267E-05  6165   0.157E-02    0.192E-02
RMM:   5    -0.353003724221E+03    0.34823E-05   -0.26516E-05  3666   0.101E-02
   9 F= -.35300372E+03 E0= -.35301158E+03  d E =-.265275E-03
       N       E                     dE             d eps       ncg     rms          rms(c)
DAV:   1    -0.353003720026E+03    0.76773E-05   -0.44260E-01  5304   0.184E+00    0.239E-01
RMM:   2    -0.353004400812E+03   -0.68079E-03   -0.14768E-02  7715   0.329E-01    0.116E-01
RMM:   3    -0.353004169864E+03    0.23095E-03   -0.19619E-03  7763   0.853E-02    0.827E-02
RMM:   4    -0.353004062400E+03    0.10746E-03   -0.51693E-04  7822   0.377E-02    0.509E-02
RMM:   5    -0.353004049235E+03    0.13164E-04   -0.22692E-04  7811   0.268E-02    0.311E-02
RMM:   6    -0.353004050895E+03   -0.16601E-05   -0.73822E-05  5028   0.147E-02
  10 F= -.35300405E+03 E0= -.35301187E+03  d E =-.591950E-03
       N       E                     dE             d eps       ncg     rms          rms(c)
DAV:   1    -0.353004774904E+03   -0.72567E-03   -0.11806E-01  5776   0.102E+00    0.270E-01
RMM:   2    -0.353004459724E+03    0.31518E-03   -0.64828E-03  7384   0.208E-01    0.911E-02
RMM:   3    -0.353004350579E+03    0.10915E-03   -0.12029E-03  7885   0.706E-02    0.590E-02
RMM:   4    -0.353004266440E+03    0.84138E-04   -0.35457E-04  7936   0.337E-02    0.368E-02
RMM:   5    -0.353004253179E+03    0.13262E-04   -0.11887E-04  6670   0.190E-02    0.273E-02
RMM:   6    -0.353004245908E+03    0.72703E-05   -0.40242E-05  4176   0.120E-02
  11 F= -.35300425E+03 E0= -.35301205E+03  d E =-.195013E-03
       N       E                     dE             d eps       ncg     rms          rms(c)
DAV:   1    -0.353004283339E+03   -0.30161E-04   -0.96354E-03  5760   0.291E-01    0.724E-02
RMM:   2    -0.353004260554E+03    0.22785E-04   -0.52675E-04  7460   0.601E-02    0.238E-02
RMM:   3    -0.353004248854E+03    0.11700E-04   -0.85491E-05  6435   0.193E-02    0.174E-02
RMM:   4    -0.353004240219E+03    0.86351E-05   -0.23566E-05  3506   0.117E-02
  12 F= -.35300424E+03 E0= -.35301204E+03  d E =-.189323E-03
       N       E                     dE             d eps       ncg     rms          rms(c)
DAV:   1    -0.353004263964E+03   -0.15110E-04   -0.80339E-02  5576   0.789E-01    0.773E-02
RMM:   2    -0.353004437330E+03   -0.17337E-03   -0.24232E-03  7580   0.137E-01    0.391E-02
RMM:   3    -0.353004423115E+03    0.14215E-04   -0.29189E-04  7114   0.386E-02    0.287E-02
RMM:   4    -0.353004416169E+03    0.69455E-05   -0.73335E-05  5406   0.142E-02
  13 F= -.35300442E+03 E0= -.35301221E+03  d E =-.175951E-03
       N       E                     dE             d eps       ncg     rms          rms(c)
DAV:   1    -0.353003810308E+03    0.61281E-03   -0.38881E-01  5496   0.173E+00    0.160E-01
RMM:   2    -0.353004652795E+03   -0.84249E-03   -0.11540E-02  7565   0.297E-01    0.816E-02
RMM:   3    -0.353004591666E+03    0.61129E-04   -0.13548E-03  7767   0.808E-02    0.597E-02
RMM:   4    -0.353004561624E+03    0.30042E-04   -0.30911E-04  8692   0.277E-02    0.404E-02
RMM:   5    -0.353004562124E+03   -0.49994E-06   -0.12730E-04  6992   0.207E-02    0.211E-02
RMM:   6    -0.353004562543E+03   -0.41891E-06   -0.52042E-05  4831   0.136E-02
  14 F= -.35300456E+03 E0= -.35301233E+03  d E =-.322324E-03
       N       E                     dE             d eps       ncg     rms          rms(c)
DAV:   1    -0.353004556021E+03    0.61029E-05   -0.79121E-02  5352   0.793E-01    0.700E-02
RMM:   2    -0.353004714886E+03   -0.15887E-03   -0.24317E-03  7539   0.139E-01    0.360E-02
RMM:   3    -0.353004699681E+03    0.15205E-04   -0.27548E-04  7205   0.383E-02    0.257E-02
RMM:   4    -0.353004695967E+03    0.37142E-05   -0.84582E-05  5409   0.144E-02
  15 F= -.35300470E+03 E0= -.35301248E+03  d E =-.133424E-03
       N       E                     dE             d eps       ncg     rms          rms(c)
DAV:   1    -0.353004488344E+03    0.21134E-03   -0.15818E-01  5312   0.112E+00    0.101E-01
RMM:   2    -0.353004805701E+03   -0.31736E-03   -0.48489E-03  7666   0.196E-01    0.523E-02
RMM:   3    -0.353004784791E+03    0.20910E-04   -0.58139E-04  7403   0.528E-02    0.375E-02
RMM:   4    -0.353004772522E+03    0.12269E-04   -0.17175E-04  7196   0.208E-02    0.229E-02
RMM:   5    -0.353004773435E+03   -0.91245E-06   -0.63064E-05  4636   0.133E-02
  16 F= -.35300477E+03 E0= -.35301257E+03  d E =-.210892E-03
