 vasp.5.4.1 05Feb16 (build Jan 29 2020 16:04:39) complex                        
  
 executed on           IFC91_ompi date 2020.06.15  10:00:10
 running on  160 total cores
 distrk:  each k-point on   20 cores,    8 groups
 distr:  one band on NCORES_PER_BAND=   5 cores,    4 groups


--------------------------------------------------------------------------------------------------------


 INCAR:
 POTCAR:    PAW_PBE Hf 20Jan2003                  
 POTCAR:    PAW_PBE Nb_sv 25May2007               
 POTCAR:    PAW_PBE Ta 17Jan2003                  
 POTCAR:    PAW_PBE Zr_sv 04Jan2005               

 ----------------------------------------------------------------------------- 
|                                                                             |
|           W    W    AA    RRRRR   N    N  II  N    N   GGGG   !!!           |
|           W    W   A  A   R    R  NN   N  II  NN   N  G    G  !!!           |
|           W    W  A    A  R    R  N N  N  II  N N  N  G       !!!           |
|           W WW W  AAAAAA  RRRRR   N  N N  II  N  N N  G  GGG   !            |
|           WW  WW  A    A  R   R   N   NN  II  N   NN  G    G                |
|           W    W  A    A  R    R  N    N  II  N    N   GGGG   !!!           |
|                                                                             |
|      For optimal performance we recommend to set                            |
|        NCORE= 4 - approx SQRT( number of cores)                             |
|      NCORE specifies how many cores store one orbital (NPAR=cpu/NCORE).     |
|      This setting can  greatly improve the performance of VASP for DFT.     |
|      The default, NPAR=number of cores might be grossly inefficient         |
|      on modern multi-core architectures or massively parallel machines.     |
|      Do your own testing !!!!                                               |
|      Unfortunately you need to use the default for GW and RPA calculations. |
|      (for HF NCORE is supported but not extensively tested yet)             |
|                                                                             |
 ----------------------------------------------------------------------------- 


 ----------------------------------------------------------------------------- 
|                                                                             |
|           W    W    AA    RRRRR   N    N  II  N    N   GGGG   !!!           |
|           W    W   A  A   R    R  NN   N  II  NN   N  G    G  !!!           |
|           W    W  A    A  R    R  N N  N  II  N N  N  G       !!!           |
|           W WW W  AAAAAA  RRRRR   N  N N  II  N  N N  G  GGG   !            |
|           WW  WW  A    A  R   R   N   NN  II  N   NN  G    G                |
|           W    W  A    A  R    R  N    N  II  N    N   GGGG   !!!           |
|                                                                             |
|      You have enabled k-point parallelism (KPAR>1).                         |
|      This developmental code was originally  written by Paul Kent at ORNL,  |
|      and carefully double checked in Vienna.                                |
|      GW as well as linear response parallelism added by Martijn Marsman     |
|      and Georg Kresse.                                                      |
|      Carefully verify results versus KPAR=1.                                |
|      Report problems to Paul Kent and Vienna.                               |
|                                                                             |
 ----------------------------------------------------------------------------- 

 POTCAR:    PAW_PBE Hf 20Jan2003                  
   VRHFIN =Hf: 6s5d                                                             
   LEXCH  = PE                                                                  
   EATOM  =    75.9011 eV,    5.5786 Ry                                         
                                                                                
   TITEL  = PAW_PBE Hf 20Jan2003                                                
   LULTRA =        F    use ultrasoft PP ?                                      
   IUNSCR =        1    unscreen: 0-lin 1-nonlin 2-no                           
   RPACOR =    2.500    partial core radius                                     
   POMASS =  178.490; ZVAL   =    4.000    mass and valenz                      
   RCORE  =    3.000    outmost cutoff radius                                   
   RWIGS  =    3.050; RWIGS  =    1.614    wigner-seitz radius (au A)           
   ENMAX  =  220.334; ENMIN  =  165.250 eV                                      
   RCLOC  =    2.212    cutoff for local pot                                    
   LCOR   =        T    correct aug charges                                     
   LPAW   =        T    paw PP                                                  
   EAUG   =  335.116                                                            
   DEXC   =    0.000                                                            
   RMAX   =    3.077    core radius for proj-oper                               
   RAUG   =    1.300    factor for augmentation sphere                          
   RDEP   =    3.047    radius for radial grids                                 
   RDEPT  =    2.344    core radius for aug-charge                              
                                                                                
   Atomic configuration                                                         
   16 entries                                                                   
     n  l   j            E        occ.                                          
     1  0  0.50    -65259.4397   2.0000                                         
     2  0  0.50    -11157.9882   2.0000                                         
     2  1  1.50     -9795.2113   6.0000                                         
     3  0  0.50     -2541.4058   2.0000                                         
     3  1  1.50     -2134.4770   6.0000                                         
     3  2  2.50     -1653.5418  10.0000                                         
     4  0  0.50      -510.9575   2.0000                                         
     4  1  1.50      -377.5023   6.0000                                         
     4  2  2.50      -205.2085  10.0000                                         
     4  3  3.50       -15.4905  14.0000                                         
     5  0  0.50       -65.6020   2.0000                                         
     5  1  1.50       -34.2798   6.0000                                         
     5  2  2.50        -1.9877   3.0000                                         
     6  0  0.50        -4.7357   1.0000                                         
     6  1  1.50        -1.3606   0.0000                                         
     5  3  2.50        -1.3606   0.0000                                         
   Description                                                                  
     l       E           TYP  RCUT    TYP  RCUT                                 
     2     -1.9876627     23  2.500                                             
     2      0.0744703     23  2.500                                             
     0     -4.7356889     23  2.600                                             
     0      3.2364747     23  2.600                                             
     1     -1.3605826     23  3.000                                             
     1     27.2116520     23  3.000                                             
  local pseudopotential read in
  partial core-charges read in
  partial kinetic energy density read in
  atomic valenz-charges read in
  non local Contribution for L=           2  read in
    real space projection operators read in
  non local Contribution for L=           2  read in
    real space projection operators read in
  non local Contribution for L=           0  read in
    real space projection operators read in
  non local Contribution for L=           0  read in
    real space projection operators read in
  non local Contribution for L=           1  read in
    real space projection operators read in
  non local Contribution for L=           1  read in
    real space projection operators read in
    PAW grid and wavefunctions read in
 
   number of l-projection  operators is LMAX  =           6
   number of lm-projection operators is LMMAX =          18
 
 POTCAR:    PAW_PBE Nb_sv 25May2007               
   VRHFIN =Nb: 4p5s4d                                                           
   LEXCH  = PE                                                                  
   EATOM  =  1555.1913 eV,  114.3033 Ry                                         
                                                                                
   TITEL  = PAW_PBE Nb_sv 25May2007                                             
   LULTRA =        F    use ultrasoft PP ?                                      
   IUNSCR =        1    unscreen: 0-lin 1-nonlin 2-no                           
   RPACOR =    1.800    partial core radius                                     
   POMASS =   92.910; ZVAL   =   13.000    mass and valenz                      
   RCORE  =    2.400    outmost cutoff radius                                   
   RWIGS  =    2.400; RWIGS  =    1.270    wigner-seitz radius (au A)           
   ENMAX  =  293.235; ENMIN  =  219.927 eV                                      
   ICORE  =        3    local potential                                         
   LCOR   =        T    correct aug charges                                     
   LPAW   =        T    paw PP                                                  
   EAUG   =  455.659                                                            
   DEXC   =    0.000                                                            
   RMAX   =    2.456    core radius for proj-oper                               
   RAUG   =    1.300    factor for augmentation sphere                          
   RDEP   =    2.451    radius for radial grids                                 
   RDEPT  =    1.956    core radius for aug-charge                              
                                                                                
   Atomic configuration                                                         
   11 entries                                                                   
     n  l   j            E        occ.                                          
     1  0  0.50    -18805.2457   2.0000                                         
     2  0  0.50     -2630.2869   2.0000                                         
     2  1  1.50     -2348.4046   6.0000                                         
     3  0  0.50      -438.8757   2.0000                                         
     3  1  1.50      -346.7588   6.0000                                         
     3  2  2.50      -196.2560  10.0000                                         
     4  0  0.50       -58.3859   2.0000                                         
     5  0  0.50        -3.9816   1.0000                                         
     4  1  1.50       -34.5141   6.0000                                         
     4  2  2.50        -3.0408   4.0000                                         
     4  3  2.50        -1.3606   0.0000                                         
   Description                                                                  
     l       E           TYP  RCUT    TYP  RCUT                                 
     0    -58.3859094     23  2.200                                             
     0     -3.9816262     23  2.200                                             
     1    -34.5140738     23  2.200                                             
     1     13.6058260     23  2.200                                             
     2     -3.0408010     23  2.200                                             
     2     -0.1283038     23  2.200                                             
     3     -1.3605826     23  2.400                                             
  local pseudopotential read in
  partial core-charges read in
  partial kinetic energy density read in
  atomic valenz-charges read in
  non local Contribution for L=           0  read in
    real space projection operators read in
  non local Contribution for L=           0  read in
    real space projection operators read in
  non local Contribution for L=           1  read in
    real space projection operators read in
  non local Contribution for L=           1  read in
    real space projection operators read in
  non local Contribution for L=           2  read in
    real space projection operators read in
  non local Contribution for L=           2  read in
    real space projection operators read in
    PAW grid and wavefunctions read in
 
   number of l-projection  operators is LMAX  =           6
   number of lm-projection operators is LMMAX =          18
 
 POTCAR:    PAW_PBE Ta 17Jan2003                  
   VRHFIN =Ta:  6s5d                                                            
   LEXCH  = PE                                                                  
   EATOM  =   130.6506 eV,    9.6025 Ry                                         
                                                                                
   TITEL  = PAW_PBE Ta 17Jan2003                                                
   LULTRA =        F    use ultrasoft PP ?                                      
   IUNSCR =        1    unscreen: 0-lin 1-nonlin 2-no                           
   RPACOR =    2.330    partial core radius                                     
   POMASS =  180.948; ZVAL   =    5.000    mass and valenz                      
   RCORE  =    2.900    outmost cutoff radius                                   
   RWIGS  =    2.840; RWIGS  =    1.503    wigner-seitz radius (au A)           
   ENMAX  =  223.667; ENMIN  =  167.750 eV                                      
   RCLOC  =    2.205    cutoff for local pot                                    
   LCOR   =        T    correct aug charges                                     
   LPAW   =        T    paw PP                                                  
   EAUG   =  332.075                                                            
   DEXC   =    0.000                                                            
   RMAX   =    2.970    core radius for proj-oper                               
   RAUG   =    1.300    factor for augmentation sphere                          
   RDEP   =    3.060    radius for radial grids                                 
   RDEPT  =    2.354    core radius for aug-charge                              
                                                                                
   Atomic configuration                                                         
   16 entries                                                                   
     n  l   j            E        occ.                                          
     1  0  0.50    -67341.2807   2.0000                                         
     2  0  0.50    -11566.9376   2.0000                                         
     2  1  1.50    -10134.1182   6.0000                                         
     3  0  0.50     -2648.5620   2.0000                                         
     3  1  1.50     -2222.6012   6.0000                                         
     3  2  2.50     -1726.3120  10.0000                                         
     4  0  0.50      -538.6961   2.0000                                         
     4  1  1.50      -399.0129   6.0000                                         
     4  2  2.50      -220.3959  10.0000                                         
     4  3  3.50       -23.0374  14.0000                                         
     5  0  0.50       -71.2901   2.0000                                         
     5  1  1.50       -37.8225   6.0000                                         
     5  2  2.50        -2.6455   4.0000                                         
     6  0  0.50        -4.9623   1.0000                                         
     6  1  1.50        -1.3606   0.0000                                         
     5  3  2.50        -1.3606   0.0000                                         
   Description                                                                  
     l       E           TYP  RCUT    TYP  RCUT                                 
     2     -2.6455043     23  2.500                                             
     2     -0.6258895     23  2.500                                             
     0     -4.9622780     23  2.500                                             
     0      4.7531321     23  2.500                                             
     1     -1.3605826     23  2.900                                             
     1     27.2116520     23  2.900                                             
  local pseudopotential read in
  partial core-charges read in
  partial kinetic energy density read in
  atomic valenz-charges read in
  non local Contribution for L=           2  read in
    real space projection operators read in
  non local Contribution for L=           2  read in
    real space projection operators read in
  non local Contribution for L=           0  read in
    real space projection operators read in
  non local Contribution for L=           0  read in
    real space projection operators read in
  non local Contribution for L=           1  read in
    real space projection operators read in
  non local Contribution for L=           1  read in
    real space projection operators read in
    PAW grid and wavefunctions read in
 
   number of l-projection  operators is LMAX  =           6
   number of lm-projection operators is LMMAX =          18
 
 POTCAR:    PAW_PBE Zr_sv 04Jan2005               
   VRHFIN =Zr: 4s4p5s4d                                                         
   LEXCH  = PE                                                                  
   EATOM  =  1284.2219 eV,   94.3876 Ry                                         
                                                                                
   TITEL  = PAW_PBE Zr_sv 04Jan2005                                             
   LULTRA =        F    use ultrasoft PP ?                                      
   IUNSCR =        1    unscreen: 0-lin 1-nonlin 2-no                           
   RPACOR =    2.200    partial core radius                                     
   POMASS =   91.224; ZVAL   =   12.000    mass and valenz                      
   RCORE  =    2.500    outmost cutoff radius                                   
   RWIGS  =    3.070; RWIGS  =    1.625    wigner-seitz radius (au A)           
   ENMAX  =  229.898; ENMIN  =  172.424 eV                                      
   ICORE  =        3    local potential                                         
   LCOR   =        T    correct aug charges                                     
   LPAW   =        T    paw PP                                                  
   EAUG   =  461.257                                                            
   DEXC   =    0.000                                                            
   RMAX   =    2.561    core radius for proj-oper                               
   RAUG   =    1.300    factor for augmentation sphere                          
   RDEP   =    2.597    radius for radial grids                                 
   RDEPT  =    2.007    core radius for aug-charge                              
                                                                                
   Atomic configuration                                                         
   11 entries                                                                   
     n  l   j            E        occ.                                          
     1  0  0.50    -17820.0161   2.0000                                         
     2  0  0.50     -2467.0882   2.0000                                         
     2  1  1.50     -2199.6095   6.0000                                         
     3  0  0.50      -402.4863   2.0000                                         
     3  1  1.50      -315.3675   6.0000                                         
     3  2  2.50      -172.4472  10.0000                                         
     4  0  0.50       -52.4146   2.0000                                         
     5  0  0.50        -3.8421   1.0000                                         
     4  1  1.50       -30.5054   6.0000                                         
     4  2  2.50        -2.3341   3.0000                                         
     4  3  2.50        -1.3606   0.0000                                         
   Description                                                                  
     l       E           TYP  RCUT    TYP  RCUT                                 
     0    -52.4145962     23  2.200                                             
     0     -3.8421270     23  2.500                                             
     1    -30.5053914     23  2.200                                             
     1     20.4087390     23  2.200                                             
     2     -2.3340816     23  2.500                                             
     2     -0.6120942     23  2.500                                             
     3     -4.0817478     23  2.500                                             
  local pseudopotential read in
  partial core-charges read in
  partial kinetic energy density read in
  atomic valenz-charges read in
  non local Contribution for L=           0  read in
    real space projection operators read in
  non local Contribution for L=           0  read in
    real space projection operators read in
  non local Contribution for L=           1  read in
    real space projection operators read in
  non local Contribution for L=           1  read in
    real space projection operators read in
  non local Contribution for L=           2  read in
    real space projection operators read in
  non local Contribution for L=           2  read in
    real space projection operators read in
    PAW grid and wavefunctions read in
 
   number of l-projection  operators is LMAX  =           6
   number of lm-projection operators is LMMAX =          18
 
 Optimization of the real space projectors (new method)

 maximal supplied QI-value         = 12.47
 optimisation between [QCUT,QGAM] = [  8.86, 17.71] = [ 21.96, 87.83] Ry 
 Optimized for a Real-space Cutoff    1.90 Angstroem

   l    n(q)    QCUT    max X(q) W(low)/X(q) W(high)/X(q)  e(spline) 
   2      9     8.855    48.111    0.22E-03    0.80E-04    0.10E-05
   2      9     8.855    40.545    0.21E-03    0.76E-04    0.95E-06
   0     10     8.855   121.658    0.27E-04    0.12E-04    0.11E-06
   0     10     8.855    71.177    0.22E-04    0.11E-04    0.99E-07
   1     10     8.855    14.183    0.65E-04    0.10E-03    0.98E-07
   1     10     8.855     8.257    0.43E-04    0.73E-04    0.72E-07
 Optimization of the real space projectors (new method)

 maximal supplied QI-value         = 15.68
 optimisation between [QCUT,QGAM] = [  8.78, 17.72] = [ 21.60, 87.97] Ry 
 Optimized for a Real-space Cutoff    1.96 Angstroem

   l    n(q)    QCUT    max X(q) W(low)/X(q) W(high)/X(q)  e(spline) 
   0     10     8.783    10.201    0.29E-04    0.25E-05    0.69E-07
   0     10     8.783     8.174    0.45E-04    0.57E-05    0.14E-06
   1     10     8.783     3.488    0.76E-05    0.24E-04    0.95E-07
   1     10     8.783     4.917    0.78E-04    0.14E-03    0.46E-06
   2      9     8.783   153.744    0.22E-03    0.34E-04    0.15E-05
   2      9     8.783   126.342    0.22E-03    0.35E-04    0.15E-05
 Optimization of the real space projectors (new method)

 maximal supplied QI-value         = 12.85
 optimisation between [QCUT,QGAM] = [  8.87, 17.73] = [ 22.01, 88.06] Ry 
 Optimized for a Real-space Cutoff    1.90 Angstroem

   l    n(q)    QCUT    max X(q) W(low)/X(q) W(high)/X(q)  e(spline) 
   2      9     8.867    62.315    0.23E-03    0.62E-04    0.11E-05
   2      9     8.867    52.185    0.23E-03    0.62E-04    0.11E-05
   0     10     8.867   103.837    0.15E-04    0.23E-04    0.98E-07
   0     10     8.867    59.728    0.12E-04    0.21E-04    0.89E-07
   1     10     8.867    13.958    0.50E-04    0.22E-04    0.14E-06
   1     10     8.867     8.441    0.36E-04    0.19E-04    0.98E-07
 Optimization of the real space projectors (new method)

 maximal supplied QI-value         = 15.12
 optimisation between [QCUT,QGAM] = [  8.77, 17.69] = [ 21.53, 87.61] Ry 
 Optimized for a Real-space Cutoff    1.74 Angstroem

   l    n(q)    QCUT    max X(q) W(low)/X(q) W(high)/X(q)  e(spline) 
   0      9     8.768    12.107    0.28E-04    0.53E-06    0.29E-07
   0      9     8.768     9.948    0.36E-04    0.50E-05    0.64E-07
   1      9     8.768     3.563    0.14E-04    0.16E-04    0.88E-07
   1      9     8.768     4.524    0.21E-03    0.33E-03    0.19E-06
   2      8     8.768    87.261    0.19E-03    0.25E-03    0.24E-06
   2      8     8.768    70.950    0.19E-03    0.24E-03    0.24E-06
  PAW_PBE Hf 20Jan2003                  :
 energy of atom  1       EATOM=  -75.9011
 kinetic energy error for atom=    0.0071 (will be added to EATOM!!)
  PAW_PBE Nb_sv 25May2007               :
 energy of atom  2       EATOM=-1555.1913
 kinetic energy error for atom=    0.0655 (will be added to EATOM!!)
  PAW_PBE Ta 17Jan2003                  :
 energy of atom  3       EATOM= -130.6506
 kinetic energy error for atom=    0.0121 (will be added to EATOM!!)
  PAW_PBE Zr_sv 04Jan2005               :
 energy of atom  4       EATOM=-1284.2219
 kinetic energy error for atom=    0.0483 (will be added to EATOM!!)
 
 
 POSCAR: generated by pypospack                  
  positions in direct lattice
  No initial velocities read in
 exchange correlation table for  LEXCH =        8
   RHO(1)=    0.500       N(1)  =     2000
   RHO(2)=  100.500       N(2)  =     4000
 


--------------------------------------------------------------------------------------------------------


 ion  position               nearest neighbor table
   1  0.229  0.171  0.487-  23 2.91   6 2.96  14 3.02  12 3.02  11 3.03  17 3.09  16 3.09  28 3.10
                            34 3.11  30 3.21  36 3.32  30 3.74
   2  0.266  0.507  0.168-  10 2.97  16 2.97  19 2.98  24 2.99  14 3.01  26 3.04   3 3.06   4 3.08
                            22 3.23   5 3.23  36 3.26  15 3.33  28 3.42  22 3.72
   3  0.998  0.340  1.000-  20 2.92  21 2.96  15 2.96  31 3.02  22 3.02   2 3.06  33 3.09  28 3.10
                            16 3.25  17 3.26   4 3.30  19 3.44  29 3.48
   4  0.973  0.661  0.005-  22 2.91  21 2.95  13 2.97  10 3.02   9 3.05  15 3.06  35 3.08   2 3.08
                             5 3.10   3 3.30  26 3.32   8 3.46  29 3.48
   5  0.262  0.822  0.168-  11 2.93  24 2.95  12 2.96  26 2.97  10 3.04  32 3.05  29 3.09   4 3.10
                             2 3.23  18 3.28   9 3.30  13 3.33  28 3.61
   6  0.466  0.005  0.659-  18 2.92  20 2.93   1 2.96  23 2.97   9 3.02  35 3.07  30 3.09   7 3.10
                            31 3.14  12 3.22  34 3.41  32 3.47  27 3.62
   7  0.757  0.833  0.505-  11 2.91  12 2.92  24 2.92  26 2.92  27 3.02   8 3.03  23 3.06   6 3.10
                            35 3.17  13 3.30  25 3.35  30 3.38  18 3.43
   8  0.012  0.657  0.667-  36 2.95  15 2.96  25 2.97  18 3.01  35 3.01  21 3.01   9 3.03   7 3.03
                            17 3.18  27 3.39  23 3.44  26 3.45   4 3.46  27 3.56
   9  0.269  0.816  0.845-  10 2.95  27 2.96  32 2.99  23 3.02   6 3.02   8 3.03   4 3.05  29 3.13
                            15 3.19   5 3.30  35 3.33  35 3.65
  10  0.537  0.660  0.002-  22 2.76  21 2.79  13 2.93   9 2.95   2 2.97  15 2.98  35 2.98   4 3.02
                             5 3.04
  11  0.996  0.982  0.323-  13 2.76   7 2.91  18 2.92   5 2.93  28 3.00  30 3.02   1 3.03  33 3.10
                            26 3.22  29 3.24
  12  0.497  0.986  0.345-  18 2.75  13 2.85   7 2.92   5 2.96   1 3.02  33 3.02  30 3.06  28 3.06
                             6 3.22  24 3.25
  13  0.742  0.832  0.182-  11 2.76  24 2.76  26 2.83  12 2.85  10 2.93   4 2.97  29 3.04  32 3.14
                             7 3.30   5 3.33
  14  0.514  0.345  0.345-  22 2.78  25 2.81  36 2.82  33 2.85   2 3.01   1 3.02  30 3.02  28 3.02
                            34 3.28
  15  0.263  0.505  0.842-  19 2.81  27 2.86  17 2.92  34 2.94   8 2.96   3 2.96  10 2.98   4 3.06
                             9 3.19  21 3.31   2 3.33
  16  0.978  0.351  0.318-  22 2.73  25 2.87  33 2.89  36 2.95   2 2.97  28 2.97  30 3.04   1 3.09
                             3 3.25  26 3.25
  17  0.007  0.347  0.680-  20 2.83  21 2.84  31 2.85  15 2.92  36 2.97  25 3.08   1 3.09  30 3.14
                             8 3.18   3 3.26  34 3.38
  18  0.251  0.830  0.489-  12 2.75  23 2.87  24 2.91  11 2.92   6 2.92  26 2.97   8 3.01  27 3.09
                             5 3.28  36 3.43   7 3.43
  19  0.494  0.336  0.988-  15 2.81  21 2.84  20 2.95   2 2.98  22 3.01  33 3.04  31 3.06  28 3.08
                            34 3.28  32 3.34   3 3.44
  20  0.234  0.174  0.829-  23 2.83  17 2.83   3 2.92   6 2.93  19 2.95  34 2.95  29 3.01  32 3.04
                            31 3.26
  21  0.740  0.495  0.832-  10 2.79  19 2.84  17 2.84  27 2.90  34 2.91   4 2.95   3 2.96   8 3.01
                            15 3.31  31 3.35  25 3.44  22 3.48  35 3.50
  22  0.730  0.498  0.172-  16 2.73  10 2.76  14 2.78  24 2.85   4 2.91  26 2.97  19 3.01   3 3.02
                             2 3.23  25 3.30  33 3.32  21 3.48   2 3.72
  23  0.039  0.993  0.668-  20 2.83  18 2.87   1 2.91   6 2.97  35 2.98   9 3.02  31 3.04   7 3.06
                            30 3.12   8 3.44  29 3.46
  24  0.518  0.670  0.338-  13 2.76  25 2.84  22 2.85  18 2.91   7 2.92   5 2.95   2 2.99  36 3.00
                            26 3.24  12 3.25  27 3.33
  25  0.752  0.507  0.495-  14 2.81  24 2.84  26 2.85  27 2.86  16 2.87   8 2.97  34 3.03  17 3.08
                            22 3.30   7 3.35  36 3.43  21 3.44  36 3.52  30 3.53
  26  0.985  0.668  0.330-  13 2.83  25 2.85   7 2.92  22 2.97   5 2.97  18 2.97  36 3.01   2 3.04
                            11 3.22  24 3.24  16 3.25   4 3.32   8 3.45
  27  0.500  0.652  0.664-  25 2.86  15 2.86  21 2.90   9 2.96  35 2.99  36 3.00   7 3.02  18 3.09
                            34 3.23  24 3.33   8 3.39   8 3.56   6 3.62
  28  0.252  0.174  0.183-  16 2.97  11 3.00  14 3.02  32 3.04  12 3.06  19 3.08   1 3.10  29 3.10
                             3 3.10  33 3.31   2 3.42   5 3.61  33 3.63
  29  0.998  0.000  0.007-  20 3.01  13 3.04  31 3.05   5 3.09  28 3.10  33 3.11  35 3.11   9 3.13
                            11 3.24  23 3.46  32 3.47  32 3.48   4 3.48   3 3.48
  30  0.767  0.163  0.499-  14 3.02  11 3.02  16 3.04  12 3.06   6 3.09  34 3.11  23 3.12  17 3.14
                             1 3.21  31 3.27  33 3.29   7 3.38  25 3.53   1 3.74
  31  0.765  0.169  0.820-  17 2.85   3 3.02  34 3.02  23 3.04  32 3.05  29 3.05  19 3.06   6 3.14
                            20 3.26  30 3.27  21 3.35  35 3.41  33 3.66
  32  0.498  0.010  0.998-  33 2.97   9 2.99  20 3.04  28 3.04  31 3.05   5 3.05  35 3.09  13 3.14
                            19 3.34   6 3.47  29 3.47  29 3.48
  33  0.729  0.174  0.178-  14 2.85  16 2.89  32 2.97  12 3.02  19 3.04   3 3.09  11 3.10  29 3.11
                            30 3.29  28 3.31  22 3.32  28 3.63  31 3.66
  34  0.493  0.337  0.666-  21 2.91  15 2.94  20 2.95  36 3.00  31 3.02  25 3.03   1 3.11  30 3.11
                            27 3.23  14 3.28  19 3.28  17 3.38   6 3.41
  35  0.746  0.836  0.816-  10 2.98  23 2.98  27 2.99   8 3.01   6 3.07   4 3.08  32 3.09  29 3.11
                             7 3.17   9 3.33  31 3.41  21 3.50   9 3.65
  36  0.245  0.495  0.487-  14 2.82  16 2.95   8 2.95  17 2.97  34 3.00  24 3.00  27 3.00  26 3.01
                             2 3.26   1 3.32  25 3.43  18 3.43  25 3.52
 
  LATTYP: Found a triclinic cell.
 ALAT       =    29.7200019597
 B/A-ratio  =     0.3449969356
 C/A-ratio  =     0.3433858344
 COS(alpha) =     0.0003248761
 COS(beta)  =     0.6843438821
 COS(gamma) =     0.6909521135
  
  Lattice vectors:
  
 A1 = (   6.8595747303, -20.5198870744, -20.3754505584)
 A2 = (   0.0161671127, -10.2532966141,  -0.0022247863)
 A3 = (  -0.0577546532,  -0.0011922061, -10.2052641772)


Analysis of symmetry for initial positions (statically):
=====================================================================
 Subroutine PRICEL returns:
 Original cell was already a primitive cell.
 

 Routine SETGRP: Setting up the symmetry group for a 
 triclinic supercell.


 Subroutine GETGRP returns: Found  1 space group operations
 (whereof  1 operations were pure point group operations)
 out of a pool of  2 trial point group operations.


The static configuration has the point symmetry C_1 .


Analysis of symmetry for dynamics (positions and initial velocities):
=====================================================================
 Subroutine PRICEL returns:
 Original cell was already a primitive cell.
 

 Routine SETGRP: Setting up the symmetry group for a 
 triclinic supercell.


 Subroutine GETGRP returns: Found  1 space group operations
 (whereof  1 operations were pure point group operations)
 out of a pool of  2 trial point group operations.


The dynamic configuration has the point symmetry C_1 .


 Subroutine INISYM returns: Found  1 space group operations
 (whereof  1 operations are pure point group operations),
 and found     1 'primitive' translations

 
 
 KPOINTS: k-points                                

Automatic generation of k-mesh.
Space group operators:
 irot       det(A)        alpha          n_x          n_y          n_z        tau_x        tau_y        tau_z
    1     1.000000     0.000000     1.000000     0.000000     0.000000     0.000000     0.000000     0.000000
 
 Subroutine IBZKPT returns following result:
 ===========================================
 
 Found     14 irreducible k-points:
 
 Following reciprocal coordinates:
            Coordinates               Weight
  0.000000  0.000000  0.000000      1.000000
  0.333333 -0.000000 -0.000000      2.000000
 -0.000000  0.333333  0.000000      2.000000
  0.333333  0.333333 -0.000000      2.000000
 -0.333333  0.333333  0.000000      2.000000
  0.000000  0.000000  0.333333      2.000000
  0.333333 -0.000000  0.333333      2.000000
 -0.333333  0.000000  0.333333      2.000000
  0.000000  0.333333  0.333333      2.000000
  0.333333  0.333333  0.333333      2.000000
 -0.333333  0.333333  0.333333      2.000000
  0.000000 -0.333333  0.333333      2.000000
  0.333333 -0.333333  0.333333      2.000000
 -0.333333 -0.333333  0.333333      2.000000
 
 Following cartesian coordinates:
            Coordinates               Weight
  0.000000  0.000000  0.000000      1.000000
  0.239506  0.000378 -0.001355      2.000000
  0.000255  0.162170 -0.000020      2.000000
  0.239761  0.162548 -0.001376      2.000000
 -0.239251  0.161792  0.001335      2.000000
 -0.000928 -0.000037  0.162938      2.000000
  0.238578  0.000341  0.161582      2.000000
 -0.240433 -0.000415  0.164293      2.000000
 -0.000673  0.162133  0.162917      2.000000
  0.238833  0.162511  0.161562      2.000000
 -0.240178  0.161755  0.164273      2.000000
 -0.001183 -0.162207  0.162958      2.000000
  0.238323 -0.161829  0.161603      2.000000
 -0.240688 -0.162584  0.164314      2.000000
 


--------------------------------------------------------------------------------------------------------




 Dimension of arrays:
   k-points           NKPTS =     14   k-points in BZ     NKDIM =     14   number of bands    NBANDS=    196
   number of dos      NEDOS =    301   number of ions     NIONS =     36
   non local maximal  LDIM  =      6   non local SUM 2l+1 LMDIM =     18
   total plane-waves  NPLWV = 144000
   max r-space proj   IRMAX =   6307   max aug-charges    IRDMAX=  13691
   dimension x,y,z NGX =    40 NGY =   60 NGZ =   60
   dimension x,y,z NGXF=    80 NGYF=  120 NGZF=  120
   support grid    NGXF=    80 NGYF=  120 NGZF=  120
   ions per type =               9  11   7   9
 NGX,Y,Z   is equivalent  to a cutoff of   9.58,  9.73,  9.77 a.u.
 NGXF,Y,Z  is equivalent  to a cutoff of  19.16, 19.46, 19.55 a.u.


 I would recommend the setting:
   dimension x,y,z NGX =    39 NGY =   58 NGZ =   58
 SYSTEM =  automatically generated by mexm         
 POSCAR =  generated by pypospack                  

 Startparameter for this run:
   NWRITE =      2    write-flag & timer
   PREC   = accura    normal or accurate (medium, high low for compatibility)
   ISTART =      0    job   : 0-new  1-cont  2-samecut
   ICHARG =      2    charge: 1-file 2-atom 10-const
   ISPIN  =      1    spin polarized calculation?
   LNONCOLLINEAR =      F non collinear calculations
   LSORBIT =      F    spin-orbit coupling
   INIWAV =      1    electr: 0-lowe 1-rand  2-diag
   LASPH  =      F    aspherical Exc in radial PAW
   METAGGA=      F    non-selfconsistent MetaGGA calc.

 Electronic Relaxation 1
   ENCUT  =  300.0 eV  22.05 Ry    4.70 a.u.   9.81 14.48 14.41*2*pi/ulx,y,z
   ENINI  =  300.0     initial cutoff
   ENAUG  =  461.3 eV  augmentation charge cutoff
   NELM   =     70;   NELMIN=  2; NELMDL= -5     # of ELM steps 
   EDIFF  = 0.1E-04   stopping-criterion for ELM
   LREAL  =      T    real-space projection
   NLSPLINE    = F    spline interpolate recip. space projectors
   LCOMPAT=      F    compatible to vasp.4.4
   GGA_COMPAT  = T    GGA compatible to vasp.4.4-vasp.4.6
   LMAXPAW     = -100 max onsite density
   LMAXMIX     =    2 max onsite mixed and CHGCAR
   VOSKOWN=      0    Vosko Wilk Nusair interpolation
   ROPT   =   -0.00025  -0.00025  -0.00025  -0.00025
 Ionic relaxation
   EDIFFG = -.1E-01   stopping-criterion for IOM
   NSW    =    300    number of steps for IOM
   NBLOCK =      1;   KBLOCK =    300    inner block; outer block 
   IBRION =      2    ionic relax: 0-MD 1-quasi-New 2-CG
   NFREE  =      1    steps in history (QN), initial steepest desc. (CG)
   ISIF   =      3    stress and relaxation
   IWAVPR =     11    prediction:  0-non 1-charg 2-wave 3-comb
   ISYM   =      1    0-nonsym 1-usesym 2-fastsym
   LCORR  =      T    Harris-Foulkes like correction to forces

   POTIM  = 0.1500    time-step for ionic-motion
   TEIN   =    0.0    initial temperature
   TEBEG  =    0.0;   TEEND  =   0.0 temperature during run
   SMASS  =  -3.00    Nose mass-parameter (am)
   estimated Nose-frequenzy (Omega)   =  0.10E-29 period in steps =****** mass=  -0.110E-26a.u.
   SCALEE = 1.0000    scale energy and forces
   NPACO  =    256;   APACO  = 16.0  distance and # of slots for P.C.
   PSTRESS=    0.0 pullay stress

  Mass of Ions in am
   POMASS = 178.49 92.91180.95 91.22
  Ionic Valenz
   ZVAL   =   4.00 13.00  5.00 12.00
  Atomic Wigner-Seitz radii
   RWIGS  =  -1.00 -1.00 -1.00 -1.00
  virtual crystal weights 
   VCA    =   1.00  1.00  1.00  1.00
   NELECT =     322.0000    total number of electrons
   NUPDOWN=      -1.0000    fix difference up-down

 DOS related values:
   EMIN   =  10.00;   EMAX   =-10.00  energy-range for DOS
   EFERMI =   0.00
   ISMEAR =     1;   SIGMA  =   0.15  broadening in eV -4-tet -1-fermi 0-gaus

 Electronic relaxation 2 (details)
   IALGO  =     68    algorithm
   LDIAG  =      T    sub-space diagonalisation (order eigenvalues)
   LSUBROT=      F    optimize rotation matrix (better conditioning)
   TURBO    =      0    0=normal 1=particle mesh
   IRESTART =      0    0=no restart 2=restart with 2 vectors
   NREBOOT  =      0    no. of reboots
   NMIN     =      0    reboot dimension
   EREF     =   0.00    reference energy to select bands
   IMIX   =      4    mixing-type and parameters
     AMIX     =   0.40;   BMIX     =  1.00
     AMIX_MAG =   1.60;   BMIX_MAG =  1.00
     AMIN     =   0.10
     WC   =   100.;   INIMIX=   1;  MIXPRE=   1;  MAXMIX= -45

 Intra band minimization:
   WEIMIN = 0.0010     energy-eigenvalue tresh-hold
   EBREAK =  0.13E-07  absolut break condition
   DEPER  =   0.30     relativ break condition  

   TIME   =   0.40     timestep for ELM

  volume/ion in A,a.u.               =      20.18       136.18
  Fermi-wavevector in a.u.,A,eV,Ry     =   1.248223  2.358799 21.198690  1.558060
  Thomas-Fermi vector in A             =   2.382319
 
 Write flags
   LWAVE  =      F    write WAVECAR
   LCHARG =      F    write CHGCAR
   LVTOT  =      F    write LOCPOT, total local potential
   LVHAR  =      F    write LOCPOT, Hartree potential only
   LELF   =      F    write electronic localiz. function (ELF)
   LORBIT =      0    0 simple, 1 ext, 2 COOP (PROOUT)


 Dipole corrections
   LMONO  =      F    monopole corrections only (constant potential shift)
   LDIPOL =      F    correct potential (dipole corrections)
   IDIPOL =      0    1-x, 2-y, 3-z, 4-all directions 
   EPSILON=  1.0000000 bulk dielectric constant

 Exchange correlation treatment:
   GGA     =    --    GGA type
   LEXCH   =     8    internal setting for exchange type
   VOSKOWN=      0    Vosko Wilk Nusair interpolation
   LHFCALC =     F    Hartree Fock is set to
   LHFONE  =     F    Hartree Fock one center treatment
   AEXX    =    0.0000 exact exchange contribution

 Linear response parameters
   LEPSILON=     F    determine dielectric tensor
   LRPA    =     F    only Hartree local field effects (RPA)
   LNABLA  =     F    use nabla operator in PAW spheres
   LVEL    =     F    velocity operator in full k-point grid
   LINTERFAST=   F  fast interpolation
   KINTER  =     0    interpolate to denser k-point grid
   CSHIFT  =0.1000    complex shift for real part using Kramers Kronig
   OMEGAMAX=  -1.0    maximum frequency
   DEG_THRESHOLD= 0.2000000E-02 threshold for treating states as degnerate
   RTIME   =    0.100 relaxation time in fs

 Orbital magnetization related:
   ORBITALMAG=     F  switch on orbital magnetization
   LCHIMAG   =     F  perturbation theory with respect to B field
   DQ        =  0.001000  dq finite difference perturbation B field



--------------------------------------------------------------------------------------------------------


 conjugate gradient relaxation of ions
 charge density and potential will be updated during run
 non-spin polarized calculation
 RMM-DIIS sequential band-by-band and
  variant of blocked Davidson during initial phase
 perform sub-space diagonalisation
    before iterative eigenvector-optimisation
 modified Broyden-mixing scheme, WC =      100.0
 initial mixing is a Kerker type mixing with AMIX =  0.4000 and BMIX =      1.0000
 Hartree-type preconditioning will be used
 using additional bands           35
 real space projection scheme for non local part
 use partial core corrections
 calculate Harris-corrections to forces 
   (improved forces if not selfconsistent)
 use gradient corrections 
 use of overlap-Matrix (Vanderbilt PP)
 Methfessel and Paxton  Order N= 1 SIGMA  =   0.15


--------------------------------------------------------------------------------------------------------


  energy-cutoff  :      300.00
  volume of cell :      726.45
      direct lattice vectors                 reciprocal lattice vectors
     6.942749811 -0.010909434  0.039527368     0.144040147  0.000227295 -0.000815193
    -0.016167113 10.253296614  0.002224786     0.000153323  0.097529852 -0.000012261
     0.057754653  0.001192206 10.205264177    -0.000557935 -0.000022142  0.097991804

  length of vectors
     6.942870903 10.253309601 10.205427671     0.144042633  0.097529974  0.097993395


 
 k-points in units of 2pi/SCALE and weight: k-points                                
   0.00000000  0.00000000  0.00000000       0.037
   0.23950563  0.00037794 -0.00135548       0.074
   0.00025494  0.16216971 -0.00002039       0.074
   0.23976058  0.16254765 -0.00137587       0.074
  -0.23925069  0.16179177  0.00133509       0.074
  -0.00092772 -0.00003682  0.16293783       0.074
   0.23857792  0.00034112  0.16158235       0.074
  -0.24043335 -0.00041476  0.16429331       0.074
  -0.00067278  0.16213290  0.16291744       0.074
   0.23883286  0.16251084  0.16156197       0.074
  -0.24017841  0.16175496  0.16427292       0.074
  -0.00118266 -0.16220653  0.16295822       0.074
   0.23832298 -0.16182859  0.16160274       0.074
  -0.24068829 -0.16258447  0.16431370       0.074
 
 k-points in reciprocal lattice and weights: k-points                                
   0.00000000  0.00000000  0.00000000       0.037
   0.33333333 -0.00000000 -0.00000000       0.074
  -0.00000000  0.33333333  0.00000000       0.074
   0.33333333  0.33333333 -0.00000000       0.074
  -0.33333333  0.33333333  0.00000000       0.074
   0.00000000  0.00000000  0.33333333       0.074
   0.33333333 -0.00000000  0.33333333       0.074
  -0.33333333  0.00000000  0.33333333       0.074
   0.00000000  0.33333333  0.33333333       0.074
   0.33333333  0.33333333  0.33333333       0.074
  -0.33333333  0.33333333  0.33333333       0.074
   0.00000000 -0.33333333  0.33333333       0.074
   0.33333333 -0.33333333  0.33333333       0.074
  -0.33333333 -0.33333333  0.33333333       0.074
 
 position of ions in fractional coordinates (direct lattice) 
   0.22936400  0.17114500  0.48667600
   0.26571100  0.50671800  0.16774900
   0.99796200  0.33955700  0.99960800
   0.97258100  0.66125300  0.00499500
   0.26246500  0.82180500  0.16805500
   0.46628400  0.00491000  0.65915900
   0.75667800  0.83289900  0.50548800
   0.01245800  0.65727200  0.66678600
   0.26854600  0.81625900  0.84482600
   0.53747600  0.65951000  0.00171100
   0.99625800  0.98205300  0.32332100
   0.49666900  0.98602100  0.34473100
   0.74166300  0.83172600  0.18196600
   0.51414700  0.34491700  0.34451700
   0.26301300  0.50491400  0.84160400
   0.97754400  0.35136600  0.31778900
   0.00660100  0.34738300  0.68046400
   0.25053500  0.82971600  0.48927800
   0.49363400  0.33576600  0.98789900
   0.23377600  0.17387900  0.82935700
   0.74011800  0.49489600  0.83182500
   0.73022600  0.49774900  0.17237400
   0.03938800  0.99253000  0.66843600
   0.51795600  0.66971300  0.33828600
   0.75178200  0.50660500  0.49501300
   0.98467100  0.66839800  0.33001300
   0.49999700  0.65227400  0.66360000
   0.25218000  0.17365100  0.18337700
   0.99756100  0.00022300  0.00659900
   0.76685300  0.16282200  0.49909000
   0.76503400  0.16878800  0.81988500
   0.49759700  0.01022100  0.99781900
   0.72915100  0.17436200  0.17796900
   0.49258200  0.33730600  0.66603400
   0.74634800  0.83615700  0.81645300
   0.24518600  0.49524300  0.48724800
 
 position of ions in cartesian coordinates  (Angst):
   1.61775775  1.75287844  4.97610407
   1.84626111  5.19283119  1.72355306
   6.98084284  3.47188318 10.24146597
   6.74198449  6.76941879  0.09089001
   1.81864857  8.42354744  1.72724856
   3.27528327  0.04604265  6.74533363
   5.26915475  8.53230821  5.19040109
   0.11437658  6.73986381  6.80668200
   1.90004377  8.36742316  8.63410343
   3.72099784  6.75629013  0.04017349
   6.91956637 10.05879755  3.34114053
   3.45221731 10.10495839  3.53989663
   5.14624343  8.52005920  1.88817750
   3.58391514  3.53133799  3.53697724
   1.86647700  5.17516705  8.60031069
   6.79951664  3.59237424  3.28254215
   0.07951287  3.56256018  6.94534866
   1.75424579  8.50517438  5.00496018
   3.47880476  3.43850090 10.10202934
   1.66813638  1.78127136  8.47343468
   5.17849483  5.06723292  8.51934983
   5.07168466  5.09580729  1.78909350
   0.29601997 10.17707170  6.82533104
   3.60474919  6.86151874  3.47426140
   5.23983330  5.18675997  5.08258149
   6.84457812  6.84293419  3.40827834
   3.49913468  6.68329526  6.79342804
   1.75860609  1.77796269  1.88176508
   6.92619396 -0.00858847  0.10677600
   5.35026093  1.66169135  5.12401922
   5.35606302  1.72326481  8.39775832
   3.51215492  0.10056005 10.20269794
   5.06977258  1.78004286  1.84543000
   3.45288689  3.45391873  6.81727382
   5.21534315  8.56619688  8.36348000
   1.72239925  5.07577943  4.98328793
 


--------------------------------------------------------------------------------------------------------


 k-point  1 :   0.0000 0.0000 0.0000  plane waves:    8615
 k-point  2 :   0.3333-0.0000-0.0000  plane waves:    8585
 k-point  3 :  -0.0000 0.3333 0.0000  plane waves:    8571
 k-point  4 :   0.3333 0.3333-0.0000  plane waves:    8575
 k-point  5 :  -0.3333 0.3333 0.0000  plane waves:    8577
 k-point  6 :   0.0000 0.0000 0.3333  plane waves:    8575
 k-point  7 :   0.3333-0.0000 0.3333  plane waves:    8572
 k-point  8 :  -0.3333 0.0000 0.3333  plane waves:    8564
 k-point  9 :   0.0000 0.3333 0.3333  plane waves:    8564
 k-point 10 :   0.3333 0.3333 0.3333  plane waves:    8576
 k-point 11 :  -0.3333 0.3333 0.3333  plane waves:    8574
 k-point 12 :   0.0000-0.3333 0.3333  plane waves:    8566
 k-point 13 :   0.3333-0.3333 0.3333  plane waves:    8582
 k-point 14 :  -0.3333-0.3333 0.3333  plane waves:    8577

 maximum and minimum number of plane-waves per node :      1733     1702

 maximum number of plane-waves:      8615
 maximum index in each direction: 
   IXMAX=   10   IYMAX=   14   IZMAX=   14
   IXMIN=  -10   IYMIN=  -14   IZMIN=  -14

 WARNING: aliasing errors must be expected set NGX to  42 to avoid them
 NGY is ok and might be reduce to  58
 NGZ is ok and might be reduce to  58
 aliasing errors are usually negligible using standard VASP settings
 and one can safely disregard these warnings

 real space projection operators:
  total allocation   :      27269.72 KBytes
  max/ min on nodes  :       5500.12       5398.03


 parallel 3D FFT for wavefunctions:
    minimum data exchange during FFTs selected (reduces bandwidth)
 parallel 3D FFT for charge:
    minimum data exchange during FFTs selected (reduces bandwidth)


 total amount of memory used by VASP on root node    69375. kBytes
========================================================================

   base      :      30000. kBytes
   nonlr-proj:      10487. kBytes
   fftplans  :       2814. kBytes
   grid      :       5360. kBytes
   one-center:        124. kBytes
   wavefun   :      20590. kBytes
 
     INWAV:  cpu time    0.0000: real time    0.0000
 Broyden mixing: mesh for mixing (old mesh)
   NGX = 19   NGY = 29   NGZ = 29
  (NGX  = 80   NGY  =120   NGZ  =120)
  gives a total of  15979 points

 initial charge density was supplied:
 charge density of overlapping atoms calculated
 number of electron     322.0000000 magnetization 
 keeping initial charge density in first step


--------------------------------------------------------------------------------------------------------


 Maximum index for non-local projection operator         1226
 Maximum index for augmentation-charges          680 (set IRDMAX)


--------------------------------------------------------------------------------------------------------


 First call to EWALD:  gamma=   0.197
 Maximum number of real-space cells 3x 2x 2
 Maximum number of reciprocal cells 2x 3x 3

 FEWALD executed in parallel
    FEWALD:  cpu time    0.0457: real time    0.0458


----------------------------------------- Iteration    1(   1)  ---------------------------------------


    POTLOK:  cpu time    0.0486: real time    0.0606
    SETDIJ:  cpu time    0.2342: real time    0.2350
     EDDAV:  cpu time    1.2818: real time    1.3071
       DOS:  cpu time    0.0014: real time    0.0014
    --------------------------------------------
      LOOP:  cpu time    1.5741: real time    1.8121

 eigenvalue-minimisations  :  5944
 total energy-change (2. order) : 0.2265785E+04  (-0.1242524E+05)
 number of electron     322.0000000 magnetization 
 augmentation part      322.0000000 magnetization 

 Free energy of the ion-electron system (eV)
  ---------------------------------------------------
  alpha Z        PSCENC =      1674.13886823
  Ewald energy   TEWEN  =    -22918.89667365
  -Hartree energ DENC   =     -8027.92765682
  -exchange      EXHF   =         0.00000000
  -V(xc)+E(xc)   XCENC  =       130.14062328
  PAW double counting   =     25045.23586184   -23618.97125449
  entropy T*S    EENTRO =        -0.01222764
  eigenvalues    EBANDS =      -279.38409412
  atomic energy  EATOM  =     30261.46166738
  Solvation  Ediel_sol  =         0.00000000
  ---------------------------------------------------
  free energy    TOTEN  =      2265.78511403 eV

  energy without entropy =     2265.79734167  energy(sigma->0) =     2265.78918991


--------------------------------------------------------------------------------------------------------




----------------------------------------- Iteration    1(   2)  ---------------------------------------


     EDDAV:  cpu time    1.1880: real time    1.1938
       DOS:  cpu time    0.0015: real time    0.0015
    --------------------------------------------
      LOOP:  cpu time    1.1906: real time    1.3108

 eigenvalue-minimisations  :  6240
 total energy-change (2. order) :-0.2318370E+04  (-0.2238465E+04)
 number of electron     322.0000000 magnetization 
 augmentation part      322.0000000 magnetization 

 Free energy of the ion-electron system (eV)
  ---------------------------------------------------
  alpha Z        PSCENC =      1674.13886823
  Ewald energy   TEWEN  =    -22918.89667365
  -Hartree energ DENC   =     -8027.92765682
  -exchange      EXHF   =         0.00000000
  -V(xc)+E(xc)   XCENC  =       130.14062328
  PAW double counting   =     25045.23586184   -23618.97125449
  entropy T*S    EENTRO =         0.00464487
  eigenvalues    EBANDS =     -2597.77052673
  atomic energy  EATOM  =     30261.46166738
  Solvation  Ediel_sol  =         0.00000000
  ---------------------------------------------------
  free energy    TOTEN  =       -52.58444607 eV

  energy without entropy =      -52.58909094  energy(sigma->0) =      -52.58599436


--------------------------------------------------------------------------------------------------------




----------------------------------------- Iteration    1(   3)  ---------------------------------------


     EDDAV:  cpu time    1.6274: real time    1.6406
       DOS:  cpu time    0.0015: real time    0.0015
    --------------------------------------------
      LOOP:  cpu time    1.6292: real time    1.6637

 eigenvalue-minimisations  :  9216
 total energy-change (2. order) :-0.2833611E+03  (-0.2689117E+03)
 number of electron     322.0000000 magnetization 
 augmentation part      322.0000000 magnetization 

 Free energy of the ion-electron system (eV)
  ---------------------------------------------------
  alpha Z        PSCENC =      1674.13886823
  Ewald energy   TEWEN  =    -22918.89667365
  -Hartree energ DENC   =     -8027.92765682
  -exchange      EXHF   =         0.00000000
  -V(xc)+E(xc)   XCENC  =       130.14062328
  PAW double counting   =     25045.23586184   -23618.97125449
  entropy T*S    EENTRO =         0.01034344
  eigenvalues    EBANDS =     -2881.13729298
  atomic energy  EATOM  =     30261.46166738
  Solvation  Ediel_sol  =         0.00000000
  ---------------------------------------------------
  free energy    TOTEN  =      -335.94551374 eV

  energy without entropy =     -335.95585719  energy(sigma->0) =     -335.94896156


--------------------------------------------------------------------------------------------------------




----------------------------------------- Iteration    1(   4)  ---------------------------------------


     EDDAV:  cpu time    1.6508: real time    1.6563
       DOS:  cpu time    0.0013: real time    0.0013
    --------------------------------------------
      LOOP:  cpu time    1.6524: real time    1.6810

 eigenvalue-minimisations  :  9320
 total energy-change (2. order) :-0.3368333E+02  (-0.3222467E+02)
 number of electron     322.0000000 magnetization 
 augmentation part      322.0000000 magnetization 

 Free energy of the ion-electron system (eV)
  ---------------------------------------------------
  alpha Z        PSCENC =      1674.13886823
  Ewald energy   TEWEN  =    -22918.89667365
  -Hartree energ DENC   =     -8027.92765682
  -exchange      EXHF   =         0.00000000
  -V(xc)+E(xc)   XCENC  =       130.14062328
  PAW double counting   =     25045.23586184   -23618.97125449
  entropy T*S    EENTRO =         0.01297386
  eigenvalues    EBANDS =     -2914.82325175
  atomic energy  EATOM  =     30261.46166738
  Solvation  Ediel_sol  =         0.00000000
  ---------------------------------------------------
  free energy    TOTEN  =      -369.62884210 eV

  energy without entropy =     -369.64181596  energy(sigma->0) =     -369.63316672


--------------------------------------------------------------------------------------------------------




----------------------------------------- Iteration    1(   5)  ---------------------------------------


     EDDAV:  cpu time    1.6262: real time    1.6449
       DOS:  cpu time    0.0012: real time    0.0012
    CHARGE:  cpu time    0.0330: real time    0.0331
    MIXING:  cpu time    0.0020: real time    0.0021
    --------------------------------------------
      LOOP:  cpu time    1.6653: real time    1.7239

 eigenvalue-minimisations  :  8768
 total energy-change (2. order) :-0.3316749E+01  (-0.3265608E+01)
 number of electron     322.0000004 magnetization 
 augmentation part       19.0056849 magnetization 

 Broyden mixing:
  rms(total) = 0.62505E+01    rms(broyden)= 0.62500E+01
  rms(prec ) = 0.65242E+01
  weight for this iteration     100.00

 Free energy of the ion-electron system (eV)
  ---------------------------------------------------
  alpha Z        PSCENC =      1674.13886823
  Ewald energy   TEWEN  =    -22918.89667365
  -Hartree energ DENC   =     -8027.92765682
  -exchange      EXHF   =         0.00000000
  -V(xc)+E(xc)   XCENC  =       130.14062328
  PAW double counting   =     25045.23586184   -23618.97125449
  entropy T*S    EENTRO =         0.01259005
  eigenvalues    EBANDS =     -2918.13961653
  atomic energy  EATOM  =     30261.46166738
  Solvation  Ediel_sol  =         0.00000000
  ---------------------------------------------------
  free energy    TOTEN  =      -372.94559068 eV

  energy without entropy =     -372.95818074  energy(sigma->0) =     -372.94978737


--------------------------------------------------------------------------------------------------------




----------------------------------------- Iteration    1(   6)  ---------------------------------------


    POTLOK:  cpu time    0.0304: real time    0.0310
    SETDIJ:  cpu time    0.0076: real time    0.0076
    EDDIAG:  cpu time    0.0874: real time    0.0876
  RMM-DIIS:  cpu time    0.7700: real time    0.7733
    ORTHCH:  cpu time    0.0149: real time    0.0150
       DOS:  cpu time    0.0010: real time    0.0010
    CHARGE:  cpu time    0.0319: real time    0.0320
    MIXING:  cpu time    0.0016: real time    0.0025
    --------------------------------------------
      LOOP:  cpu time    0.9454: real time    0.9695

 eigenvalue-minimisations  :  7484
 total energy-change (2. order) : 0.1034948E+02  (-0.2424225E+01)
 number of electron     322.0000004 magnetization 
 augmentation part       19.7941566 magnetization 

 Broyden mixing:
  rms(total) = 0.29224E+01    rms(broyden)= 0.29223E+01
  rms(prec ) = 0.32334E+01
  weight for this iteration     100.00

 eigenvalues of (default mixing * dielectric matrix)
  average eigenvalue GAMMA=   1.7880
  1.7880

 Free energy of the ion-electron system (eV)
  ---------------------------------------------------
  alpha Z        PSCENC =      1674.13886823
  Ewald energy   TEWEN  =    -22918.89667365
  -Hartree energ DENC   =     -7815.07821209
  -exchange      EXHF   =         0.00000000
  -V(xc)+E(xc)   XCENC  =       123.60728993
  PAW double counting   =     30620.21289522   -29200.59222070
  entropy T*S    EENTRO =         0.00663596
  eigenvalues    EBANDS =     -3107.45636113
  atomic energy  EATOM  =     30261.46166738
  Solvation  Ediel_sol  =         0.00000000
  ---------------------------------------------------
  free energy    TOTEN  =      -362.59611085 eV

  energy without entropy =     -362.60274681  energy(sigma->0) =     -362.59832283


--------------------------------------------------------------------------------------------------------




----------------------------------------- Iteration    1(   7)  ---------------------------------------


    POTLOK:  cpu time    0.0300: real time    0.0302
    SETDIJ:  cpu time    0.0036: real time    0.0036
    EDDIAG:  cpu time    0.1128: real time    0.1131
  RMM-DIIS:  cpu time    0.8987: real time    0.9017
    ORTHCH:  cpu time    0.0147: real time    0.0148
       DOS:  cpu time    0.0079: real time    0.0079
    CHARGE:  cpu time    0.0351: real time    0.0352
    MIXING:  cpu time    0.0013: real time    0.0013
    --------------------------------------------
      LOOP:  cpu time    1.1048: real time    1.1258

 eigenvalue-minimisations  :  7919
 total energy-change (2. order) :-0.2127847E+01  (-0.2373345E+01)
 number of electron     322.0000004 magnetization 
 augmentation part       20.2203673 magnetization 

 Broyden mixing:
  rms(total) = 0.12123E+01    rms(broyden)= 0.12119E+01
  rms(prec ) = 0.35145E+01
  weight for this iteration     100.00

 eigenvalues of (default mixing * dielectric matrix)
  average eigenvalue GAMMA=   1.1431
  1.7978  0.4885

 Free energy of the ion-electron system (eV)
  ---------------------------------------------------
  alpha Z        PSCENC =      1674.13886823
  Ewald energy   TEWEN  =    -22918.89667365
  -Hartree energ DENC   =     -7766.78250834
  -exchange      EXHF   =         0.00000000
  -V(xc)+E(xc)   XCENC  =       123.61018110
  PAW double counting   =     35700.15118031   -34269.76080267
  entropy T*S    EENTRO =        -0.00462786
  eigenvalues    EBANDS =     -3168.64124242
  atomic energy  EATOM  =     30261.46166738
  Solvation  Ediel_sol  =         0.00000000
  ---------------------------------------------------
  free energy    TOTEN  =      -364.72395790 eV

  energy without entropy =     -364.71933005  energy(sigma->0) =     -364.72241529


--------------------------------------------------------------------------------------------------------




----------------------------------------- Iteration    1(   8)  ---------------------------------------


    POTLOK:  cpu time    0.0291: real time    0.0291
    SETDIJ:  cpu time    0.0116: real time    0.0116
    EDDIAG:  cpu time    0.0935: real time    0.0938
  RMM-DIIS:  cpu time    0.7806: real time    0.8889
    ORTHCH:  cpu time    0.0148: real time    0.0148
       DOS:  cpu time    0.0025: real time    0.0025
    CHARGE:  cpu time    0.0324: real time    0.0325
    MIXING:  cpu time    0.0013: real time    0.0013
    --------------------------------------------
      LOOP:  cpu time    0.9663: real time    1.1002

 eigenvalue-minimisations  :  8014
 total energy-change (2. order) : 0.6076216E+01  (-0.5886372E+00)
 number of electron     322.0000004 magnetization 
 augmentation part       19.9960786 magnetization 

 Broyden mixing:
  rms(total) = 0.45609E+00    rms(broyden)= 0.45561E+00
  rms(prec ) = 0.72564E+00
  weight for this iteration     100.00

 eigenvalues of (default mixing * dielectric matrix)
  average eigenvalue GAMMA=   1.1182
  1.7968  1.1850  0.3729

 Free energy of the ion-electron system (eV)
  ---------------------------------------------------
  alpha Z        PSCENC =      1674.13886823
  Ewald energy   TEWEN  =    -22918.89667365
  -Hartree energ DENC   =     -7721.56867083
  -exchange      EXHF   =         0.00000000
  -V(xc)+E(xc)   XCENC  =       122.99884744
  PAW double counting   =     36632.92936082   -35200.26818981
  entropy T*S    EENTRO =         0.01502749
  eigenvalues    EBANDS =     -3209.45797884
  atomic energy  EATOM  =     30261.46166738
  Solvation  Ediel_sol  =         0.00000000
  ---------------------------------------------------
  free energy    TOTEN  =      -358.64774176 eV

  energy without entropy =     -358.66276925  energy(sigma->0) =     -358.65275093


--------------------------------------------------------------------------------------------------------




----------------------------------------- Iteration    1(   9)  ---------------------------------------


    POTLOK:  cpu time    0.0291: real time    0.0293
    SETDIJ:  cpu time    0.0418: real time    0.0421
    EDDIAG:  cpu time    0.0962: real time    0.0968
  RMM-DIIS:  cpu time    0.8357: real time    0.8406
    ORTHCH:  cpu time    0.0150: real time    0.0151
       DOS:  cpu time    0.0024: real time    0.0024
    CHARGE:  cpu time    0.0318: real time    0.0319
    MIXING:  cpu time    0.0013: real time    0.0013
    --------------------------------------------
      LOOP:  cpu time    1.0540: real time    1.0799

 eigenvalue-minimisations  :  8182
 total energy-change (2. order) : 0.2076605E+00  (-0.2078029E+00)
 number of electron     322.0000004 magnetization 
 augmentation part       19.8444326 magnetization 

 Broyden mixing:
  rms(total) = 0.32007E+00    rms(broyden)= 0.31996E+00
  rms(prec ) = 0.44846E+00
  weight for this iteration     100.00

 eigenvalues of (default mixing * dielectric matrix)
  average eigenvalue GAMMA=   1.1453
  1.8791  1.8791  0.4609  0.3623

 Free energy of the ion-electron system (eV)
  ---------------------------------------------------
  alpha Z        PSCENC =      1674.13886823
  Ewald energy   TEWEN  =    -22918.89667365
  -Hartree energ DENC   =     -7723.14319517
  -exchange      EXHF   =         0.00000000
  -V(xc)+E(xc)   XCENC  =       123.38131841
  PAW double counting   =     36833.76830115   -35396.20586786
  entropy T*S    EENTRO =         0.01515307
  eigenvalues    EBANDS =     -3212.95965282
  atomic energy  EATOM  =     30261.46166738
  Solvation  Ediel_sol  =         0.00000000
  ---------------------------------------------------
  free energy    TOTEN  =      -358.44008124 eV

  energy without entropy =     -358.45523431  energy(sigma->0) =     -358.44513226


--------------------------------------------------------------------------------------------------------




----------------------------------------- Iteration    1(  10)  ---------------------------------------


    POTLOK:  cpu time    0.0287: real time    0.0289
    SETDIJ:  cpu time    0.0035: real time    0.0035
    EDDIAG:  cpu time    0.1035: real time    0.1039
  RMM-DIIS:  cpu time    0.8310: real time    0.8340
    ORTHCH:  cpu time    0.0433: real time    0.0434
       DOS:  cpu time    0.0071: real time    0.0071
    CHARGE:  cpu time    0.0577: real time    0.0578
    MIXING:  cpu time    0.0027: real time    0.0027
    --------------------------------------------
      LOOP:  cpu time    1.0779: real time    1.1135

 eigenvalue-minimisations  :  8076
 total energy-change (2. order) : 0.5189033E-01  (-0.4588839E-01)
 number of electron     322.0000004 magnetization 
 augmentation part       19.7246822 magnetization 

 Broyden mixing:
  rms(total) = 0.14262E+00    rms(broyden)= 0.14256E+00
  rms(prec ) = 0.27077E+00
  weight for this iteration     100.00

 eigenvalues of (default mixing * dielectric matrix)
  average eigenvalue GAMMA=   1.1096
  2.1096  1.8504  0.7565  0.4747  0.3566

 Free energy of the ion-electron system (eV)
  ---------------------------------------------------
  alpha Z        PSCENC =      1674.13886823
  Ewald energy   TEWEN  =    -22918.89667365
  -Hartree energ DENC   =     -7739.94327270
  -exchange      EXHF   =         0.00000000
  -V(xc)+E(xc)   XCENC  =       124.60330003
  PAW double counting   =     37095.96798710   -35648.61702307
  entropy T*S    EENTRO =         0.01560823
  eigenvalues    EBANDS =     -3207.11865246
  atomic energy  EATOM  =     30261.46166738
  Solvation  Ediel_sol  =         0.00000000
  ---------------------------------------------------
  free energy    TOTEN  =      -358.38819090 eV

  energy without entropy =     -358.40379914  energy(sigma->0) =     -358.39339365


--------------------------------------------------------------------------------------------------------




----------------------------------------- Iteration    1(  11)  ---------------------------------------


    POTLOK:  cpu time    0.0286: real time    0.0452
    SETDIJ:  cpu time    0.0038: real time    0.0058
    EDDIAG:  cpu time    0.1005: real time    0.1310
  RMM-DIIS:  cpu time    0.8310: real time    0.8342
    ORTHCH:  cpu time    0.0149: real time    0.0149
       DOS:  cpu time    0.0013: real time    0.0013
    CHARGE:  cpu time    0.0332: real time    0.0333
    MIXING:  cpu time    0.0014: real time    0.0014
    --------------------------------------------
      LOOP:  cpu time    1.0154: real time    1.1045

 eigenvalue-minimisations  :  8076
 total energy-change (2. order) : 0.3421503E-01  (-0.1529246E-01)
 number of electron     322.0000004 magnetization 
 augmentation part       19.6874221 magnetization 

 Broyden mixing:
  rms(total) = 0.70517E-01    rms(broyden)= 0.70457E-01
  rms(prec ) = 0.13624E+00
  weight for this iteration     100.00

 eigenvalues of (default mixing * dielectric matrix)
  average eigenvalue GAMMA=   1.0604
  2.1970  1.7880  1.1260  0.4817  0.3557  0.4140

 Free energy of the ion-electron system (eV)
  ---------------------------------------------------
  alpha Z        PSCENC =      1674.13886823
  Ewald energy   TEWEN  =    -22918.89667365
  -Hartree energ DENC   =     -7747.34128688
  -exchange      EXHF   =         0.00000000
  -V(xc)+E(xc)   XCENC  =       125.12156136
  PAW double counting   =     37248.51755423   -35796.83115055
  entropy T*S    EENTRO =         0.01448818
  eigenvalues    EBANDS =     -3204.53900417
  atomic energy  EATOM  =     30261.46166738
  Solvation  Ediel_sol  =         0.00000000
  ---------------------------------------------------
  free energy    TOTEN  =      -358.35397588 eV

  energy without entropy =     -358.36846405  energy(sigma->0) =     -358.35880527


--------------------------------------------------------------------------------------------------------




----------------------------------------- Iteration    1(  12)  ---------------------------------------


    POTLOK:  cpu time    0.0289: real time    0.0291
    SETDIJ:  cpu time    0.0035: real time    0.0035
    EDDIAG:  cpu time    0.0876: real time    0.0880
  RMM-DIIS:  cpu time    0.8433: real time    0.8470
    ORTHCH:  cpu time    0.0149: real time    0.0149
       DOS:  cpu time    0.0016: real time    0.0016
    CHARGE:  cpu time    0.0319: real time    0.0327
    MIXING:  cpu time    0.0014: real time    0.0014
    --------------------------------------------
      LOOP:  cpu time    1.0136: real time    1.0525

 eigenvalue-minimisations  :  8162
 total energy-change (2. order) : 0.4882232E-02  (-0.5256916E-02)
 number of electron     322.0000004 magnetization 
 augmentation part       19.6815239 magnetization 

 Broyden mixing:
  rms(total) = 0.40515E-01    rms(broyden)= 0.40490E-01
  rms(prec ) = 0.62395E-01
  weight for this iteration     100.00

 eigenvalues of (default mixing * dielectric matrix)
  average eigenvalue GAMMA=   1.0422
  2.2575  1.8070  1.3995  0.5890  0.5065  0.3472  0.3891

 Free energy of the ion-electron system (eV)
  ---------------------------------------------------
  alpha Z        PSCENC =      1674.13886823
  Ewald energy   TEWEN  =    -22918.89667365
  -Hartree energ DENC   =     -7748.86339043
  -exchange      EXHF   =         0.00000000
  -V(xc)+E(xc)   XCENC  =       125.22775215
  PAW double counting   =     37346.22853149   -35892.82669531
  entropy T*S    EENTRO =         0.01381291
  eigenvalues    EBANDS =     -3204.83296641
  atomic energy  EATOM  =     30261.46166738
  Solvation  Ediel_sol  =         0.00000000
  ---------------------------------------------------
  free energy    TOTEN  =      -358.34909364 eV

  energy without entropy =     -358.36290655  energy(sigma->0) =     -358.35369795


--------------------------------------------------------------------------------------------------------




----------------------------------------- Iteration    1(  13)  ---------------------------------------


    POTLOK:  cpu time    0.0293: real time    0.0295
    SETDIJ:  cpu time    0.0037: real time    0.0037
    EDDIAG:  cpu time    0.0861: real time    0.0865
  RMM-DIIS:  cpu time    0.8917: real time    0.8960
    ORTHCH:  cpu time    0.0149: real time    0.0150
       DOS:  cpu time    0.0010: real time    0.0010
    CHARGE:  cpu time    0.0318: real time    0.0319
    MIXING:  cpu time    0.0016: real time    0.0016
    --------------------------------------------
      LOOP:  cpu time    1.0608: real time    1.1060

 eigenvalue-minimisations  :  8197
 total energy-change (2. order) : 0.1446963E-02  (-0.1550636E-02)
 number of electron     322.0000004 magnetization 
 augmentation part       19.6814489 magnetization 

 Broyden mixing:
  rms(total) = 0.23821E-01    rms(broyden)= 0.23810E-01
  rms(prec ) = 0.32752E-01
  weight for this iteration     100.00

 eigenvalues of (default mixing * dielectric matrix)
  average eigenvalue GAMMA=   1.0608
  2.3646  1.9731  1.4735  0.9250  0.5586  0.4764  0.3578  0.3578

 Free energy of the ion-electron system (eV)
  ---------------------------------------------------
  alpha Z        PSCENC =      1674.13886823
  Ewald energy   TEWEN  =    -22918.89667365
  -Hartree energ DENC   =     -7748.91949454
  -exchange      EXHF   =         0.00000000
  -V(xc)+E(xc)   XCENC  =       125.23923421
  PAW double counting   =     37404.24175172   -35949.84443784
  entropy T*S    EENTRO =         0.01416870
  eigenvalues    EBANDS =     -3205.78273090
  atomic energy  EATOM  =     30261.46166738
  Solvation  Ediel_sol  =         0.00000000
  ---------------------------------------------------
  free energy    TOTEN  =      -358.34764668 eV

  energy without entropy =     -358.36181538  energy(sigma->0) =     -358.35236958


--------------------------------------------------------------------------------------------------------




----------------------------------------- Iteration    1(  14)  ---------------------------------------


    POTLOK:  cpu time    0.0300: real time    0.0301
    SETDIJ:  cpu time    0.0035: real time    0.0035
    EDDIAG:  cpu time    0.0885: real time    0.0888
  RMM-DIIS:  cpu time    0.8910: real time    0.8954
    ORTHCH:  cpu time    0.0151: real time    0.0151
       DOS:  cpu time    0.0018: real time    0.0018
    CHARGE:  cpu time    0.0323: real time    0.0324
    MIXING:  cpu time    0.0016: real time    0.0016
    --------------------------------------------
      LOOP:  cpu time    1.0645: real time    1.0891

 eigenvalue-minimisations  :  8577
 total energy-change (2. order) : 0.1102701E-04  (-0.5750021E-03)
 number of electron     322.0000004 magnetization 
 augmentation part       19.6793729 magnetization 

 Broyden mixing:
  rms(total) = 0.12641E-01    rms(broyden)= 0.12638E-01
  rms(prec ) = 0.17573E-01
  weight for this iteration     100.00

 eigenvalues of (default mixing * dielectric matrix)
  average eigenvalue GAMMA=   1.0733
  2.5409  2.0728  1.5264  1.1724  0.6265  0.5635  0.4403  0.3469  0.3705

 Free energy of the ion-electron system (eV)
  ---------------------------------------------------
  alpha Z        PSCENC =      1674.13886823
  Ewald energy   TEWEN  =    -22918.89667365
  -Hartree energ DENC   =     -7749.55406852
  -exchange      EXHF   =         0.00000000
  -V(xc)+E(xc)   XCENC  =       125.26050907
  PAW double counting   =     37433.93751245   -35978.87628699
  entropy T*S    EENTRO =         0.01423555
  eigenvalues    EBANDS =     -3205.83339918
  atomic energy  EATOM  =     30261.46166738
  Solvation  Ediel_sol  =         0.00000000
  ---------------------------------------------------
  free energy    TOTEN  =      -358.34763565 eV

  energy without entropy =     -358.36187120  energy(sigma->0) =     -358.35238084


--------------------------------------------------------------------------------------------------------




----------------------------------------- Iteration    1(  15)  ---------------------------------------


    POTLOK:  cpu time    0.0295: real time    0.0296
    SETDIJ:  cpu time    0.0035: real time    0.0035
    EDDIAG:  cpu time    0.0895: real time    0.0898
  RMM-DIIS:  cpu time    0.8668: real time    0.8721
    ORTHCH:  cpu time    0.0163: real time    0.0164
       DOS:  cpu time    0.0019: real time    0.0019
    CHARGE:  cpu time    0.0329: real time    0.0331
    MIXING:  cpu time    0.0020: real time    0.0020
    --------------------------------------------
      LOOP:  cpu time    1.0431: real time    1.0653

 eigenvalue-minimisations  :  8444
 total energy-change (2. order) :-0.1749892E-03  (-0.2728730E-03)
 number of electron     322.0000004 magnetization 
 augmentation part       19.6788809 magnetization 

 Broyden mixing:
  rms(total) = 0.64460E-02    rms(broyden)= 0.64415E-02
  rms(prec ) = 0.13681E-01
  weight for this iteration     100.00

 eigenvalues of (default mixing * dielectric matrix)
  average eigenvalue GAMMA=   1.0523
  2.5871  2.1111  1.5567  1.2655  0.7402  0.6477  0.4523  0.4523  0.3509  0.3596

 Free energy of the ion-electron system (eV)
  ---------------------------------------------------
  alpha Z        PSCENC =      1674.13886823
  Ewald energy   TEWEN  =    -22918.89667365
  -Hartree energ DENC   =     -7749.83486614
  -exchange      EXHF   =         0.00000000
  -V(xc)+E(xc)   XCENC  =       125.27188901
  PAW double counting   =     37454.25154740   -35998.72729147
  entropy T*S    EENTRO =         0.01427096
  eigenvalues    EBANDS =     -3206.02722237
  atomic energy  EATOM  =     30261.46166738
  Solvation  Ediel_sol  =         0.00000000
  ---------------------------------------------------
  free energy    TOTEN  =      -358.34781064 eV

  energy without entropy =     -358.36208161  energy(sigma->0) =     -358.35256763


--------------------------------------------------------------------------------------------------------




----------------------------------------- Iteration    1(  16)  ---------------------------------------


    POTLOK:  cpu time    0.0305: real time    0.0308
    SETDIJ:  cpu time    0.0036: real time    0.0036
    EDDIAG:  cpu time    0.0902: real time    0.0905
  RMM-DIIS:  cpu time    0.8305: real time    0.8333
    ORTHCH:  cpu time    0.0146: real time    0.0146
       DOS:  cpu time    0.0012: real time    0.0012
    CHARGE:  cpu time    0.0316: real time    0.0317
    MIXING:  cpu time    0.0017: real time    0.0017
    --------------------------------------------
      LOOP:  cpu time    1.0045: real time    1.0258

 eigenvalue-minimisations  :  7214
 total energy-change (2. order) :-0.1061772E-04  (-0.1087873E-03)
 number of electron     322.0000004 magnetization 
 augmentation part       19.6777864 magnetization 

 Broyden mixing:
  rms(total) = 0.32773E-02    rms(broyden)= 0.32750E-02
  rms(prec ) = 0.62895E-02
  weight for this iteration     100.00

 eigenvalues of (default mixing * dielectric matrix)
  average eigenvalue GAMMA=   1.0319
  2.6232  2.1269  1.5703  1.3922  0.9087  0.6645  0.4885  0.4885  0.3469  0.3706
  0.3706

 Free energy of the ion-electron system (eV)
  ---------------------------------------------------
  alpha Z        PSCENC =      1674.13886823
  Ewald energy   TEWEN  =    -22918.89667365
  -Hartree energ DENC   =     -7749.97915308
  -exchange      EXHF   =         0.00000000
  -V(xc)+E(xc)   XCENC  =       125.27493629
  PAW double counting   =     37461.97049959   -36006.29206282
[...]
    118       6.1783      2.00000
    119       6.2108      2.00000
    120       6.2598      2.00000
    121       6.3157      2.00000
    122       6.4632      2.00000
    123       6.5436      2.00000
    124       6.5624      2.00000
    125       6.6253      2.00000
    126       6.6470      2.00000
    127       6.6765      2.00000
    128       6.7145      2.00000
    129       6.7556      2.00000
    130       6.8074      2.00000
    131       6.8299      2.00000
    132       6.8528      2.00000
    133       6.8925      2.00000
    134       6.9067      2.00000
    135       6.9357      2.00000
    136       6.9668      2.00000
    137       7.0228      2.00000
    138       7.0483      2.00000
    139       7.0890      2.00000
    140       7.1148      2.00000
    141       7.1437      2.00000
    142       7.1962      2.00000
    143       7.2546      2.00000
    144       7.2701      2.00000
    145       7.3158      2.00000
    146       7.3389      2.00000
    147       7.3813      2.00000
    148       7.4500      2.00000
    149       7.5028      2.00004
    150       7.5187      2.00007
    151       7.5771      2.00062
    152       7.6094      2.00175
    153       7.6461      2.00505
    154       7.6740      2.01025
    155       7.7371      2.03624
    156       7.7476      2.04247
    157       7.7704      2.05634
    158       7.7993      2.06953
    159       7.8817      1.94986
    160       7.9077      1.81467
    161       7.9225      1.71129
    162       7.9603      1.36621
    163       8.0092      0.82523
    164       8.0417      0.48700
    165       8.0616      0.31327
    166       8.1333     -0.03290
    167       8.1531     -0.06100
    168       8.1862     -0.06991
    169       8.2191     -0.05500
    170       8.2569     -0.03240
    171       8.2691     -0.02613
    172       8.3202     -0.00865
    173       8.3472     -0.00428
    174       8.3942     -0.00104
    175       8.4275     -0.00034
    176       8.4757     -0.00005
    177       8.5072     -0.00001
    178       8.5454     -0.00000
    179       8.6035     -0.00000
    180       8.6670     -0.00000
    181       8.6975     -0.00000
    182       8.7690     -0.00000
    183       8.8229     -0.00000
    184       8.9472     -0.00000
    185       9.0876     -0.00000
    186       9.2029     -0.00000
    187       9.3381     -0.00000
    188       9.7583     -0.00000
    189       9.9194     -0.00000
    190       9.9443     -0.00000
    191       9.9894     -0.00000
    192      10.0769     -0.00000
    193      10.1132     -0.00000
    194      10.1917     -0.00000
    195      10.2200     -0.00000
    196      10.2814     -0.00000


--------------------------------------------------------------------------------------------------------


 soft charge-density along one line, spin component           1
         0         1         2         3         4         5         6         7         8         9
 total charge-density along one line
 
 pseudopotential strength for first ion, spin component:           1
 -5.020  -0.001  -0.001  -0.001   0.000  -6.257  -0.002  -0.001
 -0.001  -5.016  -0.001   0.001   0.000  -0.002  -6.253  -0.001
 -0.001  -0.001  -5.021   0.001   0.003  -0.001  -0.001  -6.259
 -0.001   0.001   0.001  -5.023   0.001  -0.001   0.002   0.001
  0.000   0.000   0.003   0.001  -5.021   0.000   0.000   0.004
 -6.257  -0.002  -0.001  -0.001   0.000  -7.780  -0.002  -0.002
 -0.002  -6.253  -0.001   0.002   0.000  -0.002  -7.775  -0.001
 -0.001  -0.001  -6.259   0.001   0.004  -0.002  -0.001  -7.782
 -0.001   0.002   0.001  -6.262   0.001  -0.001   0.002   0.002
  0.000   0.000   0.004   0.001  -6.259   0.000   0.000   0.005
 -0.002  -0.001   0.001   0.001   0.003  -0.002  -0.001   0.001
 -0.003  -0.001   0.001   0.002   0.005  -0.004  -0.001   0.001
  0.007   0.004   0.000  -0.001  -0.000   0.008   0.005   0.000
 -0.001  -0.003  -0.003   0.008   0.001  -0.001  -0.003  -0.003
 -0.003  -0.001  -0.001   0.006   0.003  -0.004  -0.001  -0.001
 -0.009  -0.006  -0.001   0.001  -0.001  -0.012  -0.007  -0.001
  0.001   0.005   0.004  -0.012  -0.001   0.001   0.006   0.005
  0.006   0.001   0.001  -0.008  -0.004   0.007   0.001   0.001
 total augmentation occupancy for first ion, spin component:           1
  3.884  -0.165  -0.064  -0.110   0.018  -2.008   0.080   0.035   0.061  -0.011   0.064  -0.021  -0.003   0.011  -0.031  -0.003
 -0.165   4.167  -0.091   0.067   0.104   0.080  -2.167   0.051  -0.031  -0.068  -0.121   0.015   0.038  -0.063   0.004  -0.002
 -0.064  -0.091   3.940   0.076   0.089   0.035   0.051  -2.093  -0.032  -0.053   0.067  -0.003  -0.002   0.044  -0.033   0.001
 -0.110   0.067   0.076   3.762   0.070   0.061  -0.031  -0.032  -1.957  -0.028  -0.048   0.015  -0.000  -0.052  -0.033   0.000
  0.018   0.104   0.089   0.070   3.831  -0.011  -0.068  -0.052  -0.028  -2.030  -0.096   0.048   0.034  -0.029  -0.010   0.001
 -2.008   0.080   0.035   0.061  -0.011   1.049  -0.039  -0.019  -0.033   0.007  -0.034   0.011   0.001  -0.005   0.017   0.002
  0.080  -2.167   0.051  -0.031  -0.068  -0.039   1.138  -0.029   0.015   0.042   0.075  -0.010  -0.017   0.033  -0.002   0.001
  0.035   0.051  -2.093  -0.032  -0.052  -0.019  -0.029   1.120   0.013   0.031  -0.039   0.002  -0.003  -0.029   0.017  -0.000
  0.061  -0.031  -0.032  -1.957  -0.028  -0.033   0.015   0.013   1.028   0.010   0.026  -0.008  -0.000   0.027   0.017  -0.000
 -0.011  -0.068  -0.053  -0.028  -2.030   0.007   0.042   0.031   0.010   1.084   0.062  -0.026  -0.024   0.014   0.003  -0.001
  0.064  -0.121   0.067  -0.048  -0.096  -0.034   0.075  -0.039   0.026   0.062   2.376  -0.296  -0.009  -0.010  -0.013   0.001
 -0.021   0.015  -0.003   0.015   0.048   0.011  -0.010   0.002  -0.008  -0.026  -0.296   0.040   0.002  -0.002  -0.002  -0.000
 -0.003   0.038  -0.002  -0.000   0.034   0.001  -0.017  -0.003  -0.000  -0.024  -0.009   0.002   0.300  -0.004  -0.003   0.005
  0.011  -0.063   0.044  -0.052  -0.029  -0.005   0.033  -0.029   0.027   0.014  -0.010  -0.002  -0.004   0.288   0.008   0.000
 -0.031   0.004  -0.033  -0.033  -0.010   0.017  -0.002   0.017   0.017   0.003  -0.013  -0.002  -0.003   0.008   0.277  -0.000
 -0.003  -0.002   0.001   0.000   0.001   0.002   0.001  -0.000  -0.000  -0.001   0.001  -0.000   0.005   0.000  -0.000   0.000
  0.000   0.001   0.003  -0.004  -0.001  -0.000  -0.000  -0.002   0.002   0.000  -0.000   0.000   0.000   0.005   0.000   0.000
  0.001   0.000  -0.001  -0.003  -0.001  -0.000  -0.000   0.000   0.002   0.000  -0.002   0.000  -0.000   0.000   0.005  -0.000


------------------------ aborting loop because EDIFF is reached ----------------------------------------


    CHARGE:  cpu time    0.0796: real time    0.0799
    FORLOC:  cpu time    0.0174: real time    0.0175
    FORNL :  cpu time    0.3284: real time    0.3297
    STRESS:  cpu time    0.9673: real time    1.0859
    FORCOR:  cpu time    0.0423: real time    0.0475
    FORHAR:  cpu time    0.0180: real time    0.0227
    MIXING:  cpu time    0.0012: real time    0.0012
    OFIELD:  cpu time    0.0000: real time    0.0000

  FORCE on cell =-STRESS in cart. coord.  units (eV):
  Direction    XX          YY          ZZ          XY          YZ          ZX
  --------------------------------------------------------------------------------------
  Alpha Z  1673.89211  1673.89211  1673.89211
  Ewald   -6829.89830 -8845.92462 -7238.73504   267.80658   -94.70411   235.13021
  Hartree  3347.49151  1415.42505  2991.01756   220.06618   -87.17192   232.39218
  E(xc)   -1411.25526 -1411.22026 -1411.68721     0.04899     0.17405     0.28493
  Local   -2342.28806  1600.05398 -1578.16429  -488.22745   183.50064  -466.23888
  n-local  -311.74474  -310.37123  -313.81472    -1.24795    -0.58646     4.32046
  augment   256.71794   256.80229   256.92083     0.16803     0.06941    -0.63859
  Kinetic  5616.99219  5621.27991  5620.52126     1.42199    -1.28173    -5.27935
  Fock        0.00000     0.00000     0.00000     0.00000     0.00000     0.00000
  -------------------------------------------------------------------------------------
  Total      -0.09261    -0.06277    -0.04950     0.03636    -0.00011    -0.02905
  in kB      -0.20423    -0.13841    -0.10916     0.08018    -0.00025    -0.06405
  external pressure =       -0.15 kB  Pullay stress =        0.00 kB


 VOLUME and BASIS-vectors are now :
 -----------------------------------------------------------------------------
  energy-cutoff  :      300.00
  volume of cell :      726.55
      direct lattice vectors                 reciprocal lattice vectors
     6.944886541 -0.014241268  0.046614107     0.143997901  0.000296467 -0.000962410
    -0.021091680 10.252957261  0.002606029     0.000200112  0.097533252 -0.000016236
     0.068195999  0.001558756 10.204112866    -0.000657858 -0.000026263  0.098004101

  length of vectors
     6.945057578 10.252979286 10.204340866     0.144001422  0.097533459  0.098006312


 FORCES acting on ions
    electron-ion (+dipol)            ewald-force                    non-local-force                 convergence-correction
 -----------------------------------------------------------------------------------------------
   -.214E+01 0.398E+02 -.532E+02   0.179E+01 -.399E+02 0.532E+02   0.353E+00 0.133E+00 0.165E-01   -.101E-03 0.472E-02 0.241E-02
   0.501E+02 -.101E+03 0.447E+01   -.496E+02 0.101E+03 -.398E+01   -.510E+00 0.193E-01 -.491E+00   -.125E-03 0.155E-02 0.506E-03
   0.190E+02 -.105E+03 -.248E+02   -.189E+02 0.106E+03 0.244E+02   -.525E-01 -.660E+00 0.352E+00   -.117E-03 0.478E-02 -.253E-02
   -.486E+02 0.170E+02 0.618E+01   0.478E+02 -.174E+02 -.628E+01   0.804E+00 0.403E+00 0.109E+00   0.489E-03 -.108E-02 -.279E-02
   0.310E+02 0.114E+03 0.291E+02   -.308E+02 -.114E+03 -.285E+02   -.105E+00 0.241E+00 -.622E+00   -.104E-02 -.437E-02 -.984E-04
   0.253E+01 0.881E+02 -.817E+00   -.367E+01 -.880E+02 0.678E+00   0.113E+01 -.689E-01 0.140E+00   -.791E-05 -.308E-03 -.149E-03
   -.394E+01 0.872E+02 -.821E+02   0.391E+01 -.874E+02 0.816E+02   0.269E-01 0.280E+00 0.535E+00   0.135E-02 -.389E-02 0.228E-02
   0.345E+02 -.608E+02 -.606E+01   -.346E+02 0.603E+02 0.622E+01   0.972E-01 0.448E+00 -.171E+00   0.105E-02 -.320E-02 0.788E-03
   0.392E+02 0.371E+02 0.478E+02   -.390E+02 -.374E+02 -.479E+02   -.158E+00 0.313E+00 0.130E+00   -.713E-03 -.617E-02 -.239E-02
   0.653E+02 -.243E+02 -.208E+00   -.642E+02 0.237E+02 0.218E+00   -.114E+01 0.545E+00 0.769E-02   -.191E-02 -.632E-02 -.151E-01
   -.844E+02 0.229E+03 -.181E+03   0.843E+02 -.230E+03 0.181E+03   0.448E-01 0.997E+00 0.275E+00   0.403E-02 -.828E-02 0.424E-02
   0.619E+02 0.206E+03 -.205E+03   -.618E+02 -.207E+03 0.206E+03   -.777E-01 0.110E+01 -.508E+00   -.500E-04 -.647E-02 -.621E-02
   -.556E+02 0.375E+03 0.465E+01   0.552E+02 -.375E+03 -.319E+01   0.331E+00 0.437E+00 -.145E+01   0.498E-02 -.108E-01 -.600E-02
   0.518E+02 -.276E+03 -.340E+02   -.507E+02 0.277E+03 0.343E+02   -.114E+01 -.115E+01 -.285E+00   -.434E-02 0.555E-02 0.146E-01
   0.178E+03 -.408E+03 -.479E+02   -.177E+03 0.408E+03 0.478E+02   -.635E+00 -.237E+00 0.655E-01   -.186E-02 0.811E-02 -.447E-02
   -.679E+02 -.322E+03 0.367E+02   0.669E+02 0.323E+03 -.374E+02   0.981E+00 -.974E+00 0.656E+00   -.154E-04 0.148E-01 0.161E-01
   0.101E+03 -.210E+03 0.652E+02   -.100E+03 0.211E+03 -.639E+02   -.355E+00 -.892E+00 -.128E+01   -.302E-04 0.204E-01 -.117E-01
   0.347E+02 0.229E+03 -.243E+03   -.348E+02 -.228E+03 0.242E+03   0.144E+00 -.384E+00 0.768E+00   -.877E-02 -.142E-01 0.631E-02
   -.646E+02 -.247E+03 -.766E+02   0.646E+02 0.247E+03 0.758E+02   -.237E-01 -.438E+00 0.823E+00   -.344E-03 0.187E-01 -.133E-01
   0.353E+02 0.215E+03 0.111E+03   -.361E+02 -.215E+03 -.111E+03   0.784E+00 -.703E-01 0.511E+00   0.575E-02 0.693E-02 -.492E-03
   -.764E+02 -.125E+03 0.155E+02   0.759E+02 0.125E+03 -.156E+02   0.483E+00 0.658E-01 0.871E-01   0.605E-03 0.257E-02 -.365E-02
   -.593E+02 -.112E+03 0.182E+02   0.587E+02 0.112E+03 -.177E+02   0.641E+00 0.430E-01 -.466E+00   0.874E-03 0.181E-02 0.874E-03
   -.599E+01 0.121E+03 0.117E+02   0.705E+01 -.122E+03 -.116E+02   -.106E+01 0.414E+00 -.118E+00   -.887E-03 -.337E-02 -.785E-03
   -.257E+01 0.268E+02 -.307E+02   0.346E+01 -.269E+02 0.309E+02   -.891E+00 0.481E-01 -.184E+00   -.144E-04 -.455E-02 0.217E-02
   -.141E+02 -.169E+03 -.360E+02   0.139E+02 0.169E+03 0.354E+02   0.205E+00 -.464E+00 0.606E+00   0.729E-03 -.120E-02 0.333E-02
   -.652E+01 0.294E+02 -.304E+01   0.581E+01 -.294E+02 0.289E+01   0.712E+00 0.488E-01 0.153E+00   0.688E-03 -.284E-02 0.227E-02
   -.430E+02 -.853E+02 0.261E+02   0.433E+02 0.847E+02 -.261E+02   -.231E+00 0.591E+00 -.305E-02   -.124E-02 -.555E-02 0.176E-02
   0.749E+02 -.540E+02 0.113E+02   -.746E+02 0.541E+02 -.106E+02   -.267E+00 -.910E-01 -.687E+00   -.155E-02 0.852E-02 0.778E-02
   -.101E+03 0.271E+03 0.145E+03   0.101E+03 -.272E+03 -.145E+03   -.308E+00 0.984E-01 -.108E+00   -.124E-01 -.105E-01 -.461E-02
   -.158E+02 0.142E+03 -.192E+03   0.162E+02 -.143E+03 0.191E+03   -.431E+00 0.231E+00 0.353E+00   -.337E-03 0.147E-01 0.639E-02
   -.193E+02 0.113E+03 0.847E+02   0.200E+02 -.112E+03 -.850E+02   -.683E+00 -.260E+00 0.257E+00   -.439E-04 0.663E-02 -.102E-01
   0.893E+02 0.286E+03 0.150E+03   -.896E+02 -.286E+03 -.150E+03   0.301E+00 -.194E+00 0.446E+00   0.168E-01 -.115E-01 -.388E-02
   -.834E+02 -.700E+02 0.904E+02   0.832E+02 0.706E+02 -.897E+02   0.212E+00 -.597E+00 -.629E+00   0.208E-02 0.659E-02 0.589E-02
   -.796E+02 -.108E+03 0.965E+02   0.795E+02 0.108E+03 -.963E+02   0.180E+00 -.599E+00 -.269E+00   -.267E-02 0.151E-01 -.637E-02
   -.709E+02 0.182E+03 0.242E+03   0.703E+02 -.183E+03 -.243E+03   0.517E+00 0.310E+00 0.606E+00   0.518E-02 -.139E-01 -.500E-03
   0.369E+02 -.332E+03 0.215E+02   -.369E+02 0.332E+03 -.221E+02   0.435E-01 0.120E+00 0.595E+00   -.227E-03 -.281E-02 0.103E-01
 -----------------------------------------------------------------------------------------------
   0.635E-01 0.166E+00 -.204E+00   -.142E-13 -.284E-12 -.497E-13   -.697E-01 -.191E+00 0.214E+00   0.584E-02 0.201E-01 -.731E-02
 
 
 POSITION                                       TOTAL-FORCE (eV/Angst)
 -----------------------------------------------------------------------------------
      1.62221      1.75001      4.97912         0.001956      0.001686      0.000033
      1.85290      5.18997      1.72946         0.003406      0.003970     -0.007228
      6.99258      3.48139     10.24645        -0.003598     -0.006103      0.000687
      6.76334      6.77080      0.10173         0.004967     -0.000924      0.006129
      1.82922      8.42470      1.74173        -0.002627     -0.002498     -0.004469
      3.28877      0.04614      6.74184        -0.007167      0.000362      0.001305
      5.27991      8.53463      5.19700         0.003534      0.005009     -0.002995
      0.10793      6.74453      6.82649        -0.001832      0.001443     -0.007474
      1.92481      8.36212      8.62588         0.000240     -0.005185      0.000031
      3.70236      6.75516      0.04663        -0.000370      0.000257      0.001719
      6.91865     10.05803      3.34615        -0.003494      0.001373      0.000291
      3.45955     10.10758      3.54927        -0.001411     -0.004384     -0.001743
      5.14322      8.51925      1.89482         0.004587     -0.001770      0.000887
      3.58937      3.53050      3.53547         0.002936      0.000769      0.001255
      1.87587      5.17300      8.59238         0.001677      0.004771     -0.002574
      6.80215      3.58604      3.27999        -0.000887     -0.003645      0.003467
      0.08311      3.56309      6.94478        -0.000958      0.002529      0.008091
      1.75294      8.50665      5.00943        -0.000034      0.000242      0.003722
      3.48415      3.41632     10.10517        -0.003866     -0.005143      0.004419
      1.66880      1.78183      8.46229        -0.002516      0.001261     -0.003048
      5.17920      5.07229      8.53303        -0.002525     -0.002081      0.000061
      5.06819      5.09975      1.78627         0.001141      0.004200     -0.000486
      0.29126     10.16646      6.83028        -0.000934     -0.001835      0.003167
      3.60996      6.85786      3.50172         0.002299     -0.000678     -0.004185
      5.25474      5.17621      5.08665         0.003353      0.002987     -0.001866
      6.84299      6.83984      3.39846         0.003410     -0.002938      0.001706
      3.50772      6.67894      6.77015         0.001911     -0.002120     -0.004034
      1.75461      1.77887      1.89022        -0.004209      0.004845      0.001676
      6.94373     -0.03203      0.10787         0.004286      0.005380      0.003671
      5.36175      1.65926      5.12737        -0.002170      0.003058      0.000565
      5.36567      1.71847      8.40983         0.000021     -0.003426     -0.003890
      3.49093      0.13146     10.19947        -0.007953      0.004147     -0.001446
      5.07675      1.77180      1.84341         0.002399     -0.002057      0.001856
      3.46139      3.45289      6.81902         0.001953     -0.002754     -0.000394
      5.20791      8.55680      8.38478         0.000330      0.002166     -0.001480
      1.71449      5.07302      4.98531         0.002144     -0.002915      0.002573
 -----------------------------------------------------------------------------------
    total drift:                               -0.000425     -0.004810      0.002865


--------------------------------------------------------------------------------------------------------



  FREE ENERGIE OF THE ION-ELECTRON SYSTEM (eV)
  ---------------------------------------------------
  free  energy   TOTEN  =      -358.35733859 eV

  energy  without entropy=     -358.37196215  energy(sigma->0) =     -358.36221311
 
 d Force = 0.6268162E-04[ 0.406E-04, 0.847E-04]  d Energy = 0.5493431E-04 0.775E-05
 d Force = 0.1420343E+00[ 0.141E+00, 0.143E+00]  d Ewald  = 0.4070004E+00-0.265E+00


--------------------------------------------------------------------------------------------------------


    POTLOK:  cpu time    0.1425: real time    0.1431


--------------------------------------------------------------------------------------------------------


 Conjugate gradient step on ions:
 trial-energy change:   -0.000055  1 .order   -0.000056   -0.000075   -0.000038
  (g-gl).g = 0.502E-04      g.g   = 0.388E-04  gl.gl    = 0.651E-04
 g(Force)  = 0.224E-04   g(Stress)= 0.164E-04 ortho     = 0.661E-06
 gamma     =   0.77029
 trial     =   1.89640
 opt step  =   3.85089  (harmonic =   3.85089) maximal distance =0.00214353
 next E    =  -358.357359   (d E  =  -0.00008)


--------------------------------------------------------------------------------------------------------


  
 reached required accuracy - stopping structural energy minimisation
     LOOP+:  cpu time    5.3375: real time    5.7413
    4ORBIT:  cpu time    0.0000: real time    0.0000

 total amount of memory used by VASP on root node    69375. kBytes
========================================================================

   base      :      30000. kBytes
   nonlr-proj:      10487. kBytes
   fftplans  :       2814. kBytes
   grid      :       5360. kBytes
   one-center:        124. kBytes
   wavefun   :      20590. kBytes
 
  
  
 General timing and accounting informations for this job:
 ========================================================
  
                  Total CPU time used (sec):      241.205
                            User time (sec):      240.213
                          System time (sec):        0.991
                         Elapsed time (sec):      259.469
  
                   Maximum memory used (kb):      290992.
                   Average memory used (kb):           0.
  
                          Minor page faults:       146907
                          Major page faults:           34
                 Voluntary context switches:        10041
