  16  16   0   0
  0.2149618E+02  0.7064342E-09  0.6946631E-09  0.7008670E-09  0.1500000E-15
  1.000000000000000E-004
  CAR 
 automatically generated by mexm         
     12.11427091    -49.48801128  301      7.62269619      1.00000000
    -49.488  0.0000E+00  0.0000E+00
    -49.283  0.0000E+00  0.0000E+00
    -49.077  0.0000E+00  0.0000E+00
    -48.872  0.0000E+00  0.0000E+00
    -48.667  0.0000E+00  0.0000E+00
    -48.461  0.0000E+00  0.0000E+00
    -48.256  0.0000E+00  0.0000E+00
    -48.051 -0.1183E-36 -0.2428E-37
    -47.845 -0.9790E-27 -0.2010E-27
    -47.640 -0.1850E-18 -0.3799E-19
    -47.435 -0.7543E-12 -0.1549E-12
    -47.229 -0.6725E-07 -0.1381E-07
    -47.024 -0.1106E-03 -0.2272E-04
    -46.819 -0.8954E-04 -0.4111E-04
    -46.613  0.2840E-01  0.5791E-02
    -46.408  0.4655E-02  0.6747E-02
    -46.203 -0.3894E-03  0.6667E-02
    -45.997 -0.7664E-06  0.6667E-02
    -45.792 -0.2501E-10  0.6667E-02
    -45.587 -0.1442E-16  0.6667E-02
    -45.381  0.0000E+00  0.6667E-02
    -45.176  0.0000E+00  0.6667E-02
    -44.971  0.0000E+00  0.6667E-02
    -44.765  0.0000E+00  0.6667E-02
    -44.560  0.0000E+00  0.6667E-02
    -44.354  0.0000E+00  0.6667E-02
    -44.149  0.0000E+00  0.6667E-02
    -43.944  0.0000E+00  0.6667E-02
    -43.738  0.0000E+00  0.6667E-02
    -43.533  0.0000E+00  0.6667E-02
    -43.328  0.0000E+00  0.6667E-02
    -43.122  0.0000E+00  0.6667E-02
    -42.917  0.0000E+00  0.6667E-02
    -42.712  0.0000E+00  0.6667E-02
    -42.506  0.0000E+00  0.6667E-02
    -42.301  0.0000E+00  0.6667E-02
    -42.096 -0.1110E-36  0.6667E-02
    -41.890 -0.9263E-27  0.6667E-02
    -41.685 -0.1767E-18  0.6667E-02
    -41.480 -0.7292E-12  0.6667E-02
    -41.274 -0.6677E-07  0.6667E-02
    -41.069 -0.1247E-03  0.6641E-02
    -40.864 -0.3584E-02  0.5905E-02
    -40.658  0.7442E-01  0.2119E-01
    -40.453  0.1859E+00  0.5936E-01
    -40.248  0.4130E-02  0.6021E-01
    -40.042 -0.1021E-02  0.6000E-01
    -39.837 -0.1906E-05  0.6000E-01
    -39.632 -0.7975E-10  0.6000E-01
    -39.426 -0.7690E-16  0.6000E-01
    -39.221  0.0000E+00  0.6000E-01
    -39.016  0.0000E+00  0.6000E-01
    -38.810  0.0000E+00  0.6000E-01
    -38.605  0.0000E+00  0.6000E-01
    -38.400  0.0000E+00  0.6000E-01
    -38.194  0.0000E+00  0.6000E-01
    -37.989  0.0000E+00  0.6000E-01
    -37.784  0.0000E+00  0.6000E-01
    -37.578  0.0000E+00  0.6000E-01
    -37.373  0.0000E+00  0.6000E-01
    -37.168  0.0000E+00  0.6000E-01
    -36.962  0.0000E+00  0.6000E-01
    -36.757  0.0000E+00  0.6000E-01
    -36.552  0.0000E+00  0.6000E-01
    -36.346  0.0000E+00  0.6000E-01
    -36.141  0.0000E+00  0.6000E-01
    -35.936  0.0000E+00  0.6000E-01
    -35.730  0.0000E+00  0.6000E-01
    -35.525  0.0000E+00  0.6000E-01
    -35.319  0.0000E+00  0.6000E-01
    -35.114  0.0000E+00  0.6000E-01
    -34.909  0.0000E+00  0.6000E-01
    -34.703  0.0000E+00  0.6000E-01
    -34.498  0.0000E+00  0.6000E-01
    -34.293  0.0000E+00  0.6000E-01
    -34.087  0.0000E+00  0.6000E-01
    -33.882  0.0000E+00  0.6000E-01
    -33.677  0.0000E+00  0.6000E-01
    -33.471  0.0000E+00  0.6000E-01
    -33.266  0.0000E+00  0.6000E-01
    -33.061  0.0000E+00  0.6000E-01
    -32.855  0.0000E+00  0.6000E-01
    -32.650  0.0000E+00  0.6000E-01
    -32.445  0.0000E+00  0.6000E-01
    -32.239  0.0000E+00  0.6000E-01
    -32.034  0.0000E+00  0.6000E-01
    -31.829  0.0000E+00  0.6000E-01
    -31.623  0.0000E+00  0.6000E-01
    -31.418  0.0000E+00  0.6000E-01
    -31.213  0.0000E+00  0.6000E-01
    -31.007  0.0000E+00  0.6000E-01
    -30.802  0.0000E+00  0.6000E-01
    -30.597  0.0000E+00  0.6000E-01
    -30.391  0.0000E+00  0.6000E-01
    -30.186  0.0000E+00  0.6000E-01
    -29.981  0.0000E+00  0.6000E-01
    -29.775  0.0000E+00  0.6000E-01
    -29.570  0.0000E+00  0.6000E-01
    -29.365  0.0000E+00  0.6000E-01
    -29.159  0.0000E+00  0.6000E-01
    -28.954  0.0000E+00  0.6000E-01
    -28.749  0.0000E+00  0.6000E-01
    -28.543  0.0000E+00  0.6000E-01
    -28.338  0.0000E+00  0.6000E-01
    -28.133  0.0000E+00  0.6000E-01
    -27.927  0.0000E+00  0.6000E-01
    -27.722  0.0000E+00  0.6000E-01
    -27.517  0.0000E+00  0.6000E-01
    -27.311  0.0000E+00  0.6000E-01
    -27.106  0.0000E+00  0.6000E-01
    -26.901  0.0000E+00  0.6000E-01
    -26.695  0.0000E+00  0.6000E-01
    -26.490  0.0000E+00  0.6000E-01
    -26.284  0.0000E+00  0.6000E-01
    -26.079  0.0000E+00  0.6000E-01
    -25.874  0.0000E+00  0.6000E-01
    -25.668  0.0000E+00  0.6000E-01
    -25.463  0.0000E+00  0.6000E-01
    -25.258  0.0000E+00  0.6000E-01
    -25.052  0.0000E+00  0.6000E-01
    -24.847  0.0000E+00  0.6000E-01
    -24.642  0.0000E+00  0.6000E-01
    -24.436  0.0000E+00  0.6000E-01
    -24.231 -0.3173E-37  0.6000E-01
    -24.026 -0.3325E-27  0.6000E-01
    -23.820 -0.8064E-19  0.6000E-01
    -23.615 -0.4378E-12  0.6000E-01
    -23.410 -0.5519E-07  0.6000E-01
    -23.204 -0.1437E-03  0.5997E-01
    -22.999 -0.2722E-02  0.5941E-01
    -22.794  0.7229E-01  0.7425E-01
    -22.588  0.3008E-01  0.8043E-01
    -22.383 -0.2091E-02  0.8000E-01
    -22.178 -0.1044E-04  0.8000E-01
    -21.972 -0.8024E-09  0.8000E-01
    -21.767 -0.1303E-14  0.8000E-01
    -21.562  0.0000E+00  0.8000E-01
    -21.356  0.0000E+00  0.8000E-01
    -21.151  0.0000E+00  0.8000E-01
    -20.946  0.0000E+00  0.8000E-01
    -20.740  0.0000E+00  0.8000E-01
    -20.535 -0.2096E-34  0.8000E-01
    -20.330 -0.5644E-25  0.8000E-01
    -20.124 -0.3601E-17  0.8000E-01
    -19.919 -0.5376E-11  0.8000E-01
    -19.714 -0.2098E-06  0.8000E-01
    -19.508 -0.2032E-03  0.7996E-01
    -19.303 -0.1069E-02  0.7974E-01
    -19.098  0.5992E-01  0.9204E-01
    -18.892  0.8751E-01  0.1100E+00
    -18.687  0.2637E+00  0.1642E+00
    -18.482  0.2618E+00  0.2179E+00
    -18.276  0.9803E-01  0.2380E+00
    -18.071  0.1060E-01  0.2402E+00
    -17.866 -0.1090E-02  0.2400E+00
    -17.660 -0.5571E-05  0.2400E+00
    -17.455 -0.5362E-09  0.2400E+00
    -17.249 -0.1180E-14  0.2400E+00
    -17.044  0.0000E+00  0.2400E+00
    -16.839  0.0000E+00  0.2400E+00
    -16.633  0.0000E+00  0.2400E+00
    -16.428  0.0000E+00  0.2400E+00
    -16.223  0.0000E+00  0.2400E+00
    -16.017  0.0000E+00  0.2400E+00
    -15.812  0.0000E+00  0.2400E+00
    -15.607  0.0000E+00  0.2400E+00
    -15.401  0.0000E+00  0.2400E+00
    -15.196  0.0000E+00  0.2400E+00
    -14.991  0.0000E+00  0.2400E+00
    -14.785  0.0000E+00  0.2400E+00
    -14.580  0.0000E+00  0.2400E+00
    -14.375  0.0000E+00  0.2400E+00
    -14.169  0.0000E+00  0.2400E+00
    -13.964  0.0000E+00  0.2400E+00
    -13.759  0.0000E+00  0.2400E+00
    -13.553  0.0000E+00  0.2400E+00
    -13.348  0.0000E+00  0.2400E+00
    -13.143  0.0000E+00  0.2400E+00
    -12.937  0.0000E+00  0.2400E+00
    -12.732  0.0000E+00  0.2400E+00
    -12.527  0.0000E+00  0.2400E+00
    -12.321  0.0000E+00  0.2400E+00
    -12.116  0.0000E+00  0.2400E+00
    -11.911  0.0000E+00  0.2400E+00
    -11.705  0.0000E+00  0.2400E+00
    -11.500  0.0000E+00  0.2400E+00
    -11.295  0.0000E+00  0.2400E+00
    -11.089  0.0000E+00  0.2400E+00
    -10.884  0.0000E+00  0.2400E+00
    -10.679  0.0000E+00  0.2400E+00
    -10.473  0.0000E+00  0.2400E+00
    -10.268  0.0000E+00  0.2400E+00
    -10.063  0.0000E+00  0.2400E+00
     -9.857  0.0000E+00  0.2400E+00
     -9.652  0.0000E+00  0.2400E+00
     -9.447  0.0000E+00  0.2400E+00
     -9.241  0.0000E+00  0.2400E+00
     -9.036  0.0000E+00  0.2400E+00
     -8.831  0.0000E+00  0.2400E+00
     -8.625  0.0000E+00  0.2400E+00
     -8.420  0.0000E+00  0.2400E+00
     -8.214  0.0000E+00  0.2400E+00
     -8.009  0.0000E+00  0.2400E+00
     -7.804  0.0000E+00  0.2400E+00
     -7.598  0.0000E+00  0.2400E+00
     -7.393  0.0000E+00  0.2400E+00
     -7.188  0.0000E+00  0.2400E+00
     -6.982  0.0000E+00  0.2400E+00
     -6.777  0.0000E+00  0.2400E+00
     -6.572  0.0000E+00  0.2400E+00
     -6.366  0.0000E+00  0.2400E+00
     -6.161  0.0000E+00  0.2400E+00
     -5.956  0.0000E+00  0.2400E+00
     -5.750  0.0000E+00  0.2400E+00
     -5.545  0.0000E+00  0.2400E+00
     -5.340  0.0000E+00  0.2400E+00
     -5.134  0.0000E+00  0.2400E+00
     -4.929  0.0000E+00  0.2400E+00
     -4.724  0.0000E+00  0.2400E+00
     -4.518  0.0000E+00  0.2400E+00
     -4.313  0.0000E+00  0.2400E+00
     -4.108  0.0000E+00  0.2400E+00
     -3.902  0.0000E+00  0.2400E+00
     -3.697  0.0000E+00  0.2400E+00
     -3.492  0.0000E+00  0.2400E+00
     -3.286  0.0000E+00  0.2400E+00
     -3.081  0.0000E+00  0.2400E+00
     -2.876  0.0000E+00  0.2400E+00
     -2.670  0.0000E+00  0.2400E+00
     -2.465  0.0000E+00  0.2400E+00
     -2.260  0.0000E+00  0.2400E+00
     -2.054  0.0000E+00  0.2400E+00
     -1.849  0.0000E+00  0.2400E+00
     -1.644  0.0000E+00  0.2400E+00
     -1.438  0.0000E+00  0.2400E+00
     -1.233  0.0000E+00  0.2400E+00
     -1.028  0.0000E+00  0.2400E+00
     -0.822  0.0000E+00  0.2400E+00
     -0.617  0.0000E+00  0.2400E+00
     -0.412  0.0000E+00  0.2400E+00
     -0.206 -0.7622E-40  0.2400E+00
     -0.001 -0.1162E-29  0.2400E+00
      0.204 -0.4053E-21  0.2400E+00
      0.410 -0.3070E-14  0.2400E+00
      0.615 -0.5128E-09  0.2400E+00
      0.821 -0.1646E-05  0.2400E+00
      1.026 -0.3718E-04  0.2400E+00
      1.231  0.9085E-03  0.2402E+00
      1.437  0.2053E-03  0.2402E+00
      1.642  0.2140E-02  0.2407E+00
      1.847  0.5245E-02  0.2417E+00
      2.053  0.2080E-02  0.2422E+00
      2.258  0.1233E-01  0.2447E+00
      2.463  0.1151E-02  0.2449E+00
      2.669  0.8395E-02  0.2467E+00
      2.874 -0.8389E-04  0.2466E+00
      3.079  0.8797E-02  0.2484E+00
      3.285  0.1359E-01  0.2512E+00
      3.490  0.1607E-01  0.2545E+00
      3.695  0.1479E-01  0.2576E+00
      3.901  0.1002E-01  0.2596E+00
      4.106  0.2261E-01  0.2643E+00
      4.311  0.2261E-01  0.2689E+00
      4.517  0.2632E-01  0.2743E+00
      4.722  0.3618E-01  0.2817E+00
      4.927  0.5283E-01  0.2926E+00
      5.133  0.6068E-01  0.3051E+00
      5.338  0.5218E-01  0.3158E+00
      5.543  0.6263E-01  0.3286E+00
      5.749  0.5430E-01  0.3398E+00
      5.954  0.5649E-01  0.3514E+00
      6.159  0.3926E-01  0.3594E+00
      6.365  0.4852E-01  0.3694E+00
      6.570  0.6896E-01  0.3836E+00
      6.775  0.7427E-01  0.3988E+00
      6.981  0.9719E-01  0.4188E+00
      7.186  0.9617E-01  0.4385E+00
      7.391  0.7321E-01  0.4536E+00
      7.597  0.5644E-01  0.4651E+00
      7.802  0.7146E-01  0.4798E+00
      8.007  0.8840E-01  0.4980E+00
      8.213  0.8415E-01  0.5153E+00
      8.418  0.6942E-01  0.5295E+00
      8.623  0.4062E-01  0.5379E+00
      8.829  0.2935E-01  0.5439E+00
      9.034  0.4157E-01  0.5524E+00
      9.239  0.2999E-01  0.5586E+00
      9.445  0.7294E-02  0.5601E+00
      9.650 -0.3200E-03  0.5600E+00
      9.856 -0.1833E-04  0.5600E+00
     10.061 -0.1022E-07  0.5600E+00
     10.266 -0.1129E-12  0.5600E+00
     10.472  0.0000E+00  0.5600E+00
     10.677  0.0000E+00  0.5600E+00
     10.882  0.0000E+00  0.5600E+00
     11.088  0.0000E+00  0.5600E+00
     11.293  0.0000E+00  0.5600E+00
     11.498  0.0000E+00  0.5600E+00
     11.704  0.0000E+00  0.5600E+00
     11.909  0.0000E+00  0.5600E+00
     12.114  0.0000E+00  0.5600E+00
