   16   16  300    1
  0.2149618E+02  0.7064342E-09  0.6946631E-09  0.7008670E-09  0.1500000E-15
  1.000000000000000E-004
  CAR 
 automatically generated by mexm         
    140     10     84
 
  0.0000000E+00  0.0000000E+00  0.0000000E+00  0.3703704E-01
    1      -46.687755   1.000000
    2      -40.736388   1.000000
    3      -40.634713   1.000000
    4      -40.627827   1.000000
    5      -40.604073   1.000000
    6      -40.593986   1.000000
    7      -40.584886   1.000000
    8      -40.570690   1.000000
    9      -40.507473   1.000000
   10      -22.856884   1.000000
   11      -22.827410   1.000000
   12      -22.816681   1.000000
   13      -19.232776   1.000000
   14      -19.160889   1.000000
   15      -19.068715   1.000000
   16      -18.865338   1.000000
   17      -18.862493   1.000000
   18      -18.828081   1.000000
   19      -18.809856   1.000000
   20      -18.789752   1.000000
   21      -18.743103   1.000000
   22      -18.742791   1.000000
   23      -18.732826   1.000000
   24      -18.724371   1.000000
   25      -18.709303   1.000000
   26      -18.697710   1.000000
   27      -18.694985   1.000000
   28      -18.598372   1.000000
   29      -18.591798   1.000000
   30      -18.581858   1.000000
   31      -18.567121   1.000000
   32      -18.564272   1.000000
   33      -18.547978   1.000000
   34      -18.404952   1.000000
   35      -18.353833   1.000000
   36      -18.271969   1.000000
   37        1.189836   1.000000
   38        3.862010   1.000000
   39        4.033208   1.000000
   40        4.055415   1.000000
   41        4.252196   1.000000
   42        4.399441   1.000000
   43        4.477687   1.000000
   44        4.518268   1.000000
   45        4.551338   1.000000
   46        4.631006   1.000000
   47        4.829500   1.000000
   48        4.897834   1.000000
   49        4.910127   1.000000
   50        5.095755   1.000000
   51        5.133713   1.000000
   52        6.132984   1.000000
   53        6.357140   1.000000
   54        6.373187   1.000000
   55        6.545693   1.000000
   56        6.550012   1.000000
   57        6.607852   1.000000
   58        6.660456   1.000000
   59        6.780721   1.000000
   60        6.796749   1.000000
   61        6.816512   1.000000
   62        6.882622   1.000000
   63        6.955100   1.000000
   64        6.968922   1.000000
   65        7.041664   1.000000
   66        7.085604   1.000003
   67        7.349711   1.013678
   68        7.503870   0.988018
   69        7.861088  -0.023562
   70        8.300262  -0.000000
   71        8.309694  -0.000000
   72        8.431301  -0.000000
   73        8.481745  -0.000000
   74        8.639587  -0.000000
   75        8.660010  -0.000000
   76        8.743663  -0.000000
   77        8.792859  -0.000000
   78        8.879623  -0.000000
   79        8.951231  -0.000000
   80        9.002267  -0.000000
   81        9.063475  -0.000000
   82        9.077599  -0.000000
   83        9.109948  -0.000000
   84        9.163590  -0.000000
 
  0.3333333E+00 -0.2710505E-19  0.0000000E+00  0.7407407E-01
    1      -46.687865   1.000000
    2      -40.733352   1.000000
    3      -40.647912   1.000000
    4      -40.621603   1.000000
    5      -40.607483   1.000000
    6      -40.588685   1.000000
    7      -40.579445   1.000000
    8      -40.573094   1.000000
    9      -40.509171   1.000000
   10      -22.856851   1.000000
   11      -22.827260   1.000000
   12      -22.816364   1.000000
   13      -19.186165   1.000000
   14      -19.113935   1.000000
   15      -19.072179   1.000000
   16      -19.019959   1.000000
   17      -18.883636   1.000000
   18      -18.837443   1.000000
   19      -18.812385   1.000000
   20      -18.793013   1.000000
   21      -18.787554   1.000000
   22      -18.741525   1.000000
   23      -18.734928   1.000000
   24      -18.723886   1.000000
   25      -18.686402   1.000000
   26      -18.673100   1.000000
   27      -18.612074   1.000000
   28      -18.601768   1.000000
   29      -18.588389   1.000000
   30      -18.569266   1.000000
   31      -18.553972   1.000000
   32      -18.530509   1.000000
   33      -18.496231   1.000000
   34      -18.427345   1.000000
   35      -18.390974   1.000000
   36      -18.319474   1.000000
   37        1.683392   1.000000
   38        2.968784   1.000000
   39        4.018465   1.000000
   40        4.302032   1.000000
   41        4.320445   1.000000
   42        4.490973   1.000000
   43        4.527843   1.000000
   44        4.737437   1.000000
   45        4.803820   1.000000
   46        4.882810   1.000000
   47        4.920420   1.000000
   48        5.030977   1.000000
   49        5.125958   1.000000
   50        5.312427   1.000000
   51        5.452255   1.000000
   52        5.841948   1.000000
   53        5.854500   1.000000
   54        6.036594   1.000000
   55        6.238731   1.000000
   56        6.306541   1.000000
   57        6.389452   1.000000
   58        6.457698   1.000000
   59        6.897366   1.000000
   60        6.964448   1.000000
   61        7.005195   1.000000
   62        7.125945   1.000015
   63        7.214399   1.000406
   64        7.221817   1.000518
   65        7.252442   1.001332
   66        7.416308   1.032615
   67        7.472110   1.025528
   68        7.650821   0.344379
   69        7.813923  -0.035097
   70        7.934861  -0.006098
   71        7.953243  -0.003922
   72        7.998422  -0.001133
   73        8.052722  -0.000193
   74        8.135852  -0.000007
   75        8.198143  -0.000000
   76        8.453198  -0.000000
   77        8.460244  -0.000000
   78        8.586261  -0.000000
   79        8.621735  -0.000000
   80        8.668270  -0.000000
   81        8.709984  -0.000000
   82        8.821891  -0.000000
   83        8.889009  -0.000000
   84        9.076985  -0.000000
 
  0.0000000E+00  0.3333333E+00  0.0000000E+00  0.7407407E-01
    1      -46.687834   1.000000
    2      -40.733848   1.000000
    3      -40.646572   1.000000
    4      -40.621683   1.000000
    5      -40.604040   1.000000
    6      -40.588790   1.000000
    7      -40.582152   1.000000
    8      -40.574987   1.000000
    9      -40.508487   1.000000
   10      -22.856926   1.000000
   11      -22.828112   1.000000
   12      -22.816765   1.000000
   13      -19.182887   1.000000
   14      -19.114295   1.000000
   15      -19.064793   1.000000
   16      -19.029650   1.000000
   17      -18.902427   1.000000
   18      -18.822813   1.000000
   19      -18.807450   1.000000
   20      -18.791580   1.000000
   21      -18.772074   1.000000
   22      -18.733690   1.000000
   23      -18.720623   1.000000
   24      -18.710995   1.000000
   25      -18.686724   1.000000
   26      -18.674776   1.000000
   27      -18.621573   1.000000
   28      -18.601473   1.000000
   29      -18.592967   1.000000
   30      -18.576973   1.000000
   31      -18.568295   1.000000
   32      -18.547979   1.000000
   33      -18.495049   1.000000
   34      -18.427282   1.000000
   35      -18.393208   1.000000
   36      -18.317245   1.000000
   37        1.691600   1.000000
   38        3.007586   1.000000
   39        4.130523   1.000000
   40        4.302135   1.000000
   41        4.421889   1.000000
   42        4.543648   1.000000
   43        4.597678   1.000000
   44        4.805851   1.000000
   45        4.868078   1.000000
   46        4.911786   1.000000
   47        4.972500   1.000000
   48        4.979492   1.000000
   49        5.066645   1.000000
   50        5.121982   1.000000
   51        5.562078   1.000000
   52        5.585348   1.000000
   53        5.914850   1.000000
   54        6.020204   1.000000
   55        6.477483   1.000000
   56        6.619823   1.000000
   57        6.674476   1.000000
   58        6.764908   1.000000
   59        6.793939   1.000000
   60        6.932955   1.000000
   61        6.947440   1.000000
   62        6.989668   1.000000
   63        7.021528   1.000000
   64        7.050180   1.000000
   65        7.163328   1.000066
   66        7.303723   1.005201
   67        7.328355   1.009014
   68        7.408124   1.030606
   69        7.846651  -0.027961
   70        7.898746  -0.012930
   71        7.909870  -0.010435
   72        7.952828  -0.003963
   73        8.091335  -0.000046
   74        8.136898  -0.000007
   75        8.209553  -0.000000
   76        8.268430  -0.000000
   77        8.378785  -0.000000
   78        8.470142  -0.000000
   79        8.506358  -0.000000
   80        8.619255  -0.000000
   81        8.641893  -0.000000
   82        8.759658  -0.000000
   83        8.990592  -0.000000
   84        9.245467  -0.000000
 
  0.3333333E+00  0.3333333E+00  0.0000000E+00  0.7407407E-01
    1      -46.687854   1.000000
    2      -40.733056   1.000000
    3      -40.641797   1.000000
    4      -40.628268   1.000000
    5      -40.604914   1.000000
    6      -40.590366   1.000000
    7      -40.581320   1.000000
    8      -40.572667   1.000000
    9      -40.508306   1.000000
   10      -22.856844   1.000000
   11      -22.827751   1.000000
   12      -22.816319   1.000000
   13      -19.235521   1.000000
   14      -19.117200   1.000000
   15      -19.024915   1.000000
   16      -18.937978   1.000000
   17      -18.858347   1.000000
   18      -18.838089   1.000000
   19      -18.795134   1.000000
   20      -18.777725   1.000000
   21      -18.765460   1.000000
   22      -18.764538   1.000000
   23      -18.721970   1.000000
   24      -18.713372   1.000000
   25      -18.698740   1.000000
   26      -18.689017   1.000000
   27      -18.664713   1.000000
   28      -18.625672   1.000000
   29      -18.614988   1.000000
   30      -18.585115   1.000000
   31      -18.581241   1.000000
   32      -18.578970   1.000000
   33      -18.478189   1.000000
   34      -18.454913   1.000000
   35      -18.370432   1.000000
   36      -18.272512   1.000000
   37        2.123430   1.000000
   38        3.239180   1.000000
   39        3.346810   1.000000
   40        3.879061   1.000000
   41        4.709282   1.000000
   42        4.742696   1.000000
   43        4.911939   1.000000
   44        4.979758   1.000000
   45        5.044453   1.000000
   46        5.060039   1.000000
   47        5.217750   1.000000
   48        5.317021   1.000000
   49        5.402335   1.000000
   50        5.483658   1.000000
   51        5.591512   1.000000
   52        5.742209   1.000000
   53        5.869051   1.000000
   54        6.028561   1.000000
   55        6.184719   1.000000
   56        6.356464   1.000000
   57        6.494209   1.000000
   58        6.585295   1.000000
   59        6.671325   1.000000
   60        6.718455   1.000000
   61        6.833220   1.000000
   62        6.858286   1.000000
   63        6.925178   1.000000
   64        7.107485   1.000007
   65        7.196502   1.000221
   66        7.243260   1.001014
   67        7.335106   1.010348
   68        7.393542   1.026401
   69        7.438682   1.035457
   70        7.646543   0.367326
   71        7.669817   0.248138
   72        7.755355  -0.008600
   73        7.856118  -0.025095
   74        7.914788  -0.009444
   75        7.943862  -0.004936
   76        8.095892  -0.000038
   77        8.226521  -0.000000
   78        8.263121  -0.000000
   79        8.321176  -0.000000
   80        8.361083  -0.000000
   81        8.526566  -0.000000
   82        9.018609  -0.000000
   83        9.061926  -0.000000
   84        9.167510  -0.000000
 
 -0.3333333E+00  0.3333333E+00  0.0000000E+00  0.7407407E-01
    1      -46.687848   1.000000
    2      -40.732107   1.000000
    3      -40.649248   1.000000
    4      -40.622577   1.000000
    5      -40.600493   1.000000
    6      -40.595192   1.000000
    7      -40.579195   1.000000
    8      -40.572895   1.000000
    9      -40.508946   1.000000
   10      -22.856834   1.000000
   11      -22.827693   1.000000
   12      -22.816335   1.000000
   13      -19.184271   1.000000
   14      -19.074690   1.000000
   15      -19.052555   1.000000
   16      -19.003383   1.000000
   17      -18.995414   1.000000
   18      -18.819533   1.000000
   19      -18.793430   1.000000
   20      -18.781079   1.000000
   21      -18.747120   1.000000
   22      -18.732599   1.000000
   23      -18.723206   1.000000
   24      -18.704318   1.000000
   25      -18.685247   1.000000
   26      -18.675164   1.000000
   27      -18.654259   1.000000
   28      -18.628542   1.000000
   29      -18.599285   1.000000
   30      -18.584099   1.000000
   31      -18.582595   1.000000
   32      -18.520306   1.000000
   33      -18.469056   1.000000
   34      -18.426139   1.000000
   35      -18.410421   1.000000
   36      -18.317876   1.000000
   37        2.141938   1.000000
   38        3.058495   1.000000
   39        3.543487   1.000000
   40        3.857340   1.000000
   41        4.682596   1.000000
   42        4.765417   1.000000
   43        4.866528   1.000000
   44        4.992427   1.000000
   45        5.050431   1.000000
   46        5.100347   1.000000
   47        5.228205   1.000000
   48        5.310279   1.000000
   49        5.384729   1.000000
   50        5.475759   1.000000
   51        5.598341   1.000000
   52        5.731172   1.000000
   53        5.886851   1.000000
   54        6.044057   1.000000
   55        6.169959   1.000000
   56        6.360161   1.000000
   57        6.500240   1.000000
   58        6.590519   1.000000
   59        6.676254   1.000000
   60        6.719001   1.000000
   61        6.808026   1.000000
   62        6.843753   1.000000
   63        6.919838   1.000000
   64        7.119403   1.000011
   65        7.175876   1.000105
   66        7.232909   1.000737
   67        7.357184   1.015608
   68        7.389570   1.025186
   69        7.416357   1.032626
   70        7.603477   0.607451
   71        7.728334   0.038650
   72        7.756096  -0.009505
   73        7.896188  -0.013553
   74        7.902332  -0.012087
   75        7.936801  -0.005831
   76        8.081986  -0.000066
   77        8.236658  -0.000000
   78        8.262133  -0.000000
   79        8.311408  -0.000000
   80        8.344776  -0.000000
   81        8.553070  -0.000000
   82        8.997996  -0.000000
   83        9.078261  -0.000000
   84        9.168771  -0.000000
 
  0.0000000E+00  0.0000000E+00  0.3333333E+00  0.7407407E-01
    1      -46.687814   1.000000
    2      -40.733318   1.000000
    3      -40.646199   1.000000
    4      -40.627003   1.000000
    5      -40.594478   1.000000
    6      -40.593965   1.000000
    7      -40.585753   1.000000
    8      -40.570898   1.000000
    9      -40.508802   1.000000
   10      -22.857492   1.000000
   11      -22.827437   1.000000
   12      -22.816716   1.000000
   13      -19.166206   1.000000
   14      -19.135456   1.000000
   15      -19.071466   1.000000
   16      -18.995115   1.000000
   17      -18.955925   1.000000
   18      -18.828071   1.000000
   19      -18.790005   1.000000
   20      -18.774404   1.000000
   21      -18.753359   1.000000
   22      -18.734150   1.000000
   23      -18.734086   1.000000
   24      -18.711410   1.000000
   25      -18.707867   1.000000
   26      -18.672595   1.000000
   27      -18.638050   1.000000
   28      -18.588923   1.000000
   29      -18.583565   1.000000
   30      -18.580414   1.000000
   31      -18.564869   1.000000
   32      -18.551120   1.000000
   33      -18.480921   1.000000
   34      -18.410451   1.000000
   35      -18.410436   1.000000
   36      -18.315081   1.000000
   37        1.673516   1.000000
   38        3.053941   1.000000
   39        4.005462   1.000000
   40        4.183866   1.000000
   41        4.240344   1.000000
   42        4.449690   1.000000
   43        4.743114   1.000000
   44        4.751859   1.000000
   45        4.845890   1.000000
   46        4.961015   1.000000
   47        4.963585   1.000000
   48        5.011866   1.000000
   49        5.130613   1.000000
   50        5.302988   1.000000
   51        5.597427   1.000000
   52        5.916940   1.000000
   53        6.060327   1.000000
   54        6.105510   1.000000
   55        6.124050   1.000000
   56        6.130460   1.000000
   57        6.511427   1.000000
   58        6.548434   1.000000
   59        6.884551   1.000000
   60        6.891472   1.000000
   61        6.896257   1.000000
   62        6.970545   1.000000
   63        7.086488   1.000003
   64        7.142765   1.000029
   65        7.169863   1.000084
   66        7.282086   1.003031
   67        7.390837   1.025575
   68        7.691891   0.151894
   69        7.849836  -0.027011
   70        7.884013  -0.016752
   71        7.933212  -0.006333
   72        7.934098  -0.006206
   73        8.115745  -0.000017
   74        8.167839  -0.000002
   75        8.220103  -0.000000
   76        8.468744  -0.000000
   77        8.579517  -0.000000
   78        8.653605  -0.000000
   79        8.661322  -0.000000
   80        8.676389  -0.000000
   81        8.703526  -0.000000
   82        8.832715  -0.000000
   83        8.881611  -0.000000
   84        8.978474  -0.000000
 
  0.3333333E+00 -0.2710505E-19  0.3333333E+00  0.1481481E+00
    1      -46.687908   1.000000
    2      -40.731737   1.000000
    3      -40.648548   1.000000
    4      -40.624326   1.000000
    5      -40.606943   1.000000
    6      -40.589439   1.000000
    7      -40.577559   1.000000
    8      -40.573143   1.000000
    9      -40.509316   1.000000
   10      -22.857434   1.000000
   11      -22.827269   1.000000
   12      -22.816444   1.000000
   13      -19.189326   1.000000
   14      -19.134031   1.000000
   15      -19.049482   1.000000
   16      -18.999486   1.000000
   17      -18.859556   1.000000
   18      -18.819213   1.000000
   19      -18.789049   1.000000
   20      -18.782850   1.000000
   21      -18.773039   1.000000
   22      -18.737797   1.000000
   23      -18.734810   1.000000
   24      -18.725774   1.000000
   25      -18.712765   1.000000
   26      -18.684469   1.000000
   27      -18.657584   1.000000
   28      -18.622580   1.000000
   29      -18.607450   1.000000
   30      -18.581517   1.000000
   31      -18.564285   1.000000
   32      -18.551088   1.000000
   33      -18.480828   1.000000
   34      -18.434325   1.000000
   35      -18.376123   1.000000
   36      -18.297255   1.000000
   37        2.118223   1.000000
   38        3.208727   1.000000
   39        3.372988   1.000000
   40        3.894700   1.000000
   41        4.562838   1.000000
   42        4.748966   1.000000
   43        4.829971   1.000000
   44        4.927423   1.000000
   45        5.009064   1.000000
   46        5.101226   1.000000
   47        5.163377   1.000000
   48        5.226484   1.000000
   49        5.336825   1.000000
   50        5.402195   1.000000
   51        5.626818   1.000000
   52        5.694400   1.000000
   53        5.776087   1.000000
   54        6.238151   1.000000
   55        6.318784   1.000000
   56        6.345461   1.000000
   57        6.439046   1.000000
   58        6.605045   1.000000
   59        6.652057   1.000000
   60        6.743647   1.000000
   61        6.769159   1.000000
   62        6.988048   1.000000
   63        7.049528   1.000000
   64        7.112491   1.000008
   65        7.178941   1.000118
   66        7.241538   1.000962
   67        7.378011   1.021628
   68        7.485410   1.013949
   69        7.526453   0.937817
   70        7.714044   0.075995
   71        7.742483   0.010318
   72        7.902532  -0.012041
   73        7.949223  -0.004333
   74        7.991100  -0.001406
   75        8.012344  -0.000740
   76        8.111786  -0.000020
   77        8.128685  -0.000010
   78        8.145010  -0.000005
   79        8.320659  -0.000000
   80        8.367324  -0.000000
   81        8.438207  -0.000000
   82        8.984183  -0.000000
   83        9.209943  -0.000000
   84        9.314167  -0.000000
 
  0.0000000E+00  0.3333333E+00  0.3333333E+00  0.1481481E+00
    1      -46.687822   1.000000
    2      -40.732113   1.000000
    3      -40.647266   1.000000
    4      -40.625016   1.000000
    5      -40.603352   1.000000
    6      -40.587841   1.000000
    7      -40.581715   1.000000
    8      -40.574670   1.000000
    9      -40.508504   1.000000
   10      -22.857426   1.000000
   11      -22.827982   1.000000
   12      -22.816780   1.000000
   13      -19.186382   1.000000
   14      -19.125124   1.000000
   15      -19.056563   1.000000
   16      -19.007573   1.000000
   17      -18.860007   1.000000
   18      -18.811282   1.000000
   19      -18.789193   1.000000
   20      -18.775214   1.000000
   21      -18.768445   1.000000
   22      -18.740612   1.000000
   23      -18.725284   1.000000
   24      -18.711293   1.000000
   25      -18.702237   1.000000
   26      -18.671394   1.000000
   27      -18.665137   1.000000
   28      -18.626673   1.000000
   29      -18.609185   1.000000
   30      -18.599782   1.000000
   31      -18.579483   1.000000
   32      -18.562182   1.000000
   33      -18.480572   1.000000
   34      -18.436359   1.000000
   35      -18.374247   1.000000
   36      -18.298918   1.000000
   37        2.119807   1.000000
   38        3.113459   1.000000
   39        3.576238   1.000000
   40        4.031899   1.000000
   41        4.472304   1.000000
   42        4.643140   1.000000
   43        4.858314   1.000000
   44        5.027240   1.000000
   45        5.130024   1.000000
   46        5.171503   1.000000
   47        5.274267   1.000000
   48        5.331653   1.000000
   49        5.441002   1.000000
   50        5.476946   1.000000
   51        5.594529   1.000000
   52        5.843311   1.000000
   53        5.906856   1.000000
   54        6.056281   1.000000
   55        6.230901   1.000000
   56        6.427713   1.000000
   57        6.459132   1.000000
   58        6.569413   1.000000
   59        6.675883   1.000000
   60        6.709729   1.000000
   61        6.774370   1.000000
   62        6.858732   1.000000
   63        6.877429   1.000000
   64        7.092554   1.000003
   65        7.105072   1.000006
   66        7.247704   1.001158
   67        7.279840   1.002857
   68        7.390782   1.025558
   69        7.395998   1.027144
   70        7.554266   0.845104
   71        7.639654   0.405002
   72        7.693102   0.147184
   73        7.698640   0.126467
   74        7.884214  -0.016696
   75        7.970159  -0.002527
   76        8.133142  -0.000008
   77        8.187844  -0.000001
   78        8.312003  -0.000000
   79        8.326325  -0.000000
   80        8.475590  -0.000000
   81        8.766656  -0.000000
   82        8.963348  -0.000000
   83        8.988967  -0.000000
   84        9.104684  -0.000000
 
  0.3333333E+00  0.3333333E+00  0.3333333E+00  0.1481481E+00
    1      -46.687819   1.000000
    2      -40.731324   1.000000
    3      -40.644532   1.000000
    4      -40.627231   1.000000
    5      -40.604697   1.000000
    6      -40.592024   1.000000
    7      -40.581829   1.000000
    8      -40.570418   1.000000
    9      -40.508409   1.000000
   10      -22.857232   1.000000
   11      -22.827635   1.000000
   12      -22.816282   1.000000
   13      -19.168160   1.000000
   14      -19.101763   1.000000
   15      -19.057182   1.000000
   16      -18.989325   1.000000
   17      -18.927952   1.000000
   18      -18.849608   1.000000
   19      -18.783137   1.000000
   20      -18.768658   1.000000
   21      -18.761127   1.000000
   22      -18.736760   1.000000
   23      -18.724066   1.000000
   24      -18.710499   1.000000
   25      -18.690323   1.000000
   26      -18.679643   1.000000
   27      -18.655809   1.000000
   28      -18.625485   1.000000
   29      -18.615386   1.000000
   30      -18.609529   1.000000
   31      -18.592498   1.000000
   32      -18.496955   1.000000
   33      -18.480814   1.000000
   34      -18.437034   1.000000
   35      -18.393256   1.000000
   36      -18.315166   1.000000
   37        2.532617   1.000000
   38        3.438761   1.000000
   39        3.643350   1.000000
   40        3.945335   1.000000
   41        4.208763   1.000000
   42        4.506189   1.000000
   43        4.712928   1.000000
   44        5.193827   1.000000
   45        5.406382   1.000000
   46        5.463564   1.000000
   47        5.518232   1.000000
   48        5.548953   1.000000
   49        5.671908   1.000000
   50        5.719522   1.000000
   51        5.814346   1.000000
   52        5.878040   1.000000
   53        5.927525   1.000000
   54        6.017570   1.000000
   55        6.296284   1.000000
   56        6.368672   1.000000
   57        6.391450   1.000000
   58        6.453289   1.000000
   59        6.602938   1.000000
   60        6.655686   1.000000
   61        6.769432   1.000000
   62        6.846695   1.000000
   63        6.885199   1.000000
   64        6.924514   1.000000
   65        6.977677   1.000000
   66        7.009648   1.000000
   67        7.034415   1.000000
   68        7.118590   1.000011
   69        7.129291   1.000017
   70        7.298427   1.004579
   71        7.396641   1.027337
   72        7.556757   0.835140
   73        7.612193   0.559099
   74        7.696942   0.132677
   75        7.749000  -0.000032
   76        7.817877  -0.034648
   77        7.860796  -0.023652
   78        7.970334  -0.002516
   79        8.047313  -0.000233
   80        8.134799  -0.000008
   81        8.169225  -0.000002
   82        8.251912  -0.000000
   83        8.400697  -0.000000
   84        8.938436  -0.000000
 
 -0.3333333E+00  0.3333333E+00  0.3333333E+00  0.1481481E+00
    1      -46.687816   1.000000
    2      -40.731133   1.000000
    3      -40.646742   1.000000
    4      -40.624027   1.000000
    5      -40.604518   1.000000
    6      -40.595206   1.000000
    7      -40.578987   1.000000
    8      -40.571470   1.000000
    9      -40.508364   1.000000
   10      -22.857224   1.000000
   11      -22.827589   1.000000
   12      -22.816325   1.000000
   13      -19.178040   1.000000
   14      -19.130542   1.000000
   15      -19.063085   1.000000
   16      -18.961186   1.000000
   17      -18.891768   1.000000
   18      -18.797915   1.000000
   19      -18.774055   1.000000
   20      -18.768927   1.000000
   21      -18.757373   1.000000
   22      -18.741004   1.000000
   23      -18.728810   1.000000
   24      -18.711221   1.000000
   25      -18.697992   1.000000
   26      -18.685930   1.000000
   27      -18.682629   1.000000
   28      -18.630977   1.000000
   29      -18.620640   1.000000
   30      -18.613793   1.000000
   31      -18.595405   1.000000
   32      -18.564388   1.000000
   33      -18.490271   1.000000
   34      -18.411639   1.000000
   35      -18.372453   1.000000
   36      -18.300010   1.000000
   37        2.551833   1.000000
   38        3.345053   1.000000
   39        3.626697   1.000000
   40        4.112954   1.000000
   41        4.188095   1.000000
   42        4.457592   1.000000
   43        4.740770   1.000000
   44        5.157831   1.000000
   45        5.397138   1.000000
   46        5.457911   1.000000
   47        5.509467   1.000000
   48        5.574634   1.000000
   49        5.674548   1.000000
   50        5.718009   1.000000
   51        5.821141   1.000000
   52        5.874001   1.000000
   53        5.928420   1.000000
   54        6.020263   1.000000
   55        6.308769   1.000000
   56        6.354995   1.000000
   57        6.404389   1.000000
   58        6.434205   1.000000
   59        6.580679   1.000000
   60        6.646368   1.000000
   61        6.772132   1.000000
   62        6.837533   1.000000
   63        6.889576   1.000000
   64        6.932094   1.000000
   65        6.956437   1.000000
   66        7.015324   1.000000
   67        7.075080   1.000002
   68        7.115016   1.000009
   69        7.127117   1.000015
   70        7.290991   1.003809
   71        7.403327   1.029288
   72        7.554870   0.842709
   73        7.589684   0.681342
   74        7.731834   0.030865
   75        7.761927  -0.015983
   76        7.797502  -0.034870
   77        7.851830  -0.026407
   78        7.969953  -0.002541
   79        8.057385  -0.000163
   80        8.101954  -0.000030
   81        8.189629  -0.000001
   82        8.266207  -0.000000
   83        8.410382  -0.000000
   84        8.942261  -0.000000
