 vasp.5.4.1 05Feb16 (build Jan 29 2020 16:04:39) complex                        
  
 executed on           IFC91_ompi date 2020.05.18  17:04:47
 running on  160 total cores
 distrk:  each k-point on   20 cores,    8 groups
 distr:  one band on NCORES_PER_BAND=   5 cores,    4 groups


--------------------------------------------------------------------------------------------------------


 INCAR:
 POTCAR:    PAW_PBE Ta 17Jan2003                  
 POTCAR:    PAW_PBE Hf 20Jan2003                  
 POTCAR:    PAW_PBE Zr_sv 04Jan2005               
 POTCAR:    PAW_PBE Nb_sv 25May2007               

 ----------------------------------------------------------------------------- 
|                                                                             |
|           W    W    AA    RRRRR   N    N  II  N    N   GGGG   !!!           |
|           W    W   A  A   R    R  NN   N  II  NN   N  G    G  !!!           |
|           W    W  A    A  R    R  N N  N  II  N N  N  G       !!!           |
|           W WW W  AAAAAA  RRRRR   N  N N  II  N  N N  G  GGG   !            |
|           WW  WW  A    A  R   R   N   NN  II  N   NN  G    G                |
|           W    W  A    A  R    R  N    N  II  N    N   GGGG   !!!           |
|                                                                             |
|      For optimal performance we recommend to set                            |
|        NCORE= 4 - approx SQRT( number of cores)                             |
|      NCORE specifies how many cores store one orbital (NPAR=cpu/NCORE).     |
|      This setting can  greatly improve the performance of VASP for DFT.     |
|      The default, NPAR=number of cores might be grossly inefficient         |
|      on modern multi-core architectures or massively parallel machines.     |
|      Do your own testing !!!!                                               |
|      Unfortunately you need to use the default for GW and RPA calculations. |
|      (for HF NCORE is supported but not extensively tested yet)             |
|                                                                             |
 ----------------------------------------------------------------------------- 


 ----------------------------------------------------------------------------- 
|                                                                             |
|           W    W    AA    RRRRR   N    N  II  N    N   GGGG   !!!           |
|           W    W   A  A   R    R  NN   N  II  NN   N  G    G  !!!           |
|           W    W  A    A  R    R  N N  N  II  N N  N  G       !!!           |
|           W WW W  AAAAAA  RRRRR   N  N N  II  N  N N  G  GGG   !            |
|           WW  WW  A    A  R   R   N   NN  II  N   NN  G    G                |
|           W    W  A    A  R    R  N    N  II  N    N   GGGG   !!!           |
|                                                                             |
|      You have enabled k-point parallelism (KPAR>1).                         |
|      This developmental code was originally  written by Paul Kent at ORNL,  |
|      and carefully double checked in Vienna.                                |
|      GW as well as linear response parallelism added by Martijn Marsman     |
|      and Georg Kresse.                                                      |
|      Carefully verify results versus KPAR=1.                                |
|      Report problems to Paul Kent and Vienna.                               |
|                                                                             |
 ----------------------------------------------------------------------------- 

 POTCAR:    PAW_PBE Ta 17Jan2003                  
   VRHFIN =Ta:  6s5d                                                            
   LEXCH  = PE                                                                  
   EATOM  =   130.6506 eV,    9.6025 Ry                                         
                                                                                
   TITEL  = PAW_PBE Ta 17Jan2003                                                
   LULTRA =        F    use ultrasoft PP ?                                      
   IUNSCR =        1    unscreen: 0-lin 1-nonlin 2-no                           
   RPACOR =    2.330    partial core radius                                     
   POMASS =  180.948; ZVAL   =    5.000    mass and valenz                      
   RCORE  =    2.900    outmost cutoff radius                                   
   RWIGS  =    2.840; RWIGS  =    1.503    wigner-seitz radius (au A)           
   ENMAX  =  223.667; ENMIN  =  167.750 eV                                      
   RCLOC  =    2.205    cutoff for local pot                                    
   LCOR   =        T    correct aug charges                                     
   LPAW   =        T    paw PP                                                  
   EAUG   =  332.075                                                            
   DEXC   =    0.000                                                            
   RMAX   =    2.970    core radius for proj-oper                               
   RAUG   =    1.300    factor for augmentation sphere                          
   RDEP   =    3.060    radius for radial grids                                 
   RDEPT  =    2.354    core radius for aug-charge                              
                                                                                
   Atomic configuration                                                         
   16 entries                                                                   
     n  l   j            E        occ.                                          
     1  0  0.50    -67341.2807   2.0000                                         
     2  0  0.50    -11566.9376   2.0000                                         
     2  1  1.50    -10134.1182   6.0000                                         
     3  0  0.50     -2648.5620   2.0000                                         
     3  1  1.50     -2222.6012   6.0000                                         
     3  2  2.50     -1726.3120  10.0000                                         
     4  0  0.50      -538.6961   2.0000                                         
     4  1  1.50      -399.0129   6.0000                                         
     4  2  2.50      -220.3959  10.0000                                         
     4  3  3.50       -23.0374  14.0000                                         
     5  0  0.50       -71.2901   2.0000                                         
     5  1  1.50       -37.8225   6.0000                                         
     5  2  2.50        -2.6455   4.0000                                         
     6  0  0.50        -4.9623   1.0000                                         
     6  1  1.50        -1.3606   0.0000                                         
     5  3  2.50        -1.3606   0.0000                                         
   Description                                                                  
     l       E           TYP  RCUT    TYP  RCUT                                 
     2     -2.6455043     23  2.500                                             
     2     -0.6258895     23  2.500                                             
     0     -4.9622780     23  2.500                                             
     0      4.7531321     23  2.500                                             
     1     -1.3605826     23  2.900                                             
     1     27.2116520     23  2.900                                             
  local pseudopotential read in
  partial core-charges read in
  partial kinetic energy density read in
  atomic valenz-charges read in
  non local Contribution for L=           2  read in
    real space projection operators read in
  non local Contribution for L=           2  read in
    real space projection operators read in
  non local Contribution for L=           0  read in
    real space projection operators read in
  non local Contribution for L=           0  read in
    real space projection operators read in
  non local Contribution for L=           1  read in
    real space projection operators read in
  non local Contribution for L=           1  read in
    real space projection operators read in
    PAW grid and wavefunctions read in
 
   number of l-projection  operators is LMAX  =           6
   number of lm-projection operators is LMMAX =          18
 
 POTCAR:    PAW_PBE Hf 20Jan2003                  
   VRHFIN =Hf: 6s5d                                                             
   LEXCH  = PE                                                                  
   EATOM  =    75.9011 eV,    5.5786 Ry                                         
                                                                                
   TITEL  = PAW_PBE Hf 20Jan2003                                                
   LULTRA =        F    use ultrasoft PP ?                                      
   IUNSCR =        1    unscreen: 0-lin 1-nonlin 2-no                           
   RPACOR =    2.500    partial core radius                                     
   POMASS =  178.490; ZVAL   =    4.000    mass and valenz                      
   RCORE  =    3.000    outmost cutoff radius                                   
   RWIGS  =    3.050; RWIGS  =    1.614    wigner-seitz radius (au A)           
   ENMAX  =  220.334; ENMIN  =  165.250 eV                                      
   RCLOC  =    2.212    cutoff for local pot                                    
   LCOR   =        T    correct aug charges                                     
   LPAW   =        T    paw PP                                                  
   EAUG   =  335.116                                                            
   DEXC   =    0.000                                                            
   RMAX   =    3.077    core radius for proj-oper                               
   RAUG   =    1.300    factor for augmentation sphere                          
   RDEP   =    3.047    radius for radial grids                                 
   RDEPT  =    2.344    core radius for aug-charge                              
                                                                                
   Atomic configuration                                                         
   16 entries                                                                   
     n  l   j            E        occ.                                          
     1  0  0.50    -65259.4397   2.0000                                         
     2  0  0.50    -11157.9882   2.0000                                         
     2  1  1.50     -9795.2113   6.0000                                         
     3  0  0.50     -2541.4058   2.0000                                         
     3  1  1.50     -2134.4770   6.0000                                         
     3  2  2.50     -1653.5418  10.0000                                         
     4  0  0.50      -510.9575   2.0000                                         
     4  1  1.50      -377.5023   6.0000                                         
     4  2  2.50      -205.2085  10.0000                                         
     4  3  3.50       -15.4905  14.0000                                         
     5  0  0.50       -65.6020   2.0000                                         
     5  1  1.50       -34.2798   6.0000                                         
     5  2  2.50        -1.9877   3.0000                                         
     6  0  0.50        -4.7357   1.0000                                         
     6  1  1.50        -1.3606   0.0000                                         
     5  3  2.50        -1.3606   0.0000                                         
   Description                                                                  
     l       E           TYP  RCUT    TYP  RCUT                                 
     2     -1.9876627     23  2.500                                             
     2      0.0744703     23  2.500                                             
     0     -4.7356889     23  2.600                                             
     0      3.2364747     23  2.600                                             
     1     -1.3605826     23  3.000                                             
     1     27.2116520     23  3.000                                             
  local pseudopotential read in
  partial core-charges read in
  partial kinetic energy density read in
  atomic valenz-charges read in
  non local Contribution for L=           2  read in
    real space projection operators read in
  non local Contribution for L=           2  read in
    real space projection operators read in
  non local Contribution for L=           0  read in
    real space projection operators read in
  non local Contribution for L=           0  read in
    real space projection operators read in
  non local Contribution for L=           1  read in
    real space projection operators read in
  non local Contribution for L=           1  read in
    real space projection operators read in
    PAW grid and wavefunctions read in
 
   number of l-projection  operators is LMAX  =           6
   number of lm-projection operators is LMMAX =          18
 
 POTCAR:    PAW_PBE Zr_sv 04Jan2005               
   VRHFIN =Zr: 4s4p5s4d                                                         
   LEXCH  = PE                                                                  
   EATOM  =  1284.2219 eV,   94.3876 Ry                                         
                                                                                
   TITEL  = PAW_PBE Zr_sv 04Jan2005                                             
   LULTRA =        F    use ultrasoft PP ?                                      
   IUNSCR =        1    unscreen: 0-lin 1-nonlin 2-no                           
   RPACOR =    2.200    partial core radius                                     
   POMASS =   91.224; ZVAL   =   12.000    mass and valenz                      
   RCORE  =    2.500    outmost cutoff radius                                   
   RWIGS  =    3.070; RWIGS  =    1.625    wigner-seitz radius (au A)           
   ENMAX  =  229.898; ENMIN  =  172.424 eV                                      
   ICORE  =        3    local potential                                         
   LCOR   =        T    correct aug charges                                     
   LPAW   =        T    paw PP                                                  
   EAUG   =  461.257                                                            
   DEXC   =    0.000                                                            
   RMAX   =    2.561    core radius for proj-oper                               
   RAUG   =    1.300    factor for augmentation sphere                          
   RDEP   =    2.597    radius for radial grids                                 
   RDEPT  =    2.007    core radius for aug-charge                              
                                                                                
   Atomic configuration                                                         
   11 entries                                                                   
     n  l   j            E        occ.                                          
     1  0  0.50    -17820.0161   2.0000                                         
     2  0  0.50     -2467.0882   2.0000                                         
     2  1  1.50     -2199.6095   6.0000                                         
     3  0  0.50      -402.4863   2.0000                                         
     3  1  1.50      -315.3675   6.0000                                         
     3  2  2.50      -172.4472  10.0000                                         
     4  0  0.50       -52.4146   2.0000                                         
     5  0  0.50        -3.8421   1.0000                                         
     4  1  1.50       -30.5054   6.0000                                         
     4  2  2.50        -2.3341   3.0000                                         
     4  3  2.50        -1.3606   0.0000                                         
   Description                                                                  
     l       E           TYP  RCUT    TYP  RCUT                                 
     0    -52.4145962     23  2.200                                             
     0     -3.8421270     23  2.500                                             
     1    -30.5053914     23  2.200                                             
     1     20.4087390     23  2.200                                             
     2     -2.3340816     23  2.500                                             
     2     -0.6120942     23  2.500                                             
     3     -4.0817478     23  2.500                                             
  local pseudopotential read in
  partial core-charges read in
  partial kinetic energy density read in
  atomic valenz-charges read in
  non local Contribution for L=           0  read in
    real space projection operators read in
  non local Contribution for L=           0  read in
    real space projection operators read in
  non local Contribution for L=           1  read in
    real space projection operators read in
  non local Contribution for L=           1  read in
    real space projection operators read in
  non local Contribution for L=           2  read in
    real space projection operators read in
  non local Contribution for L=           2  read in
    real space projection operators read in
    PAW grid and wavefunctions read in
 
   number of l-projection  operators is LMAX  =           6
   number of lm-projection operators is LMMAX =          18
 
 POTCAR:    PAW_PBE Nb_sv 25May2007               
   VRHFIN =Nb: 4p5s4d                                                           
   LEXCH  = PE                                                                  
   EATOM  =  1555.1913 eV,  114.3033 Ry                                         
                                                                                
   TITEL  = PAW_PBE Nb_sv 25May2007                                             
   LULTRA =        F    use ultrasoft PP ?                                      
   IUNSCR =        1    unscreen: 0-lin 1-nonlin 2-no                           
   RPACOR =    1.800    partial core radius                                     
   POMASS =   92.910; ZVAL   =   13.000    mass and valenz                      
   RCORE  =    2.400    outmost cutoff radius                                   
   RWIGS  =    2.400; RWIGS  =    1.270    wigner-seitz radius (au A)           
   ENMAX  =  293.235; ENMIN  =  219.927 eV                                      
   ICORE  =        3    local potential                                         
   LCOR   =        T    correct aug charges                                     
   LPAW   =        T    paw PP                                                  
   EAUG   =  455.659                                                            
   DEXC   =    0.000                                                            
   RMAX   =    2.456    core radius for proj-oper                               
   RAUG   =    1.300    factor for augmentation sphere                          
   RDEP   =    2.451    radius for radial grids                                 
   RDEPT  =    1.956    core radius for aug-charge                              
                                                                                
   Atomic configuration                                                         
   11 entries                                                                   
     n  l   j            E        occ.                                          
     1  0  0.50    -18805.2457   2.0000                                         
     2  0  0.50     -2630.2869   2.0000                                         
     2  1  1.50     -2348.4046   6.0000                                         
     3  0  0.50      -438.8757   2.0000                                         
     3  1  1.50      -346.7588   6.0000                                         
     3  2  2.50      -196.2560  10.0000                                         
     4  0  0.50       -58.3859   2.0000                                         
     5  0  0.50        -3.9816   1.0000                                         
     4  1  1.50       -34.5141   6.0000                                         
     4  2  2.50        -3.0408   4.0000                                         
     4  3  2.50        -1.3606   0.0000                                         
   Description                                                                  
     l       E           TYP  RCUT    TYP  RCUT                                 
     0    -58.3859094     23  2.200                                             
     0     -3.9816262     23  2.200                                             
     1    -34.5140738     23  2.200                                             
     1     13.6058260     23  2.200                                             
     2     -3.0408010     23  2.200                                             
     2     -0.1283038     23  2.200                                             
     3     -1.3605826     23  2.400                                             
  local pseudopotential read in
  partial core-charges read in
  partial kinetic energy density read in
  atomic valenz-charges read in
  non local Contribution for L=           0  read in
    real space projection operators read in
  non local Contribution for L=           0  read in
    real space projection operators read in
  non local Contribution for L=           1  read in
    real space projection operators read in
  non local Contribution for L=           1  read in
    real space projection operators read in
  non local Contribution for L=           2  read in
    real space projection operators read in
  non local Contribution for L=           2  read in
    real space projection operators read in
    PAW grid and wavefunctions read in
 
   number of l-projection  operators is LMAX  =           6
   number of lm-projection operators is LMMAX =          18
 
 Optimization of the real space projectors (new method)

 maximal supplied QI-value         = 12.85
 optimisation between [QCUT,QGAM] = [  8.87, 17.73] = [ 22.01, 88.06] Ry 
 Optimized for a Real-space Cutoff    1.90 Angstroem

   l    n(q)    QCUT    max X(q) W(low)/X(q) W(high)/X(q)  e(spline) 
   2      9     8.867    62.315    0.23E-03    0.62E-04    0.11E-05
   2      9     8.867    52.185    0.23E-03    0.62E-04    0.11E-05
   0     10     8.867   103.837    0.15E-04    0.23E-04    0.98E-07
   0     10     8.867    59.728    0.12E-04    0.21E-04    0.89E-07
   1     10     8.867    13.958    0.50E-04    0.22E-04    0.14E-06
   1     10     8.867     8.441    0.36E-04    0.19E-04    0.98E-07
 Optimization of the real space projectors (new method)

 maximal supplied QI-value         = 12.47
 optimisation between [QCUT,QGAM] = [  8.86, 17.71] = [ 21.96, 87.83] Ry 
 Optimized for a Real-space Cutoff    1.90 Angstroem

   l    n(q)    QCUT    max X(q) W(low)/X(q) W(high)/X(q)  e(spline) 
   2      9     8.855    48.111    0.22E-03    0.80E-04    0.10E-05
   2      9     8.855    40.545    0.21E-03    0.76E-04    0.95E-06
   0     10     8.855   121.658    0.27E-04    0.12E-04    0.11E-06
   0     10     8.855    71.177    0.22E-04    0.11E-04    0.99E-07
   1     10     8.855    14.183    0.65E-04    0.10E-03    0.98E-07
   1     10     8.855     8.257    0.43E-04    0.73E-04    0.72E-07
 Optimization of the real space projectors (new method)

 maximal supplied QI-value         = 15.12
 optimisation between [QCUT,QGAM] = [  8.77, 17.69] = [ 21.53, 87.61] Ry 
 Optimized for a Real-space Cutoff    1.74 Angstroem

   l    n(q)    QCUT    max X(q) W(low)/X(q) W(high)/X(q)  e(spline) 
   0      9     8.768    12.107    0.28E-04    0.53E-06    0.29E-07
   0      9     8.768     9.948    0.36E-04    0.50E-05    0.64E-07
   1      9     8.768     3.563    0.14E-04    0.16E-04    0.88E-07
   1      9     8.768     4.524    0.21E-03    0.33E-03    0.19E-06
   2      8     8.768    87.261    0.19E-03    0.25E-03    0.24E-06
   2      8     8.768    70.950    0.19E-03    0.24E-03    0.24E-06
 Optimization of the real space projectors (new method)

 maximal supplied QI-value         = 15.68
 optimisation between [QCUT,QGAM] = [  8.78, 17.72] = [ 21.60, 87.97] Ry 
 Optimized for a Real-space Cutoff    1.96 Angstroem

   l    n(q)    QCUT    max X(q) W(low)/X(q) W(high)/X(q)  e(spline) 
   0     10     8.783    10.201    0.29E-04    0.25E-05    0.69E-07
   0     10     8.783     8.174    0.45E-04    0.57E-05    0.14E-06
   1     10     8.783     3.488    0.76E-05    0.24E-04    0.95E-07
   1     10     8.783     4.917    0.78E-04    0.14E-03    0.46E-06
   2      9     8.783   153.744    0.22E-03    0.34E-04    0.15E-05
   2      9     8.783   126.342    0.22E-03    0.35E-04    0.15E-05
  PAW_PBE Ta 17Jan2003                  :
 energy of atom  1       EATOM= -130.6506
 kinetic energy error for atom=    0.0121 (will be added to EATOM!!)
  PAW_PBE Hf 20Jan2003                  :
 energy of atom  2       EATOM=  -75.9011
 kinetic energy error for atom=    0.0071 (will be added to EATOM!!)
  PAW_PBE Zr_sv 04Jan2005               :
 energy of atom  3       EATOM=-1284.2219
 kinetic energy error for atom=    0.0483 (will be added to EATOM!!)
  PAW_PBE Nb_sv 25May2007               :
 energy of atom  4       EATOM=-1555.1913
 kinetic energy error for atom=    0.0655 (will be added to EATOM!!)
 
 
 POSCAR: generated by pypospack                  
  positions in direct lattice
  velocities in cartesian coordinates
 exchange correlation table for  LEXCH =        8
   RHO(1)=    0.500       N(1)  =     2000
   RHO(2)=  100.500       N(2)  =     4000
 


--------------------------------------------------------------------------------------------------------


 ion  position               nearest neighbor table
   1  0.000  0.000  0.958-   6 2.97   7 2.97   4 2.98   9 2.98  15 2.98  12 3.09  11 3.09  14 3.10
                             8 3.10  10 3.47  10 3.47   2 3.57   2 3.57
   2  0.500  0.000  0.034-   8 2.92  14 2.92  12 2.92  11 2.92   6 3.00   7 3.00   9 3.01  15 3.01
                            13 3.09   1 3.57   1 3.57
   3  0.500  0.500  0.473-  16 3.02  14 3.04   8 3.04  11 3.05  12 3.05  15 3.09   9 3.09   7 3.09
                             6 3.09  13 3.47  13 3.47   5 3.55   5 3.55
   4  0.000  0.000  0.534-   1 2.98   6 3.09   7 3.09   9 3.09  15 3.09  14 3.17   8 3.17  11 3.18
                            12 3.18   5 3.47   5 3.47  13 3.56  13 3.56
   5  0.000  0.500  0.524-  10 3.06   9 3.12  15 3.12   7 3.12   6 3.12  14 3.13   8 3.13  11 3.14
                            12 3.14   4 3.47   4 3.47   3 3.55   3 3.55
   6  0.280  0.750  0.764-   1 2.97  10 2.97   2 3.00  16 3.03   4 3.09  13 3.09   3 3.09  15 3.10
                             5 3.12  11 3.33   9 3.46   9 3.48  11 3.71
   7  0.720  0.250  0.764-   1 2.97  10 2.97   2 3.00  16 3.03   4 3.09  13 3.09   3 3.09   9 3.10
                             5 3.12  12 3.33  15 3.46  15 3.48  12 3.71
   8  0.236  0.249  0.238-  16 2.90   2 2.92  13 3.04   3 3.04  10 3.10   1 3.10   5 3.13   4 3.17
                            12 3.33   9 3.35  11 3.46  11 3.49   9 3.69  12 3.74
   9  0.281  0.251  0.763-  10 2.97   1 2.98   2 3.01  16 3.04  13 3.08   3 3.09   4 3.09   7 3.10
                             5 3.12   8 3.35   6 3.46   6 3.48   8 3.69
  10  0.000  0.500  0.961-   6 2.97   7 2.97   9 2.97  15 2.97   5 3.06  12 3.09  11 3.09  14 3.10
                             8 3.10   1 3.47   1 3.47
  11  0.235  0.751  0.236-  16 2.90   2 2.92   3 3.05  13 3.05  10 3.09   1 3.09   5 3.14   4 3.18
                             6 3.33  14 3.33   8 3.46   8 3.49   6 3.71  14 3.74
  12  0.765  0.249  0.236-  16 2.90   2 2.92   3 3.05  13 3.05  10 3.09   1 3.09   5 3.14   4 3.18
                             7 3.33   8 3.33  14 3.46  14 3.49   7 3.71   8 3.74
  13  0.500  0.000  0.475-   8 3.04  14 3.04  12 3.05  11 3.05   9 3.08  15 3.08   6 3.09   7 3.09
                             2 3.09   3 3.47   3 3.47   4 3.56   4 3.56
  14  0.764  0.751  0.238-  16 2.90   2 2.92  13 3.04   3 3.04  10 3.10   1 3.10   5 3.13   4 3.17
                            11 3.33  15 3.35  12 3.46  12 3.49  15 3.69  11 3.74
  15  0.719  0.749  0.763-  10 2.97   1 2.98   2 3.01  16 3.04  13 3.08   3 3.09   4 3.09   6 3.10
                             5 3.12  14 3.35   7 3.46   7 3.48  14 3.69
  16  0.500  0.500  0.041-  11 2.90  12 2.90   8 2.90  14 2.90   3 3.02   6 3.03   7 3.03   9 3.04
                            15 3.04
 
  LATTYP: Found a simple monoclinic cell.
 ALAT       =     9.9133415907
 B/A-ratio  =     0.7069937206
 C/A-ratio  =     1.5888972383
 COS(beta)  =    -0.9493320302
  
  Lattice vectors:
  
 A1 = (  -7.0684108653,  -6.9506768974,   0.0000000000)
 A2 = (   0.0000000000,   0.0000000000,  -7.0086702550)
 A3 = (  14.1327514651,   6.9547244052,   0.0000000000)


Analysis of symmetry for initial positions (statically):
=====================================================================
 Subroutine PRICEL returns:
 Original cell was already a primitive cell.
 

 Routine SETGRP: Setting up the symmetry group for a 
 simple monoclinic supercell.


 Subroutine GETGRP returns: Found  2 space group operations
 (whereof  2 operations were pure point group operations)
 out of a pool of  4 trial point group operations.


The static configuration has the point symmetry C_2 .


Analysis of symmetry for dynamics (positions and initial velocities):
=====================================================================
 Subroutine PRICEL returns:
 Original cell was already a primitive cell.
 

 Routine SETGRP: Setting up the symmetry group for a 
 simple monoclinic supercell.


 Subroutine GETGRP returns: Found  2 space group operations
 (whereof  2 operations were pure point group operations)
 out of a pool of  4 trial point group operations.


The dynamic configuration has the point symmetry C_2 .


 Subroutine INISYM returns: Found  2 space group operations
 (whereof  2 operations are pure point group operations),
 and found     1 'primitive' translations

 
 
 KPOINTS: k-points                                

Automatic generation of k-mesh.
Space group operators:
 irot       det(A)        alpha          n_x          n_y          n_z        tau_x        tau_y        tau_z
    1     1.000000     0.000001     1.000000     0.000000     0.000000     0.000000     0.000000     0.000000
    2     1.000000   180.000000     0.000000     0.000000     1.000000     0.000000     0.000000     0.000000
 
 Subroutine IBZKPT returns following result:
 ===========================================
 
 Found     10 irreducible k-points:
 
 Following reciprocal coordinates:
            Coordinates               Weight
  0.000000  0.000000  0.000000      1.000000
  0.333333 -0.000000  0.000000      2.000000
  0.000000  0.333333  0.000000      2.000000
  0.333333  0.333333  0.000000      2.000000
 -0.333333  0.333333  0.000000      2.000000
  0.000000  0.000000  0.333333      2.000000
  0.333333 -0.000000  0.333333      4.000000
  0.000000  0.333333  0.333333      4.000000
  0.333333  0.333333  0.333333      4.000000
 -0.333333  0.333333  0.333333      4.000000
 
 Following cartesian coordinates:
            Coordinates               Weight
  0.000000  0.000000  0.000000      1.000000
  0.235375 -0.000138  0.000000      2.000000
 -0.000137  0.239364  0.000000      2.000000
  0.235238  0.239226  0.000000      2.000000
 -0.235512  0.239502  0.000000      2.000000
  0.000000  0.000000  0.237245      2.000000
  0.235375 -0.000138  0.237245      4.000000
 -0.000137  0.239364  0.237245      4.000000
  0.235238  0.239226  0.237245      4.000000
 -0.235512  0.239502  0.237245      4.000000
 


--------------------------------------------------------------------------------------------------------




 Dimension of arrays:
   k-points           NKPTS =     10   k-points in BZ     NKDIM =     10   number of bands    NBANDS=     84
   number of dos      NEDOS =    301   number of ions     NIONS =     16
   non local maximal  LDIM  =      6   non local SUM 2l+1 LMDIM =     18
   total plane-waves  NPLWV =  64000
   max r-space proj   IRMAX =   5923   max aug-charges    IRDMAX=  12865
   dimension x,y,z NGX =    40 NGY =   40 NGZ =   40
   dimension x,y,z NGXF=    80 NGYF=   80 NGZF=   80
   support grid    NGXF=    80 NGYF=   80 NGZF=   80
   ions per type =               3   4   8   1
 NGX,Y,Z   is equivalent  to a cutoff of   9.41,  9.57,  9.49 a.u.
 NGXF,Y,Z  is equivalent  to a cutoff of  18.83, 19.15, 18.98 a.u.


 I would recommend the setting:
   dimension x,y,z NGX =    40 NGY =   39 NGZ =   40
 SYSTEM =  automatically generated by mexm         
 POSCAR =  generated by pypospack                  

 Startparameter for this run:
   NWRITE =      2    write-flag & timer
   PREC   = accura    normal or accurate (medium, high low for compatibility)
   ISTART =      0    job   : 0-new  1-cont  2-samecut
   ICHARG =      2    charge: 1-file 2-atom 10-const
   ISPIN  =      1    spin polarized calculation?
   LNONCOLLINEAR =      F non collinear calculations
   LSORBIT =      F    spin-orbit coupling
   INIWAV =      1    electr: 0-lowe 1-rand  2-diag
   LASPH  =      F    aspherical Exc in radial PAW
   METAGGA=      F    non-selfconsistent MetaGGA calc.

 Electronic Relaxation 1
   ENCUT  =  300.0 eV  22.05 Ry    4.70 a.u.   9.98  9.81  9.90*2*pi/ulx,y,z
   ENINI  =  300.0     initial cutoff
   ENAUG  =  461.3 eV  augmentation charge cutoff
   NELM   =     70;   NELMIN=  2; NELMDL= -5     # of ELM steps 
   EDIFF  = 0.1E-04   stopping-criterion for ELM
   LREAL  =      T    real-space projection
   NLSPLINE    = F    spline interpolate recip. space projectors
   LCOMPAT=      F    compatible to vasp.4.4
   GGA_COMPAT  = T    GGA compatible to vasp.4.4-vasp.4.6
   LMAXPAW     = -100 max onsite density
   LMAXMIX     =    2 max onsite mixed and CHGCAR
   VOSKOWN=      0    Vosko Wilk Nusair interpolation
   ROPT   =   -0.00025  -0.00025  -0.00025  -0.00025
 Ionic relaxation
   EDIFFG = -.1E-01   stopping-criterion for IOM
   NSW    =    300    number of steps for IOM
   NBLOCK =      1;   KBLOCK =    300    inner block; outer block 
   IBRION =      2    ionic relax: 0-MD 1-quasi-New 2-CG
   NFREE  =      1    steps in history (QN), initial steepest desc. (CG)
   ISIF   =      3    stress and relaxation
   IWAVPR =     11    prediction:  0-non 1-charg 2-wave 3-comb
   ISYM   =      1    0-nonsym 1-usesym 2-fastsym
   LCORR  =      T    Harris-Foulkes like correction to forces

   POTIM  = 0.1500    time-step for ionic-motion
   TEIN   =    0.0    initial temperature
   TEBEG  =    0.0;   TEEND  =   0.0 temperature during run
   SMASS  =  -3.00    Nose mass-parameter (am)
   estimated Nose-frequenzy (Omega)   =  0.10E-29 period in steps =****** mass=  -0.114E-26a.u.
   SCALEE = 1.0000    scale energy and forces
   NPACO  =    256;   APACO  = 16.0  distance and # of slots for P.C.
   PSTRESS=    0.0 pullay stress

  Mass of Ions in am
   POMASS = 180.95178.49 91.22 92.91
  Ionic Valenz
   ZVAL   =   5.00  4.00 12.00 13.00
  Atomic Wigner-Seitz radii
   RWIGS  =  -1.00 -1.00 -1.00 -1.00
  virtual crystal weights 
   VCA    =   1.00  1.00  1.00  1.00
   NELECT =     140.0000    total number of electrons
   NUPDOWN=      -1.0000    fix difference up-down

 DOS related values:
   EMIN   =  10.00;   EMAX   =-10.00  energy-range for DOS
   EFERMI =   0.00
   ISMEAR =     1;   SIGMA  =   0.15  broadening in eV -4-tet -1-fermi 0-gaus

 Electronic relaxation 2 (details)
   IALGO  =     68    algorithm
   LDIAG  =      T    sub-space diagonalisation (order eigenvalues)
   LSUBROT=      F    optimize rotation matrix (better conditioning)
   TURBO    =      0    0=normal 1=particle mesh
   IRESTART =      0    0=no restart 2=restart with 2 vectors
   NREBOOT  =      0    no. of reboots
   NMIN     =      0    reboot dimension
   EREF     =   0.00    reference energy to select bands
   IMIX   =      4    mixing-type and parameters
     AMIX     =   0.40;   BMIX     =  1.00
     AMIX_MAG =   1.60;   BMIX_MAG =  1.00
     AMIN     =   0.10
     WC   =   100.;   INIMIX=   1;  MIXPRE=   1;  MAXMIX= -45

 Intra band minimization:
   WEIMIN = 0.0010     energy-eigenvalue tresh-hold
   EBREAK =  0.30E-07  absolut break condition
   DEPER  =   0.30     relativ break condition  

   TIME   =   0.40     timestep for ELM

  volume/ion in A,a.u.               =      21.50       145.06
  Fermi-wavevector in a.u.,A,eV,Ry     =   1.213269  2.292746 20.028070  1.472022
  Thomas-Fermi vector in A             =   2.348726
 
 Write flags
   LWAVE  =      F    write WAVECAR
   LCHARG =      F    write CHGCAR
   LVTOT  =      F    write LOCPOT, total local potential
   LVHAR  =      F    write LOCPOT, Hartree potential only
   LELF   =      F    write electronic localiz. function (ELF)
   LORBIT =      0    0 simple, 1 ext, 2 COOP (PROOUT)


 Dipole corrections
   LMONO  =      F    monopole corrections only (constant potential shift)
   LDIPOL =      F    correct potential (dipole corrections)
   IDIPOL =      0    1-x, 2-y, 3-z, 4-all directions 
   EPSILON=  1.0000000 bulk dielectric constant

 Exchange correlation treatment:
   GGA     =    --    GGA type
   LEXCH   =     8    internal setting for exchange type
   VOSKOWN=      0    Vosko Wilk Nusair interpolation
   LHFCALC =     F    Hartree Fock is set to
   LHFONE  =     F    Hartree Fock one center treatment
   AEXX    =    0.0000 exact exchange contribution

 Linear response parameters
   LEPSILON=     F    determine dielectric tensor
   LRPA    =     F    only Hartree local field effects (RPA)
   LNABLA  =     F    use nabla operator in PAW spheres
   LVEL    =     F    velocity operator in full k-point grid
   LINTERFAST=   F  fast interpolation
   KINTER  =     0    interpolate to denser k-point grid
   CSHIFT  =0.1000    complex shift for real part using Kramers Kronig
   OMEGAMAX=  -1.0    maximum frequency
   DEG_THRESHOLD= 0.2000000E-02 threshold for treating states as degnerate
   RTIME   =    0.100 relaxation time in fs

 Orbital magnetization related:
   ORBITALMAG=     F  switch on orbital magnetization
   LCHIMAG   =     F  perturbation theory with respect to B field
   DQ        =  0.001000  dq finite difference perturbation B field



--------------------------------------------------------------------------------------------------------


 conjugate gradient relaxation of ions
 charge density and potential will be updated during run
 non-spin polarized calculation
 RMM-DIIS sequential band-by-band and
  variant of blocked Davidson during initial phase
 perform sub-space diagonalisation
    before iterative eigenvector-optimisation
 modified Broyden-mixing scheme, WC =      100.0
 initial mixing is a Kerker type mixing with AMIX =  0.4000 and BMIX =      1.0000
 Hartree-type preconditioning will be used
 using additional bands           14
 real space projection scheme for non local part
 use partial core corrections
 calculate Harris-corrections to forces 
   (improved forces if not selfconsistent)
 use gradient corrections 
 use of overlap-Matrix (Vanderbilt PP)
 Methfessel and Paxton  Order N= 1 SIGMA  =   0.15


--------------------------------------------------------------------------------------------------------


  energy-cutoff  :      300.00
  volume of cell :      343.94
      direct lattice vectors                 reciprocal lattice vectors
     7.064340600  0.004047508  0.000000000     0.141556076 -0.000082943  0.000000000
     0.004070266  6.946629390  0.000000000    -0.000082479  0.143954756  0.000000000
     0.000000000  0.000000000  7.008670255     0.000000000  0.000000000  0.142680418

  length of vectors
     7.064341759  6.946630582  7.008670255     0.141556100  0.143954779  0.142680418


 
 k-points in units of 2pi/SCALE and weight: k-points                                
   0.00000000  0.00000000  0.00000000       0.037
   0.23537520 -0.00013791  0.00000000       0.074
  -0.00013714  0.23936365  0.00000000       0.074
   0.23523805  0.23922573  0.00000000       0.074
  -0.23551234  0.23950156  0.00000000       0.074
   0.00000000  0.00000000  0.23724472       0.074
   0.23537520 -0.00013791  0.23724472       0.148
  -0.00013714  0.23936365  0.23724472       0.148
   0.23523805  0.23922573  0.23724472       0.148
  -0.23551234  0.23950156  0.23724472       0.148
 
 k-points in reciprocal lattice and weights: k-points                                
   0.00000000  0.00000000  0.00000000       0.037
   0.33333333 -0.00000000  0.00000000       0.074
   0.00000000  0.33333333  0.00000000       0.074
   0.33333333  0.33333333  0.00000000       0.074
  -0.33333333  0.33333333  0.00000000       0.074
   0.00000000  0.00000000  0.33333333       0.074
   0.33333333 -0.00000000  0.33333333       0.148
   0.00000000  0.33333333  0.33333333       0.148
   0.33333333  0.33333333  0.33333333       0.148
  -0.33333333  0.33333333  0.33333333       0.148
 
 position of ions in fractional coordinates (direct lattice) 
   0.00000000  0.00000000  0.95820767
   0.50000000  0.00000000  0.03388170
   0.50000000  0.50000000  0.47287043
   0.00000000  0.00000000  0.53353986
   0.00000000  0.50000000  0.52388344
   0.28023509  0.74964943  0.76368819
   0.71976491  0.25035057  0.76368819
   0.23594230  0.24898727  0.23795763
   0.28071223  0.25110127  0.76258533
   0.00000000  0.50000000  0.96062209
   0.23530147  0.75079548  0.23624810
   0.76469853  0.24920452  0.23624810
   0.50000000  0.00000000  0.47467868
   0.76405770  0.75101273  0.23795763
   0.71928777  0.74889873  0.76258533
   0.50000000  0.50000000  0.04135763
 
 position of ions in cartesian coordinates  (Angst):
   0.00000000  0.00000000  6.71576157
   3.53217030  0.00202375  0.23746566
   3.53420543  3.47533845  3.31419293
   0.00000000  0.00000000  3.73940497
   0.00203513  3.47331469  3.67172627
   1.98272741  5.20867098  5.35243869
   5.08568346  1.74200592  5.35243869
   1.66779024  1.73057727  1.66776654
   1.98406886  1.74544362  5.34470914
   0.00203513  3.47331469  6.73268349
   1.66530569  5.21645031  1.65578503
   5.40310517  1.73422659  1.65578503
   3.53217030  0.00202375  3.32686635
   5.40062062  5.22009963  1.66776654
   5.08434200  5.20523328  5.34470914
   3.53420543  3.47533845  0.28986198
 


--------------------------------------------------------------------------------------------------------


 k-point  1 :   0.0000 0.0000 0.0000  plane waves:    4011
 k-point  2 :   0.3333-0.0000 0.0000  plane waves:    4060
 k-point  3 :   0.0000 0.3333 0.0000  plane waves:    4052
 k-point  4 :   0.3333 0.3333 0.0000  plane waves:    4065
 k-point  5 :  -0.3333 0.3333 0.0000  plane waves:    4062
 k-point  6 :   0.0000 0.0000 0.3333  plane waves:    4040
 k-point  7 :   0.3333-0.0000 0.3333  plane waves:    4088
 k-point  8 :   0.0000 0.3333 0.3333  plane waves:    4052
 k-point  9 :   0.3333 0.3333 0.3333  plane waves:    4053
 k-point 10 :  -0.3333 0.3333 0.3333  plane waves:    4052

 maximum and minimum number of plane-waves per node :       826      797

 maximum number of plane-waves:      4088
 maximum index in each direction: 
   IXMAX=   10   IYMAX=    9   IZMAX=    9
   IXMIN=  -10   IYMIN=  -10   IZMIN=  -10

 WARNING: aliasing errors must be expected set NGX to  42 to avoid them
 NGY is ok and might be reduce to  40
 NGZ is ok and might be reduce to  40
 aliasing errors are usually negligible using standard VASP settings
 and one can safely disregard these warnings

 real space projection operators:
  total allocation   :      10420.73 KBytes
  max/ min on nodes  :       2118.52       2049.89


 parallel 3D FFT for wavefunctions:
    minimum data exchange during FFTs selected (reduces bandwidth)
 parallel 3D FFT for charge:
    minimum data exchange during FFTs selected (reduces bandwidth)


 total amount of memory used by VASP on root node    40858. kBytes
========================================================================

   base      :      30000. kBytes
   nonlr-proj:       4117. kBytes
   fftplans  :       1259. kBytes
   grid      :       2396. kBytes
   one-center:         62. kBytes
   wavefun   :       3024. kBytes
 
     INWAV:  cpu time    0.0000: real time    0.0000
 Broyden mixing: mesh for mixing (old mesh)
   NGX = 19   NGY = 19   NGZ = 19
  (NGX  = 80   NGY  = 80   NGZ  = 80)
  gives a total of   6859 points

 initial charge density was supplied:
 charge density of overlapping atoms calculated
 number of electron     140.0000000 magnetization 
 keeping initial charge density in first step


--------------------------------------------------------------------------------------------------------


 Maximum index for non-local projection operator         1138
 Maximum index for augmentation-charges          657 (set IRDMAX)


--------------------------------------------------------------------------------------------------------


 First call to EWALD:  gamma=   0.253
 Maximum number of real-space cells 3x 3x 3
 Maximum number of reciprocal cells 3x 3x 3

 FEWALD executed in parallel
    FEWALD:  cpu time    0.1108: real time    0.1207


----------------------------------------- Iteration    1(   1)  ---------------------------------------


    POTLOK:  cpu time    0.0142: real time    0.0389
    SETDIJ:  cpu time    0.0089: real time    0.0090
     EDDAV:  cpu time    0.2234: real time    0.2342
       DOS:  cpu time    0.0135: real time    0.0136
    --------------------------------------------
      LOOP:  cpu time    0.2630: real time    0.3081

 eigenvalue-minimisations  :  1824
 total energy-change (2. order) : 0.9161173E+03  (-0.5322860E+04)
 number of electron     140.0000000 magnetization 
 augmentation part      140.0000000 magnetization 

 Free energy of the ion-electron system (eV)
  ---------------------------------------------------
  alpha Z        PSCENC =       677.04971953
  Ewald energy   TEWEN  =     -9741.87410129
  -Hartree energ DENC   =     -3022.47744248
  -exchange      EXHF   =         0.00000000
  -V(xc)+E(xc)   XCENC  =        44.11483214
  PAW double counting   =     10328.32033343    -9700.96547995
  entropy T*S    EENTRO =         0.00194607
  eigenvalues    EBANDS =      -192.05854266
  atomic energy  EATOM  =     12524.00607526
  Solvation  Ediel_sol  =         0.00000000
  ---------------------------------------------------
  free energy    TOTEN  =       916.11734005 eV

  energy without entropy =      916.11539397  energy(sigma->0) =      916.11669136


--------------------------------------------------------------------------------------------------------




----------------------------------------- Iteration    1(   2)  ---------------------------------------


     EDDAV:  cpu time    0.1880: real time    0.1962
       DOS:  cpu time    0.0006: real time    0.0006
    --------------------------------------------
      LOOP:  cpu time    0.1890: real time    0.2288

 eigenvalue-minimisations  :  1852
 total energy-change (2. order) :-0.9451708E+03  (-0.9149185E+03)
 number of electron     140.0000000 magnetization 
 augmentation part      140.0000000 magnetization 

 Free energy of the ion-electron system (eV)
  ---------------------------------------------------
  alpha Z        PSCENC =       677.04971953
  Ewald energy   TEWEN  =     -9741.87410129
  -Hartree energ DENC   =     -3022.47744248
  -exchange      EXHF   =         0.00000000
  -V(xc)+E(xc)   XCENC  =        44.11483214
  PAW double counting   =     10328.32033343    -9700.96547995
  entropy T*S    EENTRO =        -0.00710343
  eigenvalues    EBANDS =     -1137.22030009
  atomic energy  EATOM  =     12524.00607526
  Solvation  Ediel_sol  =         0.00000000
  ---------------------------------------------------
  free energy    TOTEN  =       -29.05346688 eV

  energy without entropy =      -29.04636345  energy(sigma->0) =      -29.05109907


--------------------------------------------------------------------------------------------------------




----------------------------------------- Iteration    1(   3)  ---------------------------------------


     EDDAV:  cpu time    0.2477: real time    0.2497
       DOS:  cpu time    0.0006: real time    0.0006
    --------------------------------------------
      LOOP:  cpu time    0.2486: real time    0.2559

 eigenvalue-minimisations  :  3000
 total energy-change (2. order) :-0.1138112E+03  (-0.1085358E+03)
 number of electron     140.0000000 magnetization 
 augmentation part      140.0000000 magnetization 

 Free energy of the ion-electron system (eV)
  ---------------------------------------------------
  alpha Z        PSCENC =       677.04971953
  Ewald energy   TEWEN  =     -9741.87410129
  -Hartree energ DENC   =     -3022.47744248
  -exchange      EXHF   =         0.00000000
  -V(xc)+E(xc)   XCENC  =        44.11483214
  PAW double counting   =     10328.32033343    -9700.96547995
  entropy T*S    EENTRO =         0.00272322
  eigenvalues    EBANDS =     -1251.04130246
  atomic energy  EATOM  =     12524.00607526
  Solvation  Ediel_sol  =         0.00000000
  ---------------------------------------------------
  free energy    TOTEN  =      -142.86464261 eV

  energy without entropy =     -142.86736583  energy(sigma->0) =     -142.86555035


--------------------------------------------------------------------------------------------------------




----------------------------------------- Iteration    1(   4)  ---------------------------------------


     EDDAV:  cpu time    0.2187: real time    0.2201
       DOS:  cpu time    0.0011: real time    0.0011
    --------------------------------------------
      LOOP:  cpu time    0.2203: real time    0.2268

 eigenvalue-minimisations  :  2608
 total energy-change (2. order) :-0.1403612E+02  (-0.1360240E+02)
 number of electron     140.0000000 magnetization 
 augmentation part      140.0000000 magnetization 

 Free energy of the ion-electron system (eV)
  ---------------------------------------------------
  alpha Z        PSCENC =       677.04971953
  Ewald energy   TEWEN  =     -9741.87410129
  -Hartree energ DENC   =     -3022.47744248
  -exchange      EXHF   =         0.00000000
  -V(xc)+E(xc)   XCENC  =        44.11483214
  PAW double counting   =     10328.32033343    -9700.96547995
  entropy T*S    EENTRO =         0.00110869
  eigenvalues    EBANDS =     -1265.07581057
  atomic energy  EATOM  =     12524.00607526
  Solvation  Ediel_sol  =         0.00000000
  ---------------------------------------------------
  free energy    TOTEN  =      -156.90076525 eV

  energy without entropy =     -156.90187394  energy(sigma->0) =     -156.90113481


--------------------------------------------------------------------------------------------------------




----------------------------------------- Iteration    1(   5)  ---------------------------------------


     EDDAV:  cpu time    0.2347: real time    0.2363
       DOS:  cpu time    0.0007: real time    0.0007
    CHARGE:  cpu time    0.0424: real time    0.0458
    MIXING:  cpu time    0.0011: real time    0.0011
    --------------------------------------------
      LOOP:  cpu time    0.2792: real time    0.2891

 eigenvalue-minimisations  :  2720
 total energy-change (2. order) :-0.1232606E+01  (-0.1216303E+01)
 number of electron     140.0000013 magnetization 
 augmentation part        4.3276856 magnetization 

 Broyden mixing:
  rms(total) = 0.43225E+01    rms(broyden)= 0.43223E+01
  rms(prec ) = 0.46807E+01
  weight for this iteration     100.00

 Free energy of the ion-electron system (eV)
  ---------------------------------------------------
  alpha Z        PSCENC =       677.04971953
  Ewald energy   TEWEN  =     -9741.87410129
  -Hartree energ DENC   =     -3022.47744248
  -exchange      EXHF   =         0.00000000
  -V(xc)+E(xc)   XCENC  =        44.11483214
  PAW double counting   =     10328.32033343    -9700.96547995
  entropy T*S    EENTRO =         0.00389361
  eigenvalues    EBANDS =     -1266.31120138
  atomic energy  EATOM  =     12524.00607526
  Solvation  Ediel_sol  =         0.00000000
  ---------------------------------------------------
  free energy    TOTEN  =      -158.13337114 eV

  energy without entropy =     -158.13726474  energy(sigma->0) =     -158.13466900


--------------------------------------------------------------------------------------------------------




----------------------------------------- Iteration    1(   6)  ---------------------------------------


    POTLOK:  cpu time    0.0114: real time    0.0115
    SETDIJ:  cpu time    0.0020: real time    0.0020
    EDDIAG:  cpu time    0.0524: real time    0.0527
  RMM-DIIS:  cpu time    0.1081: real time    0.1088
    ORTHCH:  cpu time    0.0025: real time    0.0025
       DOS:  cpu time    0.0013: real time    0.0013
    CHARGE:  cpu time    0.0434: real time    0.0435
    MIXING:  cpu time    0.0028: real time    0.0028
    --------------------------------------------
      LOOP:  cpu time    0.2247: real time    0.2307

 eigenvalue-minimisations  :  2015
 total energy-change (2. order) : 0.4511306E+01  (-0.9700759E+00)
 number of electron     140.0000014 magnetization 
 augmentation part        4.6031542 magnetization 

 Broyden mixing:
  rms(total) = 0.19985E+01    rms(broyden)= 0.19984E+01
  rms(prec ) = 0.22870E+01
  weight for this iteration     100.00

 eigenvalues of (default mixing * dielectric matrix)
  average eigenvalue GAMMA=   1.7942
  1.7942

 Free energy of the ion-electron system (eV)
  ---------------------------------------------------
  alpha Z        PSCENC =       677.04971953
  Ewald energy   TEWEN  =     -9741.87410129
  -Hartree energ DENC   =     -2945.85324884
  -exchange      EXHF   =         0.00000000
  -V(xc)+E(xc)   XCENC  =        41.71137976
  PAW double counting   =     13200.30555863   -12576.51297902
  entropy T*S    EENTRO =         0.00076171
  eigenvalues    EBANDS =     -1332.45523082
  atomic energy  EATOM  =     12524.00607526
  Solvation  Ediel_sol  =         0.00000000
  ---------------------------------------------------
  free energy    TOTEN  =      -153.62206509 eV

  energy without entropy =     -153.62282680  energy(sigma->0) =     -153.62231899


--------------------------------------------------------------------------------------------------------




----------------------------------------- Iteration    1(   7)  ---------------------------------------


    POTLOK:  cpu time    0.0111: real time    0.0112
    SETDIJ:  cpu time    0.0017: real time    0.0017
    EDDIAG:  cpu time    0.0222: real time    0.0223
  RMM-DIIS:  cpu time    0.1221: real time    0.1227
    ORTHCH:  cpu time    0.0025: real time    0.0025
       DOS:  cpu time    0.0011: real time    0.0011
    CHARGE:  cpu time    0.0439: real time    0.0440
    MIXING:  cpu time    0.0022: real time    0.0022
    --------------------------------------------
      LOOP:  cpu time    0.2074: real time    0.2130

 eigenvalue-minimisations  :  2316
 total energy-change (2. order) : 0.3024322E+00  (-0.1097636E+01)
 number of electron     140.0000013 magnetization 
 augmentation part        4.7792718 magnetization 

 Broyden mixing:
  rms(total) = 0.62041E+00    rms(broyden)= 0.62009E+00
  rms(prec ) = 0.15995E+01
  weight for this iteration     100.00

 eigenvalues of (default mixing * dielectric matrix)
  average eigenvalue GAMMA=   1.1547
  1.7899  0.5195

 Free energy of the ion-electron system (eV)
  ---------------------------------------------------
  alpha Z        PSCENC =       677.04971953
  Ewald energy   TEWEN  =     -9741.87410129
  -Hartree energ DENC   =     -2891.05771803
  -exchange      EXHF   =         0.00000000
  -V(xc)+E(xc)   XCENC  =        40.84387909
  PAW double counting   =     15695.89760632   -15070.14018439
  entropy T*S    EENTRO =         0.00871733
  eigenvalues    EBANDS =     -1388.05362675
  atomic energy  EATOM  =     12524.00607526
  Solvation  Ediel_sol  =         0.00000000
  ---------------------------------------------------
  free energy    TOTEN  =      -153.31963293 eV

  energy without entropy =     -153.32835026  energy(sigma->0) =     -153.32253871


--------------------------------------------------------------------------------------------------------




----------------------------------------- Iteration    1(   8)  ---------------------------------------


    POTLOK:  cpu time    0.0113: real time    0.0113
    SETDIJ:  cpu time    0.0017: real time    0.0017
    EDDIAG:  cpu time    0.0236: real time    0.0238
  RMM-DIIS:  cpu time    0.1261: real time    0.1266
    ORTHCH:  cpu time    0.0025: real time    0.0025
       DOS:  cpu time    0.0011: real time    0.0011
    CHARGE:  cpu time    0.0435: real time    0.0437
    MIXING:  cpu time    0.0025: real time    0.0025
    --------------------------------------------
      LOOP:  cpu time    0.2129: real time    0.2184

 eigenvalue-minimisations  :  2420
 total energy-change (2. order) : 0.1500573E+01  (-0.2372691E+00)
 number of electron     140.0000012 magnetization 
 augmentation part        4.6599880 magnetization 

 Broyden mixing:
  rms(total) = 0.23953E+00    rms(broyden)= 0.23926E+00
  rms(prec ) = 0.34348E+00
  weight for this iteration     100.00

 eigenvalues of (default mixing * dielectric matrix)
  average eigenvalue GAMMA=   1.3123
  1.7111  1.7111  0.5146

 Free energy of the ion-electron system (eV)
  ---------------------------------------------------
  alpha Z        PSCENC =       677.04971953
  Ewald energy   TEWEN  =     -9741.87410129
  -Hartree energ DENC   =     -2891.65011787
  -exchange      EXHF   =         0.00000000
  -V(xc)+E(xc)   XCENC  =        41.09567303
  PAW double counting   =     16292.66521787   -15664.79576881
  entropy T*S    EENTRO =         0.01041958
  eigenvalues    EBANDS =     -1388.32617745
  atomic energy  EATOM  =     12524.00607526
  Solvation  Ediel_sol  =         0.00000000
  ---------------------------------------------------
  free energy    TOTEN  =      -151.81906014 eV

  energy without entropy =     -151.82947972  energy(sigma->0) =     -151.82253334


--------------------------------------------------------------------------------------------------------




----------------------------------------- Iteration    1(   9)  ---------------------------------------


    POTLOK:  cpu time    0.0111: real time    0.0111
    SETDIJ:  cpu time    0.0017: real time    0.0017
    EDDIAG:  cpu time    0.0208: real time    0.0211
  RMM-DIIS:  cpu time    0.1262: real time    0.1266
    ORTHCH:  cpu time    0.0025: real time    0.0025
       DOS:  cpu time    0.0011: real time    0.0011
    CHARGE:  cpu time    0.0433: real time    0.0434
    MIXING:  cpu time    0.0034: real time    0.0034
    --------------------------------------------
      LOOP:  cpu time    0.2106: real time    0.2160

 eigenvalue-minimisations  :  2463
 total energy-change (2. order) :-0.1754165E-01  (-0.7514909E-01)
 number of electron     140.0000012 magnetization 
 augmentation part        4.5944458 magnetization 

 Broyden mixing:
  rms(total) = 0.17002E+00    rms(broyden)= 0.16998E+00
  rms(prec ) = 0.28154E+00
  weight for this iteration     100.00

 eigenvalues of (default mixing * dielectric matrix)
  average eigenvalue GAMMA=   1.2581
  2.0021  2.0021  0.5141  0.5141

 Free energy of the ion-electron system (eV)
  ---------------------------------------------------
  alpha Z        PSCENC =       677.04971953
  Ewald energy   TEWEN  =     -9741.87410129
  -Hartree energ DENC   =     -2894.60195663
  -exchange      EXHF   =         0.00000000
  -V(xc)+E(xc)   XCENC  =        41.36318349
  PAW double counting   =     16342.64639454   -15711.91239668
  entropy T*S    EENTRO =         0.00782731
  eigenvalues    EBANDS =     -1388.52134731
  atomic energy  EATOM  =     12524.00607526
  Solvation  Ediel_sol  =         0.00000000
  ---------------------------------------------------
  free energy    TOTEN  =      -151.83660179 eV

  energy without entropy =     -151.84442910  energy(sigma->0) =     -151.83921090


--------------------------------------------------------------------------------------------------------




----------------------------------------- Iteration    1(  10)  ---------------------------------------


    POTLOK:  cpu time    0.0110: real time    0.0110
    SETDIJ:  cpu time    0.0017: real time    0.0017
    EDDIAG:  cpu time    0.0209: real time    0.0209
  RMM-DIIS:  cpu time    0.1241: real time    0.1245
    ORTHCH:  cpu time    0.0332: real time    0.0333
       DOS:  cpu time    0.0007: real time    0.0008
    CHARGE:  cpu time    0.1132: real time    0.1135
    MIXING:  cpu time    0.0031: real time    0.0031
    --------------------------------------------
      LOOP:  cpu time    0.3084: real time    0.3139

 eigenvalue-minimisations  :  2437
 total energy-change (2. order) : 0.2100409E-01  (-0.1325513E-01)
 number of electron     140.0000012 magnetization 
 augmentation part        4.5609217 magnetization 

 Broyden mixing:
  rms(total) = 0.67007E-01    rms(broyden)= 0.66978E-01
  rms(prec ) = 0.13298E+00
  weight for this iteration     100.00

 eigenvalues of (default mixing * dielectric matrix)
  average eigenvalue GAMMA=   1.2175
  2.1228  1.7791  1.1875  0.4992  0.4992

 Free energy of the ion-electron system (eV)
  ---------------------------------------------------
  alpha Z        PSCENC =       677.04971953
  Ewald energy   TEWEN  =     -9741.87410129
  -Hartree energ DENC   =     -2900.45729094
  -exchange      EXHF   =         0.00000000
  -V(xc)+E(xc)   XCENC  =        41.79657076
  PAW double counting   =     16408.42112238   -15774.24076229
  entropy T*S    EENTRO =         0.00962549
  eigenvalues    EBANDS =     -1386.52655659
  atomic energy  EATOM  =     12524.00607526
  Solvation  Ediel_sol  =         0.00000000
  ---------------------------------------------------
  free energy    TOTEN  =      -151.81559771 eV

  energy without entropy =     -151.82522320  energy(sigma->0) =     -151.81880620


--------------------------------------------------------------------------------------------------------




----------------------------------------- Iteration    1(  11)  ---------------------------------------


    POTLOK:  cpu time    0.0110: real time    0.0110
    SETDIJ:  cpu time    0.0017: real time    0.0017
    EDDIAG:  cpu time    0.0267: real time    0.0268
  RMM-DIIS:  cpu time    0.1279: real time    0.1286
    ORTHCH:  cpu time    0.0025: real time    0.0025
       DOS:  cpu time    0.0007: real time    0.0007
    CHARGE:  cpu time    0.0443: real time    0.0445
    MIXING:  cpu time    0.0029: real time    0.0029
    --------------------------------------------
      LOOP:  cpu time    0.2182: real time    0.2240

 eigenvalue-minimisations  :  2463
 total energy-change (2. order) : 0.6528637E-02  (-0.3873377E-02)
 number of electron     140.0000012 magnetization 
 augmentation part        4.5550777 magnetization 

 Broyden mixing:
  rms(total) = 0.27270E-01    rms(broyden)= 0.27224E-01
  rms(prec ) = 0.44710E-01
  weight for this iteration     100.00

 eigenvalues of (default mixing * dielectric matrix)
  average eigenvalue GAMMA=   1.2121
  2.2040  1.6932  1.6932  0.6240  0.5292  0.5292

 Free energy of the ion-electron system (eV)
  ---------------------------------------------------
  alpha Z        PSCENC =       677.04971953
  Ewald energy   TEWEN  =     -9741.87410129
  -Hartree energ DENC   =     -2901.00737139
  -exchange      EXHF   =         0.00000000
  -V(xc)+E(xc)   XCENC  =        41.91006765
  PAW double counting   =     16493.91819538   -15858.18458317
  entropy T*S    EENTRO =         0.00808542
  eigenvalues    EBANDS =     -1387.63515645
  atomic energy  EATOM  =     12524.00607526
  Solvation  Ediel_sol  =         0.00000000
  ---------------------------------------------------
  free energy    TOTEN  =      -151.80906907 eV

  energy without entropy =     -151.81715449  energy(sigma->0) =     -151.81176421


--------------------------------------------------------------------------------------------------------




----------------------------------------- Iteration    1(  12)  ---------------------------------------


    POTLOK:  cpu time    0.0110: real time    0.0110
    SETDIJ:  cpu time    0.0019: real time    0.0019
    EDDIAG:  cpu time    0.0331: real time    0.0332
  RMM-DIIS:  cpu time    0.1370: real time    0.1375
    ORTHCH:  cpu time    0.0138: real time    0.0138
       DOS:  cpu time    0.0153: real time    0.0153
    CHARGE:  cpu time    0.1550: real time    0.1555
    MIXING:  cpu time    0.0027: real time    0.0027
    --------------------------------------------
      LOOP:  cpu time    0.3702: real time    0.3766

 eigenvalue-minimisations  :  2538
 total energy-change (2. order) :-0.5839655E-03  (-0.1362770E-02)
 number of electron     140.0000012 magnetization 
 augmentation part        4.5521487 magnetization 

 Broyden mixing:
  rms(total) = 0.18177E-01    rms(broyden)= 0.18169E-01
  rms(prec ) = 0.38149E-01
  weight for this iteration     100.00

 eigenvalues of (default mixing * dielectric matrix)
  average eigenvalue GAMMA=   1.1779
  2.2820  1.7806  1.6521  0.9086  0.6080  0.5072  0.5072

 Free energy of the ion-electron system (eV)
  ---------------------------------------------------
  alpha Z        PSCENC =       677.04971953
  Ewald energy   TEWEN  =     -9741.87410129
  -Hartree energ DENC   =     -2901.17740988
  -exchange      EXHF   =         0.00000000
  -V(xc)+E(xc)   XCENC  =        41.91615469
  PAW double counting   =     16529.13093883   -15893.03948678
  entropy T*S    EENTRO =         0.00874918
  eigenvalues    EBANDS =     -1387.83029259
  atomic energy  EATOM  =     12524.00607526
  Solvation  Ediel_sol  =         0.00000000
  ---------------------------------------------------
  free energy    TOTEN  =      -151.80965304 eV

  energy without entropy =     -151.81840222  energy(sigma->0) =     -151.81256943


--------------------------------------------------------------------------------------------------------




----------------------------------------- Iteration    1(  13)  ---------------------------------------


    POTLOK:  cpu time    0.0126: real time    0.0126
    SETDIJ:  cpu time    0.1280: real time    0.1283
    EDDIAG:  cpu time    0.0233: real time    0.0233
  RMM-DIIS:  cpu time    0.2291: real time    0.2325
    ORTHCH:  cpu time    0.0025: real time    0.0025
       DOS:  cpu time    0.0009: real time    0.0135
    CHARGE:  cpu time    0.0453: real time    0.0483
    MIXING:  cpu time    0.0007: real time    0.0007
    --------------------------------------------
      LOOP:  cpu time    0.4429: real time    0.4676

 eigenvalue-minimisations  :  2825
 total energy-change (2. order) : 0.3916192E-03  (-0.3725295E-03)
 number of electron     140.0000011 magnetization 
 augmentation part        4.5503400 magnetization 

 Broyden mixing:
  rms(total) = 0.92088E-02    rms(broyden)= 0.92064E-02
  rms(prec ) = 0.12697E-01
  weight for this iteration     100.00

 eigenvalues of (default mixing * dielectric matrix)
  average eigenvalue GAMMA=   1.2308
  2.6499  2.0019  1.4335  1.4335  0.7895  0.5183  0.5183  0.5017

 Free energy of the ion-electron system (eV)
  ---------------------------------------------------
  alpha Z        PSCENC =       677.04971953
  Ewald energy   TEWEN  =     -9741.87410129
  -Hartree energ DENC   =     -2901.18640725
  -exchange      EXHF   =         0.00000000
  -V(xc)+E(xc)   XCENC  =        41.91062909
  PAW double counting   =     16542.40480772   -15906.09107898
  entropy T*S    EENTRO =         0.00866581
  eigenvalues    EBANDS =     -1388.03757131
  atomic energy  EATOM  =     12524.00607526
  Solvation  Ediel_sol  =         0.00000000
  ---------------------------------------------------
  free energy    TOTEN  =      -151.80926142 eV

  energy without entropy =     -151.81792723  energy(sigma->0) =     -151.81215002


--------------------------------------------------------------------------------------------------------




----------------------------------------- Iteration    1(  14)  ---------------------------------------


    POTLOK:  cpu time    0.0112: real time    0.0119
    SETDIJ:  cpu time    0.0126: real time    0.0138
    EDDIAG:  cpu time    0.0222: real time    0.0316
  RMM-DIIS:  cpu time    0.1265: real time    0.1735
    ORTHCH:  cpu time    0.0026: real time    0.0026
       DOS:  cpu time    0.0007: real time    0.0009
    CHARGE:  cpu time    0.0448: real time    0.0461
    MIXING:  cpu time    0.0028: real time    0.0029
    --------------------------------------------
      LOOP:  cpu time    0.2241: real time    0.2904

 eigenvalue-minimisations  :  2611
 total energy-change (2. order) :-0.1964679E-03  (-0.2379823E-03)
 number of electron     140.0000011 magnetization 
 augmentation part        4.5478484 magnetization 

 Broyden mixing:
  rms(total) = 0.44321E-02    rms(broyden)= 0.44281E-02
  rms(prec ) = 0.98446E-02
  weight for this iteration     100.00

 eigenvalues of (default mixing * dielectric matrix)
  average eigenvalue GAMMA=   1.2007
  2.6618  1.9826  1.6568  1.4245  0.8783  0.6632  0.5109  0.5109  0.5177

 Free energy of the ion-electron system (eV)
  ---------------------------------------------------
  alpha Z        PSCENC =       677.04971953
  Ewald energy   TEWEN  =     -9741.87410129
  -Hartree energ DENC   =     -2901.51854608
  -exchange      EXHF   =         0.00000000
  -V(xc)+E(xc)   XCENC  =        41.92105580
  PAW double counting   =     16549.83867280   -15913.28838380
  entropy T*S    EENTRO =         0.00856286
  eigenvalues    EBANDS =     -1387.95251296
  atomic energy  EATOM  =     12524.00607526
  Solvation  Ediel_sol  =         0.00000000
  ---------------------------------------------------
  free energy    TOTEN  =      -151.80945789 eV

  energy without entropy =     -151.81802074  energy(sigma->0) =     -151.81231217


--------------------------------------------------------------------------------------------------------




----------------------------------------- Iteration    1(  15)  ---------------------------------------


    POTLOK:  cpu time    0.0118: real time    0.0123
    SETDIJ:  cpu time    0.0017: real time    0.0017
    EDDIAG:  cpu time    0.0236: real time    0.0277
  RMM-DIIS:  cpu time    0.1962: real time    0.2071
    ORTHCH:  cpu time    0.0025: real time    0.0025
       DOS:  cpu time    0.0009: real time    0.0009
    CHARGE:  cpu time    0.0421: real time    0.0575
    MIXING:  cpu time    0.0008: real time    0.0009
    --------------------------------------------
      LOOP:  cpu time    0.2800: real time    0.3166

 eigenvalue-minimisations  :  2215
 total energy-change (2. order) :-0.1331722E-04  (-0.7591982E-04)
 number of electron     140.0000011 magnetization 
 augmentation part        4.5472716 magnetization 

 Broyden mixing:
  rms(total) = 0.19852E-02    rms(broyden)= 0.19828E-02
  rms(prec ) = 0.43611E-02
  weight for this iteration     100.00

 eigenvalues of (default mixing * dielectric matrix)
  average eigenvalue GAMMA=   1.1616
  2.7028  1.8947  1.8947  1.1559  1.1559  0.7552  0.5323  0.5323  0.4963  0.4963

 Free energy of the ion-electron system (eV)
  ---------------------------------------------------
  alpha Z        PSCENC =       677.04971953
  Ewald energy   TEWEN  =     -9741.87410129
  -Hartree energ DENC   =     -2901.52791655
  -exchange      EXHF   =         0.00000000
  -V(xc)+E(xc)   XCENC  =        41.92023664
  PAW double counting   =     16555.46617870   -15918.87223374
  entropy T*S    EENTRO =         0.00866483
  eigenvalues    EBANDS =     -1387.98609458
  atomic energy  EATOM  =     12524.00607526
  Solvation  Ediel_sol  =         0.00000000
  ---------------------------------------------------
  free energy    TOTEN  =      -151.80947120 eV

  energy without entropy =     -151.81813603  energy(sigma->0) =     -151.81235948


--------------------------------------------------------------------------------------------------------




----------------------------------------- Iteration    1(  16)  ---------------------------------------


    POTLOK:  cpu time    0.0109: real time    0.0115
    SETDIJ:  cpu time    0.0017: real time    0.0019
    EDDIAG:  cpu time    0.0224: real time    0.0287
  RMM-DIIS:  cpu time    0.0914: real time    0.1163
    ORTHCH:  cpu time    0.0026: real time    0.0028
       DOS:  cpu time    0.0007: real time    0.0007
    CHARGE:  cpu time    0.0435: real time    0.0445
    MIXING:  cpu time    0.0031: real time    0.0031
    --------------------------------------------
      LOOP:  cpu time    0.1767: real time    0.2143

 eigenvalue-minimisations  :  1879
 total energy-change (2. order) :-0.1723341E-04  (-0.3195771E-04)
 number of electron     140.0000011 magnetization 
 augmentation part        4.5468861 magnetization 

 Broyden mixing:
  rms(total) = 0.89587E-03    rms(broyden)= 0.89491E-03
  rms(prec ) = 0.13884E-02
  weight for this iteration     100.00

 eigenvalues of (default mixing * dielectric matrix)
  average eigenvalue GAMMA=   1.1779
  2.7779  1.9748  1.9748  1.3074  1.3074  0.7727  0.7727  0.5403  0.5403  0.4942
  0.4942

 Free energy of the ion-electron system (eV)
  ---------------------------------------------------
  alpha Z        PSCENC =       677.04971953
  Ewald energy   TEWEN  =     -9741.87410129
  -Hartree energ DENC   =     -2901.55651376
  -exchange      EXHF   =         0.00000000
  -V(xc)+E(xc)   XCENC  =        41.92086397
  PAW double counting   =     16557.73253685   -15921.10730330
  entropy T*S    EENTRO =         0.00863274
  eigenvalues    EBANDS =     -1387.98939844
  atomic energy  EATOM  =     12524.00607526
  Solvation  Ediel_sol  =         0.00000000
  ---------------------------------------------------
  free energy    TOTEN  =      -151.80948844 eV

  energy without entropy =     -151.81812118  energy(sigma->0) =     -151.81236602


--------------------------------------------------------------------------------------------------------




----------------------------------------- Iteration    1(  17)  ---------------------------------------


    POTLOK:  cpu time    0.0110: real time    0.0117
    SETDIJ:  cpu time    0.0017: real time    0.0019
    EDDIAG:  cpu time    0.0227: real time    0.0564
  RMM-DIIS:  cpu time    0.0871: real time    0.0986
    ORTHCH:  cpu time    0.0033: real time    0.0051
       DOS:  cpu time    0.0008: real time    0.0008
    CHARGE:  cpu time    0.0429: real time    0.0472
    MIXING:  cpu time    0.0008: real time    0.0008
    --------------------------------------------
      LOOP:  cpu time    0.1708: real time    0.2285

 eigenvalue-minimisations  :  1667
 total energy-change (2. order) :-0.7951454E-05  (-0.1226191E-04)
 number of electron     140.0000011 magnetization 
 augmentation part        4.5468153 magnetization 

 Broyden mixing:
  rms(total) = 0.62118E-03    rms(broyden)= 0.62067E-03
  rms(prec ) = 0.12532E-02
  weight for this iteration     100.00

 eigenvalues of (default mixing * dielectric matrix)
  average eigenvalue GAMMA=   1.1755
  2.8474  1.9659  1.9659  1.5484  1.0468  1.0123  1.0123  0.6623  0.5404  0.5077
  0.5077  0.4885

 Free energy of the ion-electron system (eV)
  ---------------------------------------------------
  alpha Z        PSCENC =       677.04971953
  Ewald energy   TEWEN  =     -9741.87410129
  -Hartree energ DENC   =     -2901.54883477
  -exchange      EXHF   =         0.00000000
  -V(xc)+E(xc)   XCENC  =        41.91997201
  PAW double counting   =     16558.89470613   -15922.25426579
  entropy T*S    EENTRO =         0.00862449
  eigenvalues    EBANDS =     -1388.01139196
  atomic energy  EATOM  =     12524.00607526
  Solvation  Ediel_sol  =         0.00000000
  ---------------------------------------------------
  free energy    TOTEN  =      -151.80949639 eV

  energy without entropy =     -151.81812088  energy(sigma->0) =     -151.81237122


--------------------------------------------------------------------------------------------------------




----------------------------------------- Iteration    1(  18)  ---------------------------------------


    POTLOK:  cpu time    0.0109: real time    0.0115
    SETDIJ:  cpu time    0.0017: real time    0.0019
    EDDIAG:  cpu time    0.0229: real time    0.0309
  RMM-DIIS:  cpu time    0.0792: real time    0.0795
    ORTHCH:  cpu time    0.0025: real time    0.0025
       DOS:  cpu time    0.0007: real time    0.0007
    --------------------------------------------
      LOOP:  cpu time    0.1185: real time    0.1337

 eigenvalue-minimisations  :  1402
 total energy-change (2. order) :-0.5536973E-05  (-0.7586118E-05)
 number of electron     140.0000011 magnetization 
 augmentation part        4.5468153 magnetization 

 Free energy of the ion-electron system (eV)
  ---------------------------------------------------
  alpha Z        PSCENC =       677.04971953
  Ewald energy   TEWEN  =     -9741.87410129
  -Hartree energ DENC   =     -2901.57375188
  -exchange      EXHF   =         0.00000000
  -V(xc)+E(xc)   XCENC  =        41.92056170
  PAW double counting   =     16559.20205934   -15922.54922985
  entropy T*S    EENTRO =         0.00862296
  eigenvalues    EBANDS =     -1387.99945771
  atomic energy  EATOM  =     12524.00607526
  Solvation  Ediel_sol  =         0.00000000
  ---------------------------------------------------
  free energy    TOTEN  =      -151.80950192 eV

  energy without entropy =     -151.81812489  energy(sigma->0) =     -151.81237624


--------------------------------------------------------------------------------------------------------




 average (electrostatic) potential at core
  the test charge radii are     1.2538  1.2481  1.0638  1.0703
  (the norm of the test charge is              1.0000)
       1 -33.6797       2 -33.4610       3 -33.8901       4 -33.4118       5 -33.4418
       6 -33.1772       7 -33.1772       8 -75.5190       9 -75.5565      10 -75.4381
      11 -75.5274      12 -75.5274      13 -75.6384      14 -75.5190      15 -75.5565
      16 -80.5592
 
 
 
 E-fermi :   7.5925     XC(G=0): -11.3999     alpha+bet :-14.9676


 k-point     1 :       0.0000    0.0000    0.0000
  band No.  band energies     occupation 
      1     -46.7221      2.00000
      2     -40.7740      2.00000
      3     -40.6739      2.00000
      4     -40.6677      2.00000
      5     -40.6423      2.00000
      6     -40.6324      2.00000
      7     -40.6234      2.00000
      8     -40.6094      2.00000
      9     -40.5456      2.00000
     10     -22.8902      2.00000
     11     -22.8604      2.00000
     12     -22.8497      2.00000
     13     -19.2650      2.00000
     14     -19.1933      2.00000
     15     -19.1030      2.00000
     16     -18.9013      2.00000
     17     -18.8986      2.00000
     18     -18.8640      2.00000
     19     -18.8457      2.00000
     20     -18.8264      2.00000
     21     -18.7794      2.00000
     22     -18.7787      2.00000
     23     -18.7689      2.00000
     24     -18.7620      2.00000
     25     -18.7467      2.00000
     26     -18.7352      2.00000
[...]
     41       4.4723      2.00000
     42       4.6431      2.00000
     43       4.8583      2.00000
     44       5.0272      2.00000
     45       5.1300      2.00000
     46       5.1715      2.00000
     47       5.2743      2.00000
     48       5.3317      2.00000
     49       5.4410      2.00000
     50       5.4769      2.00000
     51       5.5945      2.00000
     52       5.8433      2.00000
     53       5.9069      2.00000
     54       6.0563      2.00000
     55       6.2309      2.00000
     56       6.4277      2.00000
     57       6.4591      2.00000
     58       6.5694      2.00000
     59       6.6759      2.00000
     60       6.7097      2.00000
     61       6.7744      2.00000
     62       6.8587      2.00000
     63       6.8774      2.00000
     64       7.0926      2.00001
     65       7.1051      2.00001
     66       7.2477      2.00232
     67       7.2798      2.00571
     68       7.3908      2.05112
     69       7.3960      2.05429
     70       7.5543      1.69021
     71       7.6397      0.81000
     72       7.6931      0.29437
     73       7.6986      0.25293
     74       7.8842     -0.03339
     75       7.9702     -0.00505
     76       8.1331     -0.00002
     77       8.1878     -0.00000
     78       8.3120     -0.00000
     79       8.3263     -0.00000
     80       8.4756     -0.00000
     81       8.7667     -0.00000
     82       8.9633     -0.00000
     83       8.9890     -0.00000
     84       9.1047     -0.00000

 k-point     9 :       0.3333    0.3333    0.3333
  band No.  band energies     occupation 
      1     -46.6878      2.00000
      2     -40.7313      2.00000
      3     -40.6445      2.00000
      4     -40.6272      2.00000
      5     -40.6047      2.00000
      6     -40.5920      2.00000
      7     -40.5818      2.00000
      8     -40.5704      2.00000
      9     -40.5084      2.00000
     10     -22.8572      2.00000
     11     -22.8276      2.00000
     12     -22.8163      2.00000
     13     -19.1682      2.00000
     14     -19.1018      2.00000
     15     -19.0572      2.00000
     16     -18.9893      2.00000
     17     -18.9280      2.00000
     18     -18.8496      2.00000
     19     -18.7831      2.00000
     20     -18.7687      2.00000
     21     -18.7611      2.00000
     22     -18.7368      2.00000
     23     -18.7241      2.00000
     24     -18.7105      2.00000
     25     -18.6903      2.00000
     26     -18.6796      2.00000
     27     -18.6558      2.00000
     28     -18.6255      2.00000
     29     -18.6154      2.00000
     30     -18.6095      2.00000
     31     -18.5925      2.00000
     32     -18.4970      2.00000
     33     -18.4808      2.00000
     34     -18.4370      2.00000
     35     -18.3933      2.00000
     36     -18.3152      2.00000
     37       2.5326      2.00000
     38       3.4388      2.00000
     39       3.6433      2.00000
     40       3.9453      2.00000
     41       4.2088      2.00000
     42       4.5062      2.00000
     43       4.7129      2.00000
     44       5.1938      2.00000
     45       5.4064      2.00000
     46       5.4636      2.00000
     47       5.5182      2.00000
     48       5.5490      2.00000
     49       5.6719      2.00000
     50       5.7195      2.00000
     51       5.8143      2.00000
     52       5.8780      2.00000
     53       5.9275      2.00000
     54       6.0176      2.00000
     55       6.2963      2.00000
     56       6.3687      2.00000
     57       6.3915      2.00000
     58       6.4533      2.00000
     59       6.6029      2.00000
     60       6.6557      2.00000
     61       6.7694      2.00000
     62       6.8467      2.00000
     63       6.8852      2.00000
     64       6.9245      2.00000
     65       6.9777      2.00000
     66       7.0096      2.00000
     67       7.0344      2.00000
     68       7.1186      2.00002
     69       7.1293      2.00003
     70       7.2984      2.00916
     71       7.3966      2.05467
     72       7.5568      1.67028
     73       7.6122      1.11820
     74       7.6969      0.26535
     75       7.7490     -0.00006
     76       7.8179     -0.06930
     77       7.8608     -0.04730
     78       7.9703     -0.00503
     79       8.0473     -0.00047
     80       8.1348     -0.00002
     81       8.1692     -0.00000
     82       8.2519     -0.00000
     83       8.4007     -0.00000
     84       8.9384     -0.00000

 k-point    10 :      -0.3333    0.3333    0.3333
  band No.  band energies     occupation 
      1     -46.6878      2.00000
      2     -40.7311      2.00000
      3     -40.6467      2.00000
      4     -40.6240      2.00000
      5     -40.6045      2.00000
      6     -40.5952      2.00000
      7     -40.5790      2.00000
      8     -40.5715      2.00000
      9     -40.5084      2.00000
     10     -22.8572      2.00000
     11     -22.8276      2.00000
     12     -22.8163      2.00000
     13     -19.1780      2.00000
     14     -19.1305      2.00000
     15     -19.0631      2.00000
     16     -18.9612      2.00000
     17     -18.8918      2.00000
     18     -18.7979      2.00000
     19     -18.7741      2.00000
     20     -18.7689      2.00000
     21     -18.7574      2.00000
     22     -18.7410      2.00000
     23     -18.7288      2.00000
     24     -18.7112      2.00000
     25     -18.6980      2.00000
     26     -18.6859      2.00000
     27     -18.6826      2.00000
     28     -18.6310      2.00000
     29     -18.6206      2.00000
     30     -18.6138      2.00000
     31     -18.5954      2.00000
     32     -18.5644      2.00000
     33     -18.4903      2.00000
     34     -18.4116      2.00000
     35     -18.3725      2.00000
     36     -18.3000      2.00000
     37       2.5518      2.00000
     38       3.3451      2.00000
     39       3.6267      2.00000
     40       4.1130      2.00000
     41       4.1881      2.00000
     42       4.4576      2.00000
     43       4.7408      2.00000
     44       5.1578      2.00000
     45       5.3971      2.00000
     46       5.4579      2.00000
     47       5.5095      2.00000
     48       5.5746      2.00000
     49       5.6745      2.00000
     50       5.7180      2.00000
     51       5.8211      2.00000
     52       5.8740      2.00000
     53       5.9284      2.00000
     54       6.0203      2.00000
     55       6.3088      2.00000
     56       6.3550      2.00000
     57       6.4044      2.00000
     58       6.4342      2.00000
     59       6.5807      2.00000
     60       6.6464      2.00000
     61       6.7721      2.00000
     62       6.8375      2.00000
     63       6.8896      2.00000
     64       6.9321      2.00000
     65       6.9564      2.00000
     66       7.0153      2.00000
     67       7.0751      2.00000
     68       7.1150      2.00002
     69       7.1271      2.00003
     70       7.2910      2.00762
     71       7.4033      2.05858
     72       7.5549      1.68542
     73       7.5897      1.36268
     74       7.7318      0.06173
     75       7.7619     -0.03197
     76       7.7975     -0.06974
     77       7.8518     -0.05281
     78       7.9700     -0.00508
     79       8.0574     -0.00033
     80       8.1020     -0.00006
     81       8.1896     -0.00000
     82       8.2662     -0.00000
     83       8.4104     -0.00000
     84       8.9423     -0.00000


--------------------------------------------------------------------------------------------------------


 soft charge-density along one line, spin component           1
         0         1         2         3         4         5         6         7         8         9
 total charge-density along one line
 
 pseudopotential strength for first ion, spin component:           1
 -6.407  -0.000   0.001   0.000  -0.000  -7.611  -0.000   0.001
 -0.000  -6.419   0.000  -0.001  -0.000  -0.000  -7.625   0.000
  0.001   0.000  -6.423  -0.000   0.002   0.001   0.000  -7.630
  0.000  -0.001  -0.000  -6.418  -0.000   0.000  -0.001  -0.000
 -0.000  -0.000   0.002  -0.000  -6.416  -0.000  -0.000   0.003
 -7.611  -0.000   0.001   0.000  -0.000  -9.020  -0.000   0.002
 -0.000  -7.625   0.000  -0.001  -0.000  -0.000  -9.036   0.000
  0.001   0.000  -7.630  -0.000   0.003   0.002   0.000  -9.042
  0.000  -0.001  -0.000  -7.624  -0.000   0.000  -0.001  -0.000
 -0.000  -0.000   0.003  -0.000  -7.622  -0.000  -0.000   0.004
  0.001  -0.000   0.003   0.000   0.002   0.001  -0.000   0.003
  0.002  -0.000   0.004   0.000   0.003   0.002  -0.000   0.005
  0.000  -0.001   0.000  -0.000   0.000   0.000  -0.001   0.000
 -0.000  -0.000   0.007   0.000   0.001  -0.000  -0.000   0.008
 -0.000  -0.000  -0.000   0.001   0.000  -0.000  -0.000  -0.000
 -0.000   0.005  -0.000   0.000  -0.000  -0.000   0.006  -0.000
  0.000   0.000  -0.007  -0.000  -0.002   0.000   0.000  -0.008
  0.000   0.000   0.000   0.001  -0.000   0.000   0.000   0.000
 total augmentation occupancy for first ion, spin component:           1
  4.364   0.000   0.055   0.000   0.001  -2.120   0.000  -0.028   0.000  -0.002  -0.054   0.016   0.000   0.003   0.000   0.000
  0.000   4.140   0.000  -0.031   0.000   0.000  -2.079   0.000   0.017   0.000   0.000   0.000   0.025   0.000   0.003   0.001
  0.055   0.000   4.245   0.000   0.096  -0.027   0.000  -2.193   0.000  -0.030   0.032   0.038   0.000  -0.153   0.000   0.000
  0.000  -0.031   0.000   4.333   0.000   0.000   0.016   0.000  -2.170   0.000   0.000   0.000  -0.002   0.000  -0.081  -0.000
  0.001   0.000   0.096   0.000   4.129  -0.002   0.000  -0.029   0.000  -2.176  -0.027   0.015   0.000  -0.042   0.000   0.000
 -2.120   0.000  -0.027   0.000  -0.002   1.055   0.000   0.013   0.000   0.002   0.032  -0.008   0.000  -0.002   0.000   0.000
  0.000  -2.079   0.000   0.016   0.000   0.000   1.064   0.000  -0.008   0.000   0.000   0.000   0.001   0.000  -0.002   0.000
 -0.028   0.000  -2.193   0.000  -0.029   0.013   0.000   1.146   0.000   0.005  -0.011  -0.019   0.000   0.079   0.000   0.000
  0.000   0.017   0.000  -2.170   0.000   0.000  -0.008   0.000   1.107   0.000   0.000   0.000  -0.000   0.000   0.042   0.000
 -0.002   0.000  -0.030   0.000  -2.176   0.002   0.000   0.005   0.000   1.159   0.010  -0.007   0.000   0.015   0.000   0.000
 -0.054   0.000   0.032   0.000  -0.027   0.032   0.000  -0.011   0.000   0.010   2.178  -0.216   0.000  -0.049   0.000   0.000
  0.016   0.000   0.038   0.000   0.015  -0.008   0.000  -0.019   0.000  -0.007  -0.216   0.023   0.000  -0.001   0.000   0.000
  0.000   0.025   0.000  -0.002   0.000   0.000   0.001   0.000  -0.000   0.000   0.000   0.000   0.267   0.000   0.000   0.007
  0.003   0.000  -0.153   0.000  -0.042  -0.002   0.000   0.079   0.000   0.015  -0.049  -0.001   0.000   0.242   0.000   0.000
  0.000   0.003   0.000  -0.081   0.000   0.000  -0.002   0.000   0.042   0.000   0.000   0.000   0.000   0.000   0.278   0.000
  0.000   0.001   0.000  -0.000   0.000   0.000   0.000   0.000   0.000   0.000   0.000   0.000   0.007   0.000   0.000   0.000
 -0.000   0.000  -0.007   0.000  -0.001   0.000   0.000   0.003   0.000   0.000  -0.001  -0.000   0.000   0.006   0.000   0.000
  0.000  -0.000   0.000  -0.002   0.000   0.000   0.000   0.000   0.001   0.000   0.000   0.000   0.000   0.000   0.007   0.000


------------------------ aborting loop because EDIFF is reached ----------------------------------------


    CHARGE:  cpu time    0.0445: real time    0.0447
    FORLOC:  cpu time    0.0035: real time    0.0035
    FORNL :  cpu time    0.0610: real time    0.0613
    STRESS:  cpu time    0.1788: real time    0.1796
    FORCOR:  cpu time    0.0144: real time    0.0144
    FORHAR:  cpu time    0.0049: real time    0.0049
    MIXING:  cpu time    0.0005: real time    0.0005
    OFIELD:  cpu time    0.0000: real time    0.0000

  FORCE on cell =-STRESS in cart. coord.  units (eV):
  Direction    XX          YY          ZZ          XY          YZ          ZX
  --------------------------------------------------------------------------------------
  Alpha Z   679.12699   679.12699   679.12699
  Ewald   -3004.86994 -3138.29616 -3610.41052  -114.93960     0.00000    -0.00000
  Hartree  1171.43546  1084.42528   640.87626   -93.13898    -0.00000    -0.00000
  E(xc)    -596.29714  -596.53210  -597.21370    -0.01271     0.00000     0.00000
  Local    -574.28920  -358.70467   561.57657   207.97066     0.00000     0.00000
  n-local  -159.92178  -156.35387  -158.68910     0.34051     0.93869     0.74556
  augment    50.14394    49.61296    49.71351    -0.11856    -0.00000     0.00000
  Kinetic  2434.71080  2436.73774  2435.07528    -0.08902    -6.03635    -3.76562
  Fock        0.00000     0.00000     0.00000     0.00000     0.00000     0.00000
  -------------------------------------------------------------------------------------
  Total       0.03913     0.01615     0.05528     0.01230     0.00000     0.00000
  in kB       0.18284     0.07548     0.25831     0.05747     0.00000     0.00000
  external pressure =        0.17 kB  Pullay stress =        0.00 kB


 VOLUME and BASIS-vectors are now :
 -----------------------------------------------------------------------------
  energy-cutoff  :      300.00
  volume of cell :      342.89
      direct lattice vectors                 reciprocal lattice vectors
     7.057797827  0.004856951  0.000000000     0.141687323 -0.000099400  0.000000000
     0.004867364  6.938050386  0.000000000    -0.000099188  0.144132779  0.000000000
     0.000000000  0.000000000  7.002358765     0.000000000  0.000000000  0.142809021

  length of vectors
     7.057799498  6.938052093  7.002358765     0.141687358  0.144132813  0.142809021


 FORCES acting on ions
    electron-ion (+dipol)            ewald-force                    non-local-force                 convergence-correction
 -----------------------------------------------------------------------------------------------
   0.333E-11 0.537E-10 0.587E+02   -.633E-14 -.904E-14 -.592E+02   0.340E-17 0.000E+00 0.503E+00   0.238E-12 -.230E-12 0.287E-02
   0.308E-09 -.505E-10 0.729E+02   0.355E-13 -.885E-14 -.724E+02   0.239E-17 0.000E+00 -.568E+00   -.191E-12 -.196E-12 0.244E-02
   -.189E-10 -.885E-11 -.872E+02   0.356E-13 -.143E-13 0.863E+02   0.543E-17 0.000E+00 0.867E+00   -.598E-13 -.439E-12 -.636E-03
   -.455E-09 0.992E-11 -.330E+02   0.590E-14 0.139E-13 0.339E+02   -.568E-17 0.000E+00 -.850E+00   0.148E-12 0.277E-12 -.128E-02
   0.271E-09 -.288E-09 -.234E+02   -.374E-13 -.349E-14 0.238E+02   -.107E-16 0.000E+00 -.398E+00   0.164E-13 -.329E-12 -.159E-02
   0.356E+02 -.236E+02 0.486E+02   -.355E+02 0.236E+02 -.480E+02   -.178E+00 -.765E-01 -.557E+00   -.980E-03 0.316E-03 -.157E-02
   -.356E+02 0.236E+02 0.486E+02   0.355E+02 -.236E+02 -.480E+02   0.178E+00 0.765E-01 -.557E+00   0.980E-03 -.316E-03 -.157E-02
   0.122E+03 0.730E+02 -.134E+03   -.121E+03 -.731E+02 0.133E+03   -.315E+00 0.856E-01 0.585E+00   -.273E-02 -.145E-02 0.271E-02
   0.625E+02 0.691E+02 0.141E+03   -.620E+02 -.691E+02 -.141E+03   -.495E+00 0.611E-01 -.613E+00   -.187E-02 -.551E-03 -.415E-02
   0.343E-08 -.925E-08 0.157E+03   0.194E-13 -.283E-13 -.158E+03   -.983E-19 0.000E+00 0.545E+00   0.195E-12 0.477E-12 0.865E-02
   0.115E+03 -.746E+02 -.120E+03   -.114E+03 0.747E+02 0.120E+03   -.348E+00 -.101E+00 0.665E+00   -.285E-02 0.723E-03 0.246E-02
   -.115E+03 0.746E+02 -.120E+03   0.114E+03 -.747E+02 0.120E+03   0.348E+00 0.101E+00 0.665E+00   0.285E-02 -.723E-03 0.246E-02
   0.286E-08 -.263E-09 -.155E+03   0.851E-13 0.334E-13 0.154E+03   -.144E-17 0.000E+00 0.116E+01   -.389E-12 0.861E-12 -.472E-02
   -.122E+03 -.730E+02 -.134E+03   0.121E+03 0.731E+02 0.133E+03   0.315E+00 -.856E-01 0.585E+00   0.273E-02 0.145E-02 0.271E-02
   -.625E+02 -.691E+02 0.141E+03   0.620E+02 0.691E+02 -.141E+03   0.495E+00 -.611E-01 -.613E+00   0.187E-02 0.551E-03 -.415E-02
   -.653E-08 0.153E-08 0.138E+03   0.707E-13 0.564E-13 -.137E+03   0.833E-18 0.000E+00 -.971E+00   -.485E-12 0.390E-12 0.190E-01
 -----------------------------------------------------------------------------------------------
   0.146E-08 -.486E-07 -.477E+00   0.113E-12 -.573E-13 0.568E-13   0.563E-16 0.000E+00 0.452E+00   -.587E-12 0.137E-11 0.237E-01
 
 
 POSITION                                       TOTAL-FORCE (eV/Angst)
 -----------------------------------------------------------------------------------
      0.00000      0.00000      6.71068         0.000000     -0.000000      0.003237
      3.52890      0.00243      0.23628        -0.000000     -0.000000     -0.004998
      3.53133      3.47145      3.31219         0.000000     -0.000000      0.004654
      0.00000      0.00000      3.73509         0.000000     -0.000000     -0.000001
      0.00243      3.46903      3.66791        -0.000000     -0.000000      0.001005
      1.98125      5.20274      5.34720        -0.000322      0.001365     -0.002297
      5.08142      1.74017      5.34720         0.000322     -0.001365     -0.002297
      1.66476      1.72867      1.66729        -0.006687      0.000876      0.004624
      1.98241      1.74389      5.33910         0.001934      0.002872     -0.004882
      0.00243      3.46903      6.72661        -0.000000     -0.000000      0.001063
      1.66312      5.21076      1.65483        -0.004091      0.003190      0.001779
      5.39954      1.73214      1.65483         0.004091     -0.003190      0.001779
      3.52890      0.00243      3.32487        -0.000000     -0.000000      0.003129
      5.39790      5.21424      1.66729         0.006687     -0.000876      0.004624
      5.08026      5.19902      5.33910        -0.001934     -0.002872     -0.004882
      3.53133      3.47145      0.28839        -0.000000     -0.000000     -0.006536
 -----------------------------------------------------------------------------------
    total drift:                                0.000000     -0.000000     -0.001643


--------------------------------------------------------------------------------------------------------



  FREE ENERGIE OF THE ION-ELECTRON SYSTEM (eV)
  ---------------------------------------------------
  free  energy   TOTEN  =      -151.81065639 eV

  energy  without entropy=     -151.81991073  energy(sigma->0) =     -151.81374117
 
 d Force = 0.8658532E-04[ 0.502E-04, 0.123E-03]  d Energy = 0.9154053E-04-0.496E-05
 d Force = 0.1070295E+01[ 0.107E+01, 0.107E+01]  d Ewald  = 0.1260528E+01-0.190E+00


--------------------------------------------------------------------------------------------------------


    POTLOK:  cpu time    0.0153: real time    0.0153


--------------------------------------------------------------------------------------------------------




--------------------------------------------------------------------------------------------------------


  
 reached required accuracy - stopping structural energy minimisation
     LOOP+:  cpu time    1.0575: real time    1.0909
    4ORBIT:  cpu time    0.0000: real time    0.0000

 total amount of memory used by VASP on root node    40858. kBytes
========================================================================

   base      :      30000. kBytes
   nonlr-proj:       4117. kBytes
   fftplans  :       1259. kBytes
   grid      :       2396. kBytes
   one-center:         62. kBytes
   wavefun   :       3024. kBytes
 
  
  
 General timing and accounting informations for this job:
 ========================================================
  
                  Total CPU time used (sec):       20.047
                            User time (sec):       18.646
                          System time (sec):        1.401
                         Elapsed time (sec):       22.645
  
                   Maximum memory used (kb):      200632.
                   Average memory used (kb):           0.
  
                          Minor page faults:       161404
                          Major page faults:           46
                 Voluntary context switches:         3640
