automatically generated by mexm         
           1
     7.060220    0.004213    0.000000
     0.004233    6.942117    0.000000
     0.000000    0.000000    7.004348
   Ta   Hf   Zr   Nb
   3   4   8   1
Direct configuration=     1
   0.00000000  0.00000000  0.95820767
   0.50000000  0.00000000  0.03388170
   0.50000000  0.50000000  0.47287043
   0.00000000  0.00000000  0.53353986
   0.00000000  0.50000000  0.52388344
   0.28023509  0.74964943  0.76368819
   0.71976491  0.25035057  0.76368819
   0.23594230  0.24898727  0.23795763
   0.28071223  0.25110127  0.76258533
   0.00000000  0.50000000  0.96062209
   0.23530147  0.75079548  0.23624810
   0.76469853  0.24920452  0.23624810
   0.50000000  0.00000000  0.47467868
   0.76405770  0.75101273  0.23795763
   0.71928777  0.74889873  0.76258533
   0.50000000  0.50000000  0.04135763
automatically generated by mexm         
           1
     7.057137    0.004337    0.000000
     0.004355    6.938739    0.000000
     0.000000    0.000000    7.001113
   Ta   Hf   Zr   Nb
   3   4   8   1
Direct configuration=     2
  -0.00000000  0.00000000  0.95821612
   0.50000000  0.00000000  0.03386543
   0.50000000  0.50000000  0.47288175
  -0.00000000  0.00000000  0.53352874
  -0.00000000  0.50000000  0.52387910
   0.28023198  0.74965868  0.76368800
   0.71976802  0.25034132  0.76368800
   0.23590628  0.24898618  0.23797546
   0.28071503  0.25110836  0.76257513
  -0.00000000  0.50000000  0.96061212
   0.23527553  0.75081231  0.23625256
   0.76472447  0.24918769  0.23625256
   0.50000000  0.00000000  0.47469348
   0.76409372  0.75101382  0.23797546
   0.71928497  0.74889164  0.76257513
   0.50000000  0.50000000  0.04134096
automatically generated by mexm         
           1
     7.057647    0.004317    0.000000
     0.004335    6.939299    0.000000
     0.000000    0.000000    7.001649
   Ta   Hf   Zr   Nb
   3   4   8   1
Direct configuration=     3
  -0.00000000  0.00000000  0.95822245
   0.50000000  0.00000000  0.03385324
   0.50000000  0.50000000  0.47289022
  -0.00000000  0.00000000  0.53352041
  -0.00000000  0.50000000  0.52387585
   0.28022965  0.74966562  0.76368786
   0.71977035  0.25033438  0.76368786
   0.23587931  0.24898537  0.23798882
   0.28071713  0.25111367  0.76256750
  -0.00000000  0.50000000  0.96060465
   0.23525610  0.75082492  0.23625590
   0.76474390  0.24917508  0.23625590
   0.50000000  0.00000000  0.47470456
   0.76412069  0.75101463  0.23798882
   0.71928287  0.74888633  0.76256750
   0.50000000  0.50000000  0.04132848
automatically generated by mexm         
           1
     7.058934    0.004265    0.000000
     0.004284    6.940708    0.000000
     0.000000    0.000000    7.002998
   Ta   Hf   Zr   Nb
   3   4   8   1
Direct configuration=     4
  -0.00000000  0.00000000  0.95822140
   0.50000000  0.00000000  0.03385526
   0.50000000  0.50000000  0.47288882
  -0.00000000  0.00000000  0.53352179
  -0.00000000  0.50000000  0.52387638
   0.28023004  0.74966447  0.76368788
   0.71976996  0.25033553  0.76368788
   0.23588378  0.24898550  0.23798660
   0.28071678  0.25111279  0.76256876
  -0.00000000  0.50000000  0.96060589
   0.23525932  0.75082283  0.23625535
   0.76474068  0.24917717  0.23625535
   0.50000000  0.00000000  0.47470272
   0.76411622  0.75101450  0.23798660
   0.71928322  0.74888721  0.76256876
   0.50000000  0.50000000  0.04133055
automatically generated by mexm         
           1
     7.058255    0.004292    0.000000
     0.004311    6.939964    0.000000
     0.000000    0.000000    7.002286
   Ta   Hf   Zr   Nb
   3   4   8   1
Direct configuration=     5
  -0.00000000  0.00000000  0.95821876
   0.50000000  0.00000000  0.03386034
   0.50000000  0.50000000  0.47288528
  -0.00000000  0.00000000  0.53352527
  -0.00000000  0.50000000  0.52387774
   0.28023101  0.74966158  0.76368794
   0.71976899  0.25033842  0.76368794
   0.23589504  0.24898584  0.23798103
   0.28071591  0.25111057  0.76257195
  -0.00000000  0.50000000  0.96060901
   0.23526743  0.75081757  0.23625395
   0.76473257  0.24918243  0.23625395
   0.50000000  0.00000000  0.47469810
   0.76410496  0.75101416  0.23798103
   0.71928409  0.74888943  0.76257195
   0.50000000  0.50000000  0.04133576
automatically generated by mexm         
           1
     7.057975    0.004303    0.000000
     0.004322    6.939657    0.000000
     0.000000    0.000000    7.001992
   Ta   Hf   Zr   Nb
   3   4   8   1
Direct configuration=     6
  -0.00000000  0.00000000  0.95822015
   0.50000000  0.00000000  0.03385766
   0.50000000  0.50000000  0.47288715
  -0.00000000  0.00000000  0.53352343
  -0.00000000  0.50000000  0.52387702
   0.28023050  0.74966310  0.76368791
   0.71976950  0.25033690  0.76368791
   0.23588909  0.24898566  0.23798397
   0.28071637  0.25111174  0.76257027
  -0.00000000  0.50000000  0.96060736
   0.23526315  0.75082035  0.23625469
   0.76473685  0.24917965  0.23625469
   0.50000000  0.00000000  0.47470054
   0.76411091  0.75101434  0.23798397
   0.71928363  0.74888826  0.76257027
   0.50000000  0.50000000  0.04133301
automatically generated by mexm         
           1
     7.057811    0.004310    0.000000
     0.004329    6.939478    0.000000
     0.000000    0.000000    7.001820
   Ta   Hf   Zr   Nb
   3   4   8   1
Direct configuration=     7
  -0.00000000  0.00000000  0.95822073
   0.50000000  0.00000000  0.03385655
   0.50000000  0.50000000  0.47288792
  -0.00000000  0.00000000  0.53352267
  -0.00000000  0.50000000  0.52387673
   0.28023029  0.74966373  0.76368790
   0.71976971  0.25033627  0.76368790
   0.23588664  0.24898559  0.23798519
   0.28071656  0.25111222  0.76256957
  -0.00000000  0.50000000  0.96060668
   0.23526138  0.75082149  0.23625499
   0.76473862  0.24917851  0.23625499
   0.50000000  0.00000000  0.47470155
   0.76411336  0.75101441  0.23798519
   0.71928344  0.74888778  0.76256957
   0.50000000  0.50000000  0.04133187
automatically generated by mexm         
           1
     7.057741    0.004313    0.000000
     0.004331    6.939401    0.000000
     0.000000    0.000000    7.001747
   Ta   Hf   Zr   Nb
   3   4   8   1
Direct configuration=     8
  -0.00000000  0.00000000  0.95822107
   0.50000000  0.00000000  0.03385591
   0.50000000  0.50000000  0.47288837
  -0.00000000  0.00000000  0.53352223
  -0.00000000  0.50000000  0.52387656
   0.28023016  0.74966410  0.76368789
   0.71976984  0.25033590  0.76368789
   0.23588521  0.24898554  0.23798589
   0.28071667  0.25111250  0.76256917
  -0.00000000  0.50000000  0.96060629
   0.23526035  0.75082216  0.23625517
   0.76473965  0.24917784  0.23625517
   0.50000000  0.00000000  0.47470213
   0.76411479  0.75101446  0.23798589
   0.71928333  0.74888750  0.76256917
   0.50000000  0.50000000  0.04133121
automatically generated by mexm         
           1
     7.057755    0.004449    0.000000
     0.004465    6.939063    0.000000
     0.000000    0.000000    7.001900
   Ta   Hf   Zr   Nb
   3   4   8   1
Direct configuration=     9
  -0.00000000  0.00000000  0.95822121
   0.50000000  0.00000000  0.03385563
   0.50000000  0.50000000  0.47288856
  -0.00000000  0.00000000  0.53352204
  -0.00000000  0.50000000  0.52387648
   0.28023011  0.74966426  0.76368789
   0.71976989  0.25033574  0.76368789
   0.23588460  0.24898553  0.23798620
   0.28071672  0.25111263  0.76256899
  -0.00000000  0.50000000  0.96060612
   0.23525991  0.75082245  0.23625524
   0.76474009  0.24917755  0.23625524
   0.50000000  0.00000000  0.47470239
   0.76411540  0.75101447  0.23798620
   0.71928328  0.74888737  0.76256899
   0.50000000  0.50000000  0.04133093
automatically generated by mexm         
           1
     7.057798    0.004857    0.000000
     0.004867    6.938050    0.000000
     0.000000    0.000000    7.002359
   Ta   Hf   Zr   Nb
   3   4   8   1
Direct configuration=    10
   0.00000000  0.00000000  0.95825237
   0.50000000  0.00000000  0.03382754
   0.50000000  0.50000000  0.47291908
   0.00000000  0.00000000  0.53349253
   0.00000000  0.50000000  0.52386000
   0.28022266  0.74967047  0.76367310
   0.71977734  0.25032953  0.76367310
   0.23583946  0.24898728  0.23801576
   0.28071479  0.25112328  0.76254478
   0.00000000  0.50000000  0.96060970
   0.23522623  0.75083605  0.23627252
   0.76477377  0.24916395  0.23627252
   0.50000000  0.00000000  0.47473212
   0.76416054  0.75101272  0.23801576
   0.71928521  0.74887672  0.76254478
   0.50000000  0.50000000  0.04129434
automatically generated by mexm         
           1
     7.057798    0.004857    0.000000
     0.004867    6.938050    0.000000
     0.000000    0.000000    7.002359
   Ta   Hf   Zr   Nb
   3   4   8   1
Direct configuration=    11
   0.00000000  0.00000000  0.95834584
   0.50000000  0.00000000  0.03374326
   0.50000000  0.50000000  0.47301062
   0.00000000  0.00000000  0.53340398
   0.00000000  0.50000000  0.52381053
   0.28020031  0.74968912  0.76362875
   0.71979969  0.25031088  0.76362875
   0.23570402  0.24899253  0.23810446
   0.28070902  0.25115524  0.76247215
   0.00000000  0.50000000  0.96062045
   0.23512518  0.75087686  0.23632436
   0.76487482  0.24912314  0.23632436
   0.50000000  0.00000000  0.47482133
   0.76429598  0.75100747  0.23810446
   0.71929098  0.74884476  0.76247215
   0.50000000  0.50000000  0.04118459
