       N       E                     dE             d eps       ncg     rms          rms(c)
DAV:   1     0.212625488389E+04    0.21263E+04   -0.11959E+05  5728   0.107E+03
DAV:   2    -0.536721183263E+02   -0.21799E+04   -0.21042E+04  5888   0.402E+02
DAV:   3    -0.335119674640E+03   -0.28145E+03   -0.26743E+03  9000   0.101E+02
DAV:   4    -0.369086664766E+03   -0.33967E+02   -0.32343E+02  8912   0.319E+01
DAV:   5    -0.372471766933E+03   -0.33851E+01   -0.33147E+01  8328   0.101E+01    0.644E+01
RMM:   6    -0.362862494412E+03    0.96093E+01   -0.26912E+01  7507   0.103E+01    0.305E+01
RMM:   7    -0.368856285435E+03   -0.59938E+01   -0.37746E+01  7888   0.840E+00    0.161E+01
RMM:   8    -0.358370307801E+03    0.10486E+02   -0.99423E+00  7519   0.477E+00    0.500E+00
RMM:   9    -0.357868529776E+03    0.50178E+00   -0.33763E+00  7910   0.223E+00    0.309E+00
RMM:  10    -0.357880130930E+03   -0.11601E-01   -0.83860E-01  7992   0.120E+00    0.202E+00
RMM:  11    -0.357842671266E+03    0.37460E-01   -0.24909E-01  7773   0.690E-01    0.112E+00
RMM:  12    -0.357829386552E+03    0.13285E-01   -0.10948E-01  7934   0.505E-01    0.543E-01
RMM:  13    -0.357825442117E+03    0.39444E-02   -0.31529E-02  7936   0.280E-01    0.278E-01
RMM:  14    -0.357825252610E+03    0.18951E-03   -0.10286E-02  8151   0.124E-01    0.183E-01
RMM:  15    -0.357825310431E+03   -0.57821E-04   -0.48893E-03  8114   0.777E-02    0.109E-01
RMM:  16    -0.357825440726E+03   -0.13029E-03   -0.23184E-03  7939   0.490E-02    0.551E-02
RMM:  17    -0.357825453605E+03   -0.12879E-04   -0.96856E-04  6691   0.314E-02    0.313E-02
RMM:  18    -0.357825457331E+03   -0.37259E-05   -0.42575E-04  6282   0.227E-02    0.136E-02
RMM:  19    -0.357825469155E+03   -0.11824E-04   -0.19470E-04  5519   0.154E-02    0.820E-03
RMM:  20    -0.357825472583E+03   -0.34285E-05   -0.75410E-05  4381   0.113E-02
   1 F= -.35782547E+03 E0= -.35783208E+03  d E =-.357825E+03
       N       E                     dE             d eps       ncg     rms          rms(c)
DAV:   1    -0.357902251184E+03   -0.76782E-01   -0.31819E+00  6112   0.574E+00    0.196E+00
RMM:   2    -0.357882958846E+03    0.19292E-01   -0.33249E-01  7179   0.153E+00    0.644E-01
RMM:   3    -0.357873146844E+03    0.98120E-02   -0.64555E-02  7814   0.490E-01    0.472E-01
RMM:   4    -0.357867583891E+03    0.55630E-02   -0.14687E-02  8021   0.256E-01    0.278E-01
RMM:   5    -0.357866687787E+03    0.89610E-03   -0.50238E-03  7970   0.129E-01    0.223E-01
RMM:   6    -0.357866627966E+03    0.59821E-04   -0.20642E-03  8146   0.784E-02    0.132E-01
RMM:   7    -0.357866640166E+03   -0.12200E-04   -0.98097E-04  7919   0.585E-02    0.701E-02
RMM:   8    -0.357866661763E+03   -0.21597E-04   -0.52467E-04  7278   0.327E-02    0.466E-02
RMM:   9    -0.357866677078E+03   -0.15315E-04   -0.19975E-04  6333   0.248E-02    0.362E-02
RMM:  10    -0.357866691189E+03   -0.14111E-04   -0.92027E-05  5176   0.163E-02    0.220E-02
RMM:  11    -0.357866691321E+03   -0.13219E-06   -0.60545E-05  4719   0.145E-02
   2 F= -.35786669E+03 E0= -.35787374E+03  d E =-.412187E-01
       N       E                     dE             d eps       ncg     rms          rms(c)
DAV:   1    -0.358080816670E+03   -0.21413E+00   -0.15531E+01  5884   0.127E+01    0.427E+00
RMM:   2    -0.357983944852E+03    0.96872E-01   -0.15841E+00  7218   0.332E+00    0.143E+00
RMM:   3    -0.357935061289E+03    0.48884E-01   -0.31529E-01  7894   0.106E+00    0.104E+00
RMM:   4    -0.357908130872E+03    0.26930E-01   -0.72281E-02  8044   0.562E-01    0.610E-01
RMM:   5    -0.357903417655E+03    0.47132E-02   -0.25319E-02  8029   0.289E-01    0.483E-01
RMM:   6    -0.357903357766E+03    0.59889E-04   -0.98064E-03  8212   0.169E-01    0.291E-01
RMM:   7    -0.357903577281E+03   -0.21951E-03   -0.47836E-03  8366   0.125E-01    0.157E-01
RMM:   8    -0.357903753770E+03   -0.17649E-03   -0.26523E-03  8866   0.708E-02    0.105E-01
RMM:   9    -0.357903856630E+03   -0.10286E-03   -0.85704E-04  7847   0.475E-02    0.805E-02
RMM:  10    -0.357903981666E+03   -0.12504E-03   -0.47987E-04  7190   0.319E-02    0.509E-02
RMM:  11    -0.357904018465E+03   -0.36799E-04   -0.25561E-04  6064   0.254E-02    0.231E-02
RMM:  12    -0.357904014070E+03    0.43951E-05   -0.14764E-04  6110   0.205E-02    0.926E-03
RMM:  13    -0.357904015095E+03   -0.10249E-05   -0.58603E-05  5140   0.150E-02
   3 F= -.35790402E+03 E0= -.35791187E+03  d E =-.785425E-01
       N       E                     dE             d eps       ncg     rms          rms(c)
DAV:   1    -0.357933818898E+03   -0.29805E-01   -0.34144E+00  5384   0.521E+00    0.904E-01
RMM:   2    -0.357941748074E+03   -0.79292E-02   -0.19179E-01  7057   0.113E+00    0.347E-01
RMM:   3    -0.357939303909E+03    0.24442E-02   -0.20583E-02  7505   0.337E-01    0.286E-01
RMM:   4    -0.357937869782E+03    0.14341E-02   -0.51711E-03  7916   0.122E-01    0.173E-01
RMM:   5    -0.357937652231E+03    0.21755E-03   -0.23932E-03  8013   0.821E-02    0.114E-01
RMM:   6    -0.357937648642E+03    0.35881E-05   -0.98452E-04  8130   0.547E-02    0.677E-02
RMM:   7    -0.357937651170E+03   -0.25275E-05   -0.40881E-04  7513   0.313E-02    0.411E-02
RMM:   8    -0.357937669502E+03   -0.18332E-04   -0.15793E-04  6397   0.197E-02    0.269E-02
RMM:   9    -0.357937684404E+03   -0.14902E-04   -0.76434E-05  4935   0.158E-02    0.170E-02
RMM:  10    -0.357937696751E+03   -0.12347E-04   -0.42342E-05  4755   0.135E-02    0.101E-02
RMM:  11    -0.357937701870E+03   -0.51192E-05   -0.13468E-05  3472   0.108E-02
   4 F= -.35793770E+03 E0= -.35794576E+03  d E =-.336868E-01
       N       E                     dE             d eps       ncg     rms          rms(c)
DAV:   1    -0.357959050655E+03   -0.21354E-01   -0.30758E+01  5368   0.156E+01    0.276E+00
RMM:   2    -0.358028307124E+03   -0.69256E-01   -0.16979E+00  7181   0.337E+00    0.106E+00
RMM:   3    -0.358005603381E+03    0.22704E-01   -0.18151E-01  7617   0.964E-01    0.841E-01
RMM:   4    -0.357992573315E+03    0.13030E-01   -0.47551E-02  8095   0.374E-01    0.502E-01
RMM:   5    -0.357990715215E+03    0.18581E-02   -0.21658E-02  8064   0.251E-01    0.331E-01
RMM:   6    -0.357990715266E+03   -0.50797E-07   -0.83669E-03  8535   0.155E-01    0.206E-01
RMM:   7    -0.357990748258E+03   -0.32991E-04   -0.35702E-03  9094   0.911E-02    0.127E-01
RMM:   8    -0.357990897262E+03   -0.14900E-03   -0.15972E-03  8741   0.549E-02    0.831E-02
RMM:   9    -0.357990988906E+03   -0.91644E-04   -0.64109E-04  7829   0.384E-02    0.543E-02
RMM:  10    -0.357991065984E+03   -0.77078E-04   -0.29339E-04  6954   0.263E-02    0.309E-02
RMM:  11    -0.357991093631E+03   -0.27647E-04   -0.15352E-04  6326   0.203E-02    0.155E-02
RMM:  12    -0.357991102810E+03   -0.91788E-05   -0.64465E-05  5419   0.149E-02
   5 F= -.35799110E+03 E0= -.35799939E+03  d E =-.870877E-01
       N       E                     dE             d eps       ncg     rms          rms(c)
DAV:   1    -0.357990970803E+03    0.12283E-03   -0.16351E+00  5488   0.362E+00    0.630E-01
RMM:   2    -0.357994839117E+03   -0.38683E-02   -0.91776E-02  7042   0.784E-01    0.239E-01
RMM:   3    -0.357993690078E+03    0.11490E-02   -0.98756E-03  7490   0.234E-01    0.195E-01
RMM:   4    -0.357993027687E+03    0.66239E-03   -0.25235E-03  7914   0.843E-02    0.117E-01
RMM:   5    -0.357992937855E+03    0.89832E-04   -0.11597E-03  8000   0.568E-02    0.767E-02
RMM:   6    -0.357992948835E+03   -0.10980E-04   -0.47284E-04  7875   0.376E-02    0.459E-02
RMM:   7    -0.357992956856E+03   -0.80209E-05   -0.19439E-04  6674   0.216E-02    0.285E-02
RMM:   8    -0.357992968941E+03   -0.12086E-04   -0.80595E-05  5385   0.159E-02    0.185E-02
RMM:   9    -0.357992978684E+03   -0.97422E-05   -0.36639E-05  4417   0.128E-02
   6 F= -.35799298E+03 E0= -.35800123E+03  d E =-.889636E-01
       N       E                     dE             d eps       ncg     rms          rms(c)
DAV:   1    -0.357998845839E+03   -0.58769E-02   -0.94233E-01  5368   0.279E+00    0.258E-01
RMM:   2    -0.358002356474E+03   -0.35106E-02   -0.40937E-02  7129   0.555E-01    0.153E-01
RMM:   3    -0.358001659687E+03    0.69679E-03   -0.42439E-03  7768   0.158E-01    0.117E-01
RMM:   4    -0.358001545223E+03    0.11446E-03   -0.93359E-04  8398   0.453E-02    0.770E-02
RMM:   5    -0.358001523324E+03    0.21899E-04   -0.36080E-04  7356   0.328E-02    0.461E-02
RMM:   6    -0.358001503889E+03    0.19436E-04   -0.16417E-04  7225   0.252E-02    0.186E-02
RMM:   7    -0.358001501912E+03    0.19770E-05   -0.49393E-05  4367   0.121E-02
   7 F= -.35800150E+03 E0= -.35800982E+03  d E =-.852323E-02
       N       E                     dE             d eps       ncg     rms          rms(c)
DAV:   1    -0.357996602426E+03    0.49015E-02   -0.84781E+00  5264   0.837E+00    0.775E-01
RMM:   2    -0.358028838418E+03   -0.32236E-01   -0.37255E-01  7001   0.168E+00    0.458E-01
RMM:   3    -0.358022464121E+03    0.63743E-02   -0.38577E-02  7792   0.481E-01    0.354E-01
RMM:   4    -0.358021492114E+03    0.97201E-03   -0.83440E-03  8682   0.135E-01    0.235E-01
RMM:   5    -0.358021334300E+03    0.15781E-03   -0.31848E-03  8044   0.980E-02    0.143E-01
RMM:   6    -0.358021177576E+03    0.15672E-03   -0.15573E-03  7942   0.782E-02    0.562E-02
RMM:   7    -0.358021190237E+03   -0.12661E-04   -0.60325E-04  8053   0.332E-02    0.407E-02
RMM:   8    -0.358021187964E+03    0.22733E-05   -0.17756E-04  5971   0.205E-02    0.276E-02
RMM:   9    -0.358021190907E+03   -0.29434E-05   -0.11328E-04  5843   0.168E-02    0.155E-02
RMM:  10    -0.358021187892E+03    0.30157E-05   -0.31179E-05  4349   0.127E-02
   8 F= -.35802119E+03 E0= -.35802960E+03  d E =-.282092E-01
       N       E                     dE             d eps       ncg     rms          rms(c)
DAV:   1    -0.357931841843E+03    0.89349E-01   -0.33912E+01  5288   0.168E+01    0.156E+00
RMM:   2    -0.358064904346E+03   -0.13306E+00   -0.15232E+00  6931   0.339E+00    0.918E-01
RMM:   3    -0.358039304668E+03    0.25600E-01   -0.15849E-01  7897   0.989E-01    0.725E-01
RMM:   4    -0.358035490670E+03    0.38140E-02   -0.33770E-02  8738   0.272E-01    0.485E-01
RMM:   5    -0.358034839196E+03    0.65147E-03   -0.12620E-02  8145   0.201E-01    0.298E-01
RMM:   6    -0.358034130157E+03    0.70904E-03   -0.65416E-03  7933   0.163E-01    0.112E-01
RMM:   7    -0.358034202675E+03   -0.72518E-04   -0.24923E-03  9263   0.670E-02    0.826E-02
RMM:   8    -0.358034217458E+03   -0.14783E-04   -0.81410E-04  8146   0.387E-02    0.574E-02
RMM:   9    -0.358034235786E+03   -0.18328E-04   -0.39014E-04  7352   0.282E-02    0.349E-02
RMM:  10    -0.358034236381E+03   -0.59511E-06   -0.16135E-04  6358   0.198E-02    0.155E-02
RMM:  11    -0.358034237505E+03   -0.11237E-05   -0.81561E-05  5502   0.160E-02
   9 F= -.35803424E+03 E0= -.35804245E+03  d E =-.412588E-01
       N       E                     dE             d eps       ncg     rms          rms(c)
DAV:   1    -0.358063999965E+03   -0.29764E-01   -0.40602E+00  5680   0.636E+00    0.174E+00
RMM:   2    -0.358053758286E+03    0.10242E-01   -0.32176E-01  6938   0.151E+00    0.602E-01
RMM:   3    -0.358045551204E+03    0.82071E-02   -0.53119E-02  7816   0.495E-01    0.410E-01
RMM:   4    -0.358041497055E+03    0.40541E-02   -0.13704E-02  8029   0.230E-01    0.248E-01
RMM:   5    -0.358040924540E+03    0.57252E-03   -0.43550E-03  7881   0.126E-01    0.190E-01
RMM:   6    -0.358040995118E+03   -0.70578E-04   -0.19583E-03  8402   0.719E-02    0.114E-01
RMM:   7    -0.358041101017E+03   -0.10590E-03   -0.81254E-04  8042   0.509E-02    0.586E-02
RMM:   8    -0.358041164814E+03   -0.63798E-04   -0.43914E-04  7248   0.305E-02    0.411E-02
RMM:   9    -0.358041203890E+03   -0.39075E-04   -0.15199E-04  5661   0.233E-02    0.317E-02
RMM:  10    -0.358041254429E+03   -0.50540E-04   -0.11418E-04  5342   0.177E-02    0.182E-02
RMM:  11    -0.358041278860E+03   -0.24431E-04   -0.67482E-05  5092   0.153E-02    0.775E-03
RMM:  12    -0.358041283343E+03   -0.44832E-05   -0.19031E-05  3918   0.119E-02
  10 F= -.35804128E+03 E0= -.35804938E+03  d E =-.704584E-02
       N       E                     dE             d eps       ncg     rms          rms(c)
DAV:   1    -0.358041530352E+03   -0.25149E-03   -0.36392E-02  5944   0.603E-01    0.163E-01
RMM:   2    -0.358041429412E+03    0.10094E-03   -0.28079E-03  6637   0.142E-01    0.559E-02
RMM:   3    -0.358041361361E+03    0.68051E-04   -0.45937E-04  7688   0.466E-02    0.362E-02
RMM:   4    -0.358041330454E+03    0.30907E-04   -0.11738E-04  6305   0.210E-02    0.217E-02
RMM:   5    -0.358041327680E+03    0.27744E-05   -0.31182E-05  3750   0.141E-02
  11 F= -.35804133E+03 E0= -.35804941E+03  d E =-.709017E-02
       N       E                     dE             d eps       ncg     rms          rms(c)
DAV:   1    -0.358045330822E+03   -0.40004E-02   -0.12134E+00  5304   0.320E+00    0.373E-01
RMM:   2    -0.358048250633E+03   -0.29198E-02   -0.47305E-02  7550   0.618E-01    0.177E-01
RMM:   3    -0.358047765448E+03    0.48518E-03   -0.50857E-03  7718   0.170E-01    0.131E-01
RMM:   4    -0.358047572280E+03    0.19317E-03   -0.13263E-03  8601   0.589E-02    0.839E-02
RMM:   5    -0.358047527134E+03    0.45146E-04   -0.56428E-04  8114   0.418E-02    0.496E-02
RMM:   6    -0.358047506267E+03    0.20868E-04   -0.22240E-04  7862   0.266E-02    0.279E-02
RMM:   7    -0.358047501106E+03    0.51609E-05   -0.88620E-05  5484   0.152E-02
  12 F= -.35804750E+03 E0= -.35805572E+03  d E =-.617343E-02
       N       E                     dE             d eps       ncg     rms          rms(c)
DAV:   1    -0.358046451991E+03    0.10543E-02   -0.40283E+00  5264   0.583E+00    0.665E-01
RMM:   2    -0.358056172394E+03   -0.97204E-02   -0.15667E-01  7543   0.112E+00    0.315E-01
RMM:   3    -0.358054560934E+03    0.16115E-02   -0.16549E-02  7711   0.307E-01    0.234E-01
RMM:   4    -0.358053953686E+03    0.60725E-03   -0.43403E-03  8670   0.106E-01    0.151E-01
RMM:   5    -0.358053824951E+03    0.12874E-03   -0.18422E-03  8374   0.760E-02    0.909E-02
RMM:   6    -0.358053775979E+03    0.48972E-04   -0.77523E-04  8665   0.490E-02    0.525E-02
RMM:   7    -0.358053770497E+03    0.54822E-05   -0.31852E-04  7696   0.275E-02    0.341E-02
RMM:   8    -0.358053769354E+03    0.11427E-05   -0.11175E-04  5887   0.179E-02    0.219E-02
RMM:   9    -0.358053769659E+03   -0.30482E-06   -0.73598E-05  5153   0.155E-02
  13 F= -.35805377E+03 E0= -.35806223E+03  d E =-.124420E-01
       N       E                     dE             d eps       ncg     rms          rms(c)
DAV:   1    -0.358052826130E+03    0.94322E-03   -0.91595E-01  5296   0.278E+00    0.317E-01
RMM:   2    -0.358055045984E+03   -0.22199E-02   -0.35480E-02  7565   0.535E-01    0.149E-01
RMM:   3    -0.358054692224E+03    0.35376E-03   -0.38097E-03  7723   0.144E-01    0.109E-01
RMM:   4    -0.358054560558E+03    0.13167E-03   -0.10059E-03  8594   0.505E-02    0.696E-02
RMM:   5    -0.358054535046E+03    0.25511E-04   -0.44043E-04  8095   0.364E-02    0.424E-02
RMM:   6    -0.358054521491E+03    0.13556E-04   -0.17826E-04  7337   0.235E-02    0.248E-02
RMM:   7    -0.358054517709E+03    0.37816E-05   -0.65341E-05  4903   0.149E-02
  14 F= -.35805452E+03 E0= -.35806308E+03  d E =-.131900E-01
       N       E                     dE             d eps       ncg     rms          rms(c)
DAV:   1    -0.358061673441E+03   -0.71520E-02   -0.14357E+00  5528   0.369E+00    0.866E-01
RMM:   2    -0.358060300688E+03    0.13728E-02   -0.94130E-02  6575   0.824E-01    0.322E-01
RMM:   3    -0.358058180847E+03    0.21198E-02   -0.14619E-02  7783   0.270E-01    0.228E-01
RMM:   4    -0.358057057132E+03    0.11237E-02   -0.39477E-03  8033   0.115E-01    0.133E-01
RMM:   5    -0.358056877864E+03    0.17927E-03   -0.13695E-03  8164   0.699E-02    0.104E-01
RMM:   6    -0.358056897992E+03   -0.20128E-04   -0.53575E-04  8107   0.394E-02    0.599E-02
RMM:   7    -0.358056934037E+03   -0.36045E-04   -0.24441E-04  7070   0.285E-02    0.318E-02
RMM:   8    -0.358056951970E+03   -0.17933E-04   -0.11982E-04  5901   0.180E-02    0.204E-02
RMM:   9    -0.358056964805E+03   -0.12835E-04   -0.56514E-05  4481   0.151E-02    0.163E-02
RMM:  10    -0.358056978981E+03   -0.14176E-04   -0.32079E-05  4191   0.122E-02    0.927E-03
RMM:  11    -0.358056987152E+03   -0.81712E-05   -0.13970E-05  3448   0.108E-02
  15 F= -.35805699E+03 E0= -.35806554E+03  d E =-.246944E-02
       N       E                     dE             d eps       ncg     rms          rms(c)
DAV:   1    -0.358057206389E+03   -0.22741E-03   -0.49979E-02  5824   0.689E-01    0.159E-01
RMM:   2    -0.358057153068E+03    0.53321E-04   -0.31861E-03  6452   0.152E-01    0.581E-02
RMM:   3    -0.358057084606E+03    0.68463E-04   -0.48399E-04  7696   0.499E-02    0.402E-02
RMM:   4    -0.358057051257E+03    0.33349E-04   -0.12976E-04  6673   0.209E-02    0.231E-02
RMM:   5    -0.358057048007E+03    0.32502E-05   -0.40463E-05  4105   0.146E-02
  16 F= -.35805705E+03 E0= -.35806559E+03  d E =-.253030E-02
       N       E                     dE             d eps       ncg     rms          rms(c)
DAV:   1    -0.358057933083E+03   -0.88183E-03   -0.92404E-01  5272   0.283E+00    0.368E-01
RMM:   2    -0.358060260363E+03   -0.23273E-02   -0.40597E-02  7371   0.556E-01    0.161E-01
RMM:   3    -0.358059779720E+03    0.48064E-03   -0.45843E-03  7615   0.160E-01    0.121E-01
RMM:   4    -0.358059547968E+03    0.23175E-03   -0.11284E-03  8141   0.558E-02    0.747E-02
RMM:   5    -0.358059505608E+03    0.42360E-04   -0.50830E-04  7904   0.387E-02    0.468E-02
RMM:   6    -0.358059481039E+03    0.24569E-04   -0.18853E-04  7455   0.251E-02    0.252E-02
RMM:   7    -0.358059476882E+03    0.41569E-05   -0.70194E-05  5090   0.145E-02
  17 F= -.35805948E+03 E0= -.35806803E+03  d E =-.242888E-02
       N       E                     dE             d eps       ncg     rms          rms(c)
DAV:   1    -0.358058983823E+03    0.49722E-03   -0.10596E+00  5264   0.303E+00    0.384E-01
RMM:   2    -0.358061649786E+03   -0.26660E-02   -0.46410E-02  7366   0.593E-01    0.168E-01
RMM:   3    -0.358061070619E+03    0.57917E-03   -0.51170E-03  7593   0.169E-01    0.125E-01
RMM:   4    -0.358060824698E+03    0.24592E-03   -0.12926E-03  8189   0.588E-02    0.778E-02
RMM:   5    -0.358060785414E+03    0.39285E-04   -0.59207E-04  8104   0.415E-02    0.499E-02
RMM:   6    -0.358060763126E+03    0.22287E-04   -0.23230E-04  7562   0.272E-02    0.282E-02
RMM:   7    -0.358060759774E+03    0.33528E-05   -0.85626E-05  5316   0.158E-02
  18 F= -.35806076E+03 E0= -.35806930E+03  d E =-.371177E-02
       N       E                     dE             d eps       ncg     rms          rms(c)
DAV:   1    -0.358060459226E+03    0.30390E-03   -0.25531E-01  5304   0.149E+00    0.186E-01
RMM:   2    -0.358061108948E+03   -0.64972E-03   -0.11225E-02  7408   0.291E-01    0.826E-02
RMM:   3    -0.358060969383E+03    0.13956E-03   -0.12588E-03  7596   0.821E-02    0.605E-02
RMM:   4    -0.358060913536E+03    0.55847E-04   -0.33033E-04  7809   0.291E-02    0.379E-02
RMM:   5    -0.358060904981E+03    0.85550E-05   -0.15210E-04  6854   0.210E-02    0.247E-02
RMM:   6    -0.358060897457E+03    0.75236E-05   -0.52823E-05  4748   0.138E-02
  19 F= -.35806090E+03 E0= -.35806944E+03  d E =-.384945E-02
       N       E                     dE             d eps       ncg     rms          rms(c)
DAV:   1    -0.358061440211E+03   -0.53523E-03   -0.44009E-01  5376   0.197E+00    0.305E-01
RMM:   2    -0.358062270215E+03   -0.83000E-03   -0.22738E-02  7061   0.402E-01    0.120E-01
RMM:   3    -0.358061943950E+03    0.32627E-03   -0.24496E-03  7577   0.120E-01    0.902E-02
RMM:   4    -0.358061840345E+03    0.10361E-03   -0.73709E-04  7882   0.435E-02    0.563E-02
RMM:   5    -0.358061817186E+03    0.23159E-04   -0.27407E-04  7306   0.299E-02    0.387E-02
RMM:   6    -0.358061821316E+03   -0.41297E-05   -0.11367E-04  6826   0.187E-02    0.211E-02
RMM:   7    -0.358061826178E+03   -0.48625E-05   -0.40474E-05  4097   0.127E-02
  20 F= -.35806183E+03 E0= -.35807027E+03  d E =-.928721E-03
       N       E                     dE             d eps       ncg     rms          rms(c)
DAV:   1    -0.358061555725E+03    0.26559E-03   -0.63956E-01  5376   0.238E+00    0.359E-01
RMM:   2    -0.358062737757E+03   -0.11820E-02   -0.32603E-02  6943   0.482E-01    0.138E-01
RMM:   3    -0.358062265221E+03    0.47254E-03   -0.33696E-03  7471   0.145E-01    0.103E-01
RMM:   4    -0.358062150360E+03    0.11486E-03   -0.10567E-03  7923   0.514E-02    0.650E-02
RMM:   5    -0.358062131537E+03    0.18823E-04   -0.38361E-04  7667   0.343E-02    0.463E-02
RMM:   6    -0.358062143677E+03   -0.12140E-04   -0.16624E-04  7132   0.226E-02    0.261E-02
RMM:   7    -0.358062153598E+03   -0.99213E-05   -0.61614E-05  5018   0.146E-02
  21 F= -.35806215E+03 E0= -.35807048E+03  d E =-.125614E-02
       N       E                     dE             d eps       ncg     rms          rms(c)
DAV:   1    -0.358062699924E+03   -0.55625E-03   -0.33740E-01  5408   0.173E+00    0.287E-01
RMM:   2    -0.358063300107E+03   -0.60018E-03   -0.17494E-02  7094   0.355E-01    0.113E-01
RMM:   3    -0.358063068530E+03    0.23158E-03   -0.22552E-03  7733   0.109E-01    0.845E-02
RMM:   4    -0.358062938946E+03    0.12958E-03   -0.58010E-04  7842   0.420E-02    0.491E-02
RMM:   5    -0.358062917366E+03    0.21581E-04   -0.23170E-04  7160   0.260E-02    0.357E-02
RMM:   6    -0.358062902737E+03    0.14629E-04   -0.87933E-05  6331   0.165E-02    0.190E-02
RMM:   7    -0.358062897754E+03    0.49832E-05   -0.33829E-05  3726   0.116E-02
  22 F= -.35806290E+03 E0= -.35807118E+03  d E =-.744155E-03
       N       E                     dE             d eps       ncg     rms          rms(c)
DAV:   1    -0.358063008984E+03   -0.10625E-03   -0.11968E-01  5560   0.103E+00    0.165E-01
RMM:   2    -0.358063219344E+03   -0.21036E-03   -0.61136E-03  7012   0.210E-01    0.631E-02
RMM:   3    -0.358063133030E+03    0.86313E-04   -0.75621E-04  7657   0.643E-02    0.470E-02
RMM:   4    -0.358063092773E+03    0.40257E-04   -0.20055E-04  7340   0.243E-02    0.275E-02
RMM:   5    -0.358063086398E+03    0.63751E-05   -0.80073E-05  5747   0.157E-02
  23 F= -.35806309E+03 E0= -.35807135E+03  d E =-.932800E-03
       N       E                     dE             d eps       ncg     rms          rms(c)
DAV:   1    -0.358062622205E+03    0.47057E-03   -0.47811E-01  5384   0.207E+00    0.329E-01
RMM:   2    -0.358063448692E+03   -0.82649E-03   -0.24307E-02  6959   0.420E-01    0.126E-01
RMM:   3    -0.358063105931E+03    0.34276E-03   -0.29999E-03  7669   0.129E-01    0.952E-02
RMM:   4    -0.358062944738E+03    0.16119E-03   -0.77883E-04  7866   0.487E-02    0.557E-02
RMM:   5    -0.358062927454E+03    0.17284E-04   -0.31452E-04  7381   0.297E-02    0.418E-02
RMM:   6    -0.358062912485E+03    0.14970E-04   -0.12687E-04  6649   0.194E-02    0.234E-02
RMM:   7    -0.358062908246E+03    0.42386E-05   -0.51553E-05  4511   0.138E-02
  24 F= -.35806291E+03 E0= -.35807111E+03  d E =-.754648E-03
       N       E                     dE             d eps       ncg     rms          rms(c)
DAV:   1    -0.358062991930E+03   -0.79446E-04   -0.22620E-01  5384   0.142E+00    0.234E-01
RMM:   2    -0.358063351069E+03   -0.35914E-03   -0.11635E-02  6857   0.291E-01    0.895E-02
RMM:   3    -0.358063184447E+03    0.16662E-03   -0.14114E-03  7634   0.909E-02    0.680E-02
RMM:   4    -0.358063095580E+03    0.88868E-04   -0.33381E-04  7712   0.334E-02    0.393E-02
RMM:   5    -0.358063084253E+03    0.11326E-04   -0.12734E-04  6611   0.206E-02    0.285E-02
RMM:   6    -0.358063082741E+03    0.15120E-05   -0.42102E-05  4268   0.129E-02
  25 F= -.35806308E+03 E0= -.35807132E+03  d E =-.929143E-03
       N       E                     dE             d eps       ncg     rms          rms(c)
DAV:   1    -0.358063260050E+03   -0.17580E-03   -0.91423E-02  5288   0.894E-01    0.116E-01
RMM:   2    -0.358063478324E+03   -0.21827E-03   -0.41490E-03  7106   0.177E-01    0.502E-02
RMM:   3    -0.358063404441E+03    0.73883E-04   -0.41704E-04  7182   0.520E-02    0.372E-02
RMM:   4    -0.358063384062E+03    0.20379E-04   -0.94594E-05  6171   0.175E-02    0.235E-02
RMM:   5    -0.358063381763E+03    0.22994E-05   -0.37252E-05  4126   0.120E-02
  26 F= -.35806338E+03 E0= -.35807159E+03  d E =-.299021E-03
       N       E                     dE             d eps       ncg     rms          rms(c)
DAV:   1    -0.358063046969E+03    0.33709E-03   -0.38204E-01  5264   0.183E+00    0.244E-01
RMM:   2    -0.358063997614E+03   -0.95065E-03   -0.17559E-02  7473   0.363E-01    0.112E-01
RMM:   3    -0.358063705201E+03    0.29241E-03   -0.19732E-03  7614   0.101E-01    0.805E-02
RMM:   4    -0.358063607843E+03    0.97358E-04   -0.48138E-04  8061   0.369E-02    0.505E-02
RMM:   5    -0.358063592607E+03    0.15236E-04   -0.22186E-04  7522   0.263E-02    0.322E-02
RMM:   6    -0.358063596723E+03   -0.41163E-05   -0.83331E-05  5565   0.169E-02
  27 F= -.35806360E+03 E0= -.35807174E+03  d E =-.513982E-03
       N       E                     dE             d eps       ncg     rms          rms(c)
DAV:   1    -0.358064269315E+03   -0.67671E-03   -0.17549E-01  5672   0.128E+00    0.292E-01
RMM:   2    -0.358064308869E+03   -0.39554E-04   -0.11708E-02  6695   0.288E-01    0.114E-01
RMM:   3    -0.358064077723E+03    0.23115E-03   -0.19301E-03  7925   0.936E-02    0.864E-02
RMM:   4    -0.358063885481E+03    0.19224E-03   -0.49640E-04  7898   0.393E-02    0.452E-02
RMM:   5    -0.358063856924E+03    0.28557E-04   -0.18219E-04  7252   0.274E-02    0.333E-02
RMM:   6    -0.358063848876E+03    0.80481E-05   -0.64120E-05  5007   0.144E-02
  28 F= -.35806385E+03 E0= -.35807200E+03  d E =-.252153E-03
       N       E                     dE             d eps       ncg     rms          rms(c)
DAV:   1    -0.358063849484E+03    0.74403E-05   -0.40105E-03  5712   0.195E-01    0.389E-02
RMM:   2    -0.358063854449E+03   -0.49649E-05   -0.27809E-04  7067   0.439E-02    0.179E-02
RMM:   3    -0.358063843266E+03    0.11183E-04   -0.34554E-05  4161   0.141E-02    0.131E-02
RMM:   4    -0.358063839036E+03    0.42297E-05   -0.11649E-05  3049   0.106E-02
  29 F= -.35806384E+03 E0= -.35807199E+03  d E =-.242313E-03
       N       E                     dE             d eps       ncg     rms          rms(c)
DAV:   1    -0.358063952731E+03   -0.10947E-03   -0.39099E-02  5336   0.568E-01    0.851E-02
RMM:   2    -0.358064042680E+03   -0.89949E-04   -0.17862E-03  7644   0.114E-01    0.419E-02
RMM:   3    -0.358064004113E+03    0.38567E-04   -0.24037E-04  7245   0.321E-02    0.291E-02
RMM:   4    -0.358063993527E+03    0.10586E-04   -0.58980E-05  5816   0.143E-02    0.176E-02
RMM:   5    -0.358063989019E+03    0.45076E-05   -0.20275E-05  3393   0.990E-03
  30 F= -.35806399E+03 E0= -.35807214E+03  d E =-.149983E-03
       N       E                     dE             d eps       ncg     rms          rms(c)
DAV:   1    -0.358063844674E+03    0.14885E-03   -0.21452E-01  5264   0.133E+00    0.189E-01
RMM:   2    -0.358064336670E+03   -0.49200E-03   -0.95348E-03  7679   0.264E-01    0.928E-02
RMM:   3    -0.358064135152E+03    0.20152E-03   -0.11913E-03  7691   0.709E-02    0.624E-02
RMM:   4    -0.358064088341E+03    0.46811E-04   -0.30622E-04  7654   0.287E-02    0.393E-02
RMM:   5    -0.358064073210E+03    0.15131E-04   -0.13392E-04  6817   0.200E-02    0.235E-02
RMM:   6    -0.358064075688E+03   -0.24776E-05   -0.42170E-05  4245   0.122E-02
  31 F= -.35806408E+03 E0= -.35807222E+03  d E =-.236651E-03
       N       E                     dE             d eps       ncg     rms          rms(c)
DAV:   1    -0.358064083643E+03   -0.10434E-04   -0.16133E-02  5552   0.365E-01    0.552E-02
RMM:   2    -0.358064127700E+03   -0.44057E-04   -0.72704E-04  7334   0.736E-02    0.252E-02
RMM:   3    -0.358064109309E+03    0.18392E-04   -0.81349E-05  5990   0.226E-02    0.180E-02
RMM:   4    -0.358064104279E+03    0.50296E-05   -0.16007E-05  2960   0.105E-02
  32 F= -.35806410E+03 E0= -.35807225E+03  d E =-.265243E-03
