<?xml version="1.0" encoding="ISO-8859-1"?>
<modeling>
 <generator>
  <i name="program" type="string">vasp </i>
  <i name="version" type="string">5.4.1  </i>
  <i name="subversion" type="string">05Feb16 (build Jan 29 2020 16:04:39) complex                          parallel </i>
  <i name="platform" type="string">IFC91_ompi </i>
  <i name="date" type="string">2020 06 15 </i>
  <i name="time" type="string">02:26:16 </i>
 </generator>
 <incar>
  <i type="string" name="SYSTEM"> automatically generated by mexm</i>
  <i type="int" name="ISTART">     0</i>
  <i type="string" name="PREC">accurate               ! avoid wrap aro</i>
  <i type="string" name="ALGO"> Fast                   ! blocked Davids</i>
  <i type="int" name="ISPIN">     1</i>
  <i type="int" name="ICHARG">     2</i>
  <i type="int" name="NELM">    70</i>
  <i type="int" name="IBRION">     2</i>
  <i name="EDIFF">      0.00001000</i>
  <i name="EDIFFG">     -0.01000000</i>
  <i type="int" name="NSW">   300</i>
  <i type="int" name="ISIF">     3</i>
  <i type="int" name="ISYM">     1</i>
  <i name="ENCUT">    300.00000000</i>
  <i name="POTIM">      0.15000000</i>
  <i type="string" name="LREAL"> Auto                  ! unpublished met</i>
  <i type="int" name="ISMEAR">     1</i>
  <i name="SIGMA">      0.15000000</i>
  <i type="logical" name="LWAVE"> F  </i>
  <i type="logical" name="LCHARG"> F  </i>
  <i type="logical" name="LVTOT"> F  </i>
  <v type="int" name="KPOINT_BSE">    -1     0     0     0</v>
  <i type="int" name="NELM">    70</i>
 </incar>
 <kpoints>
  <generation param="Gamma">
   <v type="int" name="divisions">       3        3        3 </v>
   <v name="usershift">      0.00000000       0.00000000       0.00000000 </v>
   <v name="genvec1">      0.33333333      -0.00000000       0.00000000 </v>
   <v name="genvec2">     -0.00000000       0.33333333      -0.00000000 </v>
   <v name="genvec3">      0.00000000       0.00000000       0.33333333 </v>
   <v name="shift">      0.00000000       0.00000000       0.00000000 </v>
  </generation>
  <varray name="kpointlist" >
   <v>       0.00000000       0.00000000       0.00000000 </v>
   <v>       0.33333333       0.00000000       0.00000000 </v>
   <v>       0.00000000       0.33333333      -0.00000000 </v>
   <v>       0.33333333       0.33333333       0.00000000 </v>
   <v>      -0.33333333       0.33333333      -0.00000000 </v>
   <v>       0.00000000       0.00000000       0.33333333 </v>
   <v>       0.33333333       0.00000000       0.33333333 </v>
   <v>      -0.33333333       0.00000000       0.33333333 </v>
   <v>      -0.00000000       0.33333333       0.33333333 </v>
   <v>       0.33333333       0.33333333       0.33333333 </v>
   <v>      -0.33333333       0.33333333       0.33333333 </v>
   <v>       0.00000000      -0.33333333       0.33333333 </v>
   <v>       0.33333333      -0.33333333       0.33333333 </v>
   <v>      -0.33333333      -0.33333333       0.33333333 </v>
  </varray>
  <varray name="weights" >
   <v>       0.03703704 </v>
   <v>       0.07407407 </v>
   <v>       0.07407407 </v>
   <v>       0.07407407 </v>
   <v>       0.07407407 </v>
   <v>       0.07407407 </v>
   <v>       0.07407407 </v>
   <v>       0.07407407 </v>
   <v>       0.07407407 </v>
   <v>       0.07407407 </v>
   <v>       0.07407407 </v>
   <v>       0.07407407 </v>
   <v>       0.07407407 </v>
   <v>       0.07407407 </v>
  </varray>
 </kpoints>
 <parameters>
  <separator name="general" >
   <i type="string" name="SYSTEM">automatically generated by mexm</i>
   <i type="logical" name="LCOMPAT"> F  </i>
  </separator>
  <separator name="electronic" >
   <i type="string" name="PREC">accura</i>
   <i name="ENMAX">    300.00000000</i>
   <i name="ENAUG">    461.25700000</i>
   <i name="EDIFF">      0.00001000</i>
   <i type="int" name="IALGO">    68</i>
   <i type="int" name="IWAVPR">    11</i>
   <i type="int" name="NBANDS">   188</i>
   <i name="NELECT">    313.00000000</i>
   <i type="int" name="TURBO">     0</i>
   <i type="int" name="IRESTART">     0</i>
   <i type="int" name="NREBOOT">     0</i>
   <i type="int" name="NMIN">     0</i>
   <i name="EREF">      0.00000000</i>
   <separator name="electronic smearing" >
    <i type="int" name="ISMEAR">     1</i>
    <i name="SIGMA">      0.15000000</i>
    <i name="KSPACING">      0.50000000</i>
    <i type="logical" name="KGAMMA"> T  </i>
   </separator>
   <separator name="electronic projectors" >
    <i type="logical" name="LREAL"> T  </i>
    <v name="ROPT">     -0.00025000     -0.00025000     -0.00025000     -0.00025000</v>
    <i type="int" name="LMAXPAW">  -100</i>
    <i type="int" name="LMAXMIX">     2</i>
    <i type="logical" name="NLSPLINE"> F  </i>
   </separator>
   <separator name="electronic startup" >
    <i type="int" name="ISTART">     0</i>
    <i type="int" name="ICHARG">     2</i>
    <i type="int" name="INIWAV">     1</i>
   </separator>
   <separator name="electronic spin" >
    <i type="int" name="ISPIN">     1</i>
    <i type="logical" name="LNONCOLLINEAR"> F  </i>
    <v name="MAGMOM">      1.00000000      1.00000000      1.00000000      1.00000000      1.00000000      1.00000000      1.00000000      1.00000000      1.00000000      1.00000000      1.00000000      1.00000000      1.00000000      1.00000000      1.00000000      1.00000000      1.00000000      1.00000000      1.00000000      1.00000000
      1.00000000      1.00000000      1.00000000      1.00000000      1.00000000      1.00000000      1.00000000      1.00000000      1.00000000      1.00000000      1.00000000      1.00000000      1.00000000      1.00000000      1.00000000      1.00000000</v>
    <i name="NUPDOWN">     -1.00000000</i>
    <i type="logical" name="LSORBIT"> F  </i>
    <v name="SAXIS">      0.00000000      0.00000000      1.00000000</v>
    <i type="logical" name="LSPIRAL"> F  </i>
    <v name="QSPIRAL">      0.00000000      0.00000000      0.00000000</v>
    <i type="logical" name="LZEROZ"> F  </i>
   </separator>
   <separator name="electronic exchange-correlation" >
    <i type="logical" name="LASPH"> F  </i>
    <i type="logical" name="LMETAGGA"> F  </i>
   </separator>
   <separator name="electronic convergence" >
    <i type="int" name="NELM">    70</i>
    <i type="int" name="NELMDL">    -5</i>
    <i type="int" name="NELMIN">     2</i>
    <i name="ENINI">    300.00000000</i>
    <separator name="electronic convergence detail" >
     <i type="logical" name="LDIAG"> T  </i>
     <i type="logical" name="LSUBROT"> F  </i>
     <i name="WEIMIN">      0.00100000</i>
     <i name="EBREAK">      0.00000001</i>
     <i name="DEPER">      0.30000000</i>
     <i type="int" name="NRMM">     4</i>
     <i name="TIME">      0.40000000</i>
    </separator>
   </separator>
   <separator name="electronic mixer" >
    <i name="AMIX">      0.40000000</i>
    <i name="BMIX">      1.00000000</i>
    <i name="AMIN">      0.10000000</i>
    <i name="AMIX_MAG">      1.60000000</i>
    <i name="BMIX_MAG">      1.00000000</i>
    <separator name="electronic mixer details" >
     <i type="int" name="IMIX">     4</i>
     <i type="logical" name="MIXFIRST"> F  </i>
     <i type="int" name="MAXMIX">   -45</i>
     <i name="WC">    100.00000000</i>
     <i type="int" name="INIMIX">     1</i>
     <i type="int" name="MIXPRE">     1</i>
     <i type="int" name="MREMOVE">     5</i>
    </separator>
   </separator>
   <separator name="electronic dipolcorrection" >
    <i type="logical" name="LDIPOL"> F  </i>
    <i type="logical" name="LMONO"> F  </i>
    <i type="int" name="IDIPOL">     0</i>
    <i name="EPSILON">      1.00000000</i>
    <v name="DIPOL">   -100.00000000   -100.00000000   -100.00000000</v>
    <i name="EFIELD">      0.00000000</i>
   </separator>
  </separator>
  <separator name="grids" >
   <i type="int" name="NGX">    40</i>
   <i type="int" name="NGY">    60</i>
   <i type="int" name="NGZ">    60</i>
   <i type="int" name="NGXF">    80</i>
   <i type="int" name="NGYF">   120</i>
   <i type="int" name="NGZF">   120</i>
   <i type="logical" name="ADDGRID"> F  </i>
  </separator>
  <separator name="ionic" >
   <i type="int" name="NSW">   300</i>
   <i type="int" name="IBRION">     2</i>
   <i type="int" name="ISIF">     3</i>
   <i name="PSTRESS">      0.00000000</i>
   <i name="EDIFFG">     -0.01000000</i>
   <i type="int" name="NFREE">     1</i>
   <i name="POTIM">      0.15000000</i>
   <i name="SMASS">     -3.00000000</i>
   <i name="SCALEE">      1.00000000</i>
  </separator>
  <separator name="ionic md" >
   <i name="TEBEG">      0.00010000</i>
   <i name="TEEND">      0.00010000</i>
   <i type="int" name="NBLOCK">     1</i>
   <i type="int" name="KBLOCK">   300</i>
   <i type="int" name="NPACO">   256</i>
   <i name="APACO">     16.00000000</i>
  </separator>
  <separator name="symmetry" >
   <i type="int" name="ISYM">     1</i>
   <i name="SYMPREC">      0.00001000</i>
  </separator>
  <separator name="dos" >
   <i type="logical" name="LORBIT"> F  </i>
   <v name="RWIGS">     -1.00000000     -1.00000000     -1.00000000     -1.00000000</v>
   <i type="int" name="NEDOS">   301</i>
   <i name="EMIN">     10.00000000</i>
   <i name="EMAX">    -10.00000000</i>
   <i name="EFERMI">      0.00000000</i>
  </separator>
  <separator name="writing" >
   <i type="int" name="NWRITE">     2</i>
   <i type="logical" name="LWAVE"> F  </i>
   <i type="logical" name="LCHARG"> F  </i>
   <i type="logical" name="LPARD"> F  </i>
   <i type="logical" name="LVTOT"> F  </i>
   <i type="logical" name="LVHAR"> F  </i>
   <i type="logical" name="LELF"> F  </i>
   <i type="logical" name="LOPTICS"> F  </i>
   <v name="STM">      0.00000000      0.00000000      0.00000000      0.00000000      0.00000000      0.00000000      0.00000000</v>
  </separator>
  <separator name="performance" >
   <i type="int" name="NPAR">     4</i>
   <i type="int" name="NSIM">     4</i>
   <i type="int" name="NBLK">    -1</i>
   <i type="logical" name="LPLANE"> T  </i>
   <i type="logical" name="LSCALAPACK"> T  </i>
   <i type="logical" name="LSCAAWARE"> F  </i>
   <i type="logical" name="LSCALU"> F  </i>
   <i type="logical" name="LASYNC"> F  </i>
   <i type="logical" name="LORBITALREAL"> F  </i>
  </separator>
  <separator name="miscellaneous" >
   <i type="int" name="IDIOT">     3</i>
   <i type="logical" name="LMUSIC"> F  </i>
   <v name="POMASS">    180.94800000    178.49000000     91.22400000     92.91000000</v>
   <v name="DARWINR">      0.00000000      0.00000000      0.00000000      0.00000000</v>
   <v name="DARWINV">      1.00000000      1.00000000      1.00000000      1.00000000</v>
   <i type="logical" name="LCORR"> T  </i>
  </separator>
  <i type="logical" name="GGA_COMPAT"> T  </i>
  <i type="logical" name="LBERRY"> F  </i>
  <i type="int" name="ICORELEVEL">     0</i>
  <i type="logical" name="LDAU"> F  </i>
  <i type="int" name="I_CONSTRAINED_M">     0</i>
  <separator name="electronic exchange-correlation" >
   <i type="string" name="GGA">--</i>
   <i type="int" name="VOSKOWN">     0</i>
   <i type="logical" name="LHFCALC"> F  </i>
   <i type="string" name="PRECFOCK"></i>
   <i type="logical" name="LSYMGRAD"> F  </i>
   <i type="logical" name="LHFONE"> F  </i>
   <i type="logical" name="LRHFCALC"> F  </i>
   <i type="logical" name="LTHOMAS"> F  </i>
   <i type="logical" name="LMODELHF"> F  </i>
   <i name="ENCUT4O">     -1.00000000</i>
   <i type="int" name="EXXOEP">     0</i>
   <i type="int" name="FOURORBIT">     0</i>
   <i name="AEXX">      0.00000000</i>
   <i name="HFALPHA">      0.00000000</i>
   <i name="MCALPHA">      0.00000000</i>
   <i name="ALDAX">      1.00000000</i>
   <i name="AGGAX">      1.00000000</i>
   <i name="ALDAC">      1.00000000</i>
   <i name="AGGAC">      1.00000000</i>
   <i type="int" name="NKREDX">     1</i>
   <i type="int" name="NKREDY">     1</i>
   <i type="int" name="NKREDZ">     1</i>
   <i type="logical" name="SHIFTRED"> F  </i>
   <i type="logical" name="ODDONLY"> F  </i>
   <i type="logical" name="EVENONLY"> F  </i>
   <i type="int" name="LMAXFOCK">     0</i>
   <i type="int" name="NMAXFOCKAE">     0</i>
   <i type="logical" name="LFOCKAEDFT"> F  </i>
   <i name="HFSCREEN">      0.00000000</i>
   <i name="HFSCREENC">      0.00000000</i>
   <i type="int" name="NBANDSGWLOW">     0</i>
  </separator>
  <separator name="vdW DFT" >
   <i type="logical" name="LUSE_VDW"> F  </i>
   <i name="Zab_VDW">     -0.84910000</i>
   <i name="PARAM1">      0.12340000</i>
   <i name="PARAM2">      1.00000000</i>
   <i name="PARAM3">      0.00000000</i>
  </separator>
  <separator name="model GW" >
   <i type="int" name="MODEL_GW">     0</i>
   <i name="MODEL_EPS0">     12.11574798</i>
   <i name="MODEL_ALPHA">      1.00000000</i>
  </separator>
  <separator name="linear response parameters" >
   <i type="logical" name="LEPSILON"> F  </i>
   <i type="logical" name="LRPA"> F  </i>
   <i type="logical" name="LNABLA"> F  </i>
   <i type="logical" name="LVEL"> F  </i>
   <i type="int" name="KINTER">     0</i>
   <i name="CSHIFT">      0.10000000</i>
   <i name="OMEGAMAX">     -1.00000000</i>
   <i name="DEG_THRESHOLD">      0.00200000</i>
  </separator>
  <separator name="orbital magnetization" >
   <i type="logical" name="NUCIND"> F  </i>
   <v name="MAGPOS">      0.00000000      0.00000000      0.00000000</v>
   <i type="logical" name="LNICSALL"> T  </i>
   <i type="logical" name="ORBITALMAG"> F  </i>
   <i type="logical" name="LMAGBLOCH"> F  </i>
   <i type="logical" name="LCHIMAG"> F  </i>
   <i type="logical" name="LGAUGE"> T  </i>
   <i type="int" name="MAGATOM">     0</i>
   <v name="MAGDIPOL">      0.00000000      0.00000000      0.00000000</v>
   <v name="AVECCONST">      0.00000000      0.00000000      0.00000000</v>
  </separator>
  <separator name="response functions" >
   <i type="logical" name="LADDER"> F  </i>
   <i type="logical" name="LFXC"> F  </i>
   <i type="logical" name="LHARTREE"> T  </i>
   <i type="int" name="IBSE">     0</i>
   <v type="int" name="KPOINT">    -1     0     0     0</v>
   <i type="logical" name="LTCTE"> F  </i>
   <i type="logical" name="LTETE"> F  </i>
   <i type="logical" name="LTRIPLET"> F  </i>
   <i type="logical" name="LFXCEPS"> F  </i>
   <i type="logical" name="LFXHEG"> F  </i>
   <i type="int" name="NATURALO">     0</i>
   <i type="logical" name="L2ORDER"> F  </i>
   <i type="logical" name="LUSEW"> F  </i>
   <i name="ENCUTGW">     -2.00000000</i>
   <i name="ENCUTGWSOFT">     -2.00000000</i>
   <i name="ENCUTLF">     -1.00000000</i>
   <i type="int" name="LMAXMP2">    -1</i>
   <i name="SCISSOR">      0.00000000</i>
   <i type="int" name="NOMEGA">     0</i>
   <i type="int" name="NOMEGAR">     0</i>
   <i type="int" name="NBANDSGW">    -1</i>
   <i type="int" name="NBANDSO">    -1</i>
   <i type="int" name="NBANDSV">    -1</i>
   <i type="int" name="NELM">    70</i>
   <i type="int" name="NELMHF">     1</i>
   <i type="int" name="DIM">     3</i>
   <i type="int" name="ANTIRES">     0</i>
   <i name="OMEGAMAX">    -30.00000000</i>
   <i name="OMEGAMIN">    -30.00000000</i>
   <i name="OMEGATL">   -200.00000000</i>
   <i type="int" name="OMEGAGRID">     0</i>
   <i name="CSHIFT">     -0.10000000</i>
   <i type="logical" name="SELFENERGY"> F  </i>
   <i type="logical" name="LSPECTRAL"> F  </i>
   <i type="logical" name="LSPECTRALGW"> F  </i>
   <i type="logical" name="LSINGLES"> F  </i>
   <i type="logical" name="LFERMIGW"> F  </i>
   <i type="logical" name="ODDONLYGW"> F  </i>
   <i type="logical" name="EVENONLYGW"> F  </i>
   <i type="int" name="NKREDLFX">     1</i>
   <i type="int" name="NKREDLFY">     1</i>
   <i type="int" name="NKREDLFZ">     1</i>
   <i type="int" name="MAXMEM">  1800</i>
   <i type="int" name="TELESCOPE">     0</i>
   <i type="int" name="TAUPAR">     1</i>
   <i type="int" name="OMEGAPAR">    -1</i>
   <i name="LAMBDA">      1.00000000</i>
  </separator>
  <separator name="External order field" >
   <i name="OFIELD_KAPPA">      0.00000000</i>
   <v name="OFIELD_K">      0.00000000      0.00000000      0.00000000</v>
   <i name="OFIELD_Q6_NEAR">      0.00000000</i>
   <i name="OFIELD_Q6_FAR">      0.00000000</i>
   <i name="OFIELD_A">      0.00000000</i>
  </separator>
 </parameters>
 <atominfo>
  <atoms>      36 </atoms>
  <types>       4 </types>
  <array name="atoms" >
   <dimension dim="1">ion</dimension>
   <field type="string">element</field>
   <field type="int">atomtype</field>
   <set>
    <rc><c>Ta</c><c>   1</c></rc>
    <rc><c>Ta</c><c>   1</c></rc>
    <rc><c>Ta</c><c>   1</c></rc>
    <rc><c>Ta</c><c>   1</c></rc>
    <rc><c>Ta</c><c>   1</c></rc>
    <rc><c>Ta</c><c>   1</c></rc>
    <rc><c>Ta</c><c>   1</c></rc>
    <rc><c>Ta</c><c>   1</c></rc>
    <rc><c>Hf</c><c>   2</c></rc>
    <rc><c>Hf</c><c>   2</c></rc>
    <rc><c>Hf</c><c>   2</c></rc>
    <rc><c>Hf</c><c>   2</c></rc>
    <rc><c>Hf</c><c>   2</c></rc>
    <rc><c>Hf</c><c>   2</c></rc>
    <rc><c>Hf</c><c>   2</c></rc>
    <rc><c>Hf</c><c>   2</c></rc>
    <rc><c>Hf</c><c>   2</c></rc>
    <rc><c>Zr</c><c>   3</c></rc>
    <rc><c>Zr</c><c>   3</c></rc>
    <rc><c>Zr</c><c>   3</c></rc>
    <rc><c>Zr</c><c>   3</c></rc>
    <rc><c>Zr</c><c>   3</c></rc>
    <rc><c>Zr</c><c>   3</c></rc>
    <rc><c>Zr</c><c>   3</c></rc>
    <rc><c>Zr</c><c>   3</c></rc>
    <rc><c>Zr</c><c>   3</c></rc>
    <rc><c>Zr</c><c>   3</c></rc>
    <rc><c>Nb</c><c>   4</c></rc>
    <rc><c>Nb</c><c>   4</c></rc>
    <rc><c>Nb</c><c>   4</c></rc>
    <rc><c>Nb</c><c>   4</c></rc>
    <rc><c>Nb</c><c>   4</c></rc>
    <rc><c>Nb</c><c>   4</c></rc>
    <rc><c>Nb</c><c>   4</c></rc>
    <rc><c>Nb</c><c>   4</c></rc>
    <rc><c>Nb</c><c>   4</c></rc>
   </set>
  </array>
  <array name="atomtypes" >
   <dimension dim="1">type</dimension>
   <field type="int">atomspertype</field>
   <field type="string">element</field>
   <field>mass</field>
   <field>valence</field>
   <field type="string">pseudopotential</field>
   <set>
    <rc><c>   8</c><c>Ta</c><c>    180.94800000</c><c>      5.00000000</c><c>  PAW_PBE Ta 17Jan2003                  </c></rc>
    <rc><c>   9</c><c>Hf</c><c>    178.49000000</c><c>      4.00000000</c><c>  PAW_PBE Hf 20Jan2003                  </c></rc>
    <rc><c>  10</c><c>Zr</c><c>     91.22400000</c><c>     12.00000000</c><c>  PAW_PBE Zr_sv 04Jan2005               </c></rc>
    <rc><c>   9</c><c>Nb</c><c>     92.91000000</c><c>     13.00000000</c><c>  PAW_PBE Nb_sv 25May2007               </c></rc>
   </set>
  </array>
 </atominfo>
 <structure name="initialpos" >
  <crystal>
   <varray name="basis" >
    <v>       6.92206329       0.03753204       0.00610070 </v>
    <v>       0.05547500      10.22993137       0.00476882 </v>
    <v>       0.00938301       0.00451941      10.26612156 </v>
   </varray>
   <i name="volume">    726.94487906 </i>
   <varray name="rec_basis" >
    <v>       0.14446996      -0.00078337      -0.00013170 </v>
    <v>      -0.00053000       0.09775526      -0.00004255 </v>
    <v>      -0.00008561      -0.00004494       0.09740787 </v>
   </varray>
  </crystal>
  <varray name="positions" >
   <v>       0.25978400       0.18007300       0.17274100 </v>
   <v>       0.03551300       0.00330900       0.33093700 </v>
   <v>       0.02601900       0.99426500       0.67608200 </v>
   <v>       0.25649100       0.18580500       0.82497700 </v>
   <v>       0.50246700       0.34369700       0.34237100 </v>
   <v>       0.75580000       0.49968100       0.49993900 </v>
   <v>       0.48750500       0.33860400       0.64468800 </v>
   <v>       0.50306200       0.65991200       0.34780500 </v>
   <v>       0.99670900       0.33079400       0.00769400 </v>
   <v>       0.25665100       0.49406400       0.83403000 </v>
   <v>       0.97119200       0.66383400       0.99232700 </v>
   <v>       0.23858400       0.81228300       0.17161800 </v>
   <v>       0.76291400       0.16918000       0.49888200 </v>
   <v>       0.47715000       0.99342800       0.67259600 </v>
   <v>       0.76615900       0.83711500       0.18751000 </v>
   <v>       0.77028100       0.84051400       0.49799200 </v>
   <v>       0.23943800       0.50146600       0.49754800 </v>
   <v>       0.74705000       0.17094700       0.82138000 </v>
   <v>       0.01635200       0.00132100       0.99396200 </v>
   <v>       0.23245400       0.17513600       0.50099600 </v>
   <v>       0.25842300       0.50070300       0.16721000 </v>
   <v>       0.49135500       0.99869300       0.99208400 </v>
   <v>       0.74583900       0.16203200       0.17935400 </v>
   <v>       0.46924300       0.99128800       0.33848000 </v>
   <v>       0.74169000       0.48661000       0.81822000 </v>
   <v>       0.52678900       0.67534300       0.99588000 </v>
   <v>       0.49437300       0.67389700       0.65856500 </v>
   <v>       0.99422000       0.34086400       0.32485400 </v>
   <v>       0.00845900       0.34177600       0.66275800 </v>
   <v>       0.99622200       0.65437000       0.34378000 </v>
   <v>       0.22689000       0.82689600       0.49933800 </v>
   <v>       0.23489000       0.81869900       0.83227000 </v>
   <v>       0.49804600       0.32246400       0.00943900 </v>
   <v>       0.74047200       0.49573500       0.18169500 </v>
   <v>       0.76908500       0.84428400       0.81258300 </v>
   <v>       0.00243700       0.67092000       0.66740800 </v>
  </varray>
 </structure>
 <calculation>
  <scstep>
   <time name="dav">    1.07    1.09</time>
   <time name="total">    1.22    1.47</time>
   <energy>
    <i name="alphaZ">   1622.92522343 </i>
    <i name="ewald"> -22290.42508667 </i>
    <i name="hartreedc">  -7034.73377409 </i>
    <i name="XCdc">      0.55108953 </i>
    <i name="pawpsdc">  23770.97370055 </i>
    <i name="pawaedc"> -22289.59225000 </i>
    <i name="eentropy">      0.00415126 </i>
    <i name="bandstr">   -219.47039058 </i>
    <i name="atom">  28566.02222046 </i>
    <i name="e_fr_energy">   2126.25488389 </i>
    <i name="e_wo_entrp">   2126.25073263 </i>
    <i name="e_0_energy">   2126.25350014 </i>
   </energy>
  </scstep>
  <scstep>
   <time name="dav">    1.25    1.26</time>
   <time name="total">    1.25    1.39</time>
   <energy>
    <i name="e_fr_energy">    -53.67211833 </i>
    <i name="e_wo_entrp">    -53.67954147 </i>
    <i name="e_0_energy">    -53.67459271 </i>
   </energy>
  </scstep>
  <scstep>
   <time name="dav">    2.39    2.41</time>
   <time name="total">    2.39    2.43</time>
   <energy>
    <i name="e_fr_energy">   -335.11967464 </i>
    <i name="e_wo_entrp">   -335.12098620 </i>
    <i name="e_0_energy">   -335.12011183 </i>
   </energy>
  </scstep>
  <scstep>
   <time name="dav">    2.67    2.69</time>
   <time name="total">    2.67    2.71</time>
   <energy>
    <i name="e_fr_energy">   -369.08666477 </i>
    <i name="e_wo_entrp">   -369.08512069 </i>
    <i name="e_0_energy">   -369.08615007 </i>
   </energy>
  </scstep>
  <scstep>
   <time name="dav">    1.44    1.44</time>
   <time name="total">    1.47    1.51</time>
   <energy>
    <i name="e_fr_energy">   -372.47176693 </i>
    <i name="e_wo_entrp">   -372.47230445 </i>
    <i name="e_0_energy">   -372.47194611 </i>
   </energy>
  </scstep>
  <scstep>
   <time name="diag">    0.08    0.08</time>
   <time name="diis">    0.77    0.78</time>
   <time name="orth">    0.01    0.01</time>
   <time name="total">    0.94    0.98</time>
   <energy>
    <i name="e_fr_energy">   -362.86249441 </i>
    <i name="e_wo_entrp">   -362.86607573 </i>
    <i name="e_0_energy">   -362.86368818 </i>
   </energy>
  </scstep>
  <scstep>
   <time name="diag">    0.08    0.08</time>
   <time name="diis">    0.80    0.81</time>
   <time name="orth">    0.01    0.01</time>
   <time name="total">    0.97    1.00</time>
   <energy>
    <i name="e_fr_energy">   -368.85628544 </i>
    <i name="e_wo_entrp">   -368.86339975 </i>
    <i name="e_0_energy">   -368.85865687 </i>
   </energy>
  </scstep>
  <scstep>
   <time name="diag">    0.08    0.08</time>
   <time name="diis">    0.98    0.99</time>
   <time name="orth">    0.01    0.01</time>
   <time name="total">    1.16    1.19</time>
   <energy>
    <i name="e_fr_energy">   -358.37030780 </i>
    <i name="e_wo_entrp">   -358.38967257 </i>
    <i name="e_0_energy">   -358.37676273 </i>
   </energy>
  </scstep>
  <scstep>
   <time name="diag">    0.09    0.09</time>
   <time name="diis">    0.87    0.89</time>
   <time name="orth">    0.01    0.02</time>
   <time name="total">    1.06    1.14</time>
   <energy>
    <i name="e_fr_energy">   -357.86852978 </i>
    <i name="e_wo_entrp">   -357.88807957 </i>
    <i name="e_0_energy">   -357.87504638 </i>
   </energy>
  </scstep>
  <scstep>
   <time name="diag">    0.09    0.09</time>
   <time name="diis">    0.81    0.82</time>
   <time name="orth">    0.01    0.01</time>
   <time name="total">    0.98    1.01</time>
   <energy>
    <i name="e_fr_energy">   -357.88013093 </i>
    <i name="e_wo_entrp">   -357.89991586 </i>
    <i name="e_0_energy">   -357.88672591 </i>
   </energy>
  </scstep>
  <scstep>
   <time name="diag">    0.10    0.10</time>
   <time name="diis">    0.87    0.87</time>
   <time name="orth">    0.01    0.01</time>
   <time name="total">    1.04    1.07</time>
   <energy>
    <i name="e_fr_energy">   -357.84267127 </i>
    <i name="e_wo_entrp">   -357.86156331 </i>
    <i name="e_0_energy">   -357.84896861 </i>
   </energy>
  </scstep>
  <scstep>
   <time name="diag">    0.08    0.08</time>
   <time name="diis">    0.83    0.85</time>
   <time name="orth">    0.01    0.01</time>
   <time name="total">    1.03    1.10</time>
   <energy>
    <i name="e_fr_energy">   -357.82938655 </i>
    <i name="e_wo_entrp">   -357.84942586 </i>
    <i name="e_0_energy">   -357.83606632 </i>
   </energy>
  </scstep>
  <scstep>
   <time name="diag">    0.09    0.09</time>
   <time name="diis">    0.84    0.84</time>
   <time name="orth">    0.01    0.01</time>
   <time name="total">    1.01    1.07</time>
   <energy>
    <i name="e_fr_energy">   -357.82544212 </i>
    <i name="e_wo_entrp">   -357.84536507 </i>
    <i name="e_0_energy">   -357.83208310 </i>
   </energy>
  </scstep>
  <scstep>
   <time name="diag">    0.08    0.08</time>
   <time name="diis">    0.78    0.84</time>
   <time name="orth">    0.01    0.01</time>
   <time name="total">    0.94    1.03</time>
   <energy>
    <i name="e_fr_energy">   -357.82525261 </i>
    <i name="e_wo_entrp">   -357.84490983 </i>
    <i name="e_0_energy">   -357.83180502 </i>
   </energy>
  </scstep>
  <scstep>
   <time name="diag">    0.08    0.08</time>
   <time name="diis">    0.84    0.85</time>
   <time name="orth">    0.01    0.01</time>
   <time name="total">    1.01    1.04</time>
   <energy>
    <i name="e_fr_energy">   -357.82531043 </i>
    <i name="e_wo_entrp">   -357.84508822 </i>
    <i name="e_0_energy">   -357.83190303 </i>
   </energy>
  </scstep>
  <scstep>
   <time name="diag">    0.13    0.13</time>
   <time name="diis">    0.81    0.82</time>
   <time name="orth">    0.01    0.01</time>
   <time name="total">    1.02    1.05</time>
   <energy>
    <i name="e_fr_energy">   -357.82544073 </i>
    <i name="e_wo_entrp">   -357.84523961 </i>
    <i name="e_0_energy">   -357.83204035 </i>
   </energy>
  </scstep>
  <scstep>
   <time name="diag">    0.08    0.08</time>
   <time name="diis">    0.69    0.69</time>
   <time name="orth">    0.01    0.01</time>
   <time name="total">    0.85    0.87</time>
   <energy>
    <i name="e_fr_energy">   -357.82545360 </i>
    <i name="e_wo_entrp">   -357.84526752 </i>
    <i name="e_0_energy">   -357.83205824 </i>
   </energy>
  </scstep>
  <scstep>
   <time name="diag">    0.14    0.14</time>
   <time name="diis">    0.67    0.68</time>
   <time name="orth">    0.01    0.01</time>
   <time name="total">    1.00    1.04</time>
   <energy>
    <i name="e_fr_energy">   -357.82545733 </i>
    <i name="e_wo_entrp">   -357.84527106 </i>
    <i name="e_0_energy">   -357.83206191 </i>
   </energy>
  </scstep>
  <scstep>
   <time name="diag">    0.08    0.08</time>
   <time name="diis">    0.63    0.64</time>
   <time name="orth">    0.01    0.01</time>
   <time name="total">    0.81    0.85</time>
   <energy>
    <i name="e_fr_energy">   -357.82546915 </i>
    <i name="e_wo_entrp">   -357.84530270 </i>
    <i name="e_0_energy">   -357.83208034 </i>
   </energy>
  </scstep>
  <scstep>
   <time name="diag">    0.08    0.08</time>
   <time name="diis">    0.47    0.47</time>
   <time name="orth">    0.01    0.01</time>
   <time name="total">    0.60    0.62</time>
   <energy>
    <i name="alphaZ">   1622.92522343 </i>
    <i name="ewald"> -22290.42508667 </i>
    <i name="hartreedc">  -6773.33479878 </i>
    <i name="XCdc">     -2.83084947 </i>
    <i name="pawpsdc">  36823.27467711 </i>
    <i name="pawaedc"> -35316.56036161 </i>
    <i name="eentropy">      0.01983019 </i>
    <i name="bandstr">  -2986.91632724 </i>
    <i name="atom">  28566.02222046 </i>
    <i name="e_fr_energy">   -357.82547258 </i>
    <i name="e_wo_entrp">   -357.84530278 </i>
    <i name="e_0_energy">   -357.83208265 </i>
   </energy>
  </scstep>
  <structure>
   <crystal>
    <varray name="basis" >
     <v>       6.92206329       0.03753204       0.00610070 </v>
     <v>       0.05547500      10.22993137       0.00476882 </v>
     <v>       0.00938301       0.00451941      10.26612156 </v>
    </varray>
    <i name="volume">    726.94487906 </i>
    <varray name="rec_basis" >
     <v>       0.14446996      -0.00078337      -0.00013170 </v>
     <v>      -0.00053000       0.09775526      -0.00004255 </v>
     <v>      -0.00008561      -0.00004494       0.09740787 </v>
    </varray>
   </crystal>
   <varray name="positions" >
    <v>       0.25978400       0.18007300       0.17274100 </v>
    <v>       0.03551300       0.00330900       0.33093700 </v>
    <v>       0.02601900       0.99426500       0.67608200 </v>
    <v>       0.25649100       0.18580500       0.82497700 </v>
    <v>       0.50246700       0.34369700       0.34237100 </v>
    <v>       0.75580000       0.49968100       0.49993900 </v>
    <v>       0.48750500       0.33860400       0.64468800 </v>
    <v>       0.50306200       0.65991200       0.34780500 </v>
    <v>       0.99670900       0.33079400       0.00769400 </v>
    <v>       0.25665100       0.49406400       0.83403000 </v>
    <v>       0.97119200       0.66383400       0.99232700 </v>
    <v>       0.23858400       0.81228300       0.17161800 </v>
    <v>       0.76291400       0.16918000       0.49888200 </v>
    <v>       0.47715000       0.99342800       0.67259600 </v>
    <v>       0.76615900       0.83711500       0.18751000 </v>
    <v>       0.77028100       0.84051400       0.49799200 </v>
    <v>       0.23943800       0.50146600       0.49754800 </v>
    <v>       0.74705000       0.17094700       0.82138000 </v>
    <v>       0.01635200       0.00132100       0.99396200 </v>
    <v>       0.23245400       0.17513600       0.50099600 </v>
    <v>       0.25842300       0.50070300       0.16721000 </v>
    <v>       0.49135500       0.99869300       0.99208400 </v>
    <v>       0.74583900       0.16203200       0.17935400 </v>
    <v>       0.46924300       0.99128800       0.33848000 </v>
    <v>       0.74169000       0.48661000       0.81822000 </v>
    <v>       0.52678900       0.67534300       0.99588000 </v>
    <v>       0.49437300       0.67389700       0.65856500 </v>
    <v>       0.99422000       0.34086400       0.32485400 </v>
    <v>       0.00845900       0.34177600       0.66275800 </v>
    <v>       0.99622200       0.65437000       0.34378000 </v>
    <v>       0.22689000       0.82689600       0.49933800 </v>
    <v>       0.23489000       0.81869900       0.83227000 </v>
    <v>       0.49804600       0.32246400       0.00943900 </v>
    <v>       0.74047200       0.49573500       0.18169500 </v>
    <v>       0.76908500       0.84428400       0.81258300 </v>
    <v>       0.00243700       0.67092000       0.66740800 </v>
   </varray>
  </structure>
  <varray name="forces" >
   <v>      -0.01866901      -0.00879039       0.00226133 </v>
   <v>      -0.01685018       0.02762550      -0.01080991 </v>
   <v>      -0.02087155       0.02460919      -0.00165876 </v>
   <v>      -0.02961134      -0.01141717       0.00671332 </v>
   <v>       0.32602050      -0.23399184      -0.10028102 </v>
   <v>       0.09646818      -0.04794096      -0.03866414 </v>
   <v>       0.40955568      -0.42081549       0.20113759 </v>
   <v>       0.36727004       0.31243536      -0.24944315 </v>
   <v>      -0.00772917      -0.02039374       0.00631942 </v>
   <v>       0.01435016      -0.00386423      -0.07439153 </v>
   <v>       0.00840410       0.02918071      -0.01305063 </v>
   <v>      -0.00444356      -0.00687236      -0.00391182 </v>
   <v>       0.00953998       0.01980813       0.02082294 </v>
   <v>       0.02775171       0.00618644       0.00128896 </v>
   <v>       0.00976008      -0.04184400       0.00497845 </v>
   <v>       0.01582979      -0.01940487      -0.00594844 </v>
   <v>      -0.23146806       0.02376161      -0.00772437 </v>
   <v>      -0.01069145       0.07969834       0.02246203 </v>
   <v>       0.01550033       0.00803598       0.00638906 </v>
   <v>      -0.00057014       0.09380038       0.00915185 </v>
   <v>      -0.00269804      -0.00921452       0.08100803 </v>
   <v>      -0.01034546       0.00380665      -0.01035588 </v>
   <v>       0.00710126       0.03302183      -0.01928321 </v>
   <v>       0.03743700       0.00361979      -0.01501237 </v>
   <v>       0.01481277      -0.04431154      -0.03629287 </v>
   <v>       0.00936859       0.01181185      -0.00434646 </v>
   <v>       0.20337181       0.24932191       0.16807995 </v>
   <v>      -0.26527610      -0.14277195      -0.27990618 </v>
   <v>      -0.31396579      -0.30884052       0.41645259 </v>
   <v>      -0.47571399       0.31639478      -0.32923161 </v>
   <v>      -0.00950439      -0.11644315       0.01288958 </v>
   <v>       0.01183187      -0.03916824      -0.01354504 </v>
   <v>       0.02183319      -0.00231160       0.00757114 </v>
   <v>       0.01307356       0.00999880       0.01426655 </v>
   <v>       0.01716209      -0.06452635      -0.00621726 </v>
   <v>      -0.21803447       0.28980568       0.23828186 </v>
  </varray>
  <varray name="stress" >
   <v>      10.18180482      -0.46763351       0.20790450 </v>
   <v>      -0.46763350       6.33136706      -1.38866056 </v>
   <v>       0.20790456      -1.38866050       6.64367100 </v>
  </varray>
  <energy>
   <i name="e_fr_energy">   -357.82547258 </i>
   <i name="e_wo_entrp">   -357.83208265 </i>
   <i name="e_0_energy">      0.01983019 </i>
  </energy>
  <time name="totalsc">   25.14   26.41</time>
 </calculation>
 <calculation>
  <scstep>
   <time name="dav">    1.09    1.10</time>
   <time name="total">    1.22    1.33</time>
   <energy>
    <i name="alphaZ">   1616.08966741 </i>
    <i name="ewald"> -22258.00222895 </i>
    <i name="hartreedc">  -6764.82623389 </i>
    <i name="XCdc">     -4.21053201 </i>
    <i name="pawpsdc">  36823.54615153 </i>
    <i name="pawaedc"> -35316.82594365 </i>
    <i name="eentropy">      0.02052947 </i>
    <i name="bandstr">  -3019.71588156 </i>
    <i name="atom">  28566.02222046 </i>
    <i name="e_fr_energy">   -357.90225118 </i>
    <i name="e_wo_entrp">   -357.92278066 </i>
    <i name="e_0_energy">   -357.90909434 </i>
   </energy>
  </scstep>
  <scstep>
   <time name="diag">    0.08    0.08</time>
   <time name="diis">    0.76    0.76</time>
   <time name="orth">    0.01    0.01</time>
   <time name="total">    0.92    0.94</time>
   <energy>
    <i name="e_fr_energy">   -357.88295885 </i>
    <i name="e_wo_entrp">   -357.90447138 </i>
    <i name="e_0_energy">   -357.89012969 </i>
   </energy>
  </scstep>
  <scstep>
   <time name="diag">    0.08    0.08</time>
   <time name="diis">    0.80    0.81</time>
   <time name="orth">    0.01    0.01</time>
   <time name="total">    0.97    0.99</time>
   <energy>
    <i name="e_fr_energy">   -357.87314684 </i>
    <i name="e_wo_entrp">   -357.89391567 </i>
    <i name="e_0_energy">   -357.88006979 </i>
   </energy>
  </scstep>
  <scstep>
   <time name="diag">    0.08    0.08</time>
   <time name="diis">    0.81    0.82</time>
   <time name="orth">    0.01    0.01</time>
   <time name="total">    0.98    1.00</time>
   <energy>
    <i name="e_fr_energy">   -357.86758389 </i>
    <i name="e_wo_entrp">   -357.88885263 </i>
    <i name="e_0_energy">   -357.87467347 </i>
   </energy>
  </scstep>
  <scstep>
   <time name="diag">    0.08    0.08</time>
   <time name="diis">    0.81    0.81</time>
   <time name="orth">    0.01    0.01</time>
   <time name="total">    0.97    0.99</time>
   <energy>
    <i name="e_fr_energy">   -357.86668779 </i>
    <i name="e_wo_entrp">   -357.88780956 </i>
    <i name="e_0_energy">   -357.87372838 </i>
   </energy>
  </scstep>
  <scstep>
   <time name="diag">    0.08    0.08</time>
   <time name="diis">    0.92    0.92</time>
   <time name="orth">    0.01    0.01</time>
   <time name="total">    1.08    1.11</time>
   <energy>
    <i name="e_fr_energy">   -357.86662797 </i>
    <i name="e_wo_entrp">   -357.88776135 </i>
    <i name="e_0_energy">   -357.87367243 </i>
   </energy>
  </scstep>
  <scstep>
   <time name="diag">    0.08    0.08</time>
   <time name="diis">    0.81    0.81</time>
   <time name="orth">    0.01    0.01</time>
   <time name="total">    0.97    0.99</time>
   <energy>
    <i name="e_fr_energy">   -357.86664017 </i>
    <i name="e_wo_entrp">   -357.88780028 </i>
    <i name="e_0_energy">   -357.87369354 </i>
   </energy>
  </scstep>
  <scstep>
   <time name="diag">    0.08    0.08</time>
   <time name="diis">    0.78    0.81</time>
   <time name="orth">    0.01    0.01</time>
   <time name="total">    0.94    1.01</time>
   <energy>
    <i name="e_fr_energy">   -357.86666176 </i>
    <i name="e_wo_entrp">   -357.88779759 </i>
    <i name="e_0_energy">   -357.87370704 </i>
   </energy>
  </scstep>
  <scstep>
   <time name="diag">    0.08    0.08</time>
   <time name="diis">    0.72    0.72</time>
   <time name="orth">    0.01    0.01</time>
   <time name="total">    0.89    0.92</time>
   <energy>
    <i name="e_fr_energy">   -357.86667708 </i>
    <i name="e_wo_entrp">   -357.88782589 </i>
    <i name="e_0_energy">   -357.87372668 </i>
   </energy>
  </scstep>
  <scstep>
   <time name="diag">    0.08    0.08</time>
   <time name="diis">    0.54    0.55</time>
   <time name="orth">    0.01    0.01</time>
   <time name="total">    0.70    0.74</time>
   <energy>
    <i name="e_fr_energy">   -357.86669119 </i>
    <i name="e_wo_entrp">   -357.88784290 </i>
    <i name="e_0_energy">   -357.87374176 </i>
   </energy>
  </scstep>
  <scstep>
   <time name="diag">    0.08    0.08</time>
   <time name="diis">    0.51    0.51</time>
   <time name="orth">    0.01    0.01</time>
   <time name="total">    0.64    0.66</time>
   <energy>
    <i name="alphaZ">   1616.08966741 </i>
    <i name="ewald"> -22258.00222895 </i>
    <i name="hartreedc">  -6784.64274225 </i>
    <i name="XCdc">     -3.32543597 </i>
    <i name="pawpsdc">  36625.04066171 </i>
    <i name="pawaedc"> -35118.55831271 </i>
    <i name="eentropy">      0.02115788 </i>
    <i name="bandstr">  -3000.51167890 </i>
    <i name="atom">  28566.02222046 </i>
    <i name="e_fr_energy">   -357.86669132 </i>
    <i name="e_wo_entrp">   -357.88784920 </i>
    <i name="e_0_energy">   -357.87374395 </i>
   </energy>
  </scstep>
  <structure>
   <crystal>
    <varray name="basis" >
     <v>       6.93491618       0.03698340       0.00636110 </v>
     <v>       0.05470560      10.24173981       0.00218546 </v>
     <v>       0.00978938       0.00192341      10.27856177 </v>
    </varray>
    <i name="volume">    730.01962952 </i>
    <varray name="rec_basis" >
     <v>       0.14420208      -0.00077022      -0.00013719 </v>
     <v>      -0.00052070       0.09764245      -0.00001778 </v>
     <v>      -0.00008913      -0.00002028       0.09728996 </v>
    </varray>
   </crystal>
   <varray name="positions" >
    <v>       0.25974506       0.18006071       0.17274422 </v>
    <v>       0.03547748       0.00334822       0.33092176 </v>
    <v>       0.02597508       0.99429998       0.67607967 </v>
    <v>       0.25642920       0.18578907       0.82498651 </v>
    <v>       0.50315152       0.34336351       0.34222938 </v>
    <v>       0.75600232       0.49961246       0.49988440 </v>
    <v>       0.48836572       0.33800537       0.64497132 </v>
    <v>       0.50382685       0.66035137       0.34745269 </v>
    <v>       0.99669306       0.33076520       0.00770293 </v>
    <v>       0.25668119       0.49405847       0.83392511 </v>
    <v>       0.97120927       0.66387523       0.99230857 </v>
    <v>       0.23857479       0.81227331       0.17161250 </v>
    <v>       0.76293368       0.16920794       0.49891133 </v>
    <v>       0.47720795       0.99343654       0.67259778 </v>
    <v>       0.76617987       0.83705572       0.18751703 </v>
    <v>       0.77031433       0.84048643       0.49798361 </v>
    <v>       0.23895377       0.50150140       0.49753738 </v>
    <v>       0.74702670       0.17105982       0.82141163 </v>
    <v>       0.01638431       0.00133225       0.99397098 </v>
    <v>       0.23245173       0.17526871       0.50100884 </v>
    <v>       0.25841731       0.50068993       0.16732421 </v>
    <v>       0.49133335       0.99869847       0.99206941 </v>
    <v>       0.74585351       0.16207868       0.17932678 </v>
    <v>       0.46932126       0.99129284       0.33845879 </v>
    <v>       0.74172154       0.48654722       0.81816885 </v>
    <v>       0.52680846       0.67535964       0.99587385 </v>
    <v>       0.49479508       0.67424808       0.65880154 </v>
    <v>       0.99366749       0.34066421       0.32445982 </v>
    <v>       0.00780524       0.34134121       0.66334569 </v>
    <v>       0.99522438       0.65482148       0.34331624 </v>
    <v>       0.22687142       0.82673132       0.49935626 </v>
    <v>       0.23491521       0.81864350       0.83225092 </v>
    <v>       0.49809166       0.32246056       0.00944965 </v>
    <v>       0.74049919       0.49574904       0.18171509 </v>
    <v>       0.76912163       0.84419258       0.81257426 </v>
    <v>       0.00197738       0.67133154       0.66774400 </v>
   </varray>
  </structure>
  <varray name="forces" >
   <v>      -0.01464082      -0.00348409       0.00499910 </v>
   <v>       0.00797021       0.01765213       0.00138666 </v>
   <v>      -0.00106509       0.01139753       0.00030680 </v>
   <v>      -0.02764697      -0.00897825      -0.00094240 </v>
   <v>       0.28657201      -0.18392665      -0.07617468 </v>
   <v>       0.09305297      -0.04506259      -0.03887063 </v>
   <v>       0.35271292      -0.36889443       0.16203695 </v>
   <v>       0.33342175       0.25676436      -0.21074077 </v>
   <v>       0.00975604      -0.01226912       0.00393454 </v>
   <v>       0.01731732      -0.01933133      -0.07979304 </v>
   <v>       0.01287328       0.02294283      -0.01521013 </v>
   <v>      -0.00963558      -0.00657949      -0.00074382 </v>
   <v>       0.02789135       0.01024031       0.01526832 </v>
   <v>       0.01409286       0.00922316      -0.00107572 </v>
   <v>       0.01270140      -0.01908451       0.00495668 </v>
   <v>       0.02835145      -0.00594316      -0.00868520 </v>
   <v>      -0.20605481       0.01747344      -0.00620893 </v>
   <v>      -0.01236692       0.06546126       0.02734874 </v>
   <v>       0.02452464       0.00634428       0.00063438 </v>
   <v>      -0.00817709       0.09783726       0.01579857 </v>
   <v>       0.00349668      -0.01329611       0.08967391 </v>
   <v>      -0.01920906       0.01213574      -0.01353093 </v>
   <v>       0.00567661       0.02642174      -0.02114115 </v>
   <v>       0.01656168      -0.00008033      -0.00879512 </v>
   <v>       0.00657997      -0.03347127      -0.03160511 </v>
   <v>       0.00789907       0.00077568      -0.00503273 </v>
   <v>       0.17711933       0.21602292       0.13964361 </v>
   <v>      -0.23834833      -0.12056089      -0.25599895 </v>
   <v>      -0.27696843      -0.28108317       0.37910817 </v>
   <v>      -0.44058449       0.26085019      -0.28754062 </v>
   <v>      -0.02563509      -0.09618944       0.00562373 </v>
   <v>      -0.00248486      -0.02956605      -0.01694362 </v>
   <v>      -0.00064042      -0.00525180       0.00919255 </v>
   <v>       0.00433269       0.01317731       0.01974362 </v>
   <v>       0.02824891      -0.04938439      -0.01243141 </v>
   <v>      -0.18769520       0.25771693       0.21180862 </v>
  </varray>
  <varray name="stress" >
   <v>       4.19238701      -0.39567774       0.23433610 </v>
   <v>      -0.39567772       0.70157765      -1.07253779 </v>
   <v>       0.23433612      -1.07253776       0.86787698 </v>
  </varray>
  <energy>
   <i name="e_fr_energy">   -357.86669132 </i>
   <i name="e_wo_entrp">   -357.87374395 </i>
   <i name="e_0_energy">      0.02115788 </i>
  </energy>
  <time name="totalsc">   11.92   12.40</time>
 </calculation>
 <calculation>
  <scstep>
   <time name="dav">    1.09    1.10</time>
   <time name="total">    1.25    1.34</time>
   <energy>
    <i name="alphaZ">   1601.13128067 </i>
    <i name="ewald"> -22186.09693279 </i>
    <i name="hartreedc">  -6766.34425810 </i>
    <i name="XCdc">     -6.36276355 </i>
    <i name="pawpsdc">  36625.34443694 </i>
    <i name="pawaedc"> -35118.94050221 </i>
    <i name="eentropy">      0.02189806 </i>
    <i name="bandstr">  -3072.85619615 </i>
    <i name="atom">  28566.02222046 </i>
    <i name="e_fr_energy">   -358.08081667 </i>
    <i name="e_wo_entrp">   -358.10271473 </i>
    <i name="e_0_energy">   -358.08811602 </i>
   </energy>
  </scstep>
  <scstep>
   <time name="diag">    0.09    0.09</time>
   <time name="diis">    0.76    0.77</time>
   <time name="orth">    0.01    0.01</time>
   <time name="total">    0.93    0.96</time>
   <energy>
    <i name="e_fr_energy">   -357.98394485 </i>
    <i name="e_wo_entrp">   -358.00828071 </i>
    <i name="e_0_energy">   -357.99205681 </i>
   </energy>
  </scstep>
  <scstep>
   <time name="diag">    0.08    0.08</time>
   <time name="diis">    0.81    0.82</time>
   <time name="orth">    0.01    0.01</time>
   <time name="total">    0.97    1.01</time>
   <energy>
    <i name="e_fr_energy">   -357.93506129 </i>
    <i name="e_wo_entrp">   -357.95755260 </i>
    <i name="e_0_energy">   -357.94255839 </i>
   </energy>
  </scstep>
  <scstep>
   <time name="diag">    0.14    0.14</time>
   <time name="diis">    0.84    0.84</time>
   <time name="orth">    0.01    0.01</time>
   <time name="total">    1.05    1.10</time>
   <energy>
    <i name="e_fr_energy">   -357.90813087 </i>
    <i name="e_wo_entrp">   -357.93203552 </i>
    <i name="e_0_energy">   -357.91609909 </i>
   </energy>
  </scstep>
  <scstep>
   <time name="diag">    0.09    0.09</time>
   <time name="diis">    0.80    0.81</time>
   <time name="orth">    0.01    0.01</time>
   <time name="total">    0.99    1.04</time>
   <energy>
    <i name="e_fr_energy">   -357.90341766 </i>
    <i name="e_wo_entrp">   -357.92688441 </i>
    <i name="e_0_energy">   -357.91123991 </i>
   </energy>
  </scstep>
  <scstep>
   <time name="diag">    0.08    0.08</time>
   <time name="diis">    0.92    0.93</time>
   <time name="orth">    0.01    0.01</time>
   <time name="total">    1.09    1.12</time>
   <energy>
    <i name="e_fr_energy">   -357.90335777 </i>
    <i name="e_wo_entrp">   -357.92688801 </i>
    <i name="e_0_energy">   -357.91120118 </i>
   </energy>
  </scstep>
  <scstep>
   <time name="diag">    0.08    0.08</time>
   <time name="diis">    0.81    0.85</time>
   <time name="orth">    0.01    0.02</time>
   <time name="total">    0.98    1.06</time>
   <energy>
    <i name="e_fr_energy">   -357.90357728 </i>
    <i name="e_wo_entrp">   -357.92714125 </i>
    <i name="e_0_energy">   -357.91143194 </i>
   </energy>
  </scstep>
  <scstep>
   <time name="diag">    0.13    0.14</time>
   <time name="diis">    0.96    0.97</time>
   <time name="orth">    0.01    0.01</time>
   <time name="total">    1.17    1.22</time>
   <energy>
    <i name="e_fr_energy">   -357.90375377 </i>
    <i name="e_wo_entrp">   -357.92727971 </i>
    <i name="e_0_energy">   -357.91159575 </i>
   </energy>
  </scstep>
  <scstep>
   <time name="diag">    0.09    0.09</time>
   <time name="diis">    0.81    0.83</time>
   <time name="orth">    0.01    0.02</time>
   <time name="total">    0.99    1.06</time>
   <energy>
    <i name="e_fr_energy">   -357.90385663 </i>
    <i name="e_wo_entrp">   -357.92740398 </i>
    <i name="e_0_energy">   -357.91170575 </i>
   </energy>
  </scstep>
  <scstep>
   <time name="diag">    0.08    0.08</time>
   <time name="diis">    0.73    0.74</time>
   <time name="orth">    0.01    0.01</time>
   <time name="total">    0.89    0.94</time>
   <energy>
    <i name="e_fr_energy">   -357.90398167 </i>
    <i name="e_wo_entrp">   -357.92754111 </i>
    <i name="e_0_energy">   -357.91183481 </i>
   </energy>
  </scstep>
  <scstep>
   <time name="diag">    0.18    0.18</time>
   <time name="diis">    0.63    0.63</time>
   <time name="orth">    0.01    0.01</time>
   <time name="total">    0.93    0.96</time>
   <energy>
    <i name="e_fr_energy">   -357.90401846 </i>
    <i name="e_wo_entrp">   -357.92758573 </i>
    <i name="e_0_energy">   -357.91187422 </i>
   </energy>
  </scstep>
  <scstep>
   <time name="diag">    0.08    0.08</time>
   <time name="diis">    0.63    0.64</time>
   <time name="orth">    0.01    0.01</time>
   <time name="total">    0.79    0.82</time>
   <energy>
    <i name="e_fr_energy">   -357.90401407 </i>
    <i name="e_wo_entrp">   -357.92756625 </i>
    <i name="e_0_energy">   -357.91186480 </i>
   </energy>
  </scstep>
  <scstep>
   <time name="diag">    0.08    0.08</time>
   <time name="diis">    0.53    0.54</time>
   <time name="orth">    0.01    0.01</time>
   <time name="total">    0.66    0.69</time>
   <energy>
    <i name="alphaZ">   1601.13128067 </i>
    <i name="ewald"> -22186.09693279 </i>
    <i name="hartreedc">  -6809.67440115 </i>
    <i name="XCdc">     -4.42848437 </i>
    <i name="pawpsdc">  36198.08370449 </i>
    <i name="pawaedc"> -34692.57874686 </i>
    <i name="eentropy">      0.02355504 </i>
    <i name="bandstr">  -3030.38621059 </i>
    <i name="atom">  28566.02222046 </i>
    <i name="e_fr_energy">   -357.90401509 </i>
    <i name="e_wo_entrp">   -357.92757014 </i>
    <i name="e_0_energy">   -357.91186678 </i>
   </energy>
  </scstep>
  <structure>
   <crystal>
    <varray name="basis" >
     <v>       6.96330183       0.03577170       0.00693617 </v>
     <v>       0.05300638      10.26781880      -0.00351992 </v>
     <v>       0.01068683      -0.00380986      10.30603602 </v>
    </varray>
    <i name="volume">    736.83975481 </i>
    <varray name="rec_basis" >
     <v>       0.14361399      -0.00074144      -0.00014919 </v>
     <v>      -0.00050037       0.09739426       0.00003652 </v>
     <v>      -0.00009683       0.00003376       0.09703063 </v>
    </varray>
   </crystal>
   <varray name="positions" >
    <v>       0.25965922       0.18003358       0.17275131 </v>
    <v>       0.03539918       0.00343473       0.33088818 </v>
    <v>       0.02587829       0.99437713       0.67607456 </v>
    <v>       0.25629297       0.18575393       0.82500748 </v>
    <v>       0.50466040       0.34262786       0.34191675 </v>
    <v>       0.75644831       0.49946125       0.49976393 </v>
    <v>       0.49026291       0.33668509       0.64559591 </v>
    <v>       0.50551306       0.66132050       0.34667574 </v>
    <v>       0.99665791       0.33070168       0.00772262 </v>
    <v>       0.25674775       0.49404621       0.83369374 </v>
    <v>       0.97124734       0.66396617       0.99226795 </v>
    <v>       0.23855450       0.81225194       0.17160035 </v>
    <v>       0.76297708       0.16926959       0.49897604 </v>
    <v>       0.47733571       0.99345538       0.67260170 </v>
    <v>       0.76622587       0.83692496       0.18753251 </v>
    <v>       0.77038780       0.84042561       0.49796508 </v>
    <v>       0.23788635       0.50157941       0.49751401 </v>
    <v>       0.74697536       0.17130873       0.82148146 </v>
    <v>       0.01645552       0.00135706       0.99399080 </v>
    <v>       0.23244675       0.17556146       0.50103724 </v>
    <v>       0.25840474       0.50066117       0.16757614 </v>
    <v>       0.49128561       0.99871053       0.99203723 </v>
    <v>       0.74588551       0.16218163       0.17926678 </v>
    <v>       0.46949379       0.99130353       0.33841199 </v>
    <v>       0.74179107       0.48640870       0.81805597 </v>
    <v>       0.52685137       0.67539635       0.99586030 </v>
    <v>       0.49572558       0.67502272       0.65932348 </v>
    <v>       0.99244953       0.34022320       0.32359024 </v>
    <v>       0.00636390       0.34038231       0.66464183 </v>
    <v>       0.99302539       0.65581705       0.34229358 </v>
    <v>       0.22683043       0.82636806       0.49939644 </v>
    <v>       0.23497077       0.81852107       0.83220879 </v>
    <v>       0.49819232       0.32245298       0.00947313 </v>
    <v>       0.74055914       0.49578002       0.18175941 </v>
    <v>       0.76920235       0.84399091       0.81255491 </v>
    <v>       0.00096424       0.67223951       0.66848542 </v>
   </varray>
  </structure>
  <varray name="forces" >
   <v>      -0.00619857       0.00607938       0.01147672 </v>
   <v>       0.06172861      -0.00436679       0.02817704 </v>
   <v>       0.04293994      -0.01953257       0.00422658 </v>
   <v>      -0.02293325      -0.00347820      -0.01920537 </v>
   <v>       0.20302971      -0.07572831      -0.02552886 </v>
   <v>       0.08899159      -0.03822579      -0.03876098 </v>
   <v>       0.23363963      -0.26091641       0.08151289 </v>
   <v>       0.26280923       0.14017024      -0.13092500 </v>
   <v>       0.04848170       0.00459477      -0.00091098 </v>
   <v>       0.02232819      -0.05010024      -0.09249454 </v>
   <v>       0.02420092       0.01123086      -0.02165914 </v>
   <v>      -0.02071227      -0.00603969       0.00766479 </v>
   <v>       0.06825845      -0.00978101       0.00309382 </v>
   <v>      -0.01579526       0.01334288      -0.00658617 </v>
   <v>       0.01854955       0.02979649       0.00358748 </v>
   <v>       0.05571196       0.01901732      -0.01454603 </v>
   <v>      -0.15719755       0.00718018      -0.00279141 </v>
   <v>      -0.01556017       0.03408611       0.03859056 </v>
   <v>       0.04415264       0.00085344      -0.01325506 </v>
   <v>      -0.02390532       0.10613196       0.03142177 </v>
   <v>       0.01574871      -0.02200383       0.10947028 </v>
   <v>      -0.03761920       0.02869015      -0.02149713 </v>
   <v>       0.00219493       0.01241424      -0.02644134 </v>
   <v>      -0.02963870      -0.00904019       0.00617772 </v>
   <v>      -0.00993758      -0.00977857      -0.02302342 </v>
   <v>       0.00387078      -0.02218295      -0.00606490 </v>
   <v>       0.11929213       0.14801767       0.07912174 </v>
   <v>      -0.18401506      -0.07267637      -0.20682317 </v>
   <v>      -0.20135730      -0.22538260       0.30103953 </v>
   <v>      -0.36911791       0.14468571      -0.20068196 </v>
   <v>      -0.05666028      -0.05467536      -0.00846195 </v>
   <v>      -0.03146029      -0.00719473      -0.02699266 </v>
   <v>      -0.04716915      -0.01240220       0.01525491 </v>
   <v>      -0.01446963       0.01997049       0.03130698 </v>
   <v>       0.05199211      -0.01769548      -0.02342661 </v>
   <v>      -0.12417327       0.19493941       0.15795385 </v>
  </varray>
  <varray name="stress" >
   <v>      -8.89957615      -0.22175453       0.32197618 </v>
   <v>      -0.22175455     -11.54520944      -0.38830873 </v>
   <v>       0.32197620      -0.38830865     -11.65930919 </v>
  </varray>
  <energy>
   <i name="e_fr_energy">   -357.90401509 </i>
   <i name="e_wo_entrp">   -357.91186678 </i>
   <i name="e_0_energy">      0.02355504 </i>
  </energy>
  <time name="totalsc">   14.45   15.13</time>
 </calculation>
 <calculation>
  <scstep>
   <time name="dav">    1.05    1.05</time>
   <time name="total">    1.20    1.35</time>
   <energy>
    <i name="alphaZ">   1604.08367359 </i>
    <i name="ewald"> -22197.36960982 </i>
    <i name="hartreedc">  -6815.99160950 </i>
    <i name="XCdc">     -3.80716942 </i>
    <i name="pawpsdc">  36197.34071037 </i>
    <i name="pawaedc"> -34691.86898059 </i>
    <i name="eentropy">      0.02430061 </i>
    <i name="bandstr">  -3016.36735460 </i>
    <i name="atom">  28566.02222046 </i>
    <i name="e_fr_energy">   -357.93381890 </i>
    <i name="e_wo_entrp">   -357.95811950 </i>
    <i name="e_0_energy">   -357.94191910 </i>
   </energy>
  </scstep>
  <scstep>
   <time name="diag">    0.08    0.08</time>
   <time name="diis">    0.72    0.73</time>
   <time name="orth">    0.01    0.01</time>
   <time name="total">    0.89    0.91</time>
   <energy>
    <i name="e_fr_energy">   -357.94174807 </i>
    <i name="e_wo_entrp">   -357.96569688 </i>
    <i name="e_0_energy">   -357.94973101 </i>
   </energy>
  </scstep>
  <scstep>
   <time name="diag">    0.08    0.08</time>
   <time name="diis">    0.76    0.76</time>
   <time name="orth">    0.01    0.01</time>
   <time name="total">    0.92    0.95</time>
   <energy>
    <i name="e_fr_energy">   -357.93930391 </i>
    <i name="e_wo_entrp">   -357.96359108 </i>
    <i name="e_0_energy">   -357.94739963 </i>
   </energy>
  </scstep>
  <scstep>
   <time name="diag">    0.08    0.08</time>
   <time name="diis">    0.79    0.80</time>
   <time name="orth">    0.01    0.01</time>
   <time name="total">    0.95    1.00</time>
   <energy>
    <i name="e_fr_energy">   -357.93786978 </i>
    <i name="e_wo_entrp">   -357.96210667 </i>
    <i name="e_0_energy">   -357.94594874 </i>
   </energy>
  </scstep>
  <scstep>
   <time name="diag">    0.08    0.08</time>
   <time name="diis">    0.84    0.85</time>
   <time name="orth">    0.01    0.01</time>
   <time name="total">    1.00    1.09</time>
   <energy>
    <i name="e_fr_energy">   -357.93765223 </i>
    <i name="e_wo_entrp">   -357.96178818 </i>
    <i name="e_0_energy">   -357.94569755 </i>
   </energy>
  </scstep>
  <scstep>
   <time name="diag">    0.08    0.08</time>
   <time name="diis">    0.82    0.82</time>
   <time name="orth">    0.01    0.01</time>
   <time name="total">    0.98    1.01</time>
   <energy>
    <i name="e_fr_energy">   -357.93764864 </i>
    <i name="e_wo_entrp">   -357.96185137 </i>
    <i name="e_0_energy">   -357.94571622 </i>
   </energy>
  </scstep>
  <scstep>
   <time name="diag">    0.08    0.08</time>
   <time name="diis">    0.72    0.77</time>
   <time name="orth">    0.01    0.01</time>
   <time name="total">    0.88    0.96</time>
   <energy>
    <i name="e_fr_energy">   -357.93765117 </i>
    <i name="e_wo_entrp">   -357.96180972 </i>
    <i name="e_0_energy">   -357.94570402 </i>
   </energy>
  </scstep>
  <scstep>
   <time name="diag">    0.08    0.08</time>
   <time name="diis">    0.68    0.68</time>
   <time name="orth">    0.01    0.01</time>
   <time name="total">    0.84    0.87</time>
   <energy>
    <i name="e_fr_energy">   -357.93766950 </i>
    <i name="e_wo_entrp">   -357.96184337 </i>
    <i name="e_0_energy">   -357.94572746 </i>
   </energy>
  </scstep>
  <scstep>
   <time name="diag">    0.13    0.13</time>
   <time name="diis">    0.53    0.54</time>
   <time name="orth">    0.01    0.01</time>
   <time name="total">    0.80    0.82</time>
   <energy>
    <i name="e_fr_energy">   -357.93768440 </i>
    <i name="e_wo_entrp">   -357.96184958 </i>
    <i name="e_0_energy">   -357.94573946 </i>
   </energy>
  </scstep>
  <scstep>
   <time name="diag">    0.12    0.12</time>
   <time name="diis">    0.56    0.57</time>
   <time name="orth">    0.01    0.01</time>
   <time name="total">    0.77    0.81</time>
   <energy>
    <i name="e_fr_energy">   -357.93769675 </i>
    <i name="e_wo_entrp">   -357.96186781 </i>
    <i name="e_0_energy">   -357.94575377 </i>
   </energy>
  </scstep>
  <scstep>
   <time name="diag">    0.08    0.08</time>
   <time name="diis">    0.38    0.38</time>
   <time name="orth">    0.01    0.01</time>
   <time name="total">    0.51    0.54</time>
   <energy>
    <i name="alphaZ">   1604.08367359 </i>
    <i name="ewald"> -22197.36960982 </i>
    <i name="hartreedc">  -6807.89574718 </i>
    <i name="XCdc">     -4.17202283 </i>
    <i name="pawpsdc">  36280.77917174 </i>
    <i name="pawaedc"> -34775.26809814 </i>
    <i name="eentropy">      0.02416465 </i>
    <i name="bandstr">  -3024.14145436 </i>
    <i name="atom">  28566.02222046 </i>
    <i name="e_fr_energy">   -357.93770187 </i>
    <i name="e_wo_entrp">   -357.96186652 </i>
    <i name="e_0_energy">   -357.94575675 </i>
   </energy>
  </scstep>
  <structure>
   <crystal>
    <varray name="basis" >
     <v>       6.96332661       0.03505047       0.00746853 </v>
     <v>       0.05199469      10.25821301      -0.00608388 </v>
     <v>       0.01149777      -0.00638826      10.29665728 </v>
    </varray>
    <i name="volume">    735.48356591 </i>
    <varray name="rec_basis" >
     <v>       0.14361336      -0.00072801      -0.00016082 </v>
     <v>      -0.00049077       0.09748539       0.00006103 </v>
     <v>      -0.00010446       0.00005813       0.09711905 </v>
    </varray>
   </crystal>
   <varray name="positions" >
    <v>       0.25961926       0.18003167       0.17276731 </v>
    <v>       0.03548095       0.00345844       0.33091013 </v>
    <v>       0.02592103       0.99437976       0.67607779 </v>
    <v>       0.25620677       0.18573802       0.82499184 </v>
    <v>       0.50552709       0.34228753       0.34178026 </v>
    <v>       0.75675550       0.49936405       0.49967707 </v>
    <v>       0.49131591       0.33592669       0.64590322 </v>
    <v>       0.50654292       0.66181352       0.34625755 </v>
    <v>       0.99673099       0.33068534       0.00772814 </v>
    <v>       0.25681003       0.49398227       0.83350579 </v>
    <v>       0.97130259       0.66401014       0.99222853 </v>
    <v>       0.23851136       0.81223765       0.17160533 </v>
    <v>       0.76311151       0.16927843       0.49900154 </v>
    <v>       0.47735109       0.99347773       0.67259526 </v>
    <v>       0.76627365       0.83691602       0.18754197 </v>
    <v>       0.77051016       0.84042728       0.49794150 </v>
    <v>       0.23724987       0.50161527       0.49750301 </v>
    <v>       0.74693036       0.17143364       0.82155089 </v>
    <v>       0.01655703       0.00136621       0.99398176 </v>
    <v>       0.23240216       0.17578693       0.50108421 </v>
    <v>       0.25842810       0.50062527       0.16779106 </v>
    <v>       0.49120330       0.99874894       0.99200094 </v>
    <v>       0.74590013       0.16223121       0.17921516 </v>
    <v>       0.46950021       0.99129658       0.33840350 </v>
    <v>       0.74179727       0.48635021       0.81799047 </v>
    <v>       0.52687288       0.67538238       0.99584852 </v>
    <v>       0.49624782       0.67546042       0.65959393 </v>
    <v>       0.99171623       0.33998830       0.32305101 </v>
    <v>       0.00552500       0.33979124       0.66543718 </v>
    <v>       0.99163409       0.65632799       0.34171041 </v>
    <v>       0.22671770       0.82618042       0.49940000 </v>
    <v>       0.23493449       0.81847124       0.83216256 </v>
    <v>       0.49814372       0.32243596       0.00949920 </v>
    <v>       0.74055380       0.49581437       0.18181153 </v>
    <v>       0.76932098       0.84390127       0.81252051 </v>
    <v>       0.00040206       0.67277961       0.66892392 </v>
   </varray>
  </structure>
  <varray name="forces" >
   <v>      -0.00543197      -0.00378958       0.00407483 </v>
   <v>       0.06142410      -0.00740628       0.03777347 </v>
   <v>       0.04925787      -0.01050844      -0.00982720 </v>
   <v>      -0.02383566      -0.01365153      -0.01335874 </v>
   <v>       0.14954881      -0.03777562      -0.00612447 </v>
   <v>       0.08202763      -0.03134538      -0.02356048 </v>
   <v>       0.17907444      -0.21057766       0.05721012 </v>
   <v>       0.21687743       0.09308652      -0.09803657 </v>
   <v>       0.05705453       0.01836722      -0.00946862 </v>
   <v>       0.02556035      -0.05005141      -0.08824324 </v>
   <v>       0.03675321      -0.00558668      -0.01620279 </v>
   <v>      -0.01484428      -0.00294104      -0.00246626 </v>
   <v>       0.07667273      -0.03326907      -0.00195335 </v>
   <v>      -0.01378551       0.02692069      -0.02313143 </v>
   <v>       0.00747628       0.06145455      -0.01896563 </v>
   <v>       0.04683157       0.03822413      -0.01798245 </v>
   <v>      -0.12944784       0.00775660       0.00585618 </v>
   <v>      -0.01534962       0.01168727       0.05342485 </v>
   <v>       0.04485246       0.00232951      -0.00866766 </v>
   <v>      -0.02042777       0.09778492       0.03384328 </v>
   <v>       0.01332857      -0.01427440       0.09984888 </v>
   <v>      -0.03819487       0.02937620      -0.01659479 </v>
   <v>       0.00233463      -0.00933173      -0.03905566 </v>
   <v>      -0.02791104      -0.00761735       0.01700075 </v>
   <v>      -0.01887513       0.01024796      -0.00349525 </v>
   <v>      -0.00608815      -0.03612312      -0.00160880 </v>
   <v>       0.09030066       0.10796420       0.05153801 </v>
   <v>      -0.14303730      -0.05679662      -0.17183162 </v>
   <v>      -0.16693040      -0.19600368       0.25839651 </v>
   <v>      -0.31821011       0.08913228      -0.16670390 </v>
   <v>      -0.04666355      -0.03642433      -0.01000942 </v>
   <v>      -0.02174003       0.00305338      -0.01521544 </v>
   <v>      -0.05557598       0.00043982       0.01144688 </v>
   <v>      -0.01800267       0.03110736       0.00785937 </v>
   <v>       0.03681021      -0.00506795      -0.00433499 </v>
   <v>      -0.09183363       0.13960924       0.12856562 </v>
  </varray>
  <varray name="stress" >
   <v>      -6.98342021      -0.10100942       0.28475963 </v>
   <v>      -0.10100940      -8.97644998      -0.12293924 </v>
   <v>       0.28475964      -0.12293921      -9.18867596 </v>
  </varray>
  <energy>
   <i name="e_fr_energy">   -357.93770187 </i>
   <i name="e_wo_entrp">   -357.94575675 </i>
   <i name="e_0_energy">      0.02416465 </i>
  </energy>
  <time name="totalsc">   11.42   12.08</time>
 </calculation>
 <calculation>
  <scstep>
   <time name="dav">    1.13    1.15</time>
   <time name="total">    1.28    1.38</time>
   <energy>
    <i name="alphaZ">   1612.99162178 </i>
    <i name="ewald"> -22229.60615252 </i>
    <i name="hartreedc">  -6828.49446704 </i>
    <i name="XCdc">     -2.29051539 </i>
    <i name="pawpsdc">  36281.15765931 </i>
    <i name="pawaedc"> -34775.61731942 </i>
    <i name="eentropy">      0.02548146 </i>
    <i name="bandstr">  -2982.14757930 </i>
    <i name="atom">  28566.02222046 </i>
    <i name="e_fr_energy">   -357.95905066 </i>
    <i name="e_wo_entrp">   -357.98453211 </i>
    <i name="e_0_energy">   -357.96754447 </i>
   </energy>
  </scstep>
  <scstep>
   <time name="diag">    0.14    0.14</time>
   <time name="diis">    0.79    0.79</time>
   <time name="orth">    0.01    0.01</time>
   <time name="total">    1.01    1.03</time>
   <energy>
    <i name="e_fr_energy">   -358.02830712 </i>
    <i name="e_wo_entrp">   -358.05241765 </i>
    <i name="e_0_energy">   -358.03634396 </i>
   </energy>
  </scstep>
  <scstep>
   <time name="diag">    0.08    0.08</time>
   <time name="diis">    0.80    0.80</time>
   <time name="orth">    0.01    0.01</time>
   <time name="total">    0.96    0.99</time>
   <energy>
    <i name="e_fr_energy">   -358.00560338 </i>
    <i name="e_wo_entrp">   -358.03060839 </i>
    <i name="e_0_energy">   -358.01393838 </i>
   </energy>
  </scstep>
  <scstep>
   <time name="diag">    0.08    0.08</time>
   <time name="diis">    0.81    0.82</time>
   <time name="orth">    0.01    0.01</time>
   <time name="total">    0.99    1.02</time>
   <energy>
    <i name="e_fr_energy">   -357.99257332 </i>
    <i name="e_wo_entrp">   -358.01783178 </i>
    <i name="e_0_energy">   -358.00099280 </i>
   </energy>
  </scstep>
  <scstep>
   <time name="diag">    0.08    0.08</time>
   <time name="diis">    0.81    0.82</time>
   <time name="orth">    0.01    0.01</time>
   <time name="total">    0.97    1.03</time>
   <energy>
    <i name="e_fr_energy">   -357.99071522 </i>
    <i name="e_wo_entrp">   -358.01541344 </i>
    <i name="e_0_energy">   -357.99894796 </i>
   </energy>
  </scstep>
  <scstep>
   <time name="diag">    0.08    0.08</time>
   <time name="diis">    0.95    0.96</time>
   <time name="orth">    0.01    0.01</time>
   <time name="total">    1.11    1.14</time>
   <energy>
    <i name="e_fr_energy">   -357.99071527 </i>
    <i name="e_wo_entrp">   -358.01568903 </i>
    <i name="e_0_energy">   -357.99903985 </i>
   </energy>
  </scstep>
  <scstep>
   <time name="diag">    0.08    0.08</time>
   <time name="diis">    0.91    0.92</time>
   <time name="orth">    0.02    0.02</time>
   <time name="total">    1.09    1.11</time>
   <energy>
    <i name="e_fr_energy">   -357.99074826 </i>
    <i name="e_wo_entrp">   -358.01560643 </i>
    <i name="e_0_energy">   -357.99903432 </i>
   </energy>
  </scstep>
  <scstep>
   <time name="diag">    0.08    0.08</time>
   <time name="diis">    0.89    0.89</time>
   <time name="orth">    0.01    0.01</time>
   <time name="total">    1.06    1.12</time>
   <energy>
    <i name="e_fr_energy">   -357.99089726 </i>
    <i name="e_wo_entrp">   -358.01578907 </i>
    <i name="e_0_energy">   -357.99919453 </i>
   </energy>
  </scstep>
  <scstep>
   <time name="diag">    0.11    0.11</time>
   <time name="diis">    0.86    0.87</time>
   <time name="orth">    0.01    0.01</time>
   <time name="total">    1.05    1.09</time>
   <energy>
    <i name="e_fr_energy">   -357.99098891 </i>
    <i name="e_wo_entrp">   -358.01585070 </i>
    <i name="e_0_energy">   -357.99927617 </i>
   </energy>
  </scstep>
  <scstep>
   <time name="diag">    0.08    0.08</time>
   <time name="diis">    0.76    0.78</time>
   <time name="orth">    0.01    0.01</time>
   <time name="total">    0.94    0.99</time>
   <energy>
    <i name="e_fr_energy">   -357.99106598 </i>
    <i name="e_wo_entrp">   -358.01594862 </i>
    <i name="e_0_energy">   -357.99936019 </i>
   </energy>
  </scstep>
  <scstep>
   <time name="diag">    0.08    0.09</time>
   <time name="diis">    0.68    0.69</time>
   <time name="orth">    0.01    0.01</time>
   <time name="total">    0.85    0.93</time>
   <energy>
    <i name="e_fr_energy">   -357.99109363 </i>
    <i name="e_wo_entrp">   -358.01595602 </i>
    <i name="e_0_energy">   -357.99938109 </i>
   </energy>
  </scstep>
  <scstep>
   <time name="diag">    0.08    0.09</time>
   <time name="diis">    0.56    0.58</time>
   <time name="orth">    0.01    0.01</time>
   <time name="total">    0.71    0.77</time>
   <energy>
    <i name="alphaZ">   1612.99162178 </i>
    <i name="ewald"> -22229.60615252 </i>
    <i name="hartreedc">  -6804.83291121 </i>
    <i name="XCdc">     -3.36319329 </i>
    <i name="pawpsdc">  36550.77867585 </i>
    <i name="pawaedc"> -35044.54236724 </i>
    <i name="eentropy">      0.02486940 </i>
    <i name="bandstr">  -3005.46386604 </i>
    <i name="atom">  28566.02222046 </i>
    <i name="e_fr_energy">   -357.99110281 </i>
    <i name="e_wo_entrp">   -358.01597221 </i>
    <i name="e_0_energy">   -357.99939261 </i>
   </energy>
  </scstep>
  <structure>
   <crystal>
    <varray name="basis" >
     <v>       6.96340094       0.03288676       0.00906559 </v>
     <v>       0.04895963      10.22939565      -0.01377576 </v>
     <v>       0.01393057      -0.01412343      10.26852105 </v>
    </varray>
    <i name="volume">    731.42176583 </i>
    <varray name="rec_basis" >
     <v>       0.14361149      -0.00068761      -0.00019577 </v>
     <v>      -0.00046188       0.09775988       0.00013509 </v>
     <v>      -0.00012741       0.00013176       0.09738536 </v>
    </varray>
   </crystal>
   <varray name="positions" >
    <v>       0.25949936       0.18002593       0.17281537 </v>
    <v>       0.03572625       0.00352969       0.33097606 </v>
    <v>       0.02604928       0.99438765       0.67608749 </v>
    <v>       0.25594819       0.18569024       0.82494490 </v>
    <v>       0.50812705       0.34126566       0.34137000 </v>
    <v>       0.75767707       0.49907215       0.49941614 </v>
    <v>       0.49447446       0.33364982       0.64682527 </v>
    <v>       0.50963282       0.66329386       0.34500206 </v>
    <v>       0.99695022       0.33063631       0.00774468 </v>
    <v>       0.25699692       0.49379013       0.83294139 </v>
    <v>       0.97146838       0.66414218       0.99211019 </v>
    <v>       0.23838194       0.81219473       0.17162030 </v>
    <v>       0.76351482       0.16930501       0.49907808 </v>
    <v>       0.47739723       0.99354483       0.67257591 </v>
    <v>       0.76641699       0.83688919       0.18757035 </v>
    <v>       0.77087728       0.84043233       0.49787069 </v>
    <v>       0.23534045       0.50172279       0.49747011 </v>
    <v>       0.74679540       0.17180878       0.82175948 </v>
    <v>       0.01686156       0.00139370       0.99395460 </v>
    <v>       0.23226846       0.17646401       0.50122540 </v>
    <v>       0.25849807       0.50051764       0.16843640 </v>
    <v>       0.49095639       0.99886423       0.99189198 </v>
    <v>       0.74594400       0.16238005       0.17906021 </v>
    <v>       0.46951948       0.99127570       0.33837801 </v>
    <v>       0.74181586       0.48617453       0.81779375 </v>
    <v>       0.52693740       0.67534040       0.99581314 </v>
    <v>       0.49781464       0.67677505       0.66040626 </v>
    <v>       0.98951644       0.33928237       0.32143179 </v>
    <v>       0.00300779       0.33801679       0.66782508 </v>
    <v>       0.98746062       0.65786153       0.33995988 </v>
    <v>       0.22637943       0.82561694       0.49941055 </v>
    <v>       0.23482565       0.81832158       0.83202372 </v>
    <v>       0.49799790       0.32238490       0.00957747 </v>
    <v>       0.74053776       0.49591755       0.18196806 </v>
    <v>       0.76967685       0.84363210       0.81241711 </v>
    <v>      -0.00128440       0.67440164       0.67024111 </v>
   </varray>
  </structure>
  <varray name="forces" >
   <v>      -0.00097320      -0.03676275      -0.01924743 </v>
   <v>       0.05967286      -0.01716968       0.06970563 </v>
   <v>       0.07010752       0.01564352      -0.05331196 </v>
   <v>      -0.02539212      -0.04539789       0.00810946 </v>
   <v>      -0.01307950       0.07904459       0.04984230 </v>
   <v>       0.06217998      -0.00951112       0.02270472 </v>
   <v>       0.01313234      -0.06212258      -0.00781589 </v>
   <v>       0.07279199      -0.04959849       0.00070439 </v>
   <v>       0.08298650       0.06188098      -0.03675446 </v>
   <v>       0.03377735      -0.04769482      -0.07341618 </v>
   <v>       0.07538945      -0.05944395       0.00101854 </v>
   <v>       0.00440245       0.00534674      -0.03152271 </v>
   <v>       0.10385322      -0.10544303      -0.01897754 </v>
   <v>      -0.00867793       0.06754344      -0.07349869 </v>
   <v>      -0.02702285       0.16545132      -0.09726891 </v>
   <v>       0.01909791       0.09654231      -0.02580004 </v>
   <v>      -0.05088443       0.01423808       0.02819060 </v>
   <v>      -0.01544025      -0.06515259       0.10450860 </v>
   <v>       0.04592274       0.00817428       0.00389503 </v>
   <v>      -0.00885486       0.07221548       0.04057772 </v>
   <v>       0.00564099       0.00934617       0.07085118 </v>
   <v>      -0.03816758       0.02953031      -0.00226633 </v>
   <v>       0.00029623      -0.08069157      -0.08304075 </v>
   <v>      -0.02062454      -0.00229414       0.05048423 </v>
   <v>      -0.04659042       0.07161285       0.05841077 </v>
   <v>      -0.03734074      -0.07664066       0.01370380 </v>
   <v>       0.00219148      -0.01492149      -0.03311686 </v>
   <v>      -0.01799787      -0.00785080      -0.06178489 </v>
   <v>      -0.06238695      -0.10773486       0.13022120 </v>
   <v>      -0.15696848      -0.07718054      -0.05911662 </v>
   <v>      -0.01379231       0.01648321      -0.01585423 </v>
   <v>       0.00634699       0.03709837       0.02079646 </v>
   <v>      -0.08009465       0.04072484      -0.00208196 </v>
   <v>      -0.03090188       0.06277426      -0.07352532 </v>
   <v>      -0.00876142       0.04317785       0.05935836 </v>
   <v>       0.00616196      -0.03121763       0.03531775 </v>
  </varray>
  <varray name="stress" >
   <v>      -0.51717102       0.25172694       0.16196240 </v>
   <v>       0.25172692      -0.46083395       0.68659201 </v>
   <v>       0.16196237       0.68659199      -0.89337928 </v>
  </varray>
  <energy>
   <i name="e_fr_energy">   -357.99110281 </i>
   <i name="e_wo_entrp">   -357.99939261 </i>
   <i name="e_0_energy">      0.02486940 </i>
  </energy>
  <time name="totalsc">   13.70   14.45</time>
 </calculation>
 <calculation>
  <scstep>
   <time name="dav">    0.99    1.01</time>
   <time name="total">    1.12    1.24</time>
   <energy>
    <i name="alphaZ">   1615.05628700 </i>
    <i name="ewald"> -22236.69764390 </i>
    <i name="hartreedc">  -6809.97158831 </i>
    <i name="XCdc">     -2.92494456 </i>
    <i name="pawpsdc">  36551.56311440 </i>
    <i name="pawaedc"> -35045.27953481 </i>
    <i name="eentropy">      0.02498496 </i>
    <i name="bandstr">  -2995.78386605 </i>
    <i name="atom">  28566.02222046 </i>
    <i name="e_fr_energy">   -357.99097080 </i>
    <i name="e_wo_entrp">   -358.01595576 </i>
    <i name="e_0_energy">   -357.99929912 </i>
   </energy>
  </scstep>
  <scstep>
   <time name="diag">    0.08    0.08</time>
   <time name="diis">    0.82    0.84</time>
   <time name="orth">    0.01    0.01</time>
   <time name="total">    0.98    1.03</time>
   <energy>
    <i name="e_fr_energy">   -357.99483912 </i>
    <i name="e_wo_entrp">   -358.01946706 </i>
    <i name="e_0_energy">   -358.00304843 </i>
   </energy>
  </scstep>
  <scstep>
   <time name="diag">    0.08    0.09</time>
   <time name="diis">    0.80    0.80</time>
   <time name="orth">    0.01    0.01</time>
   <time name="total">    0.97    1.00</time>
   <energy>
    <i name="e_fr_energy">   -357.99369008 </i>
    <i name="e_wo_entrp">   -358.01851141 </i>
    <i name="e_0_energy">   -358.00196385 </i>
   </energy>
  </scstep>
  <scstep>
   <time name="diag">    0.08    0.08</time>
   <time name="diis">    0.80    0.81</time>
   <time name="orth">    0.01    0.01</time>
   <time name="total">    0.97    1.00</time>
   <energy>
    <i name="e_fr_energy">   -357.99302769 </i>
    <i name="e_wo_entrp">   -358.01789342 </i>
    <i name="e_0_energy">   -358.00131627 </i>
   </energy>
  </scstep>
  <scstep>
   <time name="diag">    0.08    0.09</time>
   <time name="diis">    0.89    0.89</time>
   <time name="orth">    0.01    0.01</time>
   <time name="total">    1.05    1.09</time>
   <energy>
    <i name="e_fr_energy">   -357.99293785 </i>
    <i name="e_wo_entrp">   -358.01766319 </i>
    <i name="e_0_energy">   -358.00117963 </i>
   </energy>
  </scstep>
  <scstep>
[...]
       <r>    7.1548    1.0000 </r>
       <r>    7.1959    1.0000 </r>
       <r>    7.2468    1.0000 </r>
       <r>    7.2913    1.0000 </r>
       <r>    7.3117    1.0000 </r>
       <r>    7.3513    1.0001 </r>
       <r>    7.3766    1.0002 </r>
       <r>    7.4277    1.0012 </r>
       <r>    7.4630    1.0031 </r>
       <r>    7.4901    1.0061 </r>
       <r>    7.5238    1.0123 </r>
       <r>    7.5481    1.0187 </r>
       <r>    7.5750    1.0269 </r>
       <r>    7.6272    1.0349 </r>
       <r>    7.6636    1.0156 </r>
       <r>    7.6805    0.9934 </r>
       <r>    7.7258    0.8760 </r>
       <r>    7.7719    0.6685 </r>
       <r>    7.8013    0.5065 </r>
       <r>    7.8176    0.4152 </r>
       <r>    7.8474    0.2585 </r>
       <r>    7.8841    0.1067 </r>
       <r>    7.9006    0.0571 </r>
       <r>    7.9567   -0.0278 </r>
       <r>    7.9903   -0.0353 </r>
       <r>    8.0138   -0.0314 </r>
       <r>    8.0622   -0.0172 </r>
       <r>    8.0820   -0.0121 </r>
       <r>    8.1226   -0.0051 </r>
       <r>    8.1728   -0.0013 </r>
       <r>    8.2559   -0.0001 </r>
       <r>    8.2864   -0.0000 </r>
       <r>    8.3347   -0.0000 </r>
       <r>    8.3657   -0.0000 </r>
       <r>    8.3972   -0.0000 </r>
       <r>    8.4527   -0.0000 </r>
       <r>    8.5031   -0.0000 </r>
       <r>    8.5942   -0.0000 </r>
       <r>    8.6909   -0.0000 </r>
       <r>    8.7131   -0.0000 </r>
       <r>    8.7958   -0.0000 </r>
       <r>    8.9200   -0.0000 </r>
       <r>    9.0632   -0.0000 </r>
       <r>    9.1170   -0.0000 </r>
       <r>    9.6040   -0.0000 </r>
       <r>    9.6884   -0.0000 </r>
       <r>    9.7425   -0.0000 </r>
       <r>    9.7676   -0.0000 </r>
       <r>    9.7938   -0.0000 </r>
      </set>
     </set>
    </set>
   </array>
  </eigenvalues>
  <separator name="orbital magnetization" >
   <v name="MAGDIPOLOUT">      0.00000000      0.00000000      0.00000000</v>
  </separator>
  <dos>
   <i name="efermi">      7.80245291 </i>
   <total>
    <array>
     <dimension dim="1">gridpoints</dimension>
     <dimension dim="2">spin</dimension>
     <field>energy</field>
     <field>total</field>
     <field>integrated</field>
     <set>
      <set comment="spin 1">
       <r>   -49.2802     0.0000     0.0000 </r>
       <r>   -49.0736     0.0000     0.0000 </r>
       <r>   -48.8671     0.0000     0.0000 </r>
       <r>   -48.6605     0.0000     0.0000 </r>
       <r>   -48.4540     0.0000     0.0000 </r>
       <r>   -48.2474     0.0000     0.0000 </r>
       <r>   -48.0409     0.0000     0.0000 </r>
       <r>   -47.8343    -0.0000    -0.0000 </r>
       <r>   -47.6278    -0.0000    -0.0000 </r>
       <r>   -47.4212    -0.0000    -0.0000 </r>
       <r>   -47.2146    -0.0000    -0.0000 </r>
       <r>   -47.0081    -0.0000    -0.0000 </r>
       <r>   -46.8015    -0.0700    -0.0145 </r>
       <r>   -46.5950    -1.5810    -0.3410 </r>
       <r>   -46.3884    38.3138     7.5728 </r>
       <r>   -46.1819    47.9690    17.4808 </r>
       <r>   -45.9753     2.8795    18.0756 </r>
       <r>   -45.7688    -0.3649    18.0002 </r>
       <r>   -45.5622    -0.0011    18.0000 </r>
       <r>   -45.3557    -0.0000    18.0000 </r>
       <r>   -45.1491    -0.0000    18.0000 </r>
       <r>   -44.9426     0.0000    18.0000 </r>
       <r>   -44.7360     0.0000    18.0000 </r>
       <r>   -44.5295     0.0000    18.0000 </r>
       <r>   -44.3229     0.0000    18.0000 </r>
       <r>   -44.1164     0.0000    18.0000 </r>
       <r>   -43.9098     0.0000    18.0000 </r>
       <r>   -43.7033     0.0000    18.0000 </r>
       <r>   -43.4967     0.0000    18.0000 </r>
       <r>   -43.2902     0.0000    18.0000 </r>
       <r>   -43.0836     0.0000    18.0000 </r>
       <r>   -42.8771     0.0000    18.0000 </r>
       <r>   -42.6705     0.0000    18.0000 </r>
       <r>   -42.4640     0.0000    18.0000 </r>
       <r>   -42.2574     0.0000    18.0000 </r>
       <r>   -42.0509     0.0000    18.0000 </r>
       <r>   -41.8443    -0.0000    18.0000 </r>
       <r>   -41.6377    -0.0000    18.0000 </r>
       <r>   -41.4312    -0.0000    18.0000 </r>
       <r>   -41.2246    -0.0000    18.0000 </r>
       <r>   -41.0181    -0.0001    18.0000 </r>
       <r>   -40.8115    -0.0842    17.9826 </r>
       <r>   -40.6050    -1.1247    17.7503 </r>
       <r>   -40.3984    35.1834    25.0175 </r>
       <r>   -40.1919    55.3189    36.4437 </r>
       <r>   -39.9853     8.1368    38.1244 </r>
       <r>   -39.7788    -0.5911    38.0023 </r>
       <r>   -39.5722    -0.0111    38.0000 </r>
       <r>   -39.3657    -0.0000    38.0000 </r>
       <r>   -39.1591    -0.0000    38.0000 </r>
       <r>   -38.9526     0.0000    38.0000 </r>
       <r>   -38.7460     0.0000    38.0000 </r>
       <r>   -38.5395     0.0000    38.0000 </r>
       <r>   -38.3329     0.0000    38.0000 </r>
       <r>   -38.1264     0.0000    38.0000 </r>
       <r>   -37.9198     0.0000    38.0000 </r>
       <r>   -37.7133     0.0000    38.0000 </r>
       <r>   -37.5067     0.0000    38.0000 </r>
       <r>   -37.3002     0.0000    38.0000 </r>
       <r>   -37.0936     0.0000    38.0000 </r>
       <r>   -36.8871     0.0000    38.0000 </r>
       <r>   -36.6805     0.0000    38.0000 </r>
       <r>   -36.4740     0.0000    38.0000 </r>
       <r>   -36.2674     0.0000    38.0000 </r>
       <r>   -36.0608     0.0000    38.0000 </r>
       <r>   -35.8543     0.0000    38.0000 </r>
       <r>   -35.6477     0.0000    38.0000 </r>
       <r>   -35.4412     0.0000    38.0000 </r>
       <r>   -35.2346     0.0000    38.0000 </r>
       <r>   -35.0281     0.0000    38.0000 </r>
       <r>   -34.8215     0.0000    38.0000 </r>
       <r>   -34.6150     0.0000    38.0000 </r>
       <r>   -34.4084     0.0000    38.0000 </r>
       <r>   -34.2019     0.0000    38.0000 </r>
       <r>   -33.9953     0.0000    38.0000 </r>
       <r>   -33.7888     0.0000    38.0000 </r>
       <r>   -33.5822     0.0000    38.0000 </r>
       <r>   -33.3757     0.0000    38.0000 </r>
       <r>   -33.1691     0.0000    38.0000 </r>
       <r>   -32.9626     0.0000    38.0000 </r>
       <r>   -32.7560     0.0000    38.0000 </r>
       <r>   -32.5495     0.0000    38.0000 </r>
       <r>   -32.3429     0.0000    38.0000 </r>
       <r>   -32.1364     0.0000    38.0000 </r>
       <r>   -31.9298     0.0000    38.0000 </r>
       <r>   -31.7233     0.0000    38.0000 </r>
       <r>   -31.5167     0.0000    38.0000 </r>
       <r>   -31.3102     0.0000    38.0000 </r>
       <r>   -31.1036     0.0000    38.0000 </r>
       <r>   -30.8971     0.0000    38.0000 </r>
       <r>   -30.6905     0.0000    38.0000 </r>
       <r>   -30.4839     0.0000    38.0000 </r>
       <r>   -30.2774     0.0000    38.0000 </r>
       <r>   -30.0708     0.0000    38.0000 </r>
       <r>   -29.8643     0.0000    38.0000 </r>
       <r>   -29.6577     0.0000    38.0000 </r>
       <r>   -29.4512     0.0000    38.0000 </r>
       <r>   -29.2446     0.0000    38.0000 </r>
       <r>   -29.0381     0.0000    38.0000 </r>
       <r>   -28.8315     0.0000    38.0000 </r>
       <r>   -28.6250     0.0000    38.0000 </r>
       <r>   -28.4184     0.0000    38.0000 </r>
       <r>   -28.2119     0.0000    38.0000 </r>
       <r>   -28.0053     0.0000    38.0000 </r>
       <r>   -27.7988     0.0000    38.0000 </r>
       <r>   -27.5922     0.0000    38.0000 </r>
       <r>   -27.3857     0.0000    38.0000 </r>
       <r>   -27.1791     0.0000    38.0000 </r>
       <r>   -26.9726     0.0000    38.0000 </r>
       <r>   -26.7660     0.0000    38.0000 </r>
       <r>   -26.5595     0.0000    38.0000 </r>
       <r>   -26.3529     0.0000    38.0000 </r>
       <r>   -26.1464     0.0000    38.0000 </r>
       <r>   -25.9398     0.0000    38.0000 </r>
       <r>   -25.7333     0.0000    38.0000 </r>
       <r>   -25.5267     0.0000    38.0000 </r>
       <r>   -25.3202     0.0000    38.0000 </r>
       <r>   -25.1136     0.0000    38.0000 </r>
       <r>   -24.9070     0.0000    38.0000 </r>
       <r>   -24.7005     0.0000    38.0000 </r>
       <r>   -24.4939     0.0000    38.0000 </r>
       <r>   -24.2874    -0.0000    38.0000 </r>
       <r>   -24.0808    -0.0000    38.0000 </r>
       <r>   -23.8743    -0.0000    38.0000 </r>
       <r>   -23.6677    -0.0000    38.0000 </r>
       <r>   -23.4612    -0.0000    38.0000 </r>
       <r>   -23.2546    -0.0246    37.9949 </r>
       <r>   -23.0481    -1.0386    37.7804 </r>
       <r>   -22.8415    18.6512    41.6328 </r>
       <r>   -22.6350    40.6024    50.0193 </r>
       <r>   -22.4284   111.0845    72.9640 </r>
       <r>   -22.2219    66.0052    86.5975 </r>
       <r>   -22.0153    26.9694    92.1681 </r>
       <r>   -21.8088    -0.7330    92.0167 </r>
       <r>   -21.6022    -0.0808    92.0000 </r>
       <r>   -21.3957    -0.0000    92.0000 </r>
       <r>   -21.1891    -0.0000    92.0000 </r>
       <r>   -20.9826     0.0000    92.0000 </r>
       <r>   -20.7760     0.0000    92.0000 </r>
       <r>   -20.5695     0.0000    92.0000 </r>
       <r>   -20.3629     0.0000    92.0000 </r>
       <r>   -20.1564    -0.0000    92.0000 </r>
       <r>   -19.9498    -0.0000    92.0000 </r>
       <r>   -19.7433    -0.0000    92.0000 </r>
       <r>   -19.5367    -0.0000    92.0000 </r>
       <r>   -19.3301    -0.0002    92.0000 </r>
       <r>   -19.1236    -0.1125    91.9767 </r>
       <r>   -18.9170    -0.4961    91.8742 </r>
       <r>   -18.7105    30.9157    98.2599 </r>
       <r>   -18.5039    82.4316   115.2863 </r>
       <r>   -18.2974   114.6018   138.9576 </r>
       <r>   -18.0908    63.6254   152.0995 </r>
       <r>   -17.8843    -0.2184   152.0544 </r>
       <r>   -17.6777    -0.2629   152.0001 </r>
       <r>   -17.4712    -0.0004   152.0000 </r>
       <r>   -17.2646    -0.0000   152.0000 </r>
       <r>   -17.0581    -0.0000   152.0000 </r>
       <r>   -16.8515     0.0000   152.0000 </r>
       <r>   -16.6450     0.0000   152.0000 </r>
       <r>   -16.4384     0.0000   152.0000 </r>
       <r>   -16.2319     0.0000   152.0000 </r>
       <r>   -16.0253     0.0000   152.0000 </r>
       <r>   -15.8188     0.0000   152.0000 </r>
       <r>   -15.6122     0.0000   152.0000 </r>
       <r>   -15.4057     0.0000   152.0000 </r>
       <r>   -15.1991     0.0000   152.0000 </r>
       <r>   -14.9926     0.0000   152.0000 </r>
       <r>   -14.7860     0.0000   152.0000 </r>
       <r>   -14.5795     0.0000   152.0000 </r>
       <r>   -14.3729     0.0000   152.0000 </r>
       <r>   -14.1664     0.0000   152.0000 </r>
       <r>   -13.9598     0.0000   152.0000 </r>
       <r>   -13.7533     0.0000   152.0000 </r>
       <r>   -13.5467     0.0000   152.0000 </r>
       <r>   -13.3401     0.0000   152.0000 </r>
       <r>   -13.1336     0.0000   152.0000 </r>
       <r>   -12.9270     0.0000   152.0000 </r>
       <r>   -12.7205     0.0000   152.0000 </r>
       <r>   -12.5139     0.0000   152.0000 </r>
       <r>   -12.3074     0.0000   152.0000 </r>
       <r>   -12.1008     0.0000   152.0000 </r>
       <r>   -11.8943     0.0000   152.0000 </r>
       <r>   -11.6877     0.0000   152.0000 </r>
       <r>   -11.4812     0.0000   152.0000 </r>
       <r>   -11.2746     0.0000   152.0000 </r>
       <r>   -11.0681     0.0000   152.0000 </r>
       <r>   -10.8615     0.0000   152.0000 </r>
       <r>   -10.6550     0.0000   152.0000 </r>
       <r>   -10.4484     0.0000   152.0000 </r>
       <r>   -10.2419     0.0000   152.0000 </r>
       <r>   -10.0353     0.0000   152.0000 </r>
       <r>    -9.8288     0.0000   152.0000 </r>
       <r>    -9.6222     0.0000   152.0000 </r>
       <r>    -9.4157     0.0000   152.0000 </r>
       <r>    -9.2091     0.0000   152.0000 </r>
       <r>    -9.0026     0.0000   152.0000 </r>
       <r>    -8.7960     0.0000   152.0000 </r>
       <r>    -8.5895     0.0000   152.0000 </r>
       <r>    -8.3829     0.0000   152.0000 </r>
       <r>    -8.1764     0.0000   152.0000 </r>
       <r>    -7.9698     0.0000   152.0000 </r>
       <r>    -7.7632     0.0000   152.0000 </r>
       <r>    -7.5567     0.0000   152.0000 </r>
       <r>    -7.3501     0.0000   152.0000 </r>
       <r>    -7.1436     0.0000   152.0000 </r>
       <r>    -6.9370     0.0000   152.0000 </r>
       <r>    -6.7305     0.0000   152.0000 </r>
       <r>    -6.5239     0.0000   152.0000 </r>
       <r>    -6.3174     0.0000   152.0000 </r>
       <r>    -6.1108     0.0000   152.0000 </r>
       <r>    -5.9043     0.0000   152.0000 </r>
       <r>    -5.6977     0.0000   152.0000 </r>
       <r>    -5.4912     0.0000   152.0000 </r>
       <r>    -5.2846     0.0000   152.0000 </r>
       <r>    -5.0781     0.0000   152.0000 </r>
       <r>    -4.8715     0.0000   152.0000 </r>
       <r>    -4.6650     0.0000   152.0000 </r>
       <r>    -4.4584     0.0000   152.0000 </r>
       <r>    -4.2519     0.0000   152.0000 </r>
       <r>    -4.0453     0.0000   152.0000 </r>
       <r>    -3.8388     0.0000   152.0000 </r>
       <r>    -3.6322     0.0000   152.0000 </r>
       <r>    -3.4257     0.0000   152.0000 </r>
       <r>    -3.2191     0.0000   152.0000 </r>
       <r>    -3.0126     0.0000   152.0000 </r>
       <r>    -2.8060     0.0000   152.0000 </r>
       <r>    -2.5995     0.0000   152.0000 </r>
       <r>    -2.3929     0.0000   152.0000 </r>
       <r>    -2.1863     0.0000   152.0000 </r>
       <r>    -1.9798     0.0000   152.0000 </r>
       <r>    -1.7732     0.0000   152.0000 </r>
       <r>    -1.5667     0.0000   152.0000 </r>
       <r>    -1.3601     0.0000   152.0000 </r>
       <r>    -1.1536     0.0000   152.0000 </r>
       <r>    -0.9470     0.0000   152.0000 </r>
       <r>    -0.7405     0.0000   152.0000 </r>
       <r>    -0.5339     0.0000   152.0000 </r>
       <r>    -0.3274     0.0000   152.0000 </r>
       <r>    -0.1208    -0.0000   152.0000 </r>
       <r>     0.0857    -0.0000   152.0000 </r>
       <r>     0.2923    -0.0000   152.0000 </r>
       <r>     0.4988    -0.0000   152.0000 </r>
       <r>     0.7054    -0.0000   152.0000 </r>
       <r>     0.9119    -0.0064   151.9987 </r>
       <r>     1.1185     0.0695   152.0130 </r>
       <r>     1.3250     0.5091   152.1182 </r>
       <r>     1.5316     1.4017   152.4077 </r>
       <r>     1.7381     1.8558   152.7910 </r>
       <r>     1.9447     2.6224   153.3327 </r>
       <r>     2.1512     4.3016   154.2212 </r>
       <r>     2.3578     2.2776   154.6916 </r>
       <r>     2.5643     4.3491   155.5900 </r>
       <r>     2.7709     4.0782   156.4323 </r>
       <r>     2.9774     3.9760   157.2536 </r>
       <r>     3.1840     5.5872   158.4076 </r>
       <r>     3.3906     7.4181   159.9399 </r>
       <r>     3.5971     8.5597   161.7079 </r>
       <r>     3.8037     8.0409   163.3687 </r>
       <r>     4.0102    10.2009   165.4758 </r>
       <r>     4.2168    14.9787   168.5696 </r>
       <r>     4.4233    19.8398   172.6676 </r>
       <r>     4.6299    21.9058   177.1923 </r>
       <r>     4.8364    28.1832   183.0135 </r>
       <r>     5.0430    34.3848   190.1158 </r>
       <r>     5.2495    39.0837   198.1886 </r>
       <r>     5.4561    41.6424   206.7899 </r>
       <r>     5.6626    37.7179   214.5806 </r>
       <r>     5.8692    34.6224   221.7319 </r>
       <r>     6.0757    34.0477   228.7646 </r>
       <r>     6.2823    20.5532   233.0099 </r>
       <r>     6.4888    35.4655   240.3353 </r>
       <r>     6.6954    57.6459   252.2422 </r>
       <r>     6.9019    60.2028   264.6772 </r>
       <r>     7.1085    57.0479   276.4606 </r>
       <r>     7.3150    52.4331   287.2907 </r>
       <r>     7.5216    55.2802   298.7089 </r>
       <r>     7.7281    52.9050   309.6366 </r>
       <r>     7.9347    46.7604   319.2950 </r>
       <r>     8.1412    51.2616   329.8832 </r>
       <r>     8.3478    47.0955   339.6109 </r>
       <r>     8.5543    37.5228   347.3613 </r>
       <r>     8.7609    29.5470   353.4643 </r>
       <r>     8.9675    23.6943   358.3584 </r>
       <r>     9.1740    18.5668   362.1934 </r>
       <r>     9.3806    12.7541   364.8278 </r>
       <r>     9.5871    22.6307   369.5022 </r>
       <r>     9.7937    24.1535   374.4911 </r>
       <r>    10.0002     7.7486   376.0916 </r>
       <r>    10.2068    -0.4325   376.0023 </r>
       <r>    10.4133    -0.0110   376.0000 </r>
       <r>    10.6199    -0.0000   376.0000 </r>
       <r>    10.8264    -0.0000   376.0000 </r>
       <r>    11.0330     0.0000   376.0000 </r>
       <r>    11.2395     0.0000   376.0000 </r>
       <r>    11.4461     0.0000   376.0000 </r>
       <r>    11.6526     0.0000   376.0000 </r>
       <r>    11.8592     0.0000   376.0000 </r>
       <r>    12.0657     0.0000   376.0000 </r>
       <r>    12.2723     0.0000   376.0000 </r>
       <r>    12.4788     0.0000   376.0000 </r>
       <r>    12.6854     0.0000   376.0000 </r>
      </set>
     </set>
    </array>
   </total>
  </dos>
 </calculation>
 <structure name="finalpos" >
  <crystal>
   <varray name="basis" >
    <v>       6.97291381       0.04214230       0.01103387 </v>
    <v>       0.06263468      10.21351610       0.00499762 </v>
    <v>       0.01675549       0.00470326      10.26844455 </v>
   </varray>
   <i name="volume">    731.26860042 </i>
   <varray name="rec_basis" >
    <v>       0.14341775      -0.00087940      -0.00023362 </v>
    <v>      -0.00059169       0.09791313      -0.00004388 </v>
    <v>      -0.00015382      -0.00004671       0.09738601 </v>
   </varray>
  </crystal>
  <varray name="positions" >
   <v>       0.26132754       0.18122337       0.17422034 </v>
   <v>       0.03814389       0.00432201       0.33193904 </v>
   <v>       0.02736771       0.99445398       0.67409308 </v>
   <v>       0.25576072       0.18349148       0.82371231 </v>
   <v>       0.51019732       0.34428036       0.34193538 </v>
   <v>       0.75931401       0.49576749       0.50147351 </v>
   <v>       0.49853730       0.32797205       0.64837976 </v>
   <v>       0.51700920       0.65980878       0.34332972 </v>
   <v>       0.00287620       0.33346290       0.00543606 </v>
   <v>       0.26037510       0.49321678       0.82866263 </v>
   <v>       0.97548655       0.66372267       0.99209160 </v>
   <v>       0.23805892       0.81058797       0.17529297 </v>
   <v>       0.76800805       0.16701695       0.49849566 </v>
   <v>       0.48032863       0.99610182       0.66815422 </v>
   <v>       0.76504872       0.84329270       0.18229626 </v>
   <v>       0.77434929       0.84242472       0.49714404 </v>
   <v>       0.23218246       0.50108571       0.50038220 </v>
   <v>       0.74601096       0.16805910       0.82802319 </v>
   <v>       0.02471689       0.00013421       0.99370986 </v>
   <v>       0.23133630       0.17986282       0.50192742 </v>
   <v>       0.25602316       0.50209845       0.17157539 </v>
   <v>       0.48567656       0.99749242       0.99200238 </v>
   <v>       0.74642579       0.16107240       0.17344196 </v>
   <v>       0.47082147       0.99268131       0.34159192 </v>
   <v>       0.73595059       0.48862274       0.82038254 </v>
   <v>       0.52176918       0.67521204       0.99672442 </v>
   <v>       0.49779098       0.67889428       0.65777150 </v>
   <v>       0.98759537       0.33980195       0.31973384 </v>
   <v>      -0.00219409       0.33315939       0.67540232 </v>
   <v>       0.97365243       0.65539214       0.33727260 </v>
   <v>       0.22509573       0.82483100       0.49880767 </v>
   <v>       0.23540159       0.82028231       0.82834420 </v>
   <v>       0.49215486       0.32531607       0.01053895 </v>
   <v>       0.73950001       0.49626776       0.17848099 </v>
   <v>       0.76973597       0.84392126       0.81514417 </v>
   <v>      -0.00182738       0.67466857       0.67207890 </v>
  </varray>
 </structure>
</modeling>
