<?xml version="1.0" encoding="ISO-8859-1"?>
<modeling>
 <generator>
  <i name="program" type="string">vasp </i>
  <i name="version" type="string">5.4.1  </i>
  <i name="subversion" type="string">05Feb16 (build Jan 29 2020 16:04:39) complex                          parallel </i>
  <i name="platform" type="string">IFC91_ompi </i>
  <i name="date" type="string">2020 06 15 </i>
  <i name="time" type="string">10:54:26 </i>
 </generator>
 <incar>
  <i type="string" name="SYSTEM"> automatically generated by mexm</i>
  <i type="int" name="ISTART">     0</i>
  <i type="string" name="PREC">accurate               ! avoid wrap aro</i>
  <i type="string" name="ALGO"> Fast                   ! blocked Davids</i>
  <i type="int" name="ISPIN">     1</i>
  <i type="int" name="ICHARG">     2</i>
  <i type="int" name="NELM">    70</i>
  <i type="int" name="IBRION">     2</i>
  <i name="EDIFF">      0.00001000</i>
  <i name="EDIFFG">     -0.01000000</i>
  <i type="int" name="NSW">   300</i>
  <i type="int" name="ISIF">     3</i>
  <i type="int" name="ISYM">     1</i>
  <i name="ENCUT">    300.00000000</i>
  <i name="POTIM">      0.15000000</i>
  <i type="string" name="LREAL"> Auto                  ! unpublished met</i>
  <i type="int" name="ISMEAR">     1</i>
  <i name="SIGMA">      0.15000000</i>
  <i type="logical" name="LWAVE"> F  </i>
  <i type="logical" name="LCHARG"> F  </i>
  <i type="logical" name="LVTOT"> F  </i>
  <v type="int" name="KPOINT_BSE">    -1     0     0     0</v>
  <i type="int" name="NELM">    70</i>
 </incar>
 <kpoints>
  <generation param="Gamma">
   <v type="int" name="divisions">       3        3        3 </v>
   <v name="usershift">      0.00000000       0.00000000       0.00000000 </v>
   <v name="genvec1">      0.33333333      -0.00000000       0.00000000 </v>
   <v name="genvec2">     -0.00000000       0.33333333       0.00000000 </v>
   <v name="genvec3">      0.00000000      -0.00000000       0.33333333 </v>
   <v name="shift">      0.00000000       0.00000000       0.00000000 </v>
  </generation>
  <varray name="kpointlist" >
   <v>       0.00000000       0.00000000       0.00000000 </v>
   <v>       0.33333333       0.00000000      -0.00000000 </v>
   <v>      -0.00000000       0.33333333      -0.00000000 </v>
   <v>       0.33333333       0.33333333      -0.00000000 </v>
   <v>      -0.33333333       0.33333333       0.00000000 </v>
   <v>      -0.00000000       0.00000000       0.33333333 </v>
   <v>       0.33333333       0.00000000       0.33333333 </v>
   <v>      -0.33333333      -0.00000000       0.33333333 </v>
   <v>      -0.00000000       0.33333333       0.33333333 </v>
   <v>       0.33333333       0.33333333       0.33333333 </v>
   <v>      -0.33333333       0.33333333       0.33333333 </v>
   <v>      -0.00000000      -0.33333333       0.33333333 </v>
   <v>       0.33333333      -0.33333333       0.33333333 </v>
   <v>      -0.33333333      -0.33333333       0.33333333 </v>
  </varray>
  <varray name="weights" >
   <v>       0.03703704 </v>
   <v>       0.07407407 </v>
   <v>       0.07407407 </v>
   <v>       0.07407407 </v>
   <v>       0.07407407 </v>
   <v>       0.07407407 </v>
   <v>       0.07407407 </v>
   <v>       0.07407407 </v>
   <v>       0.07407407 </v>
   <v>       0.07407407 </v>
   <v>       0.07407407 </v>
   <v>       0.07407407 </v>
   <v>       0.07407407 </v>
   <v>       0.07407407 </v>
  </varray>
 </kpoints>
 <parameters>
  <separator name="general" >
   <i type="string" name="SYSTEM">automatically generated by mexm</i>
   <i type="logical" name="LCOMPAT"> F  </i>
  </separator>
  <separator name="electronic" >
   <i type="string" name="PREC">accura</i>
   <i name="ENMAX">    300.00000000</i>
   <i name="ENAUG">    461.25700000</i>
   <i name="EDIFF">      0.00001000</i>
   <i type="int" name="IALGO">    68</i>
   <i type="int" name="IWAVPR">    11</i>
   <i type="int" name="NBANDS">   184</i>
   <i name="NELECT">    307.00000000</i>
   <i type="int" name="TURBO">     0</i>
   <i type="int" name="IRESTART">     0</i>
   <i type="int" name="NREBOOT">     0</i>
   <i type="int" name="NMIN">     0</i>
   <i name="EREF">      0.00000000</i>
   <separator name="electronic smearing" >
    <i type="int" name="ISMEAR">     1</i>
    <i name="SIGMA">      0.15000000</i>
    <i name="KSPACING">      0.50000000</i>
    <i type="logical" name="KGAMMA"> T  </i>
   </separator>
   <separator name="electronic projectors" >
    <i type="logical" name="LREAL"> T  </i>
    <v name="ROPT">     -0.00025000     -0.00025000     -0.00025000     -0.00025000</v>
    <i type="int" name="LMAXPAW">  -100</i>
    <i type="int" name="LMAXMIX">     2</i>
    <i type="logical" name="NLSPLINE"> F  </i>
   </separator>
   <separator name="electronic startup" >
    <i type="int" name="ISTART">     0</i>
    <i type="int" name="ICHARG">     2</i>
    <i type="int" name="INIWAV">     1</i>
   </separator>
   <separator name="electronic spin" >
    <i type="int" name="ISPIN">     1</i>
    <i type="logical" name="LNONCOLLINEAR"> F  </i>
    <v name="MAGMOM">      1.00000000      1.00000000      1.00000000      1.00000000      1.00000000      1.00000000      1.00000000      1.00000000      1.00000000      1.00000000      1.00000000      1.00000000      1.00000000      1.00000000      1.00000000      1.00000000      1.00000000      1.00000000      1.00000000      1.00000000
      1.00000000      1.00000000      1.00000000      1.00000000      1.00000000      1.00000000      1.00000000      1.00000000      1.00000000      1.00000000      1.00000000      1.00000000      1.00000000      1.00000000      1.00000000      1.00000000</v>
    <i name="NUPDOWN">     -1.00000000</i>
    <i type="logical" name="LSORBIT"> F  </i>
    <v name="SAXIS">      0.00000000      0.00000000      1.00000000</v>
    <i type="logical" name="LSPIRAL"> F  </i>
    <v name="QSPIRAL">      0.00000000      0.00000000      0.00000000</v>
    <i type="logical" name="LZEROZ"> F  </i>
   </separator>
   <separator name="electronic exchange-correlation" >
    <i type="logical" name="LASPH"> F  </i>
    <i type="logical" name="LMETAGGA"> F  </i>
   </separator>
   <separator name="electronic convergence" >
    <i type="int" name="NELM">    70</i>
    <i type="int" name="NELMDL">    -5</i>
    <i type="int" name="NELMIN">     2</i>
    <i name="ENINI">    300.00000000</i>
    <separator name="electronic convergence detail" >
     <i type="logical" name="LDIAG"> T  </i>
     <i type="logical" name="LSUBROT"> F  </i>
     <i name="WEIMIN">      0.00100000</i>
     <i name="EBREAK">      0.00000001</i>
     <i name="DEPER">      0.30000000</i>
     <i type="int" name="NRMM">     4</i>
     <i name="TIME">      0.40000000</i>
    </separator>
   </separator>
   <separator name="electronic mixer" >
    <i name="AMIX">      0.40000000</i>
    <i name="BMIX">      1.00000000</i>
    <i name="AMIN">      0.10000000</i>
    <i name="AMIX_MAG">      1.60000000</i>
    <i name="BMIX_MAG">      1.00000000</i>
    <separator name="electronic mixer details" >
     <i type="int" name="IMIX">     4</i>
     <i type="logical" name="MIXFIRST"> F  </i>
     <i type="int" name="MAXMIX">   -45</i>
     <i name="WC">    100.00000000</i>
     <i type="int" name="INIMIX">     1</i>
     <i type="int" name="MIXPRE">     1</i>
     <i type="int" name="MREMOVE">     5</i>
    </separator>
   </separator>
   <separator name="electronic dipolcorrection" >
    <i type="logical" name="LDIPOL"> F  </i>
    <i type="logical" name="LMONO"> F  </i>
    <i type="int" name="IDIPOL">     0</i>
    <i name="EPSILON">      1.00000000</i>
    <v name="DIPOL">   -100.00000000   -100.00000000   -100.00000000</v>
    <i name="EFIELD">      0.00000000</i>
   </separator>
  </separator>
  <separator name="grids" >
   <i type="int" name="NGX">    40</i>
   <i type="int" name="NGY">    60</i>
   <i type="int" name="NGZ">    60</i>
   <i type="int" name="NGXF">    80</i>
   <i type="int" name="NGYF">   120</i>
   <i type="int" name="NGZF">   120</i>
   <i type="logical" name="ADDGRID"> F  </i>
  </separator>
  <separator name="ionic" >
   <i type="int" name="NSW">   300</i>
   <i type="int" name="IBRION">     2</i>
   <i type="int" name="ISIF">     3</i>
   <i name="PSTRESS">      0.00000000</i>
   <i name="EDIFFG">     -0.01000000</i>
   <i type="int" name="NFREE">     1</i>
   <i name="POTIM">      0.15000000</i>
   <i name="SMASS">     -3.00000000</i>
   <i name="SCALEE">      1.00000000</i>
  </separator>
  <separator name="ionic md" >
   <i name="TEBEG">      0.00010000</i>
   <i name="TEEND">      0.00010000</i>
   <i type="int" name="NBLOCK">     1</i>
   <i type="int" name="KBLOCK">   300</i>
   <i type="int" name="NPACO">   256</i>
   <i name="APACO">     16.00000000</i>
  </separator>
  <separator name="symmetry" >
   <i type="int" name="ISYM">     1</i>
   <i name="SYMPREC">      0.00001000</i>
  </separator>
  <separator name="dos" >
   <i type="logical" name="LORBIT"> F  </i>
   <v name="RWIGS">     -1.00000000     -1.00000000     -1.00000000     -1.00000000</v>
   <i type="int" name="NEDOS">   301</i>
   <i name="EMIN">     10.00000000</i>
   <i name="EMAX">    -10.00000000</i>
   <i name="EFERMI">      0.00000000</i>
  </separator>
  <separator name="writing" >
   <i type="int" name="NWRITE">     2</i>
   <i type="logical" name="LWAVE"> F  </i>
   <i type="logical" name="LCHARG"> F  </i>
   <i type="logical" name="LPARD"> F  </i>
   <i type="logical" name="LVTOT"> F  </i>
   <i type="logical" name="LVHAR"> F  </i>
   <i type="logical" name="LELF"> F  </i>
   <i type="logical" name="LOPTICS"> F  </i>
   <v name="STM">      0.00000000      0.00000000      0.00000000      0.00000000      0.00000000      0.00000000      0.00000000</v>
  </separator>
  <separator name="performance" >
   <i type="int" name="NPAR">     4</i>
   <i type="int" name="NSIM">     4</i>
   <i type="int" name="NBLK">    -1</i>
   <i type="logical" name="LPLANE"> T  </i>
   <i type="logical" name="LSCALAPACK"> T  </i>
   <i type="logical" name="LSCAAWARE"> F  </i>
   <i type="logical" name="LSCALU"> F  </i>
   <i type="logical" name="LASYNC"> F  </i>
   <i type="logical" name="LORBITALREAL"> F  </i>
  </separator>
  <separator name="miscellaneous" >
   <i type="int" name="IDIOT">     3</i>
   <i type="logical" name="LMUSIC"> F  </i>
   <v name="POMASS">    180.94800000    178.49000000     92.91000000     91.22400000</v>
   <v name="DARWINR">      0.00000000      0.00000000      0.00000000      0.00000000</v>
   <v name="DARWINV">      1.00000000      1.00000000      1.00000000      1.00000000</v>
   <i type="logical" name="LCORR"> T  </i>
  </separator>
  <i type="logical" name="GGA_COMPAT"> T  </i>
  <i type="logical" name="LBERRY"> F  </i>
  <i type="int" name="ICORELEVEL">     0</i>
  <i type="logical" name="LDAU"> F  </i>
  <i type="int" name="I_CONSTRAINED_M">     0</i>
  <separator name="electronic exchange-correlation" >
   <i type="string" name="GGA">--</i>
   <i type="int" name="VOSKOWN">     0</i>
   <i type="logical" name="LHFCALC"> F  </i>
   <i type="string" name="PRECFOCK"></i>
   <i type="logical" name="LSYMGRAD"> F  </i>
   <i type="logical" name="LHFONE"> F  </i>
   <i type="logical" name="LRHFCALC"> F  </i>
   <i type="logical" name="LTHOMAS"> F  </i>
   <i type="logical" name="LMODELHF"> F  </i>
   <i name="ENCUT4O">     -1.00000000</i>
   <i type="int" name="EXXOEP">     0</i>
   <i type="int" name="FOURORBIT">     0</i>
   <i name="AEXX">      0.00000000</i>
   <i name="HFALPHA">      0.00000000</i>
   <i name="MCALPHA">      0.00000000</i>
   <i name="ALDAX">      1.00000000</i>
   <i name="AGGAX">      1.00000000</i>
   <i name="ALDAC">      1.00000000</i>
   <i name="AGGAC">      1.00000000</i>
   <i type="int" name="NKREDX">     1</i>
   <i type="int" name="NKREDY">     1</i>
   <i type="int" name="NKREDZ">     1</i>
   <i type="logical" name="SHIFTRED"> F  </i>
   <i type="logical" name="ODDONLY"> F  </i>
   <i type="logical" name="EVENONLY"> F  </i>
   <i type="int" name="LMAXFOCK">     0</i>
   <i type="int" name="NMAXFOCKAE">     0</i>
   <i type="logical" name="LFOCKAEDFT"> F  </i>
   <i name="HFSCREEN">      0.00000000</i>
   <i name="HFSCREENC">      0.00000000</i>
   <i type="int" name="NBANDSGWLOW">     0</i>
  </separator>
  <separator name="vdW DFT" >
   <i type="logical" name="LUSE_VDW"> F  </i>
   <i name="Zab_VDW">     -0.84910000</i>
   <i name="PARAM1">      0.12340000</i>
   <i name="PARAM2">      1.00000000</i>
   <i name="PARAM3">      0.00000000</i>
  </separator>
  <separator name="model GW" >
   <i type="int" name="MODEL_GW">     0</i>
   <i name="MODEL_EPS0">     11.94002438</i>
   <i name="MODEL_ALPHA">      1.00000000</i>
  </separator>
  <separator name="linear response parameters" >
   <i type="logical" name="LEPSILON"> F  </i>
   <i type="logical" name="LRPA"> F  </i>
   <i type="logical" name="LNABLA"> F  </i>
   <i type="logical" name="LVEL"> F  </i>
   <i type="int" name="KINTER">     0</i>
   <i name="CSHIFT">      0.10000000</i>
   <i name="OMEGAMAX">     -1.00000000</i>
   <i name="DEG_THRESHOLD">      0.00200000</i>
  </separator>
  <separator name="orbital magnetization" >
   <i type="logical" name="NUCIND"> F  </i>
   <v name="MAGPOS">      0.00000000      0.00000000      0.00000000</v>
   <i type="logical" name="LNICSALL"> T  </i>
   <i type="logical" name="ORBITALMAG"> F  </i>
   <i type="logical" name="LMAGBLOCH"> F  </i>
   <i type="logical" name="LCHIMAG"> F  </i>
   <i type="logical" name="LGAUGE"> T  </i>
   <i type="int" name="MAGATOM">     0</i>
   <v name="MAGDIPOL">      0.00000000      0.00000000      0.00000000</v>
   <v name="AVECCONST">      0.00000000      0.00000000      0.00000000</v>
  </separator>
  <separator name="response functions" >
   <i type="logical" name="LADDER"> F  </i>
   <i type="logical" name="LFXC"> F  </i>
   <i type="logical" name="LHARTREE"> T  </i>
   <i type="int" name="IBSE">     0</i>
   <v type="int" name="KPOINT">    -1     0     0     0</v>
   <i type="logical" name="LTCTE"> F  </i>
   <i type="logical" name="LTETE"> F  </i>
   <i type="logical" name="LTRIPLET"> F  </i>
   <i type="logical" name="LFXCEPS"> F  </i>
   <i type="logical" name="LFXHEG"> F  </i>
   <i type="int" name="NATURALO">     0</i>
   <i type="logical" name="L2ORDER"> F  </i>
   <i type="logical" name="LUSEW"> F  </i>
   <i name="ENCUTGW">     -2.00000000</i>
   <i name="ENCUTGWSOFT">     -2.00000000</i>
   <i name="ENCUTLF">     -1.00000000</i>
   <i type="int" name="LMAXMP2">    -1</i>
   <i name="SCISSOR">      0.00000000</i>
   <i type="int" name="NOMEGA">     0</i>
   <i type="int" name="NOMEGAR">     0</i>
   <i type="int" name="NBANDSGW">    -1</i>
   <i type="int" name="NBANDSO">    -1</i>
   <i type="int" name="NBANDSV">    -1</i>
   <i type="int" name="NELM">    70</i>
   <i type="int" name="NELMHF">     1</i>
   <i type="int" name="DIM">     3</i>
   <i type="int" name="ANTIRES">     0</i>
   <i name="OMEGAMAX">    -30.00000000</i>
   <i name="OMEGAMIN">    -30.00000000</i>
   <i name="OMEGATL">   -200.00000000</i>
   <i type="int" name="OMEGAGRID">     0</i>
   <i name="CSHIFT">     -0.10000000</i>
   <i type="logical" name="SELFENERGY"> F  </i>
   <i type="logical" name="LSPECTRAL"> F  </i>
   <i type="logical" name="LSPECTRALGW"> F  </i>
   <i type="logical" name="LSINGLES"> F  </i>
   <i type="logical" name="LFERMIGW"> F  </i>
   <i type="logical" name="ODDONLYGW"> F  </i>
   <i type="logical" name="EVENONLYGW"> F  </i>
   <i type="int" name="NKREDLFX">     1</i>
   <i type="int" name="NKREDLFY">     1</i>
   <i type="int" name="NKREDLFZ">     1</i>
   <i type="int" name="MAXMEM">  1800</i>
   <i type="int" name="TELESCOPE">     0</i>
   <i type="int" name="TAUPAR">     1</i>
   <i type="int" name="OMEGAPAR">    -1</i>
   <i name="LAMBDA">      1.00000000</i>
  </separator>
  <separator name="External order field" >
   <i name="OFIELD_KAPPA">      0.00000000</i>
   <v name="OFIELD_K">      0.00000000      0.00000000      0.00000000</v>
   <i name="OFIELD_Q6_NEAR">      0.00000000</i>
   <i name="OFIELD_Q6_FAR">      0.00000000</i>
   <i name="OFIELD_A">      0.00000000</i>
  </separator>
 </parameters>
 <atominfo>
  <atoms>      36 </atoms>
  <types>       4 </types>
  <array name="atoms" >
   <dimension dim="1">ion</dimension>
   <field type="string">element</field>
   <field type="int">atomtype</field>
   <set>
    <rc><c>Ta</c><c>   1</c></rc>
    <rc><c>Ta</c><c>   1</c></rc>
    <rc><c>Ta</c><c>   1</c></rc>
    <rc><c>Ta</c><c>   1</c></rc>
    <rc><c>Ta</c><c>   1</c></rc>
    <rc><c>Ta</c><c>   1</c></rc>
    <rc><c>Ta</c><c>   1</c></rc>
    <rc><c>Ta</c><c>   1</c></rc>
    <rc><c>Ta</c><c>   1</c></rc>
    <rc><c>Hf</c><c>   2</c></rc>
    <rc><c>Hf</c><c>   2</c></rc>
    <rc><c>Hf</c><c>   2</c></rc>
    <rc><c>Hf</c><c>   2</c></rc>
    <rc><c>Hf</c><c>   2</c></rc>
    <rc><c>Hf</c><c>   2</c></rc>
    <rc><c>Hf</c><c>   2</c></rc>
    <rc><c>Hf</c><c>   2</c></rc>
    <rc><c>Hf</c><c>   2</c></rc>
    <rc><c>Nb</c><c>   3</c></rc>
    <rc><c>Nb</c><c>   3</c></rc>
    <rc><c>Nb</c><c>   3</c></rc>
    <rc><c>Nb</c><c>   3</c></rc>
    <rc><c>Nb</c><c>   3</c></rc>
    <rc><c>Nb</c><c>   3</c></rc>
    <rc><c>Nb</c><c>   3</c></rc>
    <rc><c>Nb</c><c>   3</c></rc>
    <rc><c>Nb</c><c>   3</c></rc>
    <rc><c>Nb</c><c>   3</c></rc>
    <rc><c>Zr</c><c>   4</c></rc>
    <rc><c>Zr</c><c>   4</c></rc>
    <rc><c>Zr</c><c>   4</c></rc>
    <rc><c>Zr</c><c>   4</c></rc>
    <rc><c>Zr</c><c>   4</c></rc>
    <rc><c>Zr</c><c>   4</c></rc>
    <rc><c>Zr</c><c>   4</c></rc>
    <rc><c>Zr</c><c>   4</c></rc>
   </set>
  </array>
  <array name="atomtypes" >
   <dimension dim="1">type</dimension>
   <field type="int">atomspertype</field>
   <field type="string">element</field>
   <field>mass</field>
   <field>valence</field>
   <field type="string">pseudopotential</field>
   <set>
    <rc><c>   9</c><c>Ta</c><c>    180.94800000</c><c>      5.00000000</c><c>  PAW_PBE Ta 17Jan2003                  </c></rc>
    <rc><c>   9</c><c>Hf</c><c>    178.49000000</c><c>      4.00000000</c><c>  PAW_PBE Hf 20Jan2003                  </c></rc>
    <rc><c>  10</c><c>Nb</c><c>     92.91000000</c><c>     13.00000000</c><c>  PAW_PBE Nb_sv 25May2007               </c></rc>
    <rc><c>   8</c><c>Zr</c><c>     91.22400000</c><c>     12.00000000</c><c>  PAW_PBE Zr_sv 04Jan2005               </c></rc>
   </set>
  </array>
 </atominfo>
 <structure name="initialpos" >
  <crystal>
   <varray name="basis" >
    <v>       6.88170287      -0.01424661       0.04121841 </v>
    <v>      -0.02080624      10.26550301      -0.02078130 </v>
    <v>       0.05993454      -0.02160437      10.14143376 </v>
   </varray>
   <i name="volume">    716.40146280 </i>
   <varray name="rec_basis" >
    <v>       0.14531862       0.00029280      -0.00085819 </v>
    <v>       0.00020043       0.09741446       0.00020634 </v>
    <v>      -0.00059022       0.00019843       0.09860930 </v>
   </varray>
  </crystal>
  <varray name="positions" >
   <v>       0.26174400       0.50779200       0.17173600 </v>
   <v>       0.73707400       0.49731000       0.83481200 </v>
   <v>       0.73161000       0.50007400       0.17029600 </v>
   <v>       0.03422400       0.99416100       0.67206200 </v>
   <v>       0.50536500       0.66674400       0.33796000 </v>
   <v>       0.75042800       0.50644500       0.49368000 </v>
   <v>       0.99049300       0.66749600       0.32530300 </v>
   <v>       0.49323000       0.65175500       0.66070600 </v>
   <v>       0.51964800       0.00410900       0.99977400 </v>
   <v>       0.26468100       0.50453800       0.83892100 </v>
   <v>       0.22668100       0.17063600       0.48535900 </v>
   <v>       0.00818200       0.34219000       0.99958300 </v>
   <v>       0.98662200       0.66011200       0.00732700 </v>
   <v>       0.26660700       0.82967900       0.16612000 </v>
   <v>       0.47136400       0.00793100       0.65746600 </v>
   <v>       0.75472500       0.82952800       0.50542700 </v>
   <v>       0.01308300       0.65746800       0.67157000 </v>
   <v>       0.27446200       0.82735100       0.84546500 </v>
   <v>       0.52009000       0.65828000       0.00536800 </v>
   <v>       0.99583500       0.97956500       0.32669100 </v>
   <v>       0.49873300       0.98693900       0.34571900 </v>
   <v>       0.73701400       0.83248700       0.17861500 </v>
   <v>       0.50450800       0.34751500       0.33417600 </v>
   <v>       0.98607400       0.35194600       0.31220800 </v>
   <v>       0.00470500       0.34666200       0.68345300 </v>
   <v>       0.24561200       0.83114300       0.49067300 </v>
   <v>       0.48902500       0.33867900       0.99349000 </v>
   <v>       0.25317300       0.16654800       0.83907200 </v>
   <v>       0.25740700       0.16746700       0.17407900 </v>
   <v>       0.98610700       0.99878800       0.00083600 </v>
   <v>       0.76976300       0.16557600       0.49756200 </v>
   <v>       0.75555800       0.17123400       0.82503300 </v>
   <v>       0.73342400       0.17143200       0.17420600 </v>
   <v>       0.49311300       0.33608100       0.66541800 </v>
   <v>       0.73978500       0.83226100       0.82143800 </v>
   <v>       0.23984300       0.49208400       0.48839500 </v>
  </varray>
 </structure>
 <calculation>
  <scstep>
   <time name="dav">    1.21    1.23</time>
   <time name="total">    1.27    1.60</time>
   <energy>
    <i name="alphaZ">   1617.00988715 </i>
    <i name="ewald"> -21033.59137853 </i>
    <i name="hartreedc">  -7503.32339060 </i>
    <i name="XCdc">   -109.34889135 </i>
    <i name="pawpsdc">  23185.92688583 </i>
    <i name="pawaedc"> -21649.12470791 </i>
    <i name="eentropy">     -0.00559768 </i>
    <i name="bandstr">   -151.76724926 </i>
    <i name="atom">  27683.43937672 </i>
    <i name="e_fr_energy">   2039.21493436 </i>
    <i name="e_wo_entrp">   2039.22053205 </i>
    <i name="e_0_energy">   2039.21680026 </i>
   </energy>
  </scstep>
  <scstep>
   <time name="dav">    1.07    1.10</time>
   <time name="total">    1.07    1.26</time>
   <energy>
    <i name="e_fr_energy">    -80.05009711 </i>
    <i name="e_wo_entrp">    -80.05212304 </i>
    <i name="e_0_energy">    -80.05077242 </i>
   </energy>
  </scstep>
  <scstep>
   <time name="dav">    1.55    1.68</time>
   <time name="total">    1.55    1.72</time>
   <energy>
    <i name="e_fr_energy">   -343.82685670 </i>
    <i name="e_wo_entrp">   -343.82683986 </i>
    <i name="e_0_energy">   -343.82685109 </i>
   </energy>
  </scstep>
  <scstep>
   <time name="dav">    1.52    1.55</time>
   <time name="total">    1.52    1.58</time>
   <energy>
    <i name="e_fr_energy">   -374.47768557 </i>
    <i name="e_wo_entrp">   -374.48752592 </i>
    <i name="e_0_energy">   -374.48096568 </i>
   </energy>
  </scstep>
  <scstep>
   <time name="dav">    1.50    1.51</time>
   <time name="total">    1.53    1.59</time>
   <energy>
    <i name="e_fr_energy">   -377.56734576 </i>
    <i name="e_wo_entrp">   -377.57857154 </i>
    <i name="e_0_energy">   -377.57108769 </i>
   </energy>
  </scstep>
  <scstep>
   <time name="diag">    0.11    0.11</time>
   <time name="diis">    0.83    0.87</time>
   <time name="orth">    0.01    0.01</time>
   <time name="total">    1.02    1.11</time>
   <energy>
    <i name="e_fr_energy">   -367.39559872 </i>
    <i name="e_wo_entrp">   -367.40354872 </i>
    <i name="e_0_energy">   -367.39824872 </i>
   </energy>
  </scstep>
  <scstep>
   <time name="diag">    0.10    0.10</time>
   <time name="diis">    0.79    0.83</time>
   <time name="orth">    0.01    0.01</time>
   <time name="total">    0.96    1.04</time>
   <energy>
    <i name="e_fr_energy">   -370.67521066 </i>
    <i name="e_wo_entrp">   -370.67377242 </i>
    <i name="e_0_energy">   -370.67473124 </i>
   </energy>
  </scstep>
  <scstep>
   <time name="diag">    0.14    0.15</time>
   <time name="diis">    0.81    0.82</time>
   <time name="orth">    0.02    0.02</time>
   <time name="total">    1.08    1.13</time>
   <energy>
    <i name="e_fr_energy">   -363.25406643 </i>
    <i name="e_wo_entrp">   -363.27420892 </i>
    <i name="e_0_energy">   -363.26078059 </i>
   </energy>
  </scstep>
  <scstep>
   <time name="diag">    0.11    0.11</time>
   <time name="diis">    0.85    0.86</time>
   <time name="orth">    0.01    0.01</time>
   <time name="total">    1.03    1.09</time>
   <energy>
    <i name="e_fr_energy">   -362.91628423 </i>
    <i name="e_wo_entrp">   -362.92984215 </i>
    <i name="e_0_energy">   -362.92080354 </i>
   </energy>
  </scstep>
  <scstep>
   <time name="diag">    0.09    0.09</time>
   <time name="diis">    0.90    0.94</time>
   <time name="orth">    0.01    0.01</time>
   <time name="total">    1.08    1.16</time>
   <energy>
    <i name="e_fr_energy">   -362.88537418 </i>
    <i name="e_wo_entrp">   -362.89997228 </i>
    <i name="e_0_energy">   -362.89024021 </i>
   </energy>
  </scstep>
  <scstep>
   <time name="diag">    0.17    0.17</time>
   <time name="diis">    0.69    0.86</time>
   <time name="orth">    0.01    0.01</time>
   <time name="total">    1.09    1.32</time>
   <energy>
    <i name="e_fr_energy">   -362.85308154 </i>
    <i name="e_wo_entrp">   -362.86923338 </i>
    <i name="e_0_energy">   -362.85846549 </i>
   </energy>
  </scstep>
  <scstep>
   <time name="diag">    0.49    0.50</time>
   <time name="diis">    1.22    1.26</time>
   <time name="orth">    0.02    0.02</time>
   <time name="total">    1.89    1.99</time>
   <energy>
    <i name="e_fr_energy">   -362.84572646 </i>
    <i name="e_wo_entrp">   -362.86092778 </i>
    <i name="e_0_energy">   -362.85079356 </i>
   </energy>
  </scstep>
  <scstep>
   <time name="diag">    0.08    0.09</time>
   <time name="diis">    0.85    0.88</time>
   <time name="orth">    0.01    0.01</time>
   <time name="total">    1.02    1.10</time>
   <energy>
    <i name="e_fr_energy">   -362.84326431 </i>
    <i name="e_wo_entrp">   -362.85867694 </i>
    <i name="e_0_energy">   -362.84840185 </i>
   </energy>
  </scstep>
  <scstep>
   <time name="diag">    0.09    0.09</time>
   <time name="diis">    0.93    0.95</time>
   <time name="orth">    0.02    0.02</time>
   <time name="total">    1.17    1.26</time>
   <energy>
    <i name="e_fr_energy">   -362.84319463 </i>
    <i name="e_wo_entrp">   -362.85887728 </i>
    <i name="e_0_energy">   -362.84842218 </i>
   </energy>
  </scstep>
  <scstep>
   <time name="diag">    0.09    0.10</time>
   <time name="diis">    0.85    0.89</time>
   <time name="orth">    0.01    0.01</time>
   <time name="total">    1.06    1.15</time>
   <energy>
    <i name="e_fr_energy">   -362.84343113 </i>
    <i name="e_wo_entrp">   -362.85888300 </i>
    <i name="e_0_energy">   -362.84858175 </i>
   </energy>
  </scstep>
  <scstep>
   <time name="diag">    0.11    0.11</time>
   <time name="diis">    0.90    0.93</time>
   <time name="orth">    0.01    0.01</time>
   <time name="total">    1.09    1.17</time>
   <energy>
    <i name="e_fr_energy">   -362.84349445 </i>
    <i name="e_wo_entrp">   -362.85905719 </i>
    <i name="e_0_energy">   -362.84868203 </i>
   </energy>
  </scstep>
  <scstep>
   <time name="diag">    0.09    0.10</time>
   <time name="diis">    0.66    0.69</time>
   <time name="orth">    0.01    0.01</time>
   <time name="total">    0.83    0.92</time>
   <energy>
    <i name="e_fr_energy">   -362.84352083 </i>
    <i name="e_wo_entrp">   -362.85908100 </i>
    <i name="e_0_energy">   -362.84870755 </i>
   </energy>
  </scstep>
  <scstep>
   <time name="diag">    0.10    0.10</time>
   <time name="diis">    0.69    0.72</time>
   <time name="orth">    0.01    0.01</time>
   <time name="total">    0.87    0.94</time>
   <energy>
    <i name="e_fr_energy">   -362.84353619 </i>
    <i name="e_wo_entrp">   -362.85909968 </i>
    <i name="e_0_energy">   -362.84872402 </i>
   </energy>
  </scstep>
  <scstep>
   <time name="diag">    0.08    0.09</time>
   <time name="diis">    0.53    0.56</time>
   <time name="orth">    0.01    0.01</time>
   <time name="total">    0.93    1.01</time>
   <energy>
    <i name="e_fr_energy">   -362.84354504 </i>
    <i name="e_wo_entrp">   -362.85912409 </i>
    <i name="e_0_energy">   -362.84873806 </i>
   </energy>
  </scstep>
  <scstep>
   <time name="diag">    0.09    0.09</time>
   <time name="diis">    0.49    0.50</time>
   <time name="orth">    0.01    0.01</time>
   <time name="total">    0.62    0.68</time>
   <energy>
    <i name="alphaZ">   1617.00988715 </i>
    <i name="ewald"> -21033.59137853 </i>
    <i name="hartreedc">  -7248.88497744 </i>
    <i name="XCdc">   -111.32392314 </i>
    <i name="pawpsdc">  35952.01593142 </i>
    <i name="pawaedc"> -34391.23648249 </i>
    <i name="eentropy">      0.01557410 </i>
    <i name="bandstr">  -2830.28755560 </i>
    <i name="atom">  27683.43937672 </i>
    <i name="e_fr_energy">   -362.84354782 </i>
    <i name="e_wo_entrp">   -362.85912192 </i>
    <i name="e_0_energy">   -362.84873919 </i>
   </energy>
  </scstep>
  <structure>
   <crystal>
    <varray name="basis" >
     <v>       6.88170287      -0.01424661       0.04121841 </v>
     <v>      -0.02080624      10.26550301      -0.02078130 </v>
     <v>       0.05993454      -0.02160437      10.14143376 </v>
    </varray>
    <i name="volume">    716.40146280 </i>
    <varray name="rec_basis" >
     <v>       0.14531862       0.00029280      -0.00085819 </v>
     <v>       0.00020043       0.09741446       0.00020634 </v>
     <v>      -0.00059022       0.00019843       0.09860930 </v>
    </varray>
   </crystal>
   <varray name="positions" >
    <v>       0.26174400       0.50779200       0.17173600 </v>
    <v>       0.73707400       0.49731000       0.83481200 </v>
    <v>       0.73161000       0.50007400       0.17029600 </v>
    <v>       0.03422400       0.99416100       0.67206200 </v>
    <v>       0.50536500       0.66674400       0.33796000 </v>
    <v>       0.75042800       0.50644500       0.49368000 </v>
    <v>       0.99049300       0.66749600       0.32530300 </v>
    <v>       0.49323000       0.65175500       0.66070600 </v>
    <v>       0.51964800       0.00410900       0.99977400 </v>
    <v>       0.26468100       0.50453800       0.83892100 </v>
    <v>       0.22668100       0.17063600       0.48535900 </v>
    <v>       0.00818200       0.34219000       0.99958300 </v>
    <v>       0.98662200       0.66011200       0.00732700 </v>
    <v>       0.26660700       0.82967900       0.16612000 </v>
    <v>       0.47136400       0.00793100       0.65746600 </v>
    <v>       0.75472500       0.82952800       0.50542700 </v>
    <v>       0.01308300       0.65746800       0.67157000 </v>
    <v>       0.27446200       0.82735100       0.84546500 </v>
    <v>       0.52009000       0.65828000       0.00536800 </v>
    <v>       0.99583500       0.97956500       0.32669100 </v>
    <v>       0.49873300       0.98693900       0.34571900 </v>
    <v>       0.73701400       0.83248700       0.17861500 </v>
    <v>       0.50450800       0.34751500       0.33417600 </v>
    <v>       0.98607400       0.35194600       0.31220800 </v>
    <v>       0.00470500       0.34666200       0.68345300 </v>
    <v>       0.24561200       0.83114300       0.49067300 </v>
    <v>       0.48902500       0.33867900       0.99349000 </v>
    <v>       0.25317300       0.16654800       0.83907200 </v>
    <v>       0.25740700       0.16746700       0.17407900 </v>
    <v>       0.98610700       0.99878800       0.00083600 </v>
    <v>       0.76976300       0.16557600       0.49756200 </v>
    <v>       0.75555800       0.17123400       0.82503300 </v>
    <v>       0.73342400       0.17143200       0.17420600 </v>
    <v>       0.49311300       0.33608100       0.66541800 </v>
    <v>       0.73978500       0.83226100       0.82143800 </v>
    <v>       0.23984300       0.49208400       0.48839500 </v>
   </varray>
  </structure>
  <varray name="forces" >
   <v>      -0.03719317      -0.03001929      -0.20526853 </v>
   <v>      -0.16592552       0.07775758      -0.01094985 </v>
   <v>      -0.00155799       0.00858215       0.01963536 </v>
   <v>      -0.01458488       0.00508277      -0.00258110 </v>
   <v>       0.04288083       0.00850622       0.03184581 </v>
   <v>      -0.02778691       0.01504002       0.00002335 </v>
   <v>      -0.04645418      -0.01532266       0.02593983 </v>
   <v>       0.33536085       0.29823463      -0.47292440 </v>
   <v>       0.03585090      -0.01005577      -0.00773112 </v>
   <v>       0.24064113       0.25347111       0.27702961 </v>
   <v>       0.01494946      -0.00177146       0.00107643 </v>
   <v>      -0.30828738      -0.25782520       0.27718733 </v>
   <v>      -0.33368495       0.14232240       0.21365270 </v>
   <v>      -0.01640653      -0.02480458      -0.02431082 </v>
   <v>       0.02407288       0.00635856       0.01971810 </v>
   <v>      -0.00612043      -0.02385626       0.02697986 </v>
   <v>      -0.26633629       0.24018131      -0.26812526 </v>
   <v>      -0.02269980      -0.07177462      -0.02545672 </v>
   <v>       0.38478646       0.20667002       0.27949518 </v>
   <v>       0.01154440       0.01892391       0.01508620 </v>
   <v>      -0.01813223      -0.00869038       0.01057003 </v>
   <v>      -0.01286459       0.01350951      -0.03225449 </v>
   <v>       0.04426778      -0.01503825       0.00672810 </v>
   <v>      -0.03264299       0.01571729      -0.01121613 </v>
   <v>      -0.43177778      -0.34531265      -0.24309064 </v>
   <v>       0.02046578       0.00802533      -0.00396442 </v>
   <v>       0.32092062      -0.42406539       0.35911433 </v>
   <v>      -0.02609529       0.12049316      -0.00579159 </v>
   <v>       0.00385194       0.01117241       0.00520926 </v>
   <v>      -0.02522385       0.01851457      -0.00841789 </v>
   <v>       0.01912365      -0.00014743       0.01465272 </v>
   <v>       0.00461712      -0.01393282      -0.02679609 </v>
   <v>       0.00312412       0.01934477      -0.02974000 </v>
   <v>       0.27566269      -0.25245538      -0.29754028 </v>
   <v>      -0.01222501       0.01470365       0.00709630 </v>
   <v>       0.02387916      -0.00753921       0.08511882 </v>
  </varray>
  <varray name="stress" >
   <v>       8.67727818      -0.01399752       0.22017012 </v>
   <v>      -0.01399760       7.33163119      -0.86404891 </v>
   <v>       0.22017007      -0.86404891       8.26638575 </v>
  </varray>
  <energy>
   <i name="e_fr_energy">   -362.84354782 </i>
   <i name="e_wo_entrp">   -362.84873919 </i>
   <i name="e_0_energy">      0.01557410 </i>
  </energy>
  <time name="totalsc">   24.43   26.75</time>
 </calculation>
 <calculation>
  <scstep>
   <time name="dav">    1.14    1.20</time>
   <time name="total">    1.22    1.53</time>
   <energy>
    <i name="alphaZ">   1609.97419644 </i>
    <i name="ewald"> -20997.05240954 </i>
    <i name="hartreedc">  -7244.30392175 </i>
    <i name="XCdc">   -112.69425534 </i>
    <i name="pawpsdc">  35952.17746210 </i>
    <i name="pawaedc"> -34391.39605539 </i>
    <i name="eentropy">      0.01584196 </i>
    <i name="bandstr">  -2863.08906814 </i>
    <i name="atom">  27683.43937672 </i>
    <i name="e_fr_energy">   -362.92883295 </i>
    <i name="e_wo_entrp">   -362.94467491 </i>
    <i name="e_0_energy">   -362.93411361 </i>
   </energy>
  </scstep>
  <scstep>
   <time name="diag">    0.11    0.11</time>
   <time name="diis">    0.82    0.87</time>
   <time name="orth">    0.01    0.01</time>
   <time name="total">    1.03    1.11</time>
   <energy>
    <i name="e_fr_energy">   -362.91711415 </i>
    <i name="e_wo_entrp">   -362.93323687 </i>
    <i name="e_0_energy">   -362.92248839 </i>
   </energy>
  </scstep>
  <scstep>
   <time name="diag">    0.09    0.10</time>
   <time name="diis">    0.85    0.91</time>
   <time name="orth">    0.02    0.02</time>
   <time name="total">    1.05    1.14</time>
   <energy>
    <i name="e_fr_energy">   -362.89836207 </i>
    <i name="e_wo_entrp">   -362.91451749 </i>
    <i name="e_0_energy">   -362.90374721 </i>
   </energy>
  </scstep>
  <scstep>
   <time name="diag">    0.09    0.11</time>
   <time name="diis">    0.83    0.90</time>
   <time name="orth">    0.01    0.01</time>
   <time name="total">    1.00    1.13</time>
   <energy>
    <i name="e_fr_energy">   -362.89032477 </i>
    <i name="e_wo_entrp">   -362.90639126 </i>
    <i name="e_0_energy">   -362.89568027 </i>
   </energy>
  </scstep>
  <scstep>
   <time name="diag">    0.09    0.09</time>
   <time name="diis">    0.93    0.97</time>
   <time name="orth">    0.01    0.01</time>
   <time name="total">    1.10    1.19</time>
   <energy>
    <i name="e_fr_energy">   -362.88911879 </i>
    <i name="e_wo_entrp">   -362.90524600 </i>
    <i name="e_0_energy">   -362.89449453 </i>
   </energy>
  </scstep>
  <scstep>
   <time name="diag">    0.11    0.13</time>
   <time name="diis">    0.85    0.94</time>
   <time name="orth">    0.02    0.02</time>
   <time name="total">    1.08    1.24</time>
   <energy>
    <i name="e_fr_energy">   -362.88932039 </i>
    <i name="e_wo_entrp">   -362.90540002 </i>
    <i name="e_0_energy">   -362.89468027 </i>
   </energy>
  </scstep>
  <scstep>
   <time name="diag">    0.08    0.10</time>
   <time name="diis">    0.80    0.92</time>
   <time name="orth">    0.01    0.01</time>
   <time name="total">    0.96    1.14</time>
   <energy>
    <i name="e_fr_energy">   -362.88928798 </i>
    <i name="e_wo_entrp">   -362.90541457 </i>
    <i name="e_0_energy">   -362.89466351 </i>
   </energy>
  </scstep>
  <scstep>
   <time name="diag">    0.10    0.10</time>
   <time name="diis">    0.70    0.82</time>
   <time name="orth">    0.01    0.01</time>
   <time name="total">    0.89    1.06</time>
   <energy>
    <i name="e_fr_energy">   -362.88932862 </i>
    <i name="e_wo_entrp">   -362.90545778 </i>
    <i name="e_0_energy">   -362.89470501 </i>
   </energy>
  </scstep>
  <scstep>
   <time name="diag">    0.08    0.10</time>
   <time name="diis">    0.70    0.77</time>
   <time name="orth">    0.01    0.01</time>
   <time name="total">    0.87    0.99</time>
   <energy>
    <i name="e_fr_energy">   -362.88935053 </i>
    <i name="e_wo_entrp">   -362.90544097 </i>
    <i name="e_0_energy">   -362.89471401 </i>
   </energy>
  </scstep>
  <scstep>
   <time name="diag">    0.11    0.13</time>
   <time name="diis">    0.56    0.61</time>
   <time name="orth">    0.01    0.01</time>
   <time name="total">    0.75    0.85</time>
   <energy>
    <i name="e_fr_energy">   -362.88936504 </i>
    <i name="e_wo_entrp">   -362.90549290 </i>
    <i name="e_0_energy">   -362.89474099 </i>
   </energy>
  </scstep>
  <scstep>
   <time name="diag">    0.08    0.09</time>
   <time name="diis">    0.60    0.61</time>
   <time name="orth">    0.01    0.01</time>
   <time name="total">    0.73    0.79</time>
   <energy>
    <i name="alphaZ">   1609.97419644 </i>
    <i name="ewald"> -20997.05240954 </i>
    <i name="hartreedc">  -7263.98544738 </i>
    <i name="XCdc">   -111.82997929 </i>
    <i name="pawpsdc">  35753.47802477 </i>
    <i name="pawaedc"> -34192.95920366 </i>
    <i name="eentropy">      0.01611442 </i>
    <i name="bandstr">  -2843.97003488 </i>
    <i name="atom">  27683.43937672 </i>
    <i name="e_fr_energy">   -362.88936241 </i>
    <i name="e_wo_entrp">   -362.90547683 </i>
    <i name="e_0_energy">   -362.89473388 </i>
   </energy>
  </scstep>
  <structure>
   <crystal>
    <varray name="basis" >
     <v>       6.89243888      -0.01428911       0.04155423 </v>
     <v>      -0.02086535      10.27903563      -0.02240747 </v>
     <v>       0.06042947      -0.02320819      10.15650941 </v>
    </varray>
    <i name="volume">    719.53218324 </i>
    <varray name="rec_basis" >
     <v>       0.14509233       0.00029264      -0.00086261 </v>
     <v>       0.00020036       0.09728628       0.00022111 </v>
     <v>      -0.00059319       0.00021344       0.09846304 </v>
    </varray>
   </crystal>
   <varray name="positions" >
    <v>       0.26166820       0.50774896       0.17144328 </v>
    <v>       0.73672550       0.49741911       0.83479801 </v>
    <v>       0.73160652       0.50008615       0.17032406 </v>
    <v>       0.03419338       0.99416812       0.67205846 </v>
    <v>       0.50545483       0.66675621       0.33800511 </v>
    <v>       0.75036962       0.50646612       0.49368031 </v>
    <v>       0.99039491       0.66747434       0.32534037 </v>
    <v>       0.49394246       0.65217503       0.66002906 </v>
    <v>       0.51972345       0.00409490       0.99976263 </v>
    <v>       0.26518474       0.50489688       0.83931504 </v>
    <v>       0.22671242       0.17063355       0.48536040 </v>
    <v>       0.00752908       0.34182644       0.99998048 </v>
    <v>       0.98591815       0.66031232       0.00763517 </v>
    <v>       0.26657269       0.82964391       0.16608537 </v>
    <v>       0.47141441       0.00794009       0.65749395 </v>
    <v>       0.75471169       0.82949443       0.50546549 </v>
    <v>       0.01252720       0.65780505       0.67119031 </v>
    <v>       0.27441427       0.82724967       0.84542866 </v>
    <v>       0.52089667       0.65857333       0.00576419 </v>
    <v>       0.99585917       0.97959176       0.32671249 </v>
    <v>       0.49869470       0.98692673       0.34573421 </v>
    <v>       0.73698740       0.83250591       0.17856912 </v>
    <v>       0.50460096       0.34749395       0.33418518 </v>
    <v>       0.98600555       0.35196803       0.31219232 </v>
    <v>       0.00379846       0.34617318       0.68310877 </v>
    <v>       0.24565513       0.83115436       0.49066719 </v>
    <v>       0.48969369       0.33808313       0.99399855 </v>
    <v>       0.25311870       0.16671779       0.83906430 </v>
    <v>       0.25741508       0.16748278       0.17408643 </v>
    <v>       0.98605413       0.99881400       0.00082426 </v>
    <v>       0.76980304       0.16557589       0.49758275 </v>
    <v>       0.75556798       0.17121429       0.82499468 </v>
    <v>       0.73343102       0.17145919       0.17416359 </v>
    <v>       0.49369539       0.33572498       0.66499028 </v>
    <v>       0.73975926       0.83228172       0.82144827 </v>
    <v>       0.23989213       0.49207369       0.48851625 </v>
   </varray>
  </structure>
  <varray name="forces" >
   <v>      -0.02112261      -0.03191160      -0.18371267 </v>
   <v>      -0.16588994       0.05965444      -0.01103308 </v>
   <v>      -0.01266369      -0.00372512       0.04061835 </v>
   <v>       0.00824092       0.00187906       0.00343444 </v>
   <v>       0.03411230      -0.00051471       0.02807255 </v>
   <v>      -0.02353880       0.01297530      -0.02035423 </v>
   <v>      -0.04091860      -0.01963728       0.02329697 </v>
   <v>       0.29867139       0.25125961      -0.42232175 </v>
   <v>       0.03274489      -0.00694245      -0.01346394 </v>
   <v>       0.23134890       0.22224318       0.25192103 </v>
   <v>       0.00658928      -0.00534365      -0.00500129 </v>
   <v>      -0.27390551      -0.21149646       0.23315874 </v>
   <v>      -0.31316201       0.11646503       0.19000886 </v>
   <v>      -0.01332307      -0.02393937      -0.01488390 </v>
   <v>       0.00230674       0.00444131       0.02379200 </v>
   <v>      -0.00239509      -0.00225097       0.00625852 </v>
   <v>      -0.24177477       0.19978546      -0.23220093 </v>
   <v>      -0.01326443      -0.07655373      -0.02355350 </v>
   <v>       0.36290756       0.18383882       0.26413902 </v>
   <v>       0.01661776      -0.00336426       0.01616958 </v>
   <v>      -0.02214207      -0.02233656       0.00915138 </v>
   <v>      -0.01661072       0.02211303      -0.00993280 </v>
   <v>       0.03920800       0.01061926      -0.00602732 </v>
   <v>      -0.02914309       0.03612433      -0.01890094 </v>
   <v>      -0.37969331      -0.27692256      -0.20044198 </v>
   <v>       0.02196441       0.01948642      -0.01919490 </v>
   <v>       0.28187228      -0.35502806       0.31153027 </v>
   <v>      -0.02733209       0.10689150      -0.00762833 </v>
   <v>       0.00877327       0.00388335       0.01524794 </v>
   <v>      -0.02048084       0.01702567      -0.01296892 </v>
   <v>       0.02538986      -0.01134028       0.00593941 </v>
   <v>       0.00373367      -0.02697856      -0.02448351 </v>
   <v>      -0.00227918       0.00698271      -0.01062631 </v>
   <v>       0.24292883      -0.21031077      -0.25867441 </v>
   <v>      -0.02102852       0.02677564       0.00470566 </v>
   <v>       0.02325827      -0.01384774       0.06795999 </v>
  </varray>
  <varray name="stress" >
   <v>       2.53292075      -0.02513461       0.12991025 </v>
   <v>      -0.02513455       1.01881202      -0.70418779 </v>
   <v>       0.12991023      -0.70418785       1.93951779 </v>
  </varray>
  <energy>
   <i name="e_fr_energy">   -362.88936241 </i>
   <i name="e_wo_entrp">   -362.89473388 </i>
   <i name="e_0_energy">      0.01611442 </i>
  </energy>
  <time name="totalsc">   12.49   14.17</time>
 </calculation>
 <calculation>
  <scstep>
   <time name="dav">    1.21    1.25</time>
   <time name="total">    1.29    1.49</time>
   <energy>
    <i name="alphaZ">   1594.51834988 </i>
    <i name="ewald"> -20915.76034425 </i>
    <i name="hartreedc">  -7254.36973117 </i>
    <i name="XCdc">   -114.85655636 </i>
    <i name="pawpsdc">  35753.61282440 </i>
    <i name="pawaedc"> -34193.12808224 </i>
    <i name="eentropy">      0.01699267 </i>
    <i name="bandstr">  -2916.60022055 </i>
    <i name="atom">  27683.43937672 </i>
    <i name="e_fr_energy">   -363.12739091 </i>
    <i name="e_wo_entrp">   -363.14438357 </i>
    <i name="e_0_energy">   -363.13305513 </i>
   </energy>
  </scstep>
  <scstep>
   <time name="diag">    0.12    0.12</time>
   <time name="diis">    0.81    0.85</time>
   <time name="orth">    0.01    0.01</time>
   <time name="total">    1.00    1.08</time>
   <energy>
    <i name="e_fr_energy">   -363.07287122 </i>
    <i name="e_wo_entrp">   -363.08975511 </i>
    <i name="e_0_energy">   -363.07849918 </i>
   </energy>
  </scstep>
  <scstep>
   <time name="diag">    0.09    0.09</time>
   <time name="diis">    0.81    0.92</time>
   <time name="orth">    0.02    0.02</time>
   <time name="total">    0.98    1.19</time>
   <energy>
    <i name="e_fr_energy">   -362.97277521 </i>
    <i name="e_wo_entrp">   -362.99012057 </i>
    <i name="e_0_energy">   -362.97855699 </i>
   </energy>
  </scstep>
  <scstep>
   <time name="diag">    0.08    0.09</time>
   <time name="diis">    0.86    0.89</time>
   <time name="orth">    0.01    0.01</time>
   <time name="total">    1.03    1.10</time>
   <energy>
    <i name="e_fr_energy">   -362.93551125 </i>
    <i name="e_wo_entrp">   -362.95301728 </i>
    <i name="e_0_energy">   -362.94134659 </i>
   </energy>
  </scstep>
  <scstep>
   <time name="diag">    0.09    0.09</time>
   <time name="diis">    0.76    0.90</time>
   <time name="orth">    0.01    0.01</time>
   <time name="total">    0.93    1.11</time>
   <energy>
    <i name="e_fr_energy">   -362.92921512 </i>
    <i name="e_wo_entrp">   -362.94677171 </i>
    <i name="e_0_energy">   -362.93506732 </i>
   </energy>
  </scstep>
  <scstep>
   <time name="diag">    0.09    0.09</time>
   <time name="diis">    1.11    1.14</time>
   <time name="orth">    0.01    0.01</time>
   <time name="total">    1.28    1.35</time>
   <energy>
    <i name="e_fr_energy">   -362.93037557 </i>
    <i name="e_wo_entrp">   -362.94781962 </i>
    <i name="e_0_energy">   -362.93619026 </i>
   </energy>
  </scstep>
  <scstep>
   <time name="diag">    0.09    0.09</time>
   <time name="diis">    0.95    0.98</time>
   <time name="orth">    0.01    0.01</time>
   <time name="total">    1.14    1.21</time>
   <energy>
    <i name="e_fr_energy">   -362.93033491 </i>
    <i name="e_wo_entrp">   -362.94785943 </i>
    <i name="e_0_energy">   -362.93617642 </i>
   </energy>
  </scstep>
  <scstep>
   <time name="diag">    0.11    0.11</time>
   <time name="diis">    1.00    1.03</time>
   <time name="orth">    0.01    0.01</time>
   <time name="total">    1.18    1.26</time>
   <energy>
    <i name="e_fr_energy">   -362.93057554 </i>
    <i name="e_wo_entrp">   -362.94814533 </i>
    <i name="e_0_energy">   -362.93643214 </i>
   </energy>
  </scstep>
  <scstep>
   <time name="diag">    0.10    0.10</time>
   <time name="diis">    0.87    0.88</time>
   <time name="orth">    0.01    0.01</time>
   <time name="total">    1.06    1.10</time>
   <energy>
    <i name="e_fr_energy">   -362.93072471 </i>
    <i name="e_wo_entrp">   -362.94819708 </i>
    <i name="e_0_energy">   -362.93654884 </i>
   </energy>
  </scstep>
  <scstep>
   <time name="diag">    0.08    0.09</time>
   <time name="diis">    0.84    0.86</time>
   <time name="orth">    0.01    0.01</time>
   <time name="total">    1.00    1.06</time>
   <energy>
    <i name="e_fr_energy">   -362.93087047 </i>
    <i name="e_wo_entrp">   -362.94843079 </i>
    <i name="e_0_energy">   -362.93672391 </i>
   </energy>
  </scstep>
  <scstep>
   <time name="diag">    0.08    0.09</time>
   <time name="diis">    0.68    0.71</time>
   <time name="orth">    0.01    0.01</time>
   <time name="total">    0.85    0.93</time>
   <energy>
    <i name="e_fr_energy">   -362.93089401 </i>
    <i name="e_wo_entrp">   -362.94841217 </i>
    <i name="e_0_energy">   -362.93673340 </i>
   </energy>
  </scstep>
  <scstep>
   <time name="diag">    0.11    0.11</time>
   <time name="diis">    0.87    0.90</time>
   <time name="orth">    0.01    0.01</time>
   <time name="total">    1.06    1.14</time>
   <energy>
    <i name="e_fr_energy">   -362.93089469 </i>
    <i name="e_wo_entrp">   -362.94842490 </i>
    <i name="e_0_energy">   -362.93673810 </i>
   </energy>
  </scstep>
  <scstep>
   <time name="diag">    0.08    0.09</time>
   <time name="diis">    0.51    0.54</time>
   <time name="orth">    0.01    0.01</time>
   <time name="total">    0.65    0.71</time>
   <energy>
    <i name="alphaZ">   1594.51834988 </i>
    <i name="ewald"> -20915.76034425 </i>
    <i name="hartreedc">  -7297.69978649 </i>
    <i name="XCdc">   -112.95485365 </i>
    <i name="pawpsdc">  35324.50545246 </i>
    <i name="pawaedc"> -33764.89679216 </i>
    <i name="eentropy">      0.01752233 </i>
    <i name="bandstr">  -2874.09981839 </i>
    <i name="atom">  27683.43937672 </i>
    <i name="e_fr_energy">   -362.93089356 </i>
    <i name="e_wo_entrp">   -362.94841589 </i>
    <i name="e_0_energy">   -362.93673434 </i>
   </energy>
  </scstep>
  <structure>
   <crystal>
    <varray name="basis" >
     <v>       6.91624541      -0.01438334       0.04229891 </v>
     <v>      -0.02099642      10.30904351      -0.02601341 </v>
     <v>       0.06152693      -0.02676457      10.18993886 </v>
    </varray>
    <i name="volume">    726.50669000 </i>
    <varray name="rec_basis" >
     <v>       0.14459306       0.00029229      -0.00087229 </v>
     <v>       0.00020018       0.09700326       0.00025358 </v>
     <v>      -0.00059970       0.00024642       0.09814028 </v>
    </varray>
   </crystal>
   <varray name="positions" >
    <v>       0.26150041       0.50765353       0.17079515 </v>
    <v>       0.73595391       0.49766074       0.83476710 </v>
    <v>       0.73159880       0.50011308       0.17038620 </v>
    <v>       0.03412559       0.99418387       0.67205061 </v>
    <v>       0.50565369       0.66678327       0.33810498 </v>
    <v>       0.75024038       0.50651290       0.49368102 </v>
    <v>       0.99017774       0.66742639       0.32542312 </v>
    <v>       0.49551992       0.65310497       0.65853030 </v>
    <v>       0.51989051       0.00406368       0.99973745 </v>
    <v>       0.26629997       0.50569178       0.84018759 </v>
    <v>       0.22678198       0.17062812       0.48536351 </v>
    <v>       0.00608348       0.34102145       0.00086048 </v>
    <v>       0.98435981       0.66075605       0.00831763 </v>
    <v>       0.26649674       0.82956619       0.16600870 </v>
    <v>       0.47152602       0.00796024       0.65755585 </v>
    <v>       0.75468222       0.82942010       0.50555070 </v>
    <v>       0.01129671       0.65855132       0.67034976 </v>
    <v>       0.27430860       0.82702525       0.84534816 </v>
    <v>       0.52268260       0.65922304       0.00664147 </v>
    <v>       0.99591269       0.97965102       0.32676007 </v>
    <v>       0.49860989       0.98689955       0.34576790 </v>
    <v>       0.73692852       0.83254778       0.17846753 </v>
    <v>       0.50480676       0.34744733       0.33420550 </v>
    <v>       0.98585401       0.35201681       0.31215760 </v>
    <v>       0.00179141       0.34509055       0.68234647 </v>
    <v>       0.24575061       0.83117952       0.49065433 </v>
    <v>       0.49117410       0.33676374       0.99512432 </v>
    <v>       0.25299848       0.16709378       0.83904732 </v>
    <v>       0.25743298       0.16751772       0.17410290 </v>
    <v>       0.98593709       0.99887159       0.00079826 </v>
    <v>       0.76989168       0.16557566       0.49762868 </v>
    <v>       0.75559009       0.17117063       0.82490982 </v>
    <v>       0.73344657       0.17151940       0.17406968 </v>
    <v>       0.49498485       0.33493644       0.66404310 </v>
    <v>       0.73970228       0.83232759       0.82147103 </v>
    <v>       0.24000090       0.49205091       0.48878472 </v>
   </varray>
  </structure>
  <varray name="forces" >
   <v>       0.01092890      -0.03487437      -0.13682389 </v>
   <v>      -0.16583002       0.02302840      -0.01358672 </v>
   <v>      -0.03409591      -0.02988753       0.08650396 </v>
   <v>       0.05617321      -0.00428838       0.01529093 </v>
   <v>       0.01491387      -0.02056196       0.02180413 </v>
   <v>      -0.01557537       0.00738514      -0.06352890 </v>
   <v>      -0.02835704      -0.02928672       0.01785765 </v>
   <v>       0.22288023       0.15286382      -0.31497016 </v>
   <v>       0.02444035      -0.00127202      -0.02696854 </v>
   <v>       0.21302694       0.15769645       0.19906829 </v>
   <v>      -0.01167663      -0.01397769      -0.01578193 </v>
   <v>      -0.19898139      -0.10914732       0.14155564 </v>
   <v>      -0.26730705       0.06124214       0.14137079 </v>
   <v>      -0.00738541      -0.02244001       0.00627199 </v>
   <v>      -0.04593759      -0.00108229       0.03351446 </v>
   <v>       0.00681032       0.04563919      -0.03797596 </v>
   <v>      -0.19160272       0.11926164      -0.15709538 </v>
   <v>       0.00533855      -0.08290025      -0.02216190 </v>
   <v>       0.31606050       0.13161204       0.22978387 </v>
   <v>       0.02660214      -0.05206701       0.01851511 </v>
   <v>      -0.03163387      -0.05177388       0.00640006 </v>
   <v>      -0.02361453       0.04320034       0.03884975 </v>
   <v>       0.02814656       0.06756570      -0.03399601 </v>
   <v>      -0.02156356       0.08123524      -0.03523035 </v>
   <v>      -0.27058116      -0.13644325      -0.11312249 </v>
   <v>       0.02558454       0.04430882      -0.05202837 </v>
   <v>       0.19852543      -0.20625612       0.21018997 </v>
   <v>      -0.03014626       0.07471245      -0.01309948 </v>
   <v>       0.02060620      -0.01373031       0.03689275 </v>
   <v>      -0.01063875       0.01351887      -0.02298095 </v>
   <v>       0.03750521      -0.03845574      -0.01545158 </v>
   <v>       0.00221440      -0.05543251      -0.01869926 </v>
   <v>      -0.01423619      -0.02281082       0.03375124 </v>
   <v>       0.17523319      -0.12169188      -0.17530038 </v>
   <v>      -0.03795675       0.05131299       0.00014368 </v>
   <v>       0.02212963      -0.02620320       0.03103797 </v>
  </varray>
  <varray name="stress" >
   <v>     -11.00653255      -0.06788549      -0.06742797 </v>
   <v>      -0.06788549     -12.80242293      -0.36061747 </v>
   <v>      -0.06742793      -0.36061752     -11.91149611 </v>
  </varray>
  <energy>
   <i name="e_fr_energy">   -362.93089356 </i>
   <i name="e_wo_entrp">   -362.93673434 </i>
   <i name="e_0_energy">      0.01752233 </i>
  </energy>
  <time name="totalsc">   15.26   16.73</time>
 </calculation>
 <calculation>
  <scstep>
   <time name="dav">    1.09    1.15</time>
   <time name="total">    1.17    1.37</time>
   <energy>
    <i name="alphaZ">   1597.44833196 </i>
    <i name="ewald"> -20920.78690227 </i>
    <i name="hartreedc">  -7309.70684782 </i>
    <i name="XCdc">   -112.36201861 </i>
    <i name="pawpsdc">  35323.91600529 </i>
    <i name="pawaedc"> -33764.36872672 </i>
    <i name="eentropy">      0.01757569 </i>
    <i name="bandstr">  -2860.56282627 </i>
    <i name="atom">  27683.43937672 </i>
    <i name="e_fr_energy">   -362.96603203 </i>
    <i name="e_wo_entrp">   -362.98360772 </i>
    <i name="e_0_energy">   -362.97189060 </i>
   </energy>
  </scstep>
  <scstep>
   <time name="diag">    0.09    0.09</time>
   <time name="diis">    0.74    0.78</time>
   <time name="orth">    0.01    0.02</time>
   <time name="total">    0.95    1.02</time>
   <energy>
    <i name="e_fr_energy">   -362.97241659 </i>
    <i name="e_wo_entrp">   -362.99018707 </i>
    <i name="e_0_energy">   -362.97834008 </i>
   </energy>
  </scstep>
  <scstep>
   <time name="diag">    0.12    0.13</time>
   <time name="diis">    0.77    0.81</time>
   <time name="orth">    0.01    0.01</time>
   <time name="total">    0.98    1.05</time>
   <energy>
    <i name="e_fr_energy">   -362.96904032 </i>
    <i name="e_wo_entrp">   -362.98655956 </i>
    <i name="e_0_energy">   -362.97488007 </i>
   </energy>
  </scstep>
  <scstep>
   <time name="diag">    0.08    0.08</time>
   <time name="diis">    0.80    0.85</time>
   <time name="orth">    0.01    0.01</time>
   <time name="total">    0.96    1.04</time>
   <energy>
    <i name="e_fr_energy">   -362.96762818 </i>
    <i name="e_wo_entrp">   -362.98524229 </i>
    <i name="e_0_energy">   -362.97349955 </i>
   </energy>
  </scstep>
  <scstep>
   <time name="diag">    0.12    0.12</time>
   <time name="diis">    0.85    0.89</time>
   <time name="orth">    0.01    0.01</time>
   <time name="total">    1.05    1.13</time>
   <energy>
    <i name="e_fr_energy">   -362.96740616 </i>
    <i name="e_wo_entrp">   -362.98492790 </i>
    <i name="e_0_energy">   -362.97324674 </i>
   </energy>
  </scstep>
  <scstep>
   <time name="diag">    0.46    0.46</time>
   <time name="diis">    1.10    1.14</time>
   <time name="orth">    0.01    0.01</time>
   <time name="total">    1.63    1.72</time>
   <energy>
    <i name="e_fr_energy">   -362.96742805 </i>
    <i name="e_wo_entrp">   -362.98506850 </i>
    <i name="e_0_energy">   -362.97330820 </i>
   </energy>
  </scstep>
  <scstep>
   <time name="diag">    0.18    0.19</time>
   <time name="diis">    0.77    0.81</time>
   <time name="orth">    0.01    0.01</time>
   <time name="total">    1.04    1.12</time>
   <energy>
    <i name="e_fr_energy">   -362.96743539 </i>
    <i name="e_wo_entrp">   -362.98496563 </i>
    <i name="e_0_energy">   -362.97327881 </i>
   </energy>
  </scstep>
  <scstep>
   <time name="diag">    0.16    0.17</time>
   <time name="diis">    0.64    0.68</time>
   <time name="orth">    0.01    0.01</time>
   <time name="total">    0.89    0.96</time>
   <energy>
    <i name="e_fr_energy">   -362.96746307 </i>
    <i name="e_wo_entrp">   -362.98502321 </i>
    <i name="e_0_energy">   -362.97331645 </i>
   </energy>
  </scstep>
  <scstep>
   <time name="diag">    0.17    0.18</time>
   <time name="diis">    0.54    0.56</time>
   <time name="orth">    0.01    0.01</time>
   <time name="total">    0.80    0.87</time>
   <energy>
    <i name="e_fr_energy">   -362.96747738 </i>
    <i name="e_wo_entrp">   -362.98503483 </i>
    <i name="e_0_energy">   -362.97332987 </i>
   </energy>
  </scstep>
  <scstep>
   <time name="diag">    0.09    0.09</time>
   <time name="diis">    0.51    0.53</time>
   <time name="orth">    0.01    0.01</time>
   <time name="total">    0.72    0.78</time>
   <energy>
    <i name="e_fr_energy">   -362.96748831 </i>
    <i name="e_wo_entrp">   -362.98504686 </i>
    <i name="e_0_energy">   -362.97334116 </i>
   </energy>
  </scstep>
  <scstep>
   <time name="diag">    0.12    0.13</time>
   <time name="diis">    0.36    0.38</time>
   <time name="orth">    0.01    0.01</time>
   <time name="total">    0.53    0.59</time>
   <energy>
    <i name="alphaZ">   1597.44833196 </i>
    <i name="ewald"> -20920.78690227 </i>
    <i name="hartreedc">  -7301.87236660 </i>
    <i name="XCdc">   -112.70714808 </i>
    <i name="pawpsdc">  35406.25609313 </i>
    <i name="pawaedc"> -33846.65118972 </i>
    <i name="eentropy">      0.01756004 </i>
    <i name="bandstr">  -2868.11124956 </i>
    <i name="atom">  27683.43937672 </i>
    <i name="e_fr_energy">   -362.96749437 </i>
    <i name="e_wo_entrp">   -362.98505442 </i>
    <i name="e_0_energy">   -362.97334772 </i>
   </energy>
  </scstep>
  <structure>
   <crystal>
    <varray name="basis" >
     <v>       6.91342641      -0.01445716       0.04241126 </v>
     <v>      -0.02110599      10.30040814      -0.02769592 </v>
     <v>       0.06170091      -0.02842066      10.18393862 </v>
    </varray>
    <i name="volume">    725.17415765 </i>
    <varray name="rec_basis" >
     <v>       0.14465206       0.00029404      -0.00087558 </v>
     <v>       0.00020137       0.09708467       0.00026972 </v>
     <v>      -0.00060186       0.00026280       0.09819822 </v>
    </varray>
   </crystal>
   <varray name="positions" >
    <v>       0.26146407       0.50758381       0.17043123 </v>
    <v>       0.73543173       0.49776495       0.83474322 </v>
    <v>       0.73154016       0.50008969       0.17050179 </v>
    <v>       0.03419396       0.99418458       0.67206443 </v>
    <v>       0.50574304       0.66676998       0.33816166 </v>
    <v>       0.75017325       0.50653612       0.49361163 </v>
    <v>       0.99006006       0.66737880       0.32547010 </v>
    <v>       0.49640369       0.65357678       0.65768974 </v>
    <v>       0.51998533       0.00405199       0.99969937 </v>
    <v>       0.26701045       0.50612602       0.84069268 </v>
    <v>       0.22678612       0.17061109       0.48534724 </v>
    <v>       0.00528367       0.34063775       0.00130678 </v>
    <v>       0.98341290       0.66096862       0.00869972 </v>
    <v>       0.26645964       0.82951621       0.16599030 </v>
    <v>       0.47148814       0.00796571       0.65761334 </v>
    <v>       0.75468405       0.82944505       0.50553714 </v>
    <v>       0.01058342       0.65892572       0.66990210 </v>
    <v>       0.27428238       0.82686126       0.84529702 </v>
    <v>       0.52378027       0.65958145       0.00718105 </v>
    <v>       0.99597299       0.97961417       0.32679575 </v>
    <v>       0.49853055       0.98683436       0.34578609 </v>
    <v>       0.73687069       0.83260851       0.17847700 </v>
    <v>       0.50492063       0.34750525       0.33417485 </v>
    <v>       0.98576983       0.35212090       0.31210786 </v>
    <v>       0.00069331       0.34458467       0.68197249 </v>
    <v>       0.24582410       0.83123581       0.49059292 </v>
    <v>       0.49198009       0.33610625       0.99572388 </v>
    <v>       0.25291049       0.16729866       0.83902780 </v>
    <v>       0.25747180       0.16751449       0.17414865 </v>
    <v>       0.98588159       0.99890514       0.00076458 </v>
    <v>       0.76998157       0.16553389       0.49762649 </v>
    <v>       0.75560096       0.17109603       0.82486116 </v>
    <v>       0.73342827       0.17151454       0.17407584 </v>
    <v>       0.49569439       0.33454429       0.66353696 </v>
    <v>       0.73962228       0.83239832       0.82147909 </v>
    <v>       0.24007212       0.49201514       0.48890701 </v>
   </varray>
  </structure>
  <varray name="forces" >
   <v>       0.01430471      -0.03506798      -0.12541615 </v>
   <v>      -0.14457190       0.00700438      -0.01923579 </v>
   <v>      -0.02795710      -0.04236745       0.08947996 </v>
   <v>       0.04823067      -0.00521837       0.02218881 </v>
   <v>      -0.00691658      -0.02196333       0.02747009 </v>
   <v>      -0.00081833      -0.01213290      -0.06167886 </v>
   <v>      -0.00837580      -0.02845449       0.02357952 </v>
   <v>       0.17908213       0.12120784      -0.25913051 </v>
   <v>       0.00668383       0.00535044      -0.03115814 </v>
   <v>       0.18209085       0.12758264       0.17292003 </v>
   <v>      -0.01240497      -0.01029767      -0.01778536 </v>
   <v>      -0.16649367      -0.07419789       0.09661180 </v>
   <v>      -0.22752232       0.04732340       0.10446422 </v>
   <v>      -0.01730394      -0.01859291       0.00367360 </v>
   <v>      -0.04091920      -0.00238372       0.04151007 </v>
   <v>       0.01163284       0.07540614      -0.04624322 </v>
   <v>      -0.16492171       0.08838364      -0.11831244 </v>
   <v>      -0.00012221      -0.08533752      -0.01932055 </v>
   <v>       0.27155438       0.12547380       0.19714378 </v>
   <v>       0.03394096      -0.05157575       0.01873910 </v>
   <v>      -0.03367585      -0.04085014      -0.00216228 </v>
   <v>      -0.01432802       0.05509835       0.04275253 </v>
   <v>       0.00700476       0.05992958      -0.03761766 </v>
   <v>      -0.00532958       0.07311763      -0.02503405 </v>
   <v>      -0.21158198      -0.08300162      -0.08501328 </v>
   <v>       0.02492992       0.03984637      -0.05368265 </v>
   <v>       0.16227290      -0.15370874       0.16595163 </v>
   <v>      -0.03117209       0.06179267      -0.01216554 </v>
   <v>       0.01677123      -0.02230568       0.04010762 </v>
   <v>       0.00418795       0.01446914      -0.02767698 </v>
   <v>       0.03430438      -0.04784453      -0.02066495 </v>
   <v>      -0.00070301      -0.06677228      -0.01550523 </v>
   <v>      -0.00905344      -0.04028219       0.05102772 </v>
   <v>       0.13962989      -0.09184001      -0.14243716 </v>
   <v>      -0.03046592       0.06117352      -0.00202544 </v>
   <v>       0.01801621      -0.02896438       0.02464578 </v>
  </varray>
  <varray name="stress" >
   <v>      -8.58607875      -0.07850650      -0.14555685 </v>
   <v>      -0.07850650     -10.37354815      -0.15376499 </v>
   <v>      -0.14555689      -0.15376501      -9.47045944 </v>
  </varray>
  <energy>
   <i name="e_fr_energy">   -362.96749437 </i>
   <i name="e_wo_entrp">   -362.97334772 </i>
   <i name="e_0_energy">      0.01756004 </i>
  </energy>
  <time name="totalsc">   12.44   13.54</time>
 </calculation>
 <calculation>
  <scstep>
   <time name="dav">    0.97    1.01</time>
   <time name="total">    1.05    1.25</time>
   <energy>
    <i name="alphaZ">   1606.28290500 </i>
    <i name="ewald"> -20934.34819699 </i>
    <i name="hartreedc">  -7339.58720533 </i>
    <i name="XCdc">   -110.90895403 </i>
    <i name="pawpsdc">  35406.52400824 </i>
    <i name="pawaedc"> -33846.89498945 </i>
    <i name="eentropy">      0.01764082 </i>
    <i name="bandstr">  -2827.54380527 </i>
    <i name="atom">  27683.43937672 </i>
    <i name="e_fr_energy">   -363.01922030 </i>
    <i name="e_wo_entrp">   -363.03686112 </i>
    <i name="e_0_energy">   -363.02510057 </i>
   </energy>
  </scstep>
  <scstep>
   <time name="diag">    0.08    0.08</time>
   <time name="diis">    0.71    0.75</time>
   <time name="orth">    0.01    0.01</time>
   <time name="total">    0.87    0.94</time>
   <energy>
    <i name="e_fr_energy">   -363.07457205 </i>
    <i name="e_wo_entrp">   -363.09223351 </i>
    <i name="e_0_energy">   -363.08045920 </i>
   </energy>
  </scstep>
  <scstep>
   <time name="diag">    0.08    0.08</time>
   <time name="diis">    0.75    0.78</time>
   <time name="orth">    0.01    0.01</time>
   <time name="total">    0.91    0.97</time>
   <energy>
    <i name="e_fr_energy">   -363.04356895 </i>
    <i name="e_wo_entrp">   -363.06058107 </i>
    <i name="e_0_energy">   -363.04923966 </i>
   </energy>
  </scstep>
  <scstep>
   <time name="diag">    0.09    0.09</time>
   <time name="diis">    0.90    0.92</time>
   <time name="orth">    0.01    0.01</time>
   <time name="total">    1.08    1.17</time>
   <energy>
    <i name="e_fr_energy">   -363.03135801 </i>
    <i name="e_wo_entrp">   -363.04869861 </i>
    <i name="e_0_energy">   -363.03713821 </i>
   </energy>
  </scstep>
  <scstep>
   <time name="diag">    0.12    0.12</time>
   <time name="diis">    0.84    0.95</time>
   <time name="orth">    0.01    0.01</time>
   <time name="total">    1.03    1.19</time>
   <energy>
    <i name="e_fr_energy">   -363.02945415 </i>
    <i name="e_wo_entrp">   -363.04643567 </i>
    <i name="e_0_energy">   -363.03511466 </i>
   </energy>
  </scstep>
  <scstep>
   <time name="diag">    0.09    0.09</time>
   <time name="diis">    1.10    1.11</time>
   <time name="orth">    0.01    0.01</time>
   <time name="total">    1.28    1.33</time>
   <energy>
    <i name="e_fr_energy">   -363.02964006 </i>
    <i name="e_wo_entrp">   -363.04701480 </i>
    <i name="e_0_energy">   -363.03543164 </i>
   </energy>
  </scstep>
  <scstep>
   <time name="diag">    0.10    0.10</time>
   <time name="diis">    0.94    0.99</time>
   <time name="orth">    0.01    0.01</time>
   <time name="total">    1.13    1.21</time>
   <energy>
    <i name="e_fr_energy">   -363.02968064 </i>
    <i name="e_wo_entrp">   -363.04671906 </i>
    <i name="e_0_energy">   -363.03536011 </i>
   </energy>
  </scstep>
  <scstep>
   <time name="diag">    0.11    0.11</time>
   <time name="diis">    0.97    1.01</time>
   <time name="orth">    0.01    0.01</time>
   <time name="total">    1.18    1.25</time>
   <energy>
    <i name="e_fr_energy">   -363.02990134 </i>
    <i name="e_wo_entrp">   -363.04703228 </i>
    <i name="e_0_energy">   -363.03561165 </i>
   </energy>
  </scstep>
  <scstep>
   <time name="diag">    0.10    0.10</time>
   <time name="diis">    0.80    0.83</time>
   <time name="orth">    0.01    0.01</time>
   <time name="total">    0.98    1.05</time>
   <energy>
    <i name="e_fr_energy">   -363.02997891 </i>
    <i name="e_wo_entrp">   -363.04710449 </i>
    <i name="e_0_energy">   -363.03568743 </i>
   </energy>
  </scstep>
  <scstep>
   <time name="diag">    0.08    0.09</time>
   <time name="diis">    0.74    0.77</time>
   <time name="orth">    0.01    0.01</time>
   <time name="total">    0.90    0.98</time>
   <energy>
    <i name="e_fr_energy">   -363.03004666 </i>
    <i name="e_wo_entrp">   -363.04717048 </i>
    <i name="e_0_energy">   -363.03575460 </i>
   </energy>
  </scstep>
  <scstep>
   <time name="diag">    0.10    0.10</time>
   <time name="diis">    1.21    1.24</time>
   <time name="orth">    0.01    0.01</time>
   <time name="total">    1.39    1.46</time>
   <energy>
    <i name="e_fr_energy">   -363.03008128 </i>
    <i name="e_wo_entrp">   -363.04721506 </i>
    <i name="e_0_energy">   -363.03579254 </i>
   </energy>
  </scstep>
  <scstep>
   <time name="diag">    0.16    0.17</time>
   <time name="diis">    0.54    0.57</time>
   <time name="orth">    0.01    0.01</time>
   <time name="total">    0.76    0.84</time>
   <energy>
    <i name="alphaZ">   1606.28290500 </i>
    <i name="ewald"> -20934.34819699 </i>
    <i name="hartreedc">  -7316.57098385 </i>
    <i name="XCdc">   -111.92761389 </i>
    <i name="pawpsdc">  35670.48550862 </i>
    <i name="pawaedc"> -34110.25362036 </i>
    <i name="eentropy">      0.01711563 </i>
    <i name="bandstr">  -2850.15457836 </i>
    <i name="atom">  27683.43937672 </i>
    <i name="e_fr_energy">   -363.03008749 </i>
    <i name="e_wo_entrp">   -363.04720312 </i>
    <i name="e_0_energy">   -363.03579270 </i>
   </energy>
  </scstep>
  <structure>
   <crystal>
    <varray name="basis" >
     <v>       6.90496943      -0.01467864       0.04274830 </v>
     <v>      -0.02143471      10.27450204      -0.03274345 </v>
     <v>       0.06222286      -0.03338894      10.16593788 </v>
    </varray>
    <i name="volume">    721.18569208 </i>
    <varray name="rec_basis" >
     <v>       0.14482935       0.00029932      -0.00088548 </v>
     <v>       0.00020493       0.09732976       0.00031841 </v>
     <v>      -0.00060835       0.00031223       0.09837246 </v>
    </varray>
   </crystal>
   <varray name="positions" >
    <v>       0.26135504       0.50737426       0.16933878 </v>
    <v>       0.73386453       0.49807781       0.83467161 </v>
    <v>       0.73136415       0.50001953       0.17084877 </v>
    <v>       0.03439916       0.99418671       0.67210591 </v>
    <v>       0.50601118       0.66673011       0.33833181 </v>
    <v>       0.74997181       0.50660579       0.49340337 </v>
    <v>       0.98970688       0.66723592       0.32561108 </v>
    <v>       0.49905618       0.65499299       0.65516677 </v>
    <v>       0.52026991       0.00401686       0.99958506 </v>
    <v>       0.26914272       0.50743010       0.84220904 </v>
    <v>       0.22679852       0.17055996       0.48529840 </v>
    <v>       0.00288318       0.33948592       0.00264629 </v>
    <v>       0.98057100       0.66160704       0.00984680 </v>
    <v>       0.26634830       0.82936616       0.16593506 </v>
    <v>       0.47137445       0.00798214       0.65778592 </v>
    <v>       0.75468953       0.82951995       0.50549648 </v>
    <v>       0.00844275       0.66004962       0.66855853 </v>
    <v>       0.27420368       0.82636887       0.84514342 </v>
    <v>       0.52707461       0.66065787       0.00880088 </v>
    <v>       0.99615398       0.97950353       0.32690286 </v>
    <v>       0.49829244       0.98663863       0.34584067 </v>
    <v>       0.73669714       0.83279084       0.17850547 </v>
    <v>       0.50526238       0.34767917       0.33408289 </v>
    <v>       0.98551717       0.35243338       0.31195861 </v>
    <v>      -0.00260233       0.34306556       0.68084969 </v>
    <v>       0.24604466       0.83140477       0.49040861 </v>
    <v>       0.49439895       0.33413245       0.99752328 </v>
    <v>       0.25264643       0.16791382       0.83896931 </v>
    <v>       0.25758831       0.16750481       0.17428600 </v>
    <v>       0.98571505       0.99900588       0.00066351 </v>
    <v>       0.77025134       0.16540850       0.49761989 </v>
    <v>       0.75563359       0.17087201       0.82471506 </v>
    <v>       0.73337333       0.17149995       0.17409433 </v>
    <v>       0.49782391       0.33336664       0.66201744 </v>
    <v>       0.73938217       0.83261067       0.82150331 </v>
    <v>       0.24028586       0.49190778       0.48927409 </v>
   </varray>
  </structure>
  <varray name="forces" >
   <v>       0.01893946      -0.03500523      -0.08758907 </v>
   <v>      -0.07953175      -0.04112128      -0.03858490 </v>
   <v>      -0.00532520      -0.08113405       0.09969678 </v>
   <v>       0.02657230      -0.00627407       0.04275189 </v>
   <v>      -0.07576663      -0.02845517       0.04152089 </v>
   <v>       0.04694291      -0.07495453      -0.05891626 </v>
   <v>       0.05587413      -0.02663538       0.04272190 </v>
   <v>       0.04619043       0.02895783      -0.08556060 </v>
   <v>      -0.04994423       0.02362974      -0.04455830 </v>
   <v>       0.08967913       0.03367230       0.09791898 </v>
   <v>      -0.01390032       0.00194905      -0.02383932 </v>
   <v>      -0.06197564       0.03486995      -0.03898997 </v>
   <v>      -0.09256341       0.00377831      -0.00822864 </v>
   <v>      -0.04849707      -0.00938736      -0.00628712 </v>
   <v>      -0.02849484      -0.00798983       0.06482755 </v>
   <v>       0.02932655       0.17194260      -0.07618087 </v>
   <v>      -0.08451846      -0.00181911       0.00055290 </v>
   <v>      -0.01924946      -0.08613367      -0.01147718 </v>
   <v>       0.12281527       0.10342111       0.09585342 </v>
   <v>       0.05396015      -0.04729926       0.01570509 </v>
   <v>      -0.03906057      -0.00369468      -0.02881648 </v>
   <v>       0.01523366       0.10019227       0.06133913 </v>
   <v>      -0.05833139       0.03821644      -0.04816757 </v>
   <v>       0.04437863       0.04892004       0.01065360 </v>
   <v>      -0.03637408       0.07208562      -0.00533243 </v>
   <v>       0.02261330       0.02561227      -0.05950850 </v>
   <v>       0.05129180       0.00733810       0.03279325 </v>
   <v>      -0.03546621       0.02111619      -0.01151866 </v>
   <v>       0.00336826      -0.04936949       0.05007113 </v>
   <v>       0.05144561       0.01595234      -0.03960743 </v>
   <v>       0.02240622      -0.08166143      -0.04294224 </v>
   <v>      -0.00833374      -0.10172591      -0.00462587 </v>
   <v>       0.00994866      -0.09968205       0.11099148 </v>
   <v>       0.03053094      -0.00151122      -0.04318206 </v>
   <v>      -0.00768076       0.08802171      -0.00988172 </v>
   <v>       0.00349637      -0.03582215       0.00639719 </v>
  </varray>
  <varray name="stress" >
   <v>      -0.74329027      -0.09504033      -0.41135839 </v>
   <v>      -0.09504030      -2.48363212       0.43162791 </v>
   <v>      -0.41135839       0.43162789      -1.44582734 </v>
  </varray>
  <energy>
   <i name="e_fr_energy">   -363.03008749 </i>
   <i name="e_wo_entrp">   -363.03579270 </i>
   <i name="e_0_energy">      0.01711563 </i>
  </energy>
  <time name="totalsc">   14.63   15.87</time>
 </calculation>
 <calculation>
  <scstep>
   <time name="dav">    1.01    1.06</time>
   <time name="total">    1.10    1.30</time>
   <energy>
    <i name="alphaZ">   1609.53226028 </i>
    <i name="ewald"> -20938.72797312 </i>
    <i name="hartreedc">  -7330.95522887 </i>
    <i name="XCdc">   -111.26503545 </i>
    <i name="pawpsdc">  35670.86688012 </i>
    <i name="pawaedc"> -34110.61136875 </i>
    <i name="eentropy">      0.01697515 </i>
    <i name="bandstr">  -2835.32866231 </i>
    <i name="atom">  27683.43937672 </i>
    <i name="e_fr_energy">   -363.03277625 </i>
    <i name="e_wo_entrp">   -363.04975140 </i>
    <i name="e_0_energy">   -363.03843463 </i>
   </energy>
  </scstep>
  <scstep>
   <time name="diag">    0.15    0.15</time>
   <time name="diis">    0.71    0.75</time>
   <time name="orth">    0.01    0.01</time>
   <time name="total">    0.94    1.01</time>
   <energy>
    <i name="e_fr_energy">   -363.04051289 </i>
    <i name="e_wo_entrp">   -363.05752828 </i>
    <i name="e_0_energy">   -363.04618469 </i>
   </energy>
  </scstep>
  <scstep>
   <time name="diag">    0.08    0.09</time>
   <time name="diis">    0.83    0.87</time>
   <time name="orth">    0.01    0.01</time>
   <time name="total">    0.99    1.07</time>
   <energy>
    <i name="e_fr_energy">   -363.03663656 </i>
    <i name="e_wo_entrp">   -363.05338089 </i>
    <i name="e_0_energy">   -363.04221800 </i>
   </energy>
  </scstep>
  <scstep>
   <time name="diag">    0.08    0.09</time>
   <time name="diis">    0.85    0.89</time>
   <time name="orth">    0.01    0.01</time>
   <time name="total">    1.01    1.10</time>
   <energy>
    <i name="e_fr_energy">   -363.03494349 </i>
    <i name="e_wo_entrp">   -363.05178552 </i>
    <i name="e_0_energy">   -363.04055750 </i>
   </energy>
  </scstep>
  <scstep>
   <time name="diag">    0.09    0.10</time>
   <time name="diis">    0.86    0.89</time>
   <time name="orth">    0.01    0.01</time>
   <time name="total">    1.03    1.10</time>
   <energy>
    <i name="e_fr_energy">   -363.03470556 </i>
    <i name="e_wo_entrp">   -363.05141942 </i>
    <i name="e_0_energy">   -363.04027685 </i>
   </energy>
  </scstep>
  <scstep>
[...]
       <r>    7.0493    1.0000 </r>
       <r>    7.0905    1.0000 </r>
       <r>    7.1253    1.0000 </r>
       <r>    7.1451    1.0000 </r>
       <r>    7.1927    1.0000 </r>
       <r>    7.2408    1.0000 </r>
       <r>    7.2696    1.0000 </r>
       <r>    7.3263    1.0002 </r>
       <r>    7.3705    1.0008 </r>
       <r>    7.3894    1.0013 </r>
       <r>    7.4195    1.0031 </r>
       <r>    7.4416    1.0054 </r>
       <r>    7.4943    1.0157 </r>
       <r>    7.5269    1.0254 </r>
       <r>    7.5662    1.0349 </r>
       <r>    7.6081    1.0260 </r>
       <r>    7.6320    1.0016 </r>
       <r>    7.6732    0.9085 </r>
       <r>    7.6945    0.8308 </r>
       <r>    7.7442    0.5851 </r>
       <r>    7.7656    0.4652 </r>
       <r>    7.8353    0.1267 </r>
       <r>    7.8810    0.0072 </r>
       <r>    7.8901   -0.0061 </r>
       <r>    7.9292   -0.0340 </r>
       <r>    7.9730   -0.0309 </r>
       <r>    7.9924   -0.0252 </r>
       <r>    8.0618   -0.0076 </r>
       <r>    8.0785   -0.0052 </r>
       <r>    8.1225   -0.0016 </r>
       <r>    8.1716   -0.0004 </r>
       <r>    8.1830   -0.0002 </r>
       <r>    8.2241   -0.0001 </r>
       <r>    8.2551   -0.0000 </r>
       <r>    8.2854   -0.0000 </r>
       <r>    8.3862   -0.0000 </r>
       <r>    8.4241   -0.0000 </r>
       <r>    8.4451   -0.0000 </r>
       <r>    8.5083   -0.0000 </r>
       <r>    8.6372   -0.0000 </r>
       <r>    8.6883   -0.0000 </r>
       <r>    8.8413   -0.0000 </r>
       <r>    8.9685   -0.0000 </r>
       <r>    9.0828   -0.0000 </r>
       <r>    9.6092   -0.0000 </r>
       <r>    9.6719   -0.0000 </r>
       <r>    9.7456   -0.0000 </r>
       <r>    9.7790   -0.0000 </r>
       <r>    9.8553   -0.0000 </r>
      </set>
     </set>
    </set>
   </array>
  </eigenvalues>
  <separator name="orbital magnetization" >
   <v name="MAGDIPOLOUT">      0.00000000      0.00000000      0.00000000</v>
  </separator>
  <dos>
   <i name="efermi">      7.75940984 </i>
   <total>
    <array>
     <dimension dim="1">gridpoints</dimension>
     <dimension dim="2">spin</dimension>
     <field>energy</field>
     <field>total</field>
     <field>integrated</field>
     <set>
      <set comment="spin 1">
       <r>   -49.3301     0.0000     0.0000 </r>
       <r>   -49.1235     0.0000     0.0000 </r>
       <r>   -48.9168     0.0000     0.0000 </r>
       <r>   -48.7101     0.0000     0.0000 </r>
       <r>   -48.5034     0.0000     0.0000 </r>
       <r>   -48.2967     0.0000     0.0000 </r>
       <r>   -48.0901     0.0000     0.0000 </r>
       <r>   -47.8834    -0.0000    -0.0000 </r>
       <r>   -47.6767    -0.0000    -0.0000 </r>
       <r>   -47.4700    -0.0000    -0.0000 </r>
       <r>   -47.2633    -0.0000    -0.0000 </r>
       <r>   -47.0567    -0.0000    -0.0000 </r>
       <r>   -46.8500    -0.0772    -0.0160 </r>
       <r>   -46.6433    -2.0545    -0.4406 </r>
       <r>   -46.4366    47.1198     9.2981 </r>
       <r>   -46.2299    49.1768    19.4619 </r>
       <r>   -46.0233     2.9794    20.0777 </r>
       <r>   -45.8166    -0.3737    20.0005 </r>
       <r>   -45.6099    -0.0024    20.0000 </r>
       <r>   -45.4032    -0.0000    20.0000 </r>
       <r>   -45.1965    -0.0000    20.0000 </r>
       <r>   -44.9899     0.0000    20.0000 </r>
       <r>   -44.7832     0.0000    20.0000 </r>
       <r>   -44.5765     0.0000    20.0000 </r>
       <r>   -44.3698     0.0000    20.0000 </r>
       <r>   -44.1631     0.0000    20.0000 </r>
       <r>   -43.9565     0.0000    20.0000 </r>
       <r>   -43.7498     0.0000    20.0000 </r>
       <r>   -43.5431     0.0000    20.0000 </r>
       <r>   -43.3364     0.0000    20.0000 </r>
       <r>   -43.1298     0.0000    20.0000 </r>
       <r>   -42.9231     0.0000    20.0000 </r>
       <r>   -42.7164     0.0000    20.0000 </r>
       <r>   -42.5097     0.0000    20.0000 </r>
       <r>   -42.3030     0.0000    20.0000 </r>
       <r>   -42.0964     0.0000    20.0000 </r>
       <r>   -41.8897    -0.0000    20.0000 </r>
       <r>   -41.6830    -0.0000    20.0000 </r>
       <r>   -41.4763    -0.0000    20.0000 </r>
       <r>   -41.2696    -0.0000    20.0000 </r>
       <r>   -41.0630    -0.0000    20.0000 </r>
       <r>   -40.8563    -0.0403    19.9917 </r>
       <r>   -40.6496    -0.9653    19.7922 </r>
       <r>   -40.4429    21.7665    24.2908 </r>
       <r>   -40.2362    51.2015    34.8732 </r>
       <r>   -40.0296     6.0133    36.1160 </r>
       <r>   -39.8229    -0.5594    36.0003 </r>
       <r>   -39.6162    -0.0017    36.0000 </r>
       <r>   -39.4095    -0.0000    36.0000 </r>
       <r>   -39.2028    -0.0000    36.0000 </r>
       <r>   -38.9962     0.0000    36.0000 </r>
       <r>   -38.7895     0.0000    36.0000 </r>
       <r>   -38.5828     0.0000    36.0000 </r>
       <r>   -38.3761     0.0000    36.0000 </r>
       <r>   -38.1694     0.0000    36.0000 </r>
       <r>   -37.9628     0.0000    36.0000 </r>
       <r>   -37.7561     0.0000    36.0000 </r>
       <r>   -37.5494     0.0000    36.0000 </r>
       <r>   -37.3427     0.0000    36.0000 </r>
       <r>   -37.1360     0.0000    36.0000 </r>
       <r>   -36.9294     0.0000    36.0000 </r>
       <r>   -36.7227     0.0000    36.0000 </r>
       <r>   -36.5160     0.0000    36.0000 </r>
       <r>   -36.3093     0.0000    36.0000 </r>
       <r>   -36.1026     0.0000    36.0000 </r>
       <r>   -35.8960     0.0000    36.0000 </r>
       <r>   -35.6893     0.0000    36.0000 </r>
       <r>   -35.4826     0.0000    36.0000 </r>
       <r>   -35.2759     0.0000    36.0000 </r>
       <r>   -35.0693     0.0000    36.0000 </r>
       <r>   -34.8626     0.0000    36.0000 </r>
       <r>   -34.6559     0.0000    36.0000 </r>
       <r>   -34.4492     0.0000    36.0000 </r>
       <r>   -34.2425     0.0000    36.0000 </r>
       <r>   -34.0359     0.0000    36.0000 </r>
       <r>   -33.8292     0.0000    36.0000 </r>
       <r>   -33.6225     0.0000    36.0000 </r>
       <r>   -33.4158     0.0000    36.0000 </r>
       <r>   -33.2091     0.0000    36.0000 </r>
       <r>   -33.0025     0.0000    36.0000 </r>
       <r>   -32.7958     0.0000    36.0000 </r>
       <r>   -32.5891     0.0000    36.0000 </r>
       <r>   -32.3824     0.0000    36.0000 </r>
       <r>   -32.1757     0.0000    36.0000 </r>
       <r>   -31.9691     0.0000    36.0000 </r>
       <r>   -31.7624     0.0000    36.0000 </r>
       <r>   -31.5557     0.0000    36.0000 </r>
       <r>   -31.3490     0.0000    36.0000 </r>
       <r>   -31.1423     0.0000    36.0000 </r>
       <r>   -30.9357     0.0000    36.0000 </r>
       <r>   -30.7290     0.0000    36.0000 </r>
       <r>   -30.5223     0.0000    36.0000 </r>
       <r>   -30.3156     0.0000    36.0000 </r>
       <r>   -30.1089     0.0000    36.0000 </r>
       <r>   -29.9023     0.0000    36.0000 </r>
       <r>   -29.6956     0.0000    36.0000 </r>
       <r>   -29.4889     0.0000    36.0000 </r>
       <r>   -29.2822     0.0000    36.0000 </r>
       <r>   -29.0755     0.0000    36.0000 </r>
       <r>   -28.8689     0.0000    36.0000 </r>
       <r>   -28.6622     0.0000    36.0000 </r>
       <r>   -28.4555     0.0000    36.0000 </r>
       <r>   -28.2488     0.0000    36.0000 </r>
       <r>   -28.0422     0.0000    36.0000 </r>
       <r>   -27.8355     0.0000    36.0000 </r>
       <r>   -27.6288     0.0000    36.0000 </r>
       <r>   -27.4221     0.0000    36.0000 </r>
       <r>   -27.2154     0.0000    36.0000 </r>
       <r>   -27.0088     0.0000    36.0000 </r>
       <r>   -26.8021     0.0000    36.0000 </r>
       <r>   -26.5954     0.0000    36.0000 </r>
       <r>   -26.3887     0.0000    36.0000 </r>
       <r>   -26.1820     0.0000    36.0000 </r>
       <r>   -25.9754     0.0000    36.0000 </r>
       <r>   -25.7687     0.0000    36.0000 </r>
       <r>   -25.5620     0.0000    36.0000 </r>
       <r>   -25.3553     0.0000    36.0000 </r>
       <r>   -25.1486     0.0000    36.0000 </r>
       <r>   -24.9420     0.0000    36.0000 </r>
       <r>   -24.7353     0.0000    36.0000 </r>
       <r>   -24.5286     0.0000    36.0000 </r>
       <r>   -24.3219    -0.0000    36.0000 </r>
       <r>   -24.1152    -0.0000    36.0000 </r>
       <r>   -23.9086    -0.0000    36.0000 </r>
       <r>   -23.7019    -0.0000    36.0000 </r>
       <r>   -23.4952    -0.0001    36.0000 </r>
       <r>   -23.2885    -0.0747    35.9845 </r>
       <r>   -23.0818     0.2617    36.0386 </r>
       <r>   -22.8752    11.5665    38.4292 </r>
       <r>   -22.6685    58.6332    50.5475 </r>
       <r>   -22.4618   139.5441    79.3884 </r>
       <r>   -22.2551    55.9270    90.9473 </r>
       <r>   -22.0484    25.2574    96.1675 </r>
       <r>   -21.8418    -0.7404    96.0145 </r>
       <r>   -21.6351    -0.0702    96.0000 </r>
       <r>   -21.4284    -0.0000    96.0000 </r>
       <r>   -21.2217    -0.0000    96.0000 </r>
       <r>   -21.0150     0.0000    96.0000 </r>
       <r>   -20.8084     0.0000    96.0000 </r>
       <r>   -20.6017     0.0000    96.0000 </r>
       <r>   -20.3950     0.0000    96.0000 </r>
       <r>   -20.1883    -0.0000    96.0000 </r>
       <r>   -19.9817    -0.0000    96.0000 </r>
       <r>   -19.7750    -0.0000    96.0000 </r>
       <r>   -19.5683    -0.0000    96.0000 </r>
       <r>   -19.3616    -0.0005    95.9999 </r>
       <r>   -19.1549    -0.2115    95.9562 </r>
       <r>   -18.9483     1.8834    96.3454 </r>
       <r>   -18.7416    21.8650   100.8645 </r>
       <r>   -18.5349    59.4220   113.1458 </r>
       <r>   -18.3282   105.6860   134.9889 </r>
       <r>   -18.1215    38.6213   142.9712 </r>
       <r>   -17.9149     5.4103   144.0893 </r>
       <r>   -17.7082    -0.4244   144.0016 </r>
       <r>   -17.5015    -0.0078   144.0000 </r>
       <r>   -17.2948    -0.0000   144.0000 </r>
       <r>   -17.0881    -0.0000   144.0000 </r>
       <r>   -16.8815     0.0000   144.0000 </r>
       <r>   -16.6748     0.0000   144.0000 </r>
       <r>   -16.4681     0.0000   144.0000 </r>
       <r>   -16.2614     0.0000   144.0000 </r>
       <r>   -16.0547     0.0000   144.0000 </r>
       <r>   -15.8481     0.0000   144.0000 </r>
       <r>   -15.6414     0.0000   144.0000 </r>
       <r>   -15.4347     0.0000   144.0000 </r>
       <r>   -15.2280     0.0000   144.0000 </r>
       <r>   -15.0213     0.0000   144.0000 </r>
       <r>   -14.8147     0.0000   144.0000 </r>
       <r>   -14.6080     0.0000   144.0000 </r>
       <r>   -14.4013     0.0000   144.0000 </r>
       <r>   -14.1946     0.0000   144.0000 </r>
       <r>   -13.9879     0.0000   144.0000 </r>
       <r>   -13.7813     0.0000   144.0000 </r>
       <r>   -13.5746     0.0000   144.0000 </r>
       <r>   -13.3679     0.0000   144.0000 </r>
       <r>   -13.1612     0.0000   144.0000 </r>
       <r>   -12.9545     0.0000   144.0000 </r>
       <r>   -12.7479     0.0000   144.0000 </r>
       <r>   -12.5412     0.0000   144.0000 </r>
       <r>   -12.3345     0.0000   144.0000 </r>
       <r>   -12.1278     0.0000   144.0000 </r>
       <r>   -11.9212     0.0000   144.0000 </r>
       <r>   -11.7145     0.0000   144.0000 </r>
       <r>   -11.5078     0.0000   144.0000 </r>
       <r>   -11.3011     0.0000   144.0000 </r>
       <r>   -11.0944     0.0000   144.0000 </r>
       <r>   -10.8878     0.0000   144.0000 </r>
       <r>   -10.6811     0.0000   144.0000 </r>
       <r>   -10.4744     0.0000   144.0000 </r>
       <r>   -10.2677     0.0000   144.0000 </r>
       <r>   -10.0610     0.0000   144.0000 </r>
       <r>    -9.8544     0.0000   144.0000 </r>
       <r>    -9.6477     0.0000   144.0000 </r>
       <r>    -9.4410     0.0000   144.0000 </r>
       <r>    -9.2343     0.0000   144.0000 </r>
       <r>    -9.0276     0.0000   144.0000 </r>
       <r>    -8.8210     0.0000   144.0000 </r>
       <r>    -8.6143     0.0000   144.0000 </r>
       <r>    -8.4076     0.0000   144.0000 </r>
       <r>    -8.2009     0.0000   144.0000 </r>
       <r>    -7.9942     0.0000   144.0000 </r>
       <r>    -7.7876     0.0000   144.0000 </r>
       <r>    -7.5809     0.0000   144.0000 </r>
       <r>    -7.3742     0.0000   144.0000 </r>
       <r>    -7.1675     0.0000   144.0000 </r>
       <r>    -6.9608     0.0000   144.0000 </r>
       <r>    -6.7542     0.0000   144.0000 </r>
       <r>    -6.5475     0.0000   144.0000 </r>
       <r>    -6.3408     0.0000   144.0000 </r>
       <r>    -6.1341     0.0000   144.0000 </r>
       <r>    -5.9274     0.0000   144.0000 </r>
       <r>    -5.7208     0.0000   144.0000 </r>
       <r>    -5.5141     0.0000   144.0000 </r>
       <r>    -5.3074     0.0000   144.0000 </r>
       <r>    -5.1007     0.0000   144.0000 </r>
       <r>    -4.8941     0.0000   144.0000 </r>
       <r>    -4.6874     0.0000   144.0000 </r>
       <r>    -4.4807     0.0000   144.0000 </r>
       <r>    -4.2740     0.0000   144.0000 </r>
       <r>    -4.0673     0.0000   144.0000 </r>
       <r>    -3.8607     0.0000   144.0000 </r>
       <r>    -3.6540     0.0000   144.0000 </r>
       <r>    -3.4473     0.0000   144.0000 </r>
       <r>    -3.2406     0.0000   144.0000 </r>
       <r>    -3.0339     0.0000   144.0000 </r>
       <r>    -2.8273     0.0000   144.0000 </r>
       <r>    -2.6206     0.0000   144.0000 </r>
       <r>    -2.4139     0.0000   144.0000 </r>
       <r>    -2.2072     0.0000   144.0000 </r>
       <r>    -2.0005     0.0000   144.0000 </r>
       <r>    -1.7939     0.0000   144.0000 </r>
       <r>    -1.5872     0.0000   144.0000 </r>
       <r>    -1.3805     0.0000   144.0000 </r>
       <r>    -1.1738     0.0000   144.0000 </r>
       <r>    -0.9671     0.0000   144.0000 </r>
       <r>    -0.7605     0.0000   144.0000 </r>
       <r>    -0.5538     0.0000   144.0000 </r>
       <r>    -0.3471    -0.0000   144.0000 </r>
       <r>    -0.1404    -0.0000   144.0000 </r>
       <r>     0.0663    -0.0000   144.0000 </r>
       <r>     0.2729    -0.0000   144.0000 </r>
       <r>     0.4796    -0.0000   144.0000 </r>
       <r>     0.6863    -0.0025   143.9995 </r>
       <r>     0.8930     0.0111   144.0018 </r>
       <r>     1.0997     0.4205   144.0887 </r>
       <r>     1.3063     1.3756   144.3730 </r>
       <r>     1.5130     1.7403   144.7327 </r>
       <r>     1.7197     2.2949   145.2070 </r>
       <r>     1.9264     4.0265   146.0392 </r>
       <r>     2.1331     2.3628   146.5275 </r>
       <r>     2.3397     2.2502   146.9926 </r>
       <r>     2.5464     4.7855   147.9817 </r>
       <r>     2.7531     2.8666   148.5741 </r>
       <r>     2.9598     6.2149   149.8586 </r>
       <r>     3.1664     5.9467   151.0877 </r>
       <r>     3.3731     8.1143   152.7647 </r>
       <r>     3.5798     7.5707   154.3294 </r>
       <r>     3.7865     8.9763   156.1847 </r>
       <r>     3.9932    11.0965   158.4781 </r>
       <r>     4.1998    18.0283   162.2042 </r>
       <r>     4.4065    21.8514   166.7204 </r>
       <r>     4.6132    24.3143   171.7457 </r>
       <r>     4.8199    30.2227   177.9921 </r>
       <r>     5.0266    32.7919   184.7695 </r>
       <r>     5.2332    40.4089   193.1212 </r>
       <r>     5.4399    40.5236   201.4966 </r>
       <r>     5.6466    36.3314   209.0055 </r>
       <r>     5.8533    33.3797   215.9044 </r>
       <r>     6.0600    33.3140   222.7897 </r>
       <r>     6.2666    15.4929   225.9918 </r>
       <r>     6.4733    47.5574   235.8209 </r>
       <r>     6.6800    63.9277   249.0335 </r>
       <r>     6.8867    58.3153   261.0860 </r>
       <r>     7.0934    53.5163   272.1467 </r>
       <r>     7.3000    51.9949   282.8930 </r>
       <r>     7.5067    57.3927   294.7549 </r>
       <r>     7.7134    48.6398   304.8078 </r>
       <r>     7.9201    47.2725   314.5780 </r>
       <r>     8.1268    51.2016   325.1603 </r>
       <r>     8.3334    45.6056   334.5861 </r>
       <r>     8.5401    32.6326   341.3306 </r>
       <r>     8.7468    28.8711   347.2976 </r>
       <r>     8.9535    20.5435   351.5436 </r>
       <r>     9.1602    15.6105   354.7699 </r>
       <r>     9.3668    14.1272   357.6897 </r>
       <r>     9.5735    24.9203   362.8403 </r>
       <r>     9.7802    20.5561   367.0888 </r>
       <r>     9.9869     4.7190   368.0641 </r>
       <r>    10.1936    -0.3044   368.0012 </r>
       <r>    10.4002    -0.0058   368.0000 </r>
       <r>    10.6069    -0.0000   368.0000 </r>
       <r>    10.8136    -0.0000   368.0000 </r>
       <r>    11.0203     0.0000   368.0000 </r>
       <r>    11.2269     0.0000   368.0000 </r>
       <r>    11.4336     0.0000   368.0000 </r>
       <r>    11.6403     0.0000   368.0000 </r>
       <r>    11.8470     0.0000   368.0000 </r>
       <r>    12.0537     0.0000   368.0000 </r>
       <r>    12.2603     0.0000   368.0000 </r>
       <r>    12.4670     0.0000   368.0000 </r>
       <r>    12.6737     0.0000   368.0000 </r>
      </set>
     </set>
    </array>
   </total>
  </dos>
 </calculation>
 <structure name="finalpos" >
  <crystal>
   <varray name="basis" >
    <v>       6.92206024      -0.02405075       0.02885112 </v>
    <v>      -0.03541353      10.19657051      -0.03537897 </v>
    <v>       0.04164443      -0.03604504      10.22868629 </v>
   </varray>
   <i name="volume">    721.92400492 </i>
   <varray name="rec_basis" >
    <v>       0.14446984       0.00049972      -0.00058642 </v>
    <v>       0.00033933       0.09807456       0.00034423 </v>
    <v>      -0.00040632       0.00033781       0.09776711 </v>
   </varray>
  </crystal>
  <varray name="positions" >
   <v>       0.26363991       0.50719467       0.16765610 </v>
   <v>       0.73130354       0.49487238       0.83642617 </v>
   <v>       0.73385633       0.49822939       0.17418797 </v>
   <v>       0.03385592       0.99403916       0.66842840 </v>
   <v>       0.50721210       0.66513325       0.33764502 </v>
   <v>       0.75312852       0.50004171       0.49053012 </v>
   <v>       0.99743630       0.66570811       0.32789762 </v>
   <v>       0.52659929       0.65677382       0.65637989 </v>
   <v>       0.47330539       0.01244415       0.99530798 </v>
   <v>       0.26970783       0.51075767       0.84025627 </v>
   <v>       0.22794209       0.17037742       0.48571123 </v>
   <v>      -0.00296448       0.33999832       0.00177542 </v>
   <v>       0.97537080       0.66257012       0.01050284 </v>
   <v>       0.26759875       0.82567042       0.16640187 </v>
   <v>       0.46771126       0.00686888       0.65804700 </v>
   <v>       0.75636796       0.83615931       0.50073944 </v>
   <v>      -0.01734458       0.65843786       0.66966857 </v>
   <v>       0.27228144       0.81802878       0.83806135 </v>
   <v>       0.53429521       0.66167388       0.01113904 </v>
   <v>      -0.00043453       0.97797799       0.32841108 </v>
   <v>       0.49783105       0.98749180       0.34340410 </v>
   <v>       0.73991118       0.83464656       0.18027952 </v>
   <v>       0.50567649       0.34789382       0.33174238 </v>
   <v>       0.98917965       0.35387742       0.31447138 </v>
   <v>      -0.00400827       0.34271000       0.68173673 </v>
   <v>       0.24992511       0.82965743       0.49097528 </v>
   <v>       0.49494671       0.33167430       0.99796391 </v>
   <v>       0.24347682       0.17459879       0.83174381 </v>
   <v>       0.25592044       0.17109311       0.18022950 </v>
   <v>       0.01827541       0.00139566      -0.00088835 </v>
   <v>       0.77000204       0.16447693       0.49536186 </v>
   <v>       0.75061766       0.16345214       0.82995346 </v>
   <v>       0.73351248       0.16511885       0.17097944 </v>
   <v>       0.49977630       0.33054225       0.66335557 </v>
   <v>       0.73908414       0.84285656       0.82846071 </v>
   <v>       0.24499573       0.49556308       0.49505634 </v>
  </varray>
 </structure>
</modeling>
