<?xml version="1.0" encoding="ISO-8859-1"?>
<modeling>
 <generator>
  <i name="program" type="string">vasp </i>
  <i name="version" type="string">5.4.1  </i>
  <i name="subversion" type="string">05Feb16 (build Jan 29 2020 16:04:39) complex                          parallel </i>
  <i name="platform" type="string">IFC91_ompi </i>
  <i name="date" type="string">2020 04 11 </i>
  <i name="time" type="string">05:50:43 </i>
 </generator>
 <incar>
  <i type="string" name="SYSTEM"> automatically generated by mexm</i>
  <i type="int" name="ISTART">     0</i>
  <i type="string" name="PREC">accurate               ! avoid wrap aro</i>
  <i type="string" name="ALGO"> Fast                   ! blocked Davids</i>
  <i type="int" name="ISPIN">     1</i>
  <i type="int" name="ICHARG">     2</i>
  <i type="int" name="NELM">    70</i>
  <i type="int" name="IBRION">     2</i>
  <i name="EDIFF">      0.00001000</i>
  <i name="EDIFFG">     -0.01000000</i>
  <i type="int" name="NSW">   300</i>
  <i type="int" name="ISIF">     3</i>
  <i type="int" name="ISYM">     1</i>
  <i name="ENCUT">    300.00000000</i>
  <i name="POTIM">      0.15000000</i>
  <i type="string" name="LREAL"> Auto                  ! unpublished met</i>
  <i type="int" name="ISMEAR">     1</i>
  <i name="SIGMA">      0.15000000</i>
  <i type="logical" name="LWAVE"> F  </i>
  <i type="logical" name="LCHARG"> F  </i>
  <i type="logical" name="LVTOT"> F  </i>
  <v type="int" name="KPOINT_BSE">    -1     0     0     0</v>
  <i type="int" name="NELM">    70</i>
 </incar>
 <kpoints>
  <generation param="Gamma">
   <v type="int" name="divisions">       3        3        3 </v>
   <v name="usershift">      0.00000000       0.00000000       0.00000000 </v>
   <v name="genvec1">      0.33333333       0.00000000       0.00000000 </v>
   <v name="genvec2">      0.00000000       0.33333333      -0.00000000 </v>
   <v name="genvec3">      0.00000000       0.00000000       0.33333333 </v>
   <v name="shift">      0.00000000       0.00000000       0.00000000 </v>
  </generation>
  <varray name="kpointlist" >
   <v>       0.00000000       0.00000000       0.00000000 </v>
   <v>       0.33333333      -0.00000000       0.00000000 </v>
   <v>       0.00000000       0.33333333       0.00000000 </v>
   <v>       0.33333333       0.33333333       0.00000000 </v>
   <v>      -0.33333333       0.33333333       0.00000000 </v>
   <v>       0.00000000       0.00000000       0.33333333 </v>
   <v>       0.33333333       0.00000000       0.33333333 </v>
   <v>      -0.33333333      -0.00000000       0.33333333 </v>
   <v>       0.00000000       0.33333333       0.33333333 </v>
   <v>       0.33333333       0.33333333       0.33333333 </v>
   <v>      -0.33333333       0.33333333       0.33333333 </v>
   <v>      -0.00000000      -0.33333333       0.33333333 </v>
   <v>       0.33333333      -0.33333333       0.33333333 </v>
   <v>      -0.33333333      -0.33333333       0.33333333 </v>
  </varray>
  <varray name="weights" >
   <v>       0.03703704 </v>
   <v>       0.07407407 </v>
   <v>       0.07407407 </v>
   <v>       0.07407407 </v>
   <v>       0.07407407 </v>
   <v>       0.07407407 </v>
   <v>       0.07407407 </v>
   <v>       0.07407407 </v>
   <v>       0.07407407 </v>
   <v>       0.07407407 </v>
   <v>       0.07407407 </v>
   <v>       0.07407407 </v>
   <v>       0.07407407 </v>
   <v>       0.07407407 </v>
  </varray>
 </kpoints>
 <parameters>
  <separator name="general" >
   <i type="string" name="SYSTEM">automatically generated by mexm</i>
   <i type="logical" name="LCOMPAT"> F  </i>
  </separator>
  <separator name="electronic" >
   <i type="string" name="PREC">accura</i>
   <i name="ENMAX">    300.00000000</i>
   <i name="ENAUG">    358.96600000</i>
   <i name="EDIFF">      0.00001000</i>
   <i type="int" name="IALGO">    68</i>
   <i type="int" name="IWAVPR">    11</i>
   <i type="int" name="NBANDS">   204</i>
   <i name="NELECT">    337.00000000</i>
   <i type="int" name="TURBO">     0</i>
   <i type="int" name="IRESTART">     0</i>
   <i type="int" name="NREBOOT">     0</i>
   <i type="int" name="NMIN">     0</i>
   <i name="EREF">      0.00000000</i>
   <separator name="electronic smearing" >
    <i type="int" name="ISMEAR">     1</i>
    <i name="SIGMA">      0.15000000</i>
    <i name="KSPACING">      0.50000000</i>
    <i type="logical" name="KGAMMA"> T  </i>
   </separator>
   <separator name="electronic projectors" >
    <i type="logical" name="LREAL"> T  </i>
    <v name="ROPT">     -0.00025000     -0.00025000</v>
    <i type="int" name="LMAXPAW">  -100</i>
    <i type="int" name="LMAXMIX">     2</i>
    <i type="logical" name="NLSPLINE"> F  </i>
   </separator>
   <separator name="electronic startup" >
    <i type="int" name="ISTART">     0</i>
    <i type="int" name="ICHARG">     2</i>
    <i type="int" name="INIWAV">     1</i>
   </separator>
   <separator name="electronic spin" >
    <i type="int" name="ISPIN">     1</i>
    <i type="logical" name="LNONCOLLINEAR"> F  </i>
    <v name="MAGMOM">      1.00000000      1.00000000      1.00000000      1.00000000      1.00000000      1.00000000      1.00000000      1.00000000      1.00000000      1.00000000      1.00000000      1.00000000      1.00000000      1.00000000      1.00000000      1.00000000      1.00000000      1.00000000      1.00000000      1.00000000
      1.00000000      1.00000000      1.00000000      1.00000000      1.00000000      1.00000000      1.00000000      1.00000000      1.00000000      1.00000000      1.00000000      1.00000000</v>
    <i name="NUPDOWN">     -1.00000000</i>
    <i type="logical" name="LSORBIT"> F  </i>
    <v name="SAXIS">      0.00000000      0.00000000      1.00000000</v>
    <i type="logical" name="LSPIRAL"> F  </i>
    <v name="QSPIRAL">      0.00000000      0.00000000      0.00000000</v>
    <i type="logical" name="LZEROZ"> F  </i>
   </separator>
   <separator name="electronic exchange-correlation" >
    <i type="logical" name="LASPH"> F  </i>
    <i type="logical" name="LMETAGGA"> F  </i>
   </separator>
   <separator name="electronic convergence" >
    <i type="int" name="NELM">    70</i>
    <i type="int" name="NELMDL">    -5</i>
    <i type="int" name="NELMIN">     2</i>
    <i name="ENINI">    300.00000000</i>
    <separator name="electronic convergence detail" >
     <i type="logical" name="LDIAG"> T  </i>
     <i type="logical" name="LSUBROT"> F  </i>
     <i name="WEIMIN">      0.00100000</i>
     <i name="EBREAK">      0.00000001</i>
     <i name="DEPER">      0.30000000</i>
     <i type="int" name="NRMM">     4</i>
     <i name="TIME">      0.40000000</i>
    </separator>
   </separator>
   <separator name="electronic mixer" >
    <i name="AMIX">      0.40000000</i>
    <i name="BMIX">      1.00000000</i>
    <i name="AMIN">      0.10000000</i>
    <i name="AMIX_MAG">      1.60000000</i>
    <i name="BMIX_MAG">      1.00000000</i>
    <separator name="electronic mixer details" >
     <i type="int" name="IMIX">     4</i>
     <i type="logical" name="MIXFIRST"> F  </i>
     <i type="int" name="MAXMIX">   -45</i>
     <i name="WC">    100.00000000</i>
     <i type="int" name="INIMIX">     1</i>
     <i type="int" name="MIXPRE">     1</i>
     <i type="int" name="MREMOVE">     5</i>
    </separator>
   </separator>
   <separator name="electronic dipolcorrection" >
    <i type="logical" name="LDIPOL"> F  </i>
    <i type="logical" name="LMONO"> F  </i>
    <i type="int" name="IDIPOL">     0</i>
    <i name="EPSILON">      1.00000000</i>
    <v name="DIPOL">   -100.00000000   -100.00000000   -100.00000000</v>
    <i name="EFIELD">      0.00000000</i>
   </separator>
  </separator>
  <separator name="grids" >
   <i type="int" name="NGX">    48</i>
   <i type="int" name="NGY">    48</i>
   <i type="int" name="NGZ">    48</i>
   <i type="int" name="NGXF">    96</i>
   <i type="int" name="NGYF">    96</i>
   <i type="int" name="NGZF">    96</i>
   <i type="logical" name="ADDGRID"> F  </i>
  </separator>
  <separator name="ionic" >
   <i type="int" name="NSW">   300</i>
   <i type="int" name="IBRION">     2</i>
   <i type="int" name="ISIF">     3</i>
   <i name="PSTRESS">      0.00000000</i>
   <i name="EDIFFG">     -0.01000000</i>
   <i type="int" name="NFREE">     1</i>
   <i name="POTIM">      0.15000000</i>
   <i name="SMASS">     -3.00000000</i>
   <i name="SCALEE">      1.00000000</i>
  </separator>
  <separator name="ionic md" >
   <i name="TEBEG">      0.00010000</i>
   <i name="TEEND">      0.00010000</i>
   <i type="int" name="NBLOCK">     1</i>
   <i type="int" name="KBLOCK">   300</i>
   <i type="int" name="NPACO">   256</i>
   <i name="APACO">     16.00000000</i>
  </separator>
  <separator name="symmetry" >
   <i type="int" name="ISYM">     1</i>
   <i name="SYMPREC">      0.00001000</i>
  </separator>
  <separator name="dos" >
   <i type="logical" name="LORBIT"> F  </i>
   <v name="RWIGS">     -1.00000000     -1.00000000</v>
   <i type="int" name="NEDOS">   301</i>
   <i name="EMIN">     10.00000000</i>
   <i name="EMAX">    -10.00000000</i>
   <i name="EFERMI">      0.00000000</i>
  </separator>
  <separator name="writing" >
   <i type="int" name="NWRITE">     2</i>
   <i type="logical" name="LWAVE"> F  </i>
   <i type="logical" name="LCHARG"> F  </i>
   <i type="logical" name="LPARD"> F  </i>
   <i type="logical" name="LVTOT"> F  </i>
   <i type="logical" name="LVHAR"> F  </i>
   <i type="logical" name="LELF"> F  </i>
   <i type="logical" name="LOPTICS"> F  </i>
   <v name="STM">      0.00000000      0.00000000      0.00000000      0.00000000      0.00000000      0.00000000      0.00000000</v>
  </separator>
  <separator name="performance" >
   <i type="int" name="NPAR">     4</i>
   <i type="int" name="NSIM">     4</i>
   <i type="int" name="NBLK">    -1</i>
   <i type="logical" name="LPLANE"> T  </i>
   <i type="logical" name="LSCALAPACK"> T  </i>
   <i type="logical" name="LSCAAWARE"> F  </i>
   <i type="logical" name="LSCALU"> F  </i>
   <i type="logical" name="LASYNC"> F  </i>
   <i type="logical" name="LORBITALREAL"> F  </i>
  </separator>
  <separator name="miscellaneous" >
   <i type="int" name="IDIOT">     3</i>
   <i type="logical" name="LMUSIC"> F  </i>
   <v name="POMASS">    195.08000000    196.96600000</v>
   <v name="DARWINR">      0.00000000      0.00000000</v>
   <v name="DARWINV">      1.00000000      1.00000000</v>
   <i type="logical" name="LCORR"> T  </i>
  </separator>
  <i type="logical" name="GGA_COMPAT"> T  </i>
  <i type="logical" name="LBERRY"> F  </i>
  <i type="int" name="ICORELEVEL">     0</i>
  <i type="logical" name="LDAU"> F  </i>
  <i type="int" name="I_CONSTRAINED_M">     0</i>
  <separator name="electronic exchange-correlation" >
   <i type="string" name="GGA">--</i>
   <i type="int" name="VOSKOWN">     0</i>
   <i type="logical" name="LHFCALC"> F  </i>
   <i type="string" name="PRECFOCK"></i>
   <i type="logical" name="LSYMGRAD"> F  </i>
   <i type="logical" name="LHFONE"> F  </i>
   <i type="logical" name="LRHFCALC"> F  </i>
   <i type="logical" name="LTHOMAS"> F  </i>
   <i type="logical" name="LMODELHF"> F  </i>
   <i name="ENCUT4O">     -1.00000000</i>
   <i type="int" name="EXXOEP">     0</i>
   <i type="int" name="FOURORBIT">     0</i>
   <i name="AEXX">      0.00000000</i>
   <i name="HFALPHA">      0.00000000</i>
   <i name="MCALPHA">      0.00000000</i>
   <i name="ALDAX">      1.00000000</i>
   <i name="AGGAX">      1.00000000</i>
   <i name="ALDAC">      1.00000000</i>
   <i name="AGGAC">      1.00000000</i>
   <i type="int" name="NKREDX">     1</i>
   <i type="int" name="NKREDY">     1</i>
   <i type="int" name="NKREDZ">     1</i>
   <i type="logical" name="SHIFTRED"> F  </i>
   <i type="logical" name="ODDONLY"> F  </i>
   <i type="logical" name="EVENONLY"> F  </i>
   <i type="int" name="LMAXFOCK">     0</i>
   <i type="int" name="NMAXFOCKAE">     0</i>
   <i type="logical" name="LFOCKAEDFT"> F  </i>
   <i name="HFSCREEN">      0.00000000</i>
   <i name="HFSCREENC">      0.00000000</i>
   <i type="int" name="NBANDSGWLOW">     0</i>
  </separator>
  <separator name="vdW DFT" >
   <i type="logical" name="LUSE_VDW"> F  </i>
   <i name="Zab_VDW">     -0.84910000</i>
   <i name="PARAM1">      0.12340000</i>
   <i name="PARAM2">      1.00000000</i>
   <i name="PARAM3">      0.00000000</i>
  </separator>
  <separator name="model GW" >
   <i type="int" name="MODEL_GW">     0</i>
   <i name="MODEL_EPS0">     10.15579557</i>
   <i name="MODEL_ALPHA">      1.00000000</i>
  </separator>
  <separator name="linear response parameters" >
   <i type="logical" name="LEPSILON"> F  </i>
   <i type="logical" name="LRPA"> F  </i>
   <i type="logical" name="LNABLA"> F  </i>
   <i type="logical" name="LVEL"> F  </i>
   <i type="int" name="KINTER">     0</i>
   <i name="CSHIFT">      0.10000000</i>
   <i name="OMEGAMAX">     -1.00000000</i>
   <i name="DEG_THRESHOLD">      0.00200000</i>
  </separator>
  <separator name="orbital magnetization" >
   <i type="logical" name="NUCIND"> F  </i>
   <v name="MAGPOS">      0.00000000      0.00000000      0.00000000</v>
   <i type="logical" name="LNICSALL"> T  </i>
   <i type="logical" name="ORBITALMAG"> F  </i>
   <i type="logical" name="LMAGBLOCH"> F  </i>
   <i type="logical" name="LCHIMAG"> F  </i>
   <i type="logical" name="LGAUGE"> T  </i>
   <i type="int" name="MAGATOM">     0</i>
   <v name="MAGDIPOL">      0.00000000      0.00000000      0.00000000</v>
   <v name="AVECCONST">      0.00000000      0.00000000      0.00000000</v>
  </separator>
  <separator name="response functions" >
   <i type="logical" name="LADDER"> F  </i>
   <i type="logical" name="LFXC"> F  </i>
   <i type="logical" name="LHARTREE"> T  </i>
   <i type="int" name="IBSE">     0</i>
   <v type="int" name="KPOINT">    -1     0     0     0</v>
   <i type="logical" name="LTCTE"> F  </i>
   <i type="logical" name="LTETE"> F  </i>
   <i type="logical" name="LTRIPLET"> F  </i>
   <i type="logical" name="LFXCEPS"> F  </i>
   <i type="logical" name="LFXHEG"> F  </i>
   <i type="int" name="NATURALO">     0</i>
   <i type="logical" name="L2ORDER"> F  </i>
   <i type="logical" name="LUSEW"> F  </i>
   <i name="ENCUTGW">     -2.00000000</i>
   <i name="ENCUTGWSOFT">     -2.00000000</i>
   <i name="ENCUTLF">     -1.00000000</i>
   <i type="int" name="LMAXMP2">    -1</i>
   <i name="SCISSOR">      0.00000000</i>
   <i type="int" name="NOMEGA">     0</i>
   <i type="int" name="NOMEGAR">     0</i>
   <i type="int" name="NBANDSGW">    -1</i>
   <i type="int" name="NBANDSO">    -1</i>
   <i type="int" name="NBANDSV">    -1</i>
   <i type="int" name="NELM">    70</i>
   <i type="int" name="NELMHF">     1</i>
   <i type="int" name="DIM">     3</i>
   <i type="int" name="ANTIRES">     0</i>
   <i name="OMEGAMAX">    -30.00000000</i>
   <i name="OMEGAMIN">    -30.00000000</i>
   <i name="OMEGATL">   -200.00000000</i>
   <i type="int" name="OMEGAGRID">     0</i>
   <i name="CSHIFT">     -0.10000000</i>
   <i type="logical" name="SELFENERGY"> F  </i>
   <i type="logical" name="LSPECTRAL"> F  </i>
   <i type="logical" name="LSPECTRALGW"> F  </i>
   <i type="logical" name="LSINGLES"> F  </i>
   <i type="logical" name="LFERMIGW"> F  </i>
   <i type="logical" name="ODDONLYGW"> F  </i>
   <i type="logical" name="EVENONLYGW"> F  </i>
   <i type="int" name="NKREDLFX">     1</i>
   <i type="int" name="NKREDLFY">     1</i>
   <i type="int" name="NKREDLFZ">     1</i>
   <i type="int" name="MAXMEM">  1800</i>
   <i type="int" name="TELESCOPE">     0</i>
   <i type="int" name="TAUPAR">     1</i>
   <i type="int" name="OMEGAPAR">    -1</i>
   <i name="LAMBDA">      1.00000000</i>
  </separator>
  <separator name="External order field" >
   <i name="OFIELD_KAPPA">      0.00000000</i>
   <v name="OFIELD_K">      0.00000000      0.00000000      0.00000000</v>
   <i name="OFIELD_Q6_NEAR">      0.00000000</i>
   <i name="OFIELD_Q6_FAR">      0.00000000</i>
   <i name="OFIELD_A">      0.00000000</i>
  </separator>
 </parameters>
 <atominfo>
  <atoms>      32 </atoms>
  <types>       2 </types>
  <array name="atoms" >
   <dimension dim="1">ion</dimension>
   <field type="string">element</field>
   <field type="int">atomtype</field>
   <set>
    <rc><c>Pt</c><c>   1</c></rc>
    <rc><c>Pt</c><c>   1</c></rc>
    <rc><c>Pt</c><c>   1</c></rc>
    <rc><c>Pt</c><c>   1</c></rc>
    <rc><c>Pt</c><c>   1</c></rc>
    <rc><c>Pt</c><c>   1</c></rc>
    <rc><c>Pt</c><c>   1</c></rc>
    <rc><c>Pt</c><c>   1</c></rc>
    <rc><c>Pt</c><c>   1</c></rc>
    <rc><c>Pt</c><c>   1</c></rc>
    <rc><c>Pt</c><c>   1</c></rc>
    <rc><c>Pt</c><c>   1</c></rc>
    <rc><c>Pt</c><c>   1</c></rc>
    <rc><c>Pt</c><c>   1</c></rc>
    <rc><c>Pt</c><c>   1</c></rc>
    <rc><c>Au</c><c>   2</c></rc>
    <rc><c>Au</c><c>   2</c></rc>
    <rc><c>Au</c><c>   2</c></rc>
    <rc><c>Au</c><c>   2</c></rc>
    <rc><c>Au</c><c>   2</c></rc>
    <rc><c>Au</c><c>   2</c></rc>
    <rc><c>Au</c><c>   2</c></rc>
    <rc><c>Au</c><c>   2</c></rc>
    <rc><c>Au</c><c>   2</c></rc>
    <rc><c>Au</c><c>   2</c></rc>
    <rc><c>Au</c><c>   2</c></rc>
    <rc><c>Au</c><c>   2</c></rc>
    <rc><c>Au</c><c>   2</c></rc>
    <rc><c>Au</c><c>   2</c></rc>
    <rc><c>Au</c><c>   2</c></rc>
    <rc><c>Au</c><c>   2</c></rc>
    <rc><c>Au</c><c>   2</c></rc>
   </set>
  </array>
  <array name="atomtypes" >
   <dimension dim="1">type</dimension>
   <field type="int">atomspertype</field>
   <field type="string">element</field>
   <field>mass</field>
   <field>valence</field>
   <field type="string">pseudopotential</field>
   <set>
    <rc><c>  15</c><c>Pt</c><c>    195.08000000</c><c>     10.00000000</c><c>  PAW_PBE Pt 04Feb2005                  </c></rc>
    <rc><c>  17</c><c>Au</c><c>    196.96600000</c><c>     11.00000000</c><c>  PAW_PBE Au 04Oct2007                  </c></rc>
   </set>
  </array>
 </atominfo>
 <structure name="initialpos" >
  <crystal>
   <varray name="basis" >
    <v>       8.06867501       0.01032616       0.00117496 </v>
    <v>       0.01022782       8.21322054       0.02237593 </v>
    <v>       0.00114390       0.02233453       8.17336519 </v>
   </varray>
   <i name="volume">    541.64243038 </i>
   <varray name="rec_basis" >
    <v>       0.12393629      -0.00015429      -0.00001692 </v>
    <v>      -0.00015577       0.12175602      -0.00033269 </v>
    <v>      -0.00001739      -0.00033330       0.12234954 </v>
   </varray>
  </crystal>
  <varray name="positions" >
   <v>       0.25030700       0.25136700       0.00087200 </v>
   <v>       0.00137200       0.24946200       0.25009900 </v>
   <v>       0.00242200       0.00321700       0.49777000 </v>
   <v>       0.25019600       0.00244000       0.75019000 </v>
   <v>       0.24830600       0.74949400       0.00347100 </v>
   <v>       0.25093400       0.74812600       0.49885200 </v>
   <v>       0.24835300       0.49965300       0.75019600 </v>
   <v>       0.99813400       0.74823500       0.75250400 </v>
   <v>       0.49945400       0.00042500       0.99734100 </v>
   <v>       0.49959900       0.00036000       0.49954500 </v>
   <v>       0.74993000       0.25041000       0.49859100 </v>
   <v>       0.75039400       0.00210000       0.75127700 </v>
   <v>       0.50126800       0.49968900       0.00210300 </v>
   <v>       0.74894100       0.74881700       0.00078600 </v>
   <v>       0.75087500       0.74685400       0.49675900 </v>
   <v>       0.99925700       0.75027400       0.24859500 </v>
   <v>       0.99775800       0.00615700       0.00264400 </v>
   <v>       0.25500200       0.00229000       0.24981700 </v>
   <v>       0.25359500       0.25542800       0.50067800 </v>
   <v>       0.99893300       0.25363800       0.75229400 </v>
   <v>       0.99360000       0.49461900       0.00355800 </v>
   <v>       0.25086200       0.49821200       0.25611200 </v>
   <v>       0.00011800       0.49397200       0.49996500 </v>
   <v>       0.74996600       0.25183500       0.99947200 </v>
   <v>       0.74437000       0.00425700       0.24179700 </v>
   <v>       0.49833700       0.25192500       0.25258800 </v>
   <v>       0.50219900       0.25648400       0.74703800 </v>
   <v>       0.74772300       0.49692400       0.25018700 </v>
   <v>       0.49982200       0.74847500       0.25234800 </v>
   <v>       0.50147000       0.49844700       0.49734700 </v>
   <v>       0.75225100       0.49443500       0.74949700 </v>
   <v>       0.50425000       0.74198200       0.74570700 </v>
  </varray>
 </structure>
 <calculation>
  <scstep>
   <time name="dav">    0.75    0.76</time>
   <time name="total">    0.80    0.81</time>
   <energy>
    <i name="alphaZ">   2007.16642502 </i>
    <i name="ewald"> -28727.10128105 </i>
    <i name="hartreedc">  -3404.59450959 </i>
    <i name="XCdc">    316.96373947 </i>
    <i name="pawpsdc">  25301.51058842 </i>
    <i name="pawaedc"> -24484.77671673 </i>
    <i name="eentropy">     -0.00292601 </i>
    <i name="bandstr">   3932.38182397 </i>
    <i name="atom">  26678.84160970 </i>
    <i name="e_fr_energy">   1620.38875321 </i>
    <i name="e_wo_entrp">   1620.39167921 </i>
    <i name="e_0_energy">   1620.38972854 </i>
   </energy>
  </scstep>
  <scstep>
   <time name="dav">    0.84    0.86</time>
   <time name="total">    0.84    0.91</time>
   <energy>
    <i name="e_fr_energy">    -81.23750625 </i>
    <i name="e_wo_entrp">    -81.23865287 </i>
    <i name="e_0_energy">    -81.23788846 </i>
   </energy>
  </scstep>
  <scstep>
   <time name="dav">    0.87    0.89</time>
   <time name="total">    0.87    0.89</time>
   <energy>
    <i name="e_fr_energy">   -152.93593976 </i>
    <i name="e_wo_entrp">   -152.93952112 </i>
    <i name="e_0_energy">   -152.93713355 </i>
   </energy>
  </scstep>
  <scstep>
   <time name="dav">    0.98    0.99</time>
   <time name="total">    1.01    1.02</time>
   <energy>
    <i name="e_fr_energy">   -154.29388500 </i>
    <i name="e_wo_entrp">   -154.29814930 </i>
    <i name="e_0_energy">   -154.29530643 </i>
   </energy>
  </scstep>
  <scstep>
   <time name="dav">    0.92    0.93</time>
   <time name="total">    0.97    0.99</time>
   <energy>
    <i name="e_fr_energy">   -154.32051052 </i>
    <i name="e_wo_entrp">   -154.32478729 </i>
    <i name="e_0_energy">   -154.32193611 </i>
   </energy>
  </scstep>
  <scstep>
   <time name="diag">    0.08    0.09</time>
   <time name="diis">    0.40    0.44</time>
   <time name="orth">    0.01    0.01</time>
   <time name="total">    0.58    0.63</time>
   <energy>
    <i name="e_fr_energy">   -145.22438320 </i>
    <i name="e_wo_entrp">   -145.23060368 </i>
    <i name="e_0_energy">   -145.22645669 </i>
   </energy>
  </scstep>
  <scstep>
   <time name="diag">    0.11    0.11</time>
   <time name="diis">    0.42    0.42</time>
   <time name="orth">    0.01    0.01</time>
   <time name="total">    0.61    0.63</time>
   <energy>
    <i name="e_fr_energy">   -146.32534203 </i>
    <i name="e_wo_entrp">   -146.32162305 </i>
    <i name="e_0_energy">   -146.32410237 </i>
   </energy>
  </scstep>
  <scstep>
   <time name="diag">    0.07    0.08</time>
   <time name="diis">    0.40    0.41</time>
   <time name="orth">    0.01    0.01</time>
   <time name="total">    0.55    0.57</time>
   <energy>
    <i name="e_fr_energy">   -145.39373761 </i>
    <i name="e_wo_entrp">   -145.39444767 </i>
    <i name="e_0_energy">   -145.39397429 </i>
   </energy>
  </scstep>
  <scstep>
   <time name="diag">    0.15    0.15</time>
   <time name="diis">    0.41    0.42</time>
   <time name="orth">    0.01    0.01</time>
   <time name="total">    0.70    0.71</time>
   <energy>
    <i name="e_fr_energy">   -143.93694985 </i>
    <i name="e_wo_entrp">   -143.93695140 </i>
    <i name="e_0_energy">   -143.93695036 </i>
   </energy>
  </scstep>
  <scstep>
   <time name="diag">    0.07    0.07</time>
   <time name="diis">    0.41    0.41</time>
   <time name="orth">    0.01    0.01</time>
   <time name="total">    0.54    0.55</time>
   <energy>
    <i name="e_fr_energy">   -143.92243750 </i>
    <i name="e_wo_entrp">   -143.92622481 </i>
    <i name="e_0_energy">   -143.92369994 </i>
   </energy>
  </scstep>
  <scstep>
   <time name="diag">    0.08    0.08</time>
   <time name="diis">    0.51    0.51</time>
   <time name="orth">    0.01    0.01</time>
   <time name="total">    0.70    0.70</time>
   <energy>
    <i name="e_fr_energy">   -143.68577286 </i>
    <i name="e_wo_entrp">   -143.68481518 </i>
    <i name="e_0_energy">   -143.68545364 </i>
   </energy>
  </scstep>
  <scstep>
   <time name="diag">    0.08    0.08</time>
   <time name="diis">    0.44    0.45</time>
   <time name="orth">    0.01    0.01</time>
   <time name="total">    0.60    0.61</time>
   <energy>
    <i name="e_fr_energy">   -143.67351154 </i>
    <i name="e_wo_entrp">   -143.67187420 </i>
    <i name="e_0_energy">   -143.67296576 </i>
   </energy>
  </scstep>
  <scstep>
   <time name="diag">    0.07    0.07</time>
   <time name="diis">    0.42    0.42</time>
   <time name="orth">    0.01    0.01</time>
   <time name="total">    0.56    0.57</time>
   <energy>
    <i name="e_fr_energy">   -143.67201068 </i>
    <i name="e_wo_entrp">   -143.67123546 </i>
    <i name="e_0_energy">   -143.67175227 </i>
   </energy>
  </scstep>
  <scstep>
   <time name="diag">    0.07    0.07</time>
   <time name="diis">    0.45    0.45</time>
   <time name="orth">    0.01    0.01</time>
   <time name="total">    0.59    0.59</time>
   <energy>
    <i name="e_fr_energy">   -143.67106934 </i>
    <i name="e_wo_entrp">   -143.66901873 </i>
    <i name="e_0_energy">   -143.67038580 </i>
   </energy>
  </scstep>
  <scstep>
   <time name="diag">    0.07    0.07</time>
   <time name="diis">    0.41    0.41</time>
   <time name="orth">    0.01    0.01</time>
   <time name="total">    0.55    0.56</time>
   <energy>
    <i name="e_fr_energy">   -143.67094956 </i>
    <i name="e_wo_entrp">   -143.66997962 </i>
    <i name="e_0_energy">   -143.67062625 </i>
   </energy>
  </scstep>
  <scstep>
   <time name="diag">    0.14    0.14</time>
   <time name="diis">    0.41    0.42</time>
   <time name="orth">    0.01    0.01</time>
   <time name="total">    0.62    0.63</time>
   <energy>
    <i name="e_fr_energy">   -143.67064334 </i>
    <i name="e_wo_entrp">   -143.66901300 </i>
    <i name="e_0_energy">   -143.67009989 </i>
   </energy>
  </scstep>
  <scstep>
   <time name="diag">    0.07    0.07</time>
   <time name="diis">    0.32    0.32</time>
   <time name="orth">    0.01    0.01</time>
   <time name="total">    0.46    0.46</time>
   <energy>
    <i name="e_fr_energy">   -143.67062325 </i>
    <i name="e_wo_entrp">   -143.66917508 </i>
    <i name="e_0_energy">   -143.67014053 </i>
   </energy>
  </scstep>
  <scstep>
   <time name="diag">    0.07    0.07</time>
   <time name="diis">    0.24    0.24</time>
   <time name="orth">    0.01    0.01</time>
   <time name="total">    0.35    0.36</time>
   <energy>
    <i name="alphaZ">   2007.16642502 </i>
    <i name="ewald"> -28727.10128105 </i>
    <i name="hartreedc">  -3066.13822758 </i>
    <i name="XCdc">    303.03082269 </i>
    <i name="pawpsdc">  30883.65668651 </i>
    <i name="pawaedc"> -30147.82983062 </i>
    <i name="eentropy">     -0.00157098 </i>
    <i name="bandstr">   1924.70474869 </i>
    <i name="atom">  26678.84160970 </i>
    <i name="e_fr_energy">   -143.67061762 </i>
    <i name="e_wo_entrp">   -143.66904664 </i>
    <i name="e_0_energy">   -143.67009396 </i>
   </energy>
  </scstep>
  <structure>
   <crystal>
    <varray name="basis" >
     <v>       8.06867501       0.01032616       0.00117496 </v>
     <v>       0.01022782       8.21322054       0.02237593 </v>
     <v>       0.00114390       0.02233453       8.17336519 </v>
    </varray>
    <i name="volume">    541.64243038 </i>
    <varray name="rec_basis" >
     <v>       0.12393629      -0.00015429      -0.00001692 </v>
     <v>      -0.00015577       0.12175602      -0.00033269 </v>
     <v>      -0.00001739      -0.00033330       0.12234954 </v>
    </varray>
   </crystal>
   <varray name="positions" >
    <v>       0.25030700       0.25136700       0.00087200 </v>
    <v>       0.00137200       0.24946200       0.25009900 </v>
    <v>       0.00242200       0.00321700       0.49777000 </v>
    <v>       0.25019600       0.00244000       0.75019000 </v>
    <v>       0.24830600       0.74949400       0.00347100 </v>
    <v>       0.25093400       0.74812600       0.49885200 </v>
    <v>       0.24835300       0.49965300       0.75019600 </v>
    <v>       0.99813400       0.74823500       0.75250400 </v>
    <v>       0.49945400       0.00042500       0.99734100 </v>
    <v>       0.49959900       0.00036000       0.49954500 </v>
    <v>       0.74993000       0.25041000       0.49859100 </v>
    <v>       0.75039400       0.00210000       0.75127700 </v>
    <v>       0.50126800       0.49968900       0.00210300 </v>
    <v>       0.74894100       0.74881700       0.00078600 </v>
    <v>       0.75087500       0.74685400       0.49675900 </v>
    <v>       0.99925700       0.75027400       0.24859500 </v>
    <v>       0.99775800       0.00615700       0.00264400 </v>
    <v>       0.25500200       0.00229000       0.24981700 </v>
    <v>       0.25359500       0.25542800       0.50067800 </v>
    <v>       0.99893300       0.25363800       0.75229400 </v>
    <v>       0.99360000       0.49461900       0.00355800 </v>
    <v>       0.25086200       0.49821200       0.25611200 </v>
    <v>       0.00011800       0.49397200       0.49996500 </v>
    <v>       0.74996600       0.25183500       0.99947200 </v>
    <v>       0.74437000       0.00425700       0.24179700 </v>
    <v>       0.49833700       0.25192500       0.25258800 </v>
    <v>       0.50219900       0.25648400       0.74703800 </v>
    <v>       0.74772300       0.49692400       0.25018700 </v>
    <v>       0.49982200       0.74847500       0.25234800 </v>
    <v>       0.50147000       0.49844700       0.49734700 </v>
    <v>       0.75225100       0.49443500       0.74949700 </v>
    <v>       0.50425000       0.74198200       0.74570700 </v>
   </varray>
  </structure>
  <varray name="forces" >
   <v>       0.28040660       0.08342588      -0.20547198 </v>
   <v>       0.00039570      -0.28735792       0.29334244 </v>
   <v>      -0.32058537      -0.25106616       0.43096463 </v>
   <v>       0.07091988      -0.54306307      -0.02716720 </v>
   <v>       0.15705657      -0.03608755      -0.70754732 </v>
   <v>      -0.38402880       0.50439566       0.75458900 </v>
   <v>      -0.04133401       0.51798270       0.56832988 </v>
   <v>       0.25447299       0.47993021      -0.29319095 </v>
   <v>      -0.26140584      -0.23870084      -0.64369039 </v>
   <v>       0.26999800      -0.22125815       0.53450405 </v>
   <v>       0.29818859      -0.83256755      -0.10103408 </v>
   <v>      -0.00665769      -0.56534399      -0.44856559 </v>
   <v>      -0.51739061       0.24074469      -0.22266798 </v>
   <v>      -0.18361578       0.23749063      -0.49202192 </v>
   <v>       0.36505050       0.74750203       0.38536375 </v>
   <v>      -0.00889665       0.15107342       0.19813072 </v>
   <v>       0.34862088      -0.47394649      -0.40170407 </v>
   <v>      -0.22495649      -0.11506399       0.00393683 </v>
   <v>      -0.31594455      -0.66704700       0.29260642 </v>
   <v>       0.31713597      -0.59106494      -0.28899221 </v>
   <v>       0.69996436       0.50463006      -0.07354093 </v>
   <v>      -0.21228122       0.22007614      -0.72174458 </v>
   <v>      -0.09171385       0.52186403       0.06641143 </v>
   <v>      -0.42681855      -0.20863453       0.04675260 </v>
   <v>       0.18534305      -0.24291416       0.70774858 </v>
   <v>       0.09800803      -0.23666915      -0.35505788 </v>
   <v>      -0.29271764      -0.60239845       0.34536283 </v>
   <v>       0.16360801       0.16129989       0.03097745 </v>
   <v>       0.03690357       0.21260317      -0.27625756 </v>
   <v>       0.09642386       0.29520517       0.31132297 </v>
   <v>      -0.05740798       0.64525723      -0.03874967 </v>
   <v>      -0.29674155       0.58970303       0.32706073 </v>
  </varray>
  <varray name="stress" >
   <v>     -22.84915997       0.09080367       1.12312250 </v>
   <v>       0.09080384     -21.33396395       1.95540625 </v>
   <v>       1.12312247       1.95540629     -22.03851178 </v>
  </varray>
  <energy>
   <i name="e_fr_energy">   -143.67061762 </i>
   <i name="e_wo_entrp">   -143.67009396 </i>
   <i name="e_0_energy">     -0.00157098 </i>
  </energy>
  <time name="totalsc">   13.22   13.55</time>
 </calculation>
 <calculation>
  <scstep>
   <time name="dav">    0.74    0.74</time>
   <time name="total">    0.79    0.80</time>
   <energy>
    <i name="alphaZ">   2027.62765600 </i>
    <i name="ewald"> -28838.46023237 </i>
    <i name="hartreedc">  -3063.04368192 </i>
    <i name="XCdc">    306.06572820 </i>
    <i name="pawpsdc">  30884.19777620 </i>
    <i name="pawaedc"> -30148.37108491 </i>
    <i name="eentropy">      0.00425367 </i>
    <i name="bandstr">   2008.87725651 </i>
    <i name="atom">  26678.84160970 </i>
    <i name="e_fr_energy">   -144.26071891 </i>
    <i name="e_wo_entrp">   -144.26497258 </i>
    <i name="e_0_energy">   -144.26213680 </i>
   </energy>
  </scstep>
  <scstep>
   <time name="diag">    0.07    0.07</time>
   <time name="diis">    0.41    0.41</time>
   <time name="orth">    0.01    0.01</time>
   <time name="total">    0.55    0.55</time>
   <energy>
    <i name="e_fr_energy">   -143.91779686 </i>
    <i name="e_wo_entrp">   -143.91541474 </i>
    <i name="e_0_energy">   -143.91700282 </i>
   </energy>
  </scstep>
  <scstep>
   <time name="diag">    0.14    0.14</time>
   <time name="diis">    0.45    0.46</time>
   <time name="orth">    0.01    0.01</time>
   <time name="total">    0.66    0.68</time>
   <energy>
    <i name="e_fr_energy">   -143.91443506 </i>
    <i name="e_wo_entrp">   -143.91235169 </i>
    <i name="e_0_energy">   -143.91374060 </i>
   </energy>
  </scstep>
  <scstep>
   <time name="diag">    0.09    0.09</time>
   <time name="diis">    0.44    0.44</time>
   <time name="orth">    0.02    0.02</time>
   <time name="total">    0.60    0.61</time>
   <energy>
    <i name="e_fr_energy">   -143.90296729 </i>
    <i name="e_wo_entrp">   -143.89962668 </i>
    <i name="e_0_energy">   -143.90185376 </i>
   </energy>
  </scstep>
  <scstep>
   <time name="diag">    0.08    0.08</time>
   <time name="diis">    0.41    0.41</time>
   <time name="orth">    0.01    0.01</time>
   <time name="total">    0.56    0.57</time>
   <energy>
    <i name="e_fr_energy">   -143.90337065 </i>
    <i name="e_wo_entrp">   -143.90217110 </i>
    <i name="e_0_energy">   -143.90297080 </i>
   </energy>
  </scstep>
  <scstep>
   <time name="diag">    0.07    0.07</time>
   <time name="diis">    0.41    0.41</time>
   <time name="orth">    0.01    0.01</time>
   <time name="total">    0.55    0.55</time>
   <energy>
    <i name="e_fr_energy">   -143.90358404 </i>
    <i name="e_wo_entrp">   -143.89941142 </i>
    <i name="e_0_energy">   -143.90219316 </i>
   </energy>
  </scstep>
  <scstep>
   <time name="diag">    0.07    0.07</time>
   <time name="diis">    0.44    0.44</time>
   <time name="orth">    0.01    0.01</time>
   <time name="total">    0.58    0.58</time>
   <energy>
    <i name="e_fr_energy">   -143.90176586 </i>
    <i name="e_wo_entrp">   -143.89922695 </i>
    <i name="e_0_energy">   -143.90091956 </i>
   </energy>
  </scstep>
  <scstep>
   <time name="diag">    0.08    0.08</time>
   <time name="diis">    0.46    0.46</time>
   <time name="orth">    0.01    0.01</time>
   <time name="total">    0.61    0.61</time>
   <energy>
    <i name="e_fr_energy">   -143.90168818 </i>
    <i name="e_wo_entrp">   -143.89906125 </i>
    <i name="e_0_energy">   -143.90081253 </i>
   </energy>
  </scstep>
  <scstep>
   <time name="diag">    0.07    0.07</time>
   <time name="diis">    0.40    0.40</time>
   <time name="orth">    0.01    0.01</time>
   <time name="total">    0.54    0.55</time>
   <energy>
    <i name="e_fr_energy">   -143.90165417 </i>
    <i name="e_wo_entrp">   -143.89904752 </i>
    <i name="e_0_energy">   -143.90078529 </i>
   </energy>
  </scstep>
  <scstep>
   <time name="diag">    0.07    0.07</time>
   <time name="diis">    0.28    0.28</time>
   <time name="orth">    0.01    0.01</time>
   <time name="total">    0.38    0.39</time>
   <energy>
    <i name="alphaZ">   2027.62765600 </i>
    <i name="ewald"> -28838.46023237 </i>
    <i name="hartreedc">  -3016.30305541 </i>
    <i name="XCdc">    304.22817007 </i>
    <i name="pawpsdc">  31086.21923917 </i>
    <i name="pawaedc"> -30352.28216990 </i>
    <i name="eentropy">     -0.00266508 </i>
    <i name="bandstr">   1966.22979744 </i>
    <i name="atom">  26678.84160970 </i>
    <i name="e_fr_energy">   -143.90165037 </i>
    <i name="e_wo_entrp">   -143.89898530 </i>
    <i name="e_0_energy">   -143.90076202 </i>
   </energy>
  </scstep>
  <structure>
   <crystal>
    <varray name="basis" >
     <v>       8.04048653       0.01040485       0.00255967 </v>
     <v>       0.01030996       8.18643633       0.02475788 </v>
     <v>       0.00254378       0.02470536       8.14583055 </v>
    </varray>
    <i name="volume">    536.17659900 </i>
    <varray name="rec_basis" >
     <v>       0.12437080      -0.00015652      -0.00003836 </v>
     <v>      -0.00015796       0.12215459      -0.00037043 </v>
     <v>      -0.00003860      -0.00037122       0.12276333 </v>
    </varray>
   </crystal>
   <varray name="positions" >
    <v>       0.25080983       0.25151437       0.00050769 </v>
    <v>       0.00137328       0.24895422       0.25061982 </v>
    <v>       0.00184742       0.00277323       0.49853442 </v>
    <v>       0.25032443       0.00148301       0.75014450 </v>
    <v>       0.24858797       0.74943346       0.00221825 </v>
    <v>       0.25024385       0.74901205       0.50018584 </v>
    <v>       0.24827756       0.50056312       0.75119988 </v>
    <v>       0.99858945       0.74908155       0.75198246 </v>
    <v>       0.49898581       0.00000806       0.99620241 </v>
    <v>       0.50008366      -0.00003307       0.50049247 </v>
    <v>       0.75046675       0.24894271       0.49841604 </v>
    <v>       0.75038343       0.00110595       0.75048544 </v>
    <v>       0.50033947       0.50011547       0.00170768 </v>
    <v>       0.74861124       0.74923828      -0.00008634 </v>
    <v>       0.75152803       0.74816853       0.49743768 </v>
    <v>       0.99924066       0.75053928       0.24894511 </v>
    <v>       0.99838448       0.00532298       0.00193489 </v>
    <v>       0.25459875       0.00208773       0.24982458 </v>
    <v>       0.25302971       0.25425187       0.50119943 </v>
    <v>       0.99950324       0.25259713       0.75178504 </v>
    <v>       0.99485442       0.49550701       0.00342517 </v>
    <v>       0.25048092       0.49860376       0.25483297 </v>
    <v>      -0.00004769       0.49489149       0.50008010 </v>
    <v>       0.74920087       0.25146809       0.99955590 </v>
    <v>       0.74470282       0.00382512       0.24305136 </v>
    <v>       0.49851341       0.25150944       0.25196040 </v>
    <v>       0.50167521       0.25542148       0.74765253 </v>
    <v>       0.74801610       0.49720772       0.25024103 </v>
    <v>       0.49988779       0.74885089       0.25185778 </v>
    <v>       0.50164222       0.49896548       0.49789682 </v>
    <v>       0.75214660       0.49557236       0.74942529 </v>
    <v>       0.50371634       0.74302024       0.74628337 </v>
   </varray>
  </structure>
  <varray name="forces" >
   <v>       0.23255635       0.05681117      -0.18378633 </v>
   <v>      -0.00449502      -0.25570518       0.23760873 </v>
   <v>      -0.28580063      -0.24489223       0.39358079 </v>
   <v>       0.06154324      -0.50651936      -0.02648409 </v>
   <v>       0.14420858      -0.01012867      -0.63706191 </v>
   <v>      -0.33472347       0.44778628       0.66379493 </v>
   <v>      -0.03851374       0.44167443       0.47918359 </v>
   <v>       0.22749989       0.43691555      -0.27494953 </v>
   <v>      -0.21940183      -0.22473183      -0.54846826 </v>
   <v>       0.22851390      -0.20058674       0.45964763 </v>
   <v>       0.25058512      -0.70972226      -0.06506195 </v>
   <v>       0.00643998      -0.50475472      -0.38686249 </v>
   <v>      -0.44166998       0.21560515      -0.20320894 </v>
   <v>      -0.15048113       0.22293832      -0.43243866 </v>
   <v>       0.30890986       0.67949076       0.35217204 </v>
   <v>      -0.00018040       0.14569299       0.15916297 </v>
   <v>       0.29062427      -0.42233313      -0.34530245 </v>
   <v>      -0.19560225      -0.12109605       0.00766425 </v>
   <v>      -0.25825554      -0.55032931       0.23606946 </v>
   <v>       0.24821691      -0.48830117      -0.23062312 </v>
   <v>       0.58184147       0.42366914      -0.08425449 </v>
   <v>      -0.17119303       0.19258933      -0.58475135 </v>
   <v>      -0.06099254       0.45797951       0.06624166 </v>
   <v>      -0.33147692      -0.17649653       0.01900680 </v>
   <v>       0.17580264      -0.24101144       0.60379068 </v>
   <v>       0.07165293      -0.20591931      -0.28511879 </v>
   <v>      -0.24159684      -0.51458319       0.28429858 </v>
   <v>       0.14640846       0.15099108       0.01871160 </v>
   <v>       0.02005661       0.19627882      -0.22809998 </v>
   <v>       0.05405689       0.23973372       0.27204577 </v>
   <v>      -0.04124684       0.53431319      -0.02214011 </v>
   <v>      -0.27328693       0.53464168       0.28563298 </v>
  </varray>
  <varray name="stress" >
   <v>      -6.54658143      -0.02153347       0.95595654 </v>
   <v>      -0.02153387      -4.26616761       1.80542511 </v>
   <v>       0.95595638       1.80542477      -5.04571651 </v>
  </varray>
  <energy>
   <i name="e_fr_energy">   -143.90165037 </i>
   <i name="e_wo_entrp">   -143.90076202 </i>
   <i name="e_0_energy">     -0.00266508 </i>
  </energy>
  <time name="totalsc">    7.04    7.14</time>
 </calculation>
 <calculation>
  <scstep>
   <time name="dav">    0.82    0.82</time>
   <time name="total">    0.89    0.90</time>
   <energy>
    <i name="alphaZ">   2069.24070709 </i>
    <i name="ewald"> -29054.91743300 </i>
    <i name="hartreedc">  -3017.15304824 </i>
    <i name="XCdc">    310.37884195 </i>
    <i name="pawpsdc">  31085.87797623 </i>
    <i name="pawaedc"> -30351.91087142 </i>
    <i name="eentropy">      0.00783435 </i>
    <i name="bandstr">   2134.12871224 </i>
    <i name="atom">  26678.84160970 </i>
    <i name="e_fr_energy">   -145.50567110 </i>
    <i name="e_wo_entrp">   -145.51350545 </i>
    <i name="e_0_energy">   -145.50828255 </i>
   </energy>
  </scstep>
  <scstep>
   <time name="diag">    0.07    0.07</time>
   <time name="diis">    0.41    0.41</time>
   <time name="orth">    0.01    0.01</time>
   <time name="total">    0.55    0.56</time>
   <energy>
    <i name="e_fr_energy">   -144.15689857 </i>
    <i name="e_wo_entrp">   -144.15672436 </i>
    <i name="e_0_energy">   -144.15684050 </i>
   </energy>
  </scstep>
  <scstep>
   <time name="diag">    0.07    0.07</time>
   <time name="diis">    0.46    0.47</time>
   <time name="orth">    0.01    0.01</time>
   <time name="total">    0.62    0.62</time>
   <energy>
    <i name="e_fr_energy">   -144.14415471 </i>
    <i name="e_wo_entrp">   -144.14710262 </i>
    <i name="e_0_energy">   -144.14513735 </i>
   </energy>
  </scstep>
  <scstep>
   <time name="diag">    0.08    0.08</time>
   <time name="diis">    0.37    0.53</time>
   <time name="orth">    0.01    0.02</time>
   <time name="total">    0.52    0.72</time>
   <energy>
    <i name="e_fr_energy">   -144.09569608 </i>
    <i name="e_wo_entrp">   -144.09268572 </i>
    <i name="e_0_energy">   -144.09469263 </i>
   </energy>
  </scstep>
  <scstep>
   <time name="diag">    0.07    0.12</time>
   <time name="diis">    0.39    0.44</time>
   <time name="orth">    0.01    0.01</time>
   <time name="total">    0.54    0.63</time>
   <energy>
    <i name="e_fr_energy">   -144.09701717 </i>
    <i name="e_wo_entrp">   -144.09723842 </i>
    <i name="e_0_energy">   -144.09709092 </i>
   </energy>
  </scstep>
  <scstep>
   <time name="diag">    0.07    0.08</time>
   <time name="diis">    0.42    0.42</time>
   <time name="orth">    0.01    0.01</time>
   <time name="total">    0.56    0.57</time>
   <energy>
    <i name="e_fr_energy">   -144.09710068 </i>
    <i name="e_wo_entrp">   -144.09317018 </i>
    <i name="e_0_energy">   -144.09579052 </i>
   </energy>
  </scstep>
  <scstep>
   <time name="diag">    0.07    0.07</time>
   <time name="diis">    0.41    0.41</time>
   <time name="orth">    0.01    0.01</time>
   <time name="total">    0.55    0.56</time>
   <energy>
    <i name="e_fr_energy">   -144.09167819 </i>
    <i name="e_wo_entrp">   -144.08994701 </i>
    <i name="e_0_energy">   -144.09110113 </i>
   </energy>
  </scstep>
  <scstep>
   <time name="diag">    0.07    0.07</time>
   <time name="diis">    0.45    0.45</time>
   <time name="orth">    0.01    0.01</time>
   <time name="total">    0.59    0.60</time>
   <energy>
    <i name="e_fr_energy">   -144.09141445 </i>
    <i name="e_wo_entrp">   -144.08943920 </i>
    <i name="e_0_energy">   -144.09075603 </i>
   </energy>
  </scstep>
  <scstep>
   <time name="diag">    0.12    0.12</time>
   <time name="diis">    0.42    0.42</time>
   <time name="orth">    0.01    0.01</time>
   <time name="total">    0.62    0.63</time>
   <energy>
    <i name="e_fr_energy">   -144.09127762 </i>
    <i name="e_wo_entrp">   -144.08934272 </i>
    <i name="e_0_energy">   -144.09063266 </i>
   </energy>
  </scstep>
  <scstep>
   <time name="diag">    0.07    0.07</time>
   <time name="diis">    0.31    0.31</time>
   <time name="orth">    0.01    0.01</time>
   <time name="total">    0.45    0.46</time>
   <energy>
    <i name="alphaZ">   2069.24070709 </i>
    <i name="ewald"> -29054.91743300 </i>
    <i name="hartreedc">  -2924.37446751 </i>
    <i name="XCdc">    306.72920033 </i>
    <i name="pawpsdc">  31525.27107914 </i>
    <i name="pawaedc"> -30795.26683535 </i>
    <i name="eentropy">     -0.00203524 </i>
    <i name="bandstr">   2050.38690479 </i>
    <i name="atom">  26678.84160970 </i>
    <i name="e_fr_energy">   -144.09127006 </i>
    <i name="e_wo_entrp">   -144.08923482 </i>
    <i name="e_0_energy">   -144.09059165 </i>
   </energy>
  </scstep>
  <structure>
   <crystal>
    <varray name="basis" >
     <v>       7.98431336       0.01056167       0.00531909 </v>
     <v>       0.01047365       8.13306156       0.02950454 </v>
     <v>       0.00533342       0.02942988       8.09096036 </v>
    </varray>
    <i name="volume">    525.39392682 </i>
    <varray name="rec_basis" >
     <v>       0.12524585      -0.00016099      -0.00008197 </v>
     <v>      -0.00016235       0.12295676      -0.00044713 </v>
     <v>      -0.00008175      -0.00044827       0.12359641 </v>
    </varray>
   </crystal>
   <varray name="positions" >
    <v>       0.25181549       0.25180920      -0.00022101 </v>
    <v>       0.00137567       0.24793871       0.25166151 </v>
    <v>       0.00069815       0.00188557       0.50006334 </v>
    <v>       0.25058130      -0.00043026       0.75005404 </v>
    <v>       0.24915227       0.74931317      -0.00028669 </v>
    <v>       0.24886324       0.75078275       0.50285258 </v>
    <v>       0.24812633       0.50238212       0.75320661 </v>
    <v>       0.99950040       0.75077434       0.75093896 </v>
    <v>       0.49804994      -0.00082483       0.99392620 </v>
    <v>       0.50105254      -0.00081952       0.50238701 </v>
    <v>       0.75154021       0.24600925       0.49806690 </v>
    <v>       0.75036260      -0.00088096       0.74890330 </v>
    <v>       0.49848276       0.50096836       0.00091730 </v>
    <v>       0.74795209       0.75008106      -0.00183074 </v>
    <v>       0.75283365       0.75079624       0.49879370 </v>
    <v>       0.99920784       0.75106944       0.24964501 </v>
    <v>       0.99963756       0.00365595       0.00051729 </v>
    <v>       0.25379235       0.00168333       0.24984000 </v>
    <v>       0.25189911       0.25190014       0.50224293 </v>
    <v>       0.00064378       0.25051642       0.75076781 </v>
    <v>       0.99736298       0.49728245       0.00315861 </v>
    <v>       0.24971927       0.49938778       0.25227543 </v>
    <v>      -0.00037909       0.49672975       0.50030975 </v>
    <v>       0.74767077       0.25073451       0.99972414 </v>
    <v>       0.74536795       0.00296092       0.24555962 </v>
    <v>       0.49886643       0.25067899       0.25070570 </v>
    <v>       0.50062758       0.25329684       0.74888210 </v>
    <v>       0.74860219       0.49777491       0.25034880 </v>
    <v>       0.50001951       0.74960268       0.25087735 </v>
    <v>       0.50198641       0.50000174       0.49899583 </v>
    <v>       0.75193780       0.49784631       0.74928124 </v>
    <v>       0.50264891       0.74509565       0.74743538 </v>
   </varray>
  </structure>
  <varray name="forces" >
   <v>       0.11757740      -0.00792233      -0.13008022 </v>
   <v>      -0.01193186      -0.18438257       0.11307992 </v>
   <v>      -0.18324913      -0.21682573       0.29164343 </v>
   <v>       0.03627916      -0.39124227      -0.02443010 </v>
   <v>       0.10738395       0.06060521      -0.44595383 </v>
   <v>      -0.21021893       0.31403251       0.44277804 </v>
   <v>      -0.03009235       0.26396257       0.26106952 </v>
   <v>       0.14843523       0.31842030      -0.20864620 </v>
   <v>      -0.12871756      -0.18476758      -0.31984547 </v>
   <v>       0.11857127      -0.15017895       0.28297524 </v>
   <v>       0.13874900      -0.42194923       0.01426885 </v>
   <v>       0.03616941      -0.34617019      -0.21819901 </v>
   <v>      -0.25481800       0.16062676      -0.15222503 </v>
   <v>      -0.07008778       0.18269295      -0.29219566 </v>
   <v>       0.17166310       0.49113787       0.26700172 </v>
   <v>       0.02529620       0.13252350       0.07521897 </v>
   <v>       0.16492505      -0.30001036      -0.21874702 </v>
   <v>      -0.12493777      -0.12907811       0.01147426 </v>
   <v>      -0.12685040      -0.30539131       0.11568221 </v>
   <v>       0.09258534      -0.27600067      -0.09912061 </v>
   <v>       0.30731799       0.24601048      -0.10775943 </v>
   <v>      -0.07968867       0.13485160      -0.27894317 </v>
   <v>       0.00267652       0.30875572       0.05998163 </v>
   <v>      -0.11444613      -0.10924932      -0.03421591 </v>
   <v>       0.15157205      -0.23824192       0.34380866 </v>
   <v>       0.01565222      -0.13147015      -0.13193025 </v>
   <v>      -0.13795829      -0.30754842       0.13597931 </v>
   <v>       0.11028360       0.13110954      -0.01177059 </v>
   <v>      -0.01570828       0.15232799      -0.12244671 </v>
   <v>      -0.04017042       0.12558865       0.18780852 </v>
   <v>      -0.01135757       0.29741152       0.01482349 </v>
   <v>      -0.20490435       0.38037196       0.17891543 </v>
  </varray>
  <varray name="stress" >
   <v>      30.46580990      -0.18640820       0.45420876 </v>
   <v>      -0.18640836      34.11544643       1.50026413 </v>
   <v>       0.45420834       1.50026404      33.66400324 </v>
  </varray>
  <energy>
   <i name="e_fr_energy">   -144.09127006 </i>
   <i name="e_wo_entrp">   -144.09059165 </i>
   <i name="e_0_energy">     -0.00203524 </i>
  </energy>
  <time name="totalsc">    7.01    7.39</time>
 </calculation>
 <calculation>
  <scstep>
   <time name="dav">    0.79    0.79</time>
   <time name="total">    0.84    0.85</time>
   <energy>
    <i name="alphaZ">   2056.21713963 </i>
    <i name="ewald"> -29001.89753067 </i>
    <i name="hartreedc">  -2910.49890074 </i>
    <i name="XCdc">    304.83915911 </i>
    <i name="pawpsdc">  31524.06301682 </i>
    <i name="pawaedc"> -30793.99274629 </i>
    <i name="eentropy">     -0.00587930 </i>
    <i name="bandstr">   1998.06189678 </i>
    <i name="atom">  26678.84160970 </i>
    <i name="e_fr_energy">   -144.37223496 </i>
    <i name="e_wo_entrp">   -144.36635566 </i>
    <i name="e_0_energy">   -144.37027519 </i>
   </energy>
  </scstep>
  <scstep>
   <time name="diag">    0.07    0.07</time>
   <time name="diis">    0.41    0.41</time>
   <time name="orth">    0.01    0.01</time>
   <time name="total">    0.55    0.56</time>
   <energy>
    <i name="e_fr_energy">   -144.26783767 </i>
    <i name="e_wo_entrp">   -144.26273112 </i>
    <i name="e_0_energy">   -144.26613549 </i>
   </energy>
  </scstep>
  <scstep>
   <time name="diag">    0.08    0.08</time>
   <time name="diis">    0.46    0.46</time>
   <time name="orth">    0.01    0.01</time>
   <time name="total">    0.62    0.63</time>
   <energy>
    <i name="e_fr_energy">   -144.26745016 </i>
    <i name="e_wo_entrp">   -144.26552810 </i>
    <i name="e_0_energy">   -144.26680948 </i>
   </energy>
  </scstep>
  <scstep>
   <time name="diag">    0.08    0.08</time>
   <time name="diis">    0.44    0.44</time>
   <time name="orth">    0.01    0.01</time>
   <time name="total">    0.59    0.60</time>
   <energy>
    <i name="e_fr_energy">   -144.25885008 </i>
    <i name="e_wo_entrp">   -144.25460265 </i>
    <i name="e_0_energy">   -144.25743427 </i>
   </energy>
  </scstep>
  <scstep>
   <time name="diag">    0.14    0.15</time>
   <time name="diis">    0.41    0.41</time>
   <time name="orth">    0.01    0.01</time>
   <time name="total">    0.65    0.67</time>
   <energy>
    <i name="e_fr_energy">   -144.25832765 </i>
    <i name="e_wo_entrp">   -144.25511421 </i>
    <i name="e_0_energy">   -144.25725651 </i>
   </energy>
  </scstep>
  <scstep>
   <time name="diag">    0.10    0.10</time>
   <time name="diis">    0.46    0.46</time>
   <time name="orth">    0.01    0.01</time>
   <time name="total">    0.67    0.68</time>
   <energy>
    <i name="e_fr_energy">   -144.25821542 </i>
    <i name="e_wo_entrp">   -144.25525734 </i>
    <i name="e_0_energy">   -144.25722939 </i>
   </energy>
  </scstep>
  <scstep>
   <time name="diag">    0.07    0.07</time>
   <time name="diis">    0.41    0.41</time>
   <time name="orth">    0.01    0.01</time>
   <time name="total">    0.54    0.55</time>
   <energy>
    <i name="e_fr_energy">   -144.25755334 </i>
    <i name="e_wo_entrp">   -144.25418798 </i>
    <i name="e_0_energy">   -144.25643156 </i>
   </energy>
  </scstep>
  <scstep>
   <time name="diag">    0.07    0.07</time>
   <time name="diis">    0.42    0.42</time>
   <time name="orth">    0.01    0.01</time>
   <time name="total">    0.58    0.59</time>
   <energy>
    <i name="e_fr_energy">   -144.25751960 </i>
    <i name="e_wo_entrp">   -144.25430994 </i>
    <i name="e_0_energy">   -144.25644972 </i>
   </energy>
  </scstep>
  <scstep>
   <time name="diag">    0.08    0.08</time>
   <time name="diis">    0.35    0.35</time>
   <time name="orth">    0.01    0.01</time>
   <time name="total">    0.54    0.55</time>
   <energy>
    <i name="e_fr_energy">   -144.25748744 </i>
    <i name="e_wo_entrp">   -144.25426097 </i>
    <i name="e_0_energy">   -144.25641195 </i>
   </energy>
  </scstep>
  <scstep>
   <time name="diag">    0.09    0.09</time>
   <time name="diis">    0.26    0.26</time>
   <time name="orth">    0.01    0.01</time>
   <time name="total">    0.45    0.46</time>
   <energy>
    <i name="alphaZ">   2056.21713963 </i>
    <i name="ewald"> -29001.89753067 </i>
    <i name="hartreedc">  -2939.17772156 </i>
    <i name="XCdc">    305.96611591 </i>
    <i name="pawpsdc">  31379.76181646 </i>
    <i name="pawaedc"> -30648.46024408 </i>
    <i name="eentropy">     -0.00320953 </i>
    <i name="bandstr">   2024.49453931 </i>
    <i name="atom">  26678.84160970 </i>
    <i name="e_fr_energy">   -144.25748484 </i>
    <i name="e_wo_entrp">   -144.25427531 </i>
    <i name="e_0_energy">   -144.25641499 </i>
   </energy>
  </scstep>
  <structure>
   <crystal>
    <varray name="basis" >
     <v>       7.99773004       0.01045999       0.00694919 </v>
     <v>       0.01036540       8.15255999       0.03327571 </v>
     <v>       0.00697680       0.03318395       8.10913704 </v>
    </varray>
    <i name="volume">    528.72164115 </i>
    <varray name="rec_basis" >
     <v>       0.12503578      -0.00015854      -0.00010693 </v>
     <v>      -0.00015999       0.12266311      -0.00050182 </v>
     <v>      -0.00010649      -0.00050321       0.12331983 </v>
    </varray>
   </crystal>
   <varray name="positions" >
    <v>       0.25242730       0.25191384      -0.00074131 </v>
    <v>       0.00135551       0.24720940       0.25227810 </v>
    <v>      -0.00008790       0.00114972       0.50118927 </v>
    <v>       0.25074959      -0.00187918       0.74997781 </v>
    <v>       0.24956997       0.74937435      -0.00207265 </v>
    <v>       0.24793508       0.75203674       0.50469505 </v>
    <v>       0.24801103       0.50356866       0.75446565 </v>
    <v>       0.00012872       0.75200906       0.75015223 </v>
    <v>       0.49744757      -0.00147801       0.99245568 </v>
    <v>       0.50165091      -0.00139905       0.50364269 </v>
    <v>       0.75221762       0.24409859       0.49795558 </v>
    <v>       0.75042004      -0.00227883       0.74788992 </v>
    <v>       0.49728635       0.50159195       0.00033302 </v>
    <v>       0.74756385       0.75073991      -0.00304297 </v>
    <v>       0.75365984       0.75270305       0.49980107 </v>
    <v>       0.99923932       0.75151245       0.25005599 </v>
    <v>       0.00043354       0.00246630      -0.00043199 </v>
    <v>       0.25324762       0.00129612       0.24986753 </v>
    <v>       0.25122155       0.25042552       0.50286621 </v>
    <v>       0.00126560       0.24920283       0.75018898 </v>
    <v>       0.99891300       0.49842225       0.00285983 </v>
    <v>       0.24927317       0.49993956       0.25076194 </v>
    <v>      -0.00050761       0.49800401       0.50050466 </v>
    <v>       0.74685548       0.25025071       0.99973240 </v>
    <v>       0.74590379       0.00219560       0.24716813 </v>
    <v>       0.49903606       0.25011826       0.24997324 </v>
    <v>       0.49996334       0.25190902       0.74961540 </v>
    <v>       0.74903272       0.49823073       0.25036998 </v>
    <v>       0.50004407       0.75017064       0.25026903 </v>
    <v>       0.50205170       0.50063413       0.49976429 </v>
    <v>       0.75183340       0.49927518       0.74924736 </v>
    <v>       0.50185576       0.74658949       0.74820789 </v>
   </varray>
  </structure>
  <varray name="forces" >
   <v>       0.04606886      -0.04279642      -0.08584792 </v>
   <v>      -0.01169907      -0.13156684       0.04268057 </v>
   <v>      -0.09319592      -0.15638988       0.20633120 </v>
   <v>       0.01773335      -0.26358957      -0.02628273 </v>
   <v>       0.07634860       0.09134380      -0.28706545 </v>
   <v>      -0.11474929       0.21459433       0.27841463 </v>
   <v>      -0.02425304       0.14107823       0.11446093 </v>
   <v>       0.08219281       0.20749538      -0.14080857 </v>
   <v>      -0.06552643      -0.13925539      -0.16578259 </v>
   <v>       0.04208840      -0.10649467       0.15521152 </v>
   <v>       0.07129220      -0.22462491       0.04488911 </v>
   <v>       0.04432091      -0.21888977      -0.08756139 </v>
   <v>      -0.12448313       0.11384832      -0.11183167 </v>
   <v>      -0.02741895       0.14187645      -0.19323515 </v>
   <v>       0.07187180       0.31693636       0.19905724 </v>
   <v>       0.03449571       0.10488918       0.01790369 </v>
   <v>       0.07705119      -0.18333218      -0.12939103 </v>
   <v>      -0.06864620      -0.11306605       0.00958446 </v>
   <v>      -0.04111105      -0.15300889       0.03872199 </v>
   <v>       0.01133659      -0.13477545      -0.01685396 </v>
   <v>       0.12058039       0.13023135      -0.10557162 </v>
   <v>      -0.01811018       0.08516037      -0.08270119 </v>
   <v>       0.03430796       0.17863092       0.05947808 </v>
   <v>      -0.00566645      -0.07444393      -0.05338147 </v>
   <v>       0.11112868      -0.18961898       0.15320131 </v>
   <v>      -0.01467018      -0.08577818      -0.04080925 </v>
   <v>      -0.06501017      -0.15445260       0.03427865 </v>
   <v>       0.06428184       0.09914392      -0.01935034 </v>
   <v>      -0.03295946       0.10744713      -0.05170830 </v>
   <v>      -0.06897737       0.06676632       0.12684512 </v>
   <v>       0.00552181       0.15337034       0.03283927 </v>
   <v>      -0.13414421       0.21927129       0.08428486 </v>
  </varray>
  <varray name="stress" >
   <v>      17.90548761      -0.10348633       0.17845691 </v>
   <v>      -0.10348601      21.11502748       1.49139801 </v>
   <v>       0.17845733       1.49139782      21.17116700 </v>
  </varray>
  <energy>
   <i name="e_fr_energy">   -144.25748484 </i>
   <i name="e_wo_entrp">   -144.25641499 </i>
   <i name="e_0_energy">     -0.00320953 </i>
  </energy>
  <time name="totalsc">    7.25    7.45</time>
 </calculation>
 <calculation>
  <scstep>
   <time name="dav">    0.84    0.84</time>
   <time name="total">    0.89    0.90</time>
   <energy>
    <i name="alphaZ">   2038.25350933 </i>
    <i name="ewald"> -28920.58399983 </i>
    <i name="hartreedc">  -2927.00795109 </i>
    <i name="XCdc">    303.37894562 </i>
    <i name="pawpsdc">  31379.98718367 </i>
    <i name="pawaedc"> -30648.70648688 </i>
    <i name="eentropy">     -0.00692021 </i>
    <i name="bandstr">   1951.27417322 </i>
    <i name="atom">  26678.84160970 </i>
    <i name="e_fr_energy">   -144.56993648 </i>
    <i name="e_wo_entrp">   -144.56301627 </i>
    <i name="e_0_energy">   -144.56762975 </i>
   </energy>
  </scstep>
  <scstep>
   <time name="diag">    0.12    0.12</time>
   <time name="diis">    0.45    0.45</time>
   <time name="orth">    0.01    0.01</time>
   <time name="total">    0.64    0.64</time>
   <energy>
    <i name="e_fr_energy">   -144.36874593 </i>
    <i name="e_wo_entrp">   -144.36199872 </i>
    <i name="e_0_energy">   -144.36649686 </i>
   </energy>
  </scstep>
  <scstep>
   <time name="diag">    0.08    0.08</time>
   <time name="diis">    0.41    0.41</time>
   <time name="orth">    0.01    0.01</time>
   <time name="total">    0.55    0.56</time>
   <energy>
    <i name="e_fr_energy">   -144.36789525 </i>
    <i name="e_wo_entrp">   -144.36397589 </i>
    <i name="e_0_energy">   -144.36658880 </i>
   </energy>
  </scstep>
  <scstep>
   <time name="diag">    0.07    0.07</time>
   <time name="diis">    0.41    0.41</time>
   <time name="orth">    0.01    0.01</time>
   <time name="total">    0.54    0.55</time>
   <energy>
    <i name="e_fr_energy">   -144.35133252 </i>
    <i name="e_wo_entrp">   -144.34535090 </i>
    <i name="e_0_energy">   -144.34933865 </i>
   </energy>
  </scstep>
  <scstep>
   <time name="diag">    0.10    0.11</time>
   <time name="diis">    0.44    0.45</time>
   <time name="orth">    0.01    0.01</time>
   <time name="total">    0.68    0.70</time>
   <energy>
    <i name="e_fr_energy">   -144.35025077 </i>
    <i name="e_wo_entrp">   -144.34498148 </i>
    <i name="e_0_energy">   -144.34849434 </i>
   </energy>
  </scstep>
  <scstep>
   <time name="diag">    0.07    0.07</time>
   <time name="diis">    0.41    0.41</time>
   <time name="orth">    0.01    0.01</time>
   <time name="total">    0.54    0.55</time>
   <energy>
    <i name="e_fr_energy">   -144.35030967 </i>
    <i name="e_wo_entrp">   -144.34602562 </i>
    <i name="e_0_energy">   -144.34888165 </i>
   </energy>
  </scstep>
  <scstep>
   <time name="diag">    0.07    0.07</time>
   <time name="diis">    0.44    0.45</time>
   <time name="orth">    0.01    0.01</time>
   <time name="total">    0.60    0.60</time>
   <energy>
    <i name="e_fr_energy">   -144.34892210 </i>
    <i name="e_wo_entrp">   -144.34353439 </i>
    <i name="e_0_energy">   -144.34712620 </i>
   </energy>
  </scstep>
  <scstep>
   <time name="diag">    0.08    0.08</time>
   <time name="diis">    0.41    0.41</time>
   <time name="orth">    0.01    0.01</time>
   <time name="total">    0.56    0.56</time>
   <energy>
    <i name="e_fr_energy">   -144.34880743 </i>
    <i name="e_wo_entrp">   -144.34392440 </i>
    <i name="e_0_energy">   -144.34717976 </i>
   </energy>
  </scstep>
  <scstep>
   <time name="diag">    0.07    0.07</time>
   <time name="diis">    0.45    0.45</time>
   <time name="orth">    0.01    0.01</time>
   <time name="total">    0.59    0.59</time>
   <energy>
    <i name="e_fr_energy">   -144.34871920 </i>
    <i name="e_wo_entrp">   -144.34369397 </i>
    <i name="e_0_energy">   -144.34704412 </i>
   </energy>
  </scstep>
  <scstep>
   <time name="diag">    0.07    0.07</time>
   <time name="diis">    0.27    0.27</time>
   <time name="orth">    0.01    0.01</time>
   <time name="total">    0.37    0.38</time>
   <energy>
    <i name="alphaZ">   2038.25350933 </i>
    <i name="ewald"> -28920.58399983 </i>
    <i name="hartreedc">  -2966.89006457 </i>
    <i name="XCdc">    304.94967482 </i>
    <i name="pawpsdc">  31202.42453546 </i>
    <i name="pawaedc"> -30469.64808102 </i>
    <i name="eentropy">     -0.00499789 </i>
    <i name="bandstr">   1988.30910419 </i>
    <i name="atom">  26678.84160970 </i>
    <i name="e_fr_energy">   -144.34870981 </i>
    <i name="e_wo_entrp">   -144.34371192 </i>
    <i name="e_0_energy">   -144.34704385 </i>
   </energy>
  </scstep>
  <structure>
   <crystal>
    <varray name="basis" >
     <v>       8.01642571       0.01031831       0.00922068 </v>
     <v>       0.01021456       8.17973034       0.03853069 </v>
     <v>       0.00926680       0.03841512       8.13446560 </v>
    </varray>
    <i name="volume">    533.38139523 </i>
    <varray name="rec_basis" >
     <v>       0.12474424      -0.00015511      -0.00014138 </v>
     <v>      -0.00015670       0.12225633      -0.00057718 </v>
     <v>      -0.00014066      -0.00057892       0.12293660 </v>
    </varray>
   </crystal>
   <varray name="positions" >
    <v>       0.25327854       0.25205964      -0.00146493 </v>
    <v>       0.00132728       0.24619519       0.25313585 </v>
    <v>      -0.00118173       0.00012607       0.50275538 </v>
    <v>       0.25098370      -0.00389333       0.74987268 </v>
    <v>       0.25015154       0.74946054      -0.00455591 </v>
    <v>       0.24664339       0.75377876       0.50725618 </v>
    <v>       0.24785031       0.50521732       0.75621541 </v>
    <v>       0.00100305       0.75372600       0.74905745 </v>
    <v>       0.49660999      -0.00238512       0.99041175 </v>
    <v>       0.50248294      -0.00220545       0.50538872 </v>
    <v>       0.75315996       0.24144262       0.49780183 </v>
    <v>       0.75050020      -0.00422143       0.74648185 </v>
    <v>       0.49562217       0.50245916      -0.00047940 </v>
    <v>       0.74702413       0.75165655      -0.00472869 </v>
    <v>       0.75480892       0.75535316       0.50120022 </v>
    <v>       0.99928301       0.75212803       0.25062711 </v>
    <v>       0.00154110       0.00081314      -0.00175130 </v>
    <v>       0.25248982       0.00075780       0.24990619 </v>
    <v>       0.25027878       0.24837519       0.50373391 </v>
    <v>       0.00213075       0.24737715       0.74938486 </v>
    <v>       0.00106939       0.50000696       0.00244328 </v>
    <v>       0.24865303       0.50070755       0.24865745 </v>
    <v>      -0.00068642       0.49977528       0.50077487 </v>
    <v>       0.74572130       0.24957816       0.99974441 </v>
    <v>       0.74664872       0.00113072       0.24940485 </v>
    <v>       0.49927224       0.24933923       0.24895518 </v>
    <v>       0.49903905       0.24997929       0.75063600 </v>
    <v>       0.74963165       0.49886437       0.25039901 </v>
    <v>       0.50007843       0.75096057       0.24942290 </v>
    <v>       0.50214233       0.50151275       0.50083230 </v>
    <v>       0.75168821       0.50126152       0.74919936 </v>
    <v>       0.50075220       0.74866562       0.74928121 </v>
   </varray>
  </structure>
  <varray name="forces" >
   <v>      -0.05030104      -0.08703687      -0.02460749 </v>
   <v>      -0.01051094      -0.06516591      -0.04156375 </v>
   <v>       0.04049583      -0.06174256       0.08332100 </v>
   <v>      -0.01213337      -0.07544821      -0.03136954 </v>
   <v>       0.03187031       0.13248381      -0.06440953 </v>
   <v>       0.01597140       0.08718017       0.05549288 </v>
   <v>      -0.01532246      -0.02258105      -0.08794298 </v>
   <v>      -0.01629292       0.05169381      -0.03869278 </v>
   <v>       0.01232466      -0.07563615       0.04162385 </v>
   <v>      -0.06179721      -0.04932355      -0.01452375 </v>
   <v>      -0.01686503       0.02715981       0.08300791 </v>
   <v>       0.05076603      -0.04032225       0.09924797 </v>
   <v>       0.04783189       0.05326731      -0.05781209 </v>
   <v>       0.02857672       0.09101253      -0.06341285 </v>
   <v>      -0.06116115       0.07112417       0.10850316 </v>
   <v>       0.04710755       0.06493361      -0.05116631 </v>
   <v>      -0.03041120      -0.03879387      -0.00893841 </v>
   <v>       0.00596353      -0.08898704       0.00583068 </v>
   <v>       0.06413070       0.02731932      -0.06364684 </v>
   <v>      -0.08762022       0.04073959       0.08619841 </v>
   <v>      -0.13010150      -0.01275058      -0.09432231 </v>
   <v>       0.05262165       0.02645669       0.15141383 </v>
   <v>       0.07047338       0.01427123       0.05372276 </v>
   <v>       0.13562317      -0.03334492      -0.07265821 </v>
   <v>       0.05608677      -0.12597737      -0.09755062 </v>
   <v>      -0.05283343      -0.02724882       0.07304483 </v>
   <v>       0.02312192       0.03181491      -0.09387251 </v>
   <v>       0.00760095       0.05711168      -0.03258399 </v>
   <v>      -0.05209304       0.05242544       0.03134378 </v>
   <v>      -0.10114490      -0.00300168       0.05529466 </v>
   <v>       0.02449956      -0.01964939       0.05863133 </v>
   <v>      -0.01647763      -0.00198387      -0.04760304 </v>
  </varray>
  <varray name="stress" >
   <v>       2.99939573       0.02585335      -0.22218705 </v>
   <v>       0.02585328       5.38589303       1.53113328 </v>
   <v>      -0.22218689       1.53113386       6.36134073 </v>
  </varray>
  <energy>
   <i name="e_fr_energy">   -144.34870981 </i>
   <i name="e_wo_entrp">   -144.34704385 </i>
   <i name="e_0_energy">     -0.00499789 </i>
  </energy>
  <time name="totalsc">    7.06    7.16</time>
 </calculation>
 <calculation>
  <scstep>
   <time name="dav">    0.76    0.76</time>
   <time name="total">    0.81    0.82</time>
   <energy>
    <i name="alphaZ">   2036.78658248 </i>
    <i name="ewald"> -28913.51858959 </i>
    <i name="hartreedc">  -2966.18515150 </i>
    <i name="XCdc">    304.73630966 </i>
    <i name="pawpsdc">  31202.67866675 </i>
    <i name="pawaedc"> -30469.93368111 </i>
    <i name="eentropy">     -0.00555437 </i>
    <i name="bandstr">   1982.24897387 </i>
    <i name="atom">  26678.84160970 </i>
    <i name="e_fr_energy">   -144.35083411 </i>
    <i name="e_wo_entrp">   -144.34527975 </i>
    <i name="e_0_energy">   -144.34898266 </i>
   </energy>
  </scstep>
  <scstep>
   <time name="diag">    0.07    0.07</time>
   <time name="diis">    0.41    0.41</time>
   <time name="orth">    0.01    0.01</time>
   <time name="total">    0.54    0.55</time>
   <energy>
    <i name="e_fr_energy">   -144.34945850 </i>
    <i name="e_wo_entrp">   -144.34418670 </i>
    <i name="e_0_energy">   -144.34770123 </i>
   </energy>
  </scstep>
  <scstep>
   <time name="diag">    0.10    0.10</time>
   <time name="diis">    0.41    0.41</time>
   <time name="orth">    0.01    0.01</time>
   <time name="total">    0.57    0.58</time>
   <energy>
    <i name="e_fr_energy">   -144.34945921 </i>
    <i name="e_wo_entrp">   -144.34432972 </i>
    <i name="e_0_energy">   -144.34774938 </i>
   </energy>
  </scstep>
  <scstep>
   <time name="diag">    0.07    0.07</time>
   <time name="diis">    0.40    0.41</time>
   <time name="orth">    0.01    0.01</time>
   <time name="total">    0.54    0.55</time>
   <energy>
    <i name="e_fr_energy">   -144.34934371 </i>
    <i name="e_wo_entrp">   -144.34413222 </i>
    <i name="e_0_energy">   -144.34760655 </i>
   </energy>
  </scstep>
  <scstep>
   <time name="diag">    0.07    0.07</time>
   <time name="diis">    0.30    0.30</time>
   <time name="orth">    0.01    0.01</time>
   <time name="total">    0.43    0.44</time>
   <energy>
    <i name="e_fr_energy">   -144.34933179 </i>
    <i name="e_wo_entrp">   -144.34415846 </i>
    <i name="e_0_energy">   -144.34760735 </i>
   </energy>
  </scstep>
  <scstep>
   <time name="diag">    0.07    0.07</time>
   <time name="diis">    0.32    0.33</time>
   <time name="orth">    0.03    0.03</time>
   <time name="total">    0.50    0.51</time>
   <energy>
    <i name="alphaZ">   2036.78658248 </i>
    <i name="ewald"> -28913.51858959 </i>
    <i name="hartreedc">  -2969.45937069 </i>
    <i name="XCdc">    304.86550716 </i>
    <i name="pawpsdc">  31189.50426097 </i>
    <i name="pawaedc"> -30456.64817998 </i>
    <i name="eentropy">     -0.00509480 </i>
    <i name="bandstr">   1985.28394425 </i>
    <i name="atom">  26678.84160970 </i>
    <i name="e_fr_energy">   -144.34933050 </i>
    <i name="e_wo_entrp">   -144.34423570 </i>
    <i name="e_0_energy">   -144.34763223 </i>
   </energy>
  </scstep>
  <structure>
   <crystal>
    <varray name="basis" >
     <v>       8.01796225       0.01030667       0.00940737 </v>
     <v>       0.01020216       8.18196340       0.03896258 </v>
     <v>       0.00945501       0.03884505       8.13654728 </v>
    </varray>
    <i name="volume">    533.76554519 </i>
    <varray name="rec_basis" >
     <v>       0.12472034      -0.00015483      -0.00014419 </v>
     <v>      -0.00015643       0.12222303      -0.00058333 </v>
     <v>      -0.00014345      -0.00058510       0.12290521 </v>
    </varray>
   </crystal>
   <varray name="positions" >
    <v>       0.25334836       0.25207163      -0.00152425 </v>
    <v>       0.00132495       0.24611206       0.25320618 </v>
    <v>      -0.00127146       0.00004214       0.50288377 </v>
    <v>       0.25100290      -0.00405831       0.74986417 </v>
    <v>       0.25019928       0.74946773      -0.00475938 </v>
    <v>       0.24653742       0.75392133       0.50746595 </v>
    <v>       0.24783710       0.50535228       0.75635869 </v>
    <v>       0.00107477       0.75386670       0.74896764 </v>
    <v>       0.49654136      -0.00245932       0.99024435 </v>
    <v>       0.50255112      -0.00227160       0.50553180 </v>
    <v>       0.75323723       0.24122506       0.49778935 </v>
    <v>       0.75050680      -0.00438048       0.74636659 </v>
    <v>       0.49548573       0.50253024      -0.00054597 </v>
    <v>       0.74697992       0.75173172      -0.00486684 </v>
    <v>       0.75490311       0.75557017       0.50131469 </v>
    <v>       0.99928658       0.75217843       0.25067387 </v>
    <v>       0.00163194       0.00067779      -0.00185933 </v>
    <v>       0.25242768       0.00071370       0.24990941 </v>
    <v>       0.25020145       0.24820719       0.50380513 </v>
    <v>       0.00220170       0.24722764       0.74931905 </v>
    <v>       0.00124621       0.50013680       0.00240902 </v>
    <v>       0.24860223       0.50077057       0.24848500 </v>
    <v>      -0.00070108       0.49992035       0.50079692 </v>
    <v>       0.74562830       0.24952306       0.99974546 </v>
    <v>       0.74670975       0.00104337       0.24958815 </v>
    <v>       0.49929163       0.24927547       0.24887180 </v>
    <v>       0.49896323       0.24982116       0.75071974 </v>
    <v>       0.74968076       0.49891628       0.25040134 </v>
    <v>       0.50008127       0.75102532       0.24935353 </v>
    <v>       0.50214973       0.50158467       0.50091976 </v>
    <v>       0.75167631       0.50142423       0.74919533 </v>
    <v>       0.50066169       0.74883562       0.74936907 </v>
   </varray>
  </structure>
  <varray name="forces" >
   <v>      -0.05707095      -0.09025161      -0.02002741 </v>
   <v>      -0.00989709      -0.06083582      -0.04747983 </v>
   <v>       0.05111667      -0.05362487       0.07341871 </v>
   <v>      -0.01419690      -0.06053094      -0.03057510 </v>
   <v>       0.02935580       0.13538729      -0.04923753 </v>
   <v>       0.02662424       0.07669935       0.03654838 </v>
   <v>      -0.01374294      -0.03393237      -0.10213164 </v>
   <v>      -0.02479972       0.03923892      -0.02952488 </v>
   <v>       0.01742207      -0.07174411       0.05666519 </v>
   <v>      -0.06929627      -0.04528826      -0.02701956 </v>
   <v>      -0.02322592       0.04625796       0.08579353 </v>
   <v>       0.05073080      -0.02692595       0.11419349 </v>
   <v>       0.05882976       0.04998335      -0.05464852 </v>
   <v>       0.03236600       0.08681135      -0.05418788 </v>
   <v>      -0.07123196       0.05286228       0.10240975 </v>
   <v>       0.04793601       0.06237354      -0.05573992 </v>
   <v>      -0.03792531      -0.02929046      -0.00086979 </v>
   <v>       0.01189901      -0.08693898       0.00666736 </v>
   <v>       0.07289933       0.04009712      -0.07161747 </v>
   <v>      -0.09519395       0.05348694       0.09334784 </v>
   <v>      -0.15017862      -0.02396303      -0.08997489 </v>
   <v>       0.05757963       0.02392643       0.16806722 </v>
   <v>       0.07289350       0.00278072       0.05216603 </v>
   <v>       0.14446736      -0.03040670      -0.07393248 </v>
   <v>       0.05113881      -0.12138191      -0.11637034 </v>
   <v>      -0.05554731      -0.02428862       0.08051359 </v>
   <v>       0.02934541       0.04473559      -0.10363408 </v>
   <v>       0.00424973       0.05470548      -0.03383384 </v>
   <v>      -0.05367423       0.04774365       0.03743096 </v>
   <v>      -0.10349155      -0.00710125       0.05039301 </v>
   <v>       0.02639955      -0.03132838       0.06087723 </v>
   <v>      -0.00578094      -0.01925672      -0.05768718 </v>
  </varray>
  <varray name="stress" >
   <v>       2.10911358       0.03819000      -0.23105053 </v>
   <v>       0.03819041       4.42338570       1.56666226 </v>
   <v>      -0.23105098       1.56666198       5.46869028 </v>
  </varray>
  <energy>
   <i name="e_fr_energy">   -144.34933050 </i>
   <i name="e_wo_entrp">   -144.34763223 </i>
   <i name="e_0_energy">     -0.00509480 </i>
  </energy>
  <time name="totalsc">    4.54    4.62</time>
 </calculation>
 <calculation>
  <scstep>
   <time name="dav">    0.76    0.77</time>
   <time name="total">    0.83    0.84</time>
   <energy>
    <i name="alphaZ">   2032.87125707 </i>
    <i name="ewald"> -28895.34829068 </i>
    <i name="hartreedc">  -2967.20983102 </i>
    <i name="XCdc">    304.27596733 </i>
    <i name="pawpsdc">  31189.38206932 </i>
    <i name="pawaedc"> -30456.53311573 </i>
    <i name="eentropy">     -0.00601250 </i>
    <i name="bandstr">   1969.35563986 </i>
    <i name="atom">  26678.84160970 </i>
    <i name="e_fr_energy">   -144.37070667 </i>
    <i name="e_wo_entrp">   -144.36469417 </i>
    <i name="e_0_energy">   -144.36870250 </i>
   </energy>
  </scstep>
  <scstep>
   <time name="diag">    0.10    0.10</time>
   <time name="diis">    0.43    0.44</time>
   <time name="orth">    0.01    0.01</time>
[...]
    </varray>
    <i name="volume">    534.82924827 </i>
    <varray name="rec_basis" >
     <v>       0.12561449      -0.00012168      -0.00012406 </v>
     <v>      -0.00012592       0.12203006      -0.00087432 </v>
     <v>      -0.00012618      -0.00088230       0.12198366 </v>
    </varray>
   </crystal>
   <varray name="positions" >
    <v>       0.25327190       0.25080426      -0.00137564 </v>
    <v>       0.00083363       0.24519027       0.25266019 </v>
    <v>      -0.00113029      -0.00001926       0.50466048 </v>
    <v>       0.25122289      -0.00356949       0.74907152 </v>
    <v>       0.25106081       0.75040762      -0.00657304 </v>
    <v>       0.24647067       0.75581943       0.50840812 </v>
    <v>       0.24702721       0.50409374       0.75540732 </v>
    <v>       0.00072044       0.75409630       0.74864598 </v>
    <v>       0.49674885      -0.00334514       0.99073367 </v>
    <v>       0.50216475      -0.00239957       0.50479376 </v>
    <v>       0.75301888       0.24120514       0.49817271 </v>
    <v>       0.75058162      -0.00383999       0.74842823 </v>
    <v>       0.49602154       0.50265141      -0.00106651 </v>
    <v>       0.74690956       0.75285145      -0.00607786 </v>
    <v>       0.75385274       0.75687747       0.50329986 </v>
    <v>       0.00043284       0.75221741       0.25023677 </v>
    <v>       0.00218482      -0.00025594      -0.00239078 </v>
    <v>       0.25232909      -0.00048266       0.24978847 </v>
    <v>       0.25032188       0.24819577       0.50204791 </v>
    <v>       0.00117757       0.24829342       0.75033294 </v>
    <v>       0.00007738       0.50036831       0.00196783 </v>
    <v>       0.24928302       0.50088475       0.24960303 </v>
    <v>      -0.00016452       0.50047045       0.50107043 </v>
    <v>       0.74705194       0.24899177       0.99991729 </v>
    <v>       0.74808678      -0.00120864       0.24851132 </v>
    <v>       0.49968806       0.24892819       0.24952148 </v>
    <v>       0.49933642       0.25003383       0.74937431 </v>
    <v>       0.74958840       0.50036293       0.25046084 </v>
    <v>       0.49925813       0.75107567       0.25005223 </v>
    <v>       0.50056630       0.50178121       0.50183293 </v>
    <v>       0.75170031       0.50110024       0.75000741 </v>
    <v>       0.50030438       0.74842264       0.74847684 </v>
   </varray>
  </structure>
  <varray name="forces" >
   <v>       0.00099769      -0.00244759      -0.00612398 </v>
   <v>       0.00181274      -0.00740880       0.00071345 </v>
   <v>      -0.00077213       0.00302922       0.00667299 </v>
   <v>      -0.00484602      -0.00339233      -0.00080124 </v>
   <v>      -0.00416101      -0.01056140      -0.00075645 </v>
   <v>      -0.00215673      -0.00628278      -0.00022064 </v>
   <v>      -0.00208645       0.00940520       0.00495015 </v>
   <v>       0.00508140       0.00204542       0.00090427 </v>
   <v>       0.00317759       0.00630073      -0.00622300 </v>
   <v>       0.00428858      -0.00177572       0.00373312 </v>
   <v>       0.00249225      -0.00226427       0.00328827 </v>
   <v>       0.00229574      -0.00272846      -0.00550460 </v>
   <v>       0.00014080       0.00924464      -0.00815411 </v>
   <v>      -0.00370980      -0.00142581      -0.00144185 </v>
   <v>      -0.00351504      -0.00129398       0.00387336 </v>
   <v>       0.00659715      -0.00154971      -0.00238599 </v>
   <v>      -0.00176501       0.00043569      -0.00383145 </v>
   <v>      -0.00498294       0.00290810       0.00072042 </v>
   <v>      -0.00826457      -0.00582454       0.00698039 </v>
   <v>       0.00728801      -0.00816189      -0.00602049 </v>
   <v>       0.00738358       0.01040204      -0.00799904 </v>
   <v>      -0.00438938       0.00690763       0.00068402 </v>
   <v>      -0.00008186       0.00132100       0.00730042 </v>
   <v>      -0.00261481      -0.01295433      -0.00309966 </v>
   <v>      -0.00151361       0.00708849      -0.00186949 </v>
   <v>       0.00424888      -0.01246705       0.00026163 </v>
   <v>      -0.00245323      -0.00544488       0.00849754 </v>
   <v>      -0.00266894       0.00666344       0.00634822 </v>
   <v>      -0.00065510      -0.00405996       0.00399401 </v>
   <v>       0.00675342       0.01256877      -0.00040887 </v>
   <v>      -0.00328575       0.01055825      -0.00504533 </v>
   <v>       0.00136456       0.00116488       0.00096394 </v>
  </varray>
  <varray name="stress" >
   <v>      -0.21102018      -0.02618426       0.05158779 </v>
   <v>      -0.02618424      -0.40680270       0.00235982 </v>
   <v>       0.05158766       0.00235942       0.25921181 </v>
  </varray>
  <energy>
   <i name="e_fr_energy">   -144.37401104 </i>
   <i name="e_wo_entrp">   -144.37450536 </i>
   <i name="e_0_energy">      0.00148296 </i>
  </energy>
  <time name="totalsc">    1.90    1.95</time>
 </calculation>
 <calculation>
  <scstep>
   <time name="dav">    0.57    0.57</time>
   <time name="total">    0.66    0.66</time>
   <energy>
    <i name="alphaZ">   2032.73568720 </i>
    <i name="ewald"> -28894.36360720 </i>
    <i name="hartreedc">  -2975.86719469 </i>
    <i name="XCdc">    304.60545017 </i>
    <i name="pawpsdc">  31141.26540705 </i>
    <i name="pawaedc"> -30408.21722223 </i>
    <i name="eentropy">      0.00148280 </i>
    <i name="bandstr">   1976.62437616 </i>
    <i name="atom">  26678.84160970 </i>
    <i name="e_fr_energy">   -144.37401104 </i>
    <i name="e_wo_entrp">   -144.37549385 </i>
    <i name="e_0_energy">   -144.37450531 </i>
   </energy>
  </scstep>
  <scstep>
   <time name="diag">    0.09    0.09</time>
   <time name="diis">    0.17    0.17</time>
   <time name="orth">    0.01    0.01</time>
   <time name="total">    0.29    0.29</time>
   <energy>
    <i name="alphaZ">   2032.73568720 </i>
    <i name="ewald"> -28894.36360720 </i>
    <i name="hartreedc">  -2975.86718830 </i>
    <i name="XCdc">    304.60544989 </i>
    <i name="pawpsdc">  31141.26556730 </i>
    <i name="pawaedc"> -30408.21738434 </i>
    <i name="eentropy">      0.00148293 </i>
    <i name="bandstr">   1976.62437179 </i>
    <i name="atom">  26678.84160970 </i>
    <i name="e_fr_energy">   -144.37401104 </i>
    <i name="e_wo_entrp">   -144.37549397 </i>
    <i name="e_0_energy">   -144.37450535 </i>
   </energy>
  </scstep>
  <structure>
   <crystal>
    <varray name="basis" >
     <v>       7.96088117       0.00827384       0.00829433 </v>
     <v>       0.00799688       8.19513505       0.05928344 </v>
     <v>       0.00815340       0.05874739       8.19825252 </v>
    </varray>
    <i name="volume">    534.82924882 </i>
    <varray name="rec_basis" >
     <v>       0.12561449      -0.00012168      -0.00012406 </v>
     <v>      -0.00012592       0.12203006      -0.00087432 </v>
     <v>      -0.00012618      -0.00088230       0.12198366 </v>
    </varray>
   </crystal>
   <varray name="positions" >
    <v>       0.25327189       0.25080426      -0.00137565 </v>
    <v>       0.00083363       0.24519027       0.25266019 </v>
    <v>      -0.00113029      -0.00001926       0.50466048 </v>
    <v>       0.25122289      -0.00356949       0.74907152 </v>
    <v>       0.25106081       0.75040762      -0.00657304 </v>
    <v>       0.24647067       0.75581943       0.50840812 </v>
    <v>       0.24702722       0.50409375       0.75540733 </v>
    <v>       0.00072044       0.75409630       0.74864598 </v>
    <v>       0.49674885      -0.00334514       0.99073367 </v>
    <v>       0.50216475      -0.00239957       0.50479376 </v>
    <v>       0.75301888       0.24120513       0.49817271 </v>
    <v>       0.75058162      -0.00383999       0.74842823 </v>
    <v>       0.49602154       0.50265141      -0.00106651 </v>
    <v>       0.74690956       0.75285145      -0.00607787 </v>
    <v>       0.75385274       0.75687747       0.50329986 </v>
    <v>       0.00043284       0.75221741       0.25023677 </v>
    <v>       0.00218482      -0.00025594      -0.00239078 </v>
    <v>       0.25232909      -0.00048266       0.24978847 </v>
    <v>       0.25032188       0.24819577       0.50204792 </v>
    <v>       0.00117758       0.24829342       0.75033294 </v>
    <v>       0.00007738       0.50036832       0.00196783 </v>
    <v>       0.24928302       0.50088475       0.24960303 </v>
    <v>      -0.00016452       0.50047045       0.50107043 </v>
    <v>       0.74705194       0.24899176       0.99991729 </v>
    <v>       0.74808678      -0.00120864       0.24851132 </v>
    <v>       0.49968806       0.24892819       0.24952148 </v>
    <v>       0.49933642       0.25003383       0.74937431 </v>
    <v>       0.74958840       0.50036293       0.25046084 </v>
    <v>       0.49925813       0.75107567       0.25005223 </v>
    <v>       0.50056630       0.50178121       0.50183293 </v>
    <v>       0.75170031       0.50110024       0.75000741 </v>
    <v>       0.50030438       0.74842264       0.74847684 </v>
   </varray>
  </structure>
  <varray name="forces" >
   <v>       0.00099566      -0.00244749      -0.00613114 </v>
   <v>       0.00181688      -0.00741457       0.00071740 </v>
   <v>      -0.00077508       0.00302991       0.00667203 </v>
   <v>      -0.00484669      -0.00340120      -0.00079512 </v>
   <v>      -0.00416189      -0.01055580      -0.00075833 </v>
   <v>      -0.00215627      -0.00628398      -0.00021588 </v>
   <v>      -0.00208363       0.00941197       0.00495802 </v>
   <v>       0.00508325       0.00204744       0.00089861 </v>
   <v>       0.00317634       0.00630311      -0.00622606 </v>
   <v>       0.00428987      -0.00177773       0.00373882 </v>
   <v>       0.00249618      -0.00227440       0.00329301 </v>
   <v>       0.00229651      -0.00273826      -0.00551145 </v>
   <v>       0.00013439       0.00924872      -0.00815404 </v>
   <v>      -0.00370743      -0.00142156      -0.00144442 </v>
   <v>      -0.00351218      -0.00129015       0.00387050 </v>
   <v>       0.00659390      -0.00154991      -0.00238952 </v>
   <v>      -0.00176376       0.00043693      -0.00382811 </v>
   <v>      -0.00498403       0.00290903       0.00071756 </v>
   <v>      -0.00826485      -0.00582458       0.00698803 </v>
   <v>       0.00729282      -0.00816513      -0.00602088 </v>
   <v>       0.00738887       0.01040389      -0.00800254 </v>
   <v>      -0.00439010       0.00691273       0.00068127 </v>
   <v>      -0.00007947       0.00132178       0.00730178 </v>
   <v>      -0.00261958      -0.01295427      -0.00310365 </v>
   <v>      -0.00151736       0.00708990      -0.00186711 </v>
   <v>       0.00424476      -0.01246637       0.00025574 </v>
   <v>      -0.00245672      -0.00544769       0.00850295 </v>
   <v>      -0.00266858       0.00666371       0.00634370 </v>
   <v>      -0.00065269      -0.00405987       0.00398924 </v>
   <v>       0.00675418       0.01256850      -0.00040725 </v>
   <v>      -0.00328651       0.01056198      -0.00504428 </v>
   <v>       0.00136322       0.00116336       0.00097110 </v>
  </varray>
  <varray name="stress" >
   <v>      -0.21150544      -0.02621509       0.05157293 </v>
   <v>      -0.02621469      -0.40705451       0.00234789 </v>
   <v>       0.05157291       0.00234786       0.25945784 </v>
  </varray>
  <energy>
   <i name="e_fr_energy">   -144.37401104 </i>
   <i name="e_wo_entrp">   -144.37450535 </i>
   <i name="e_0_energy">      0.00148293 </i>
  </energy>
  <time name="totalsc">    2.05    2.07</time>
 </calculation>
 <calculation>
  <scstep>
   <time name="dav">    0.77    0.78</time>
   <time name="total">    0.83    0.84</time>
   <energy>
    <i name="alphaZ">   2032.45155872 </i>
    <i name="ewald"> -28892.88113088 </i>
    <i name="hartreedc">  -2975.84582353 </i>
    <i name="XCdc">    304.57043457 </i>
    <i name="pawpsdc">  31141.26559822 </i>
    <i name="pawaedc"> -30408.21741616 </i>
    <i name="eentropy">      0.00093777 </i>
    <i name="bandstr">   1975.43785193 </i>
    <i name="atom">  26678.84160970 </i>
    <i name="e_fr_energy">   -144.37637968 </i>
    <i name="e_wo_entrp">   -144.37731745 </i>
    <i name="e_0_energy">   -144.37669227 </i>
   </energy>
  </scstep>
  <scstep>
   <time name="diag">    0.07    0.07</time>
   <time name="diis">    0.40    0.41</time>
   <time name="orth">    0.01    0.01</time>
   <time name="total">    0.57    0.58</time>
   <energy>
    <i name="e_fr_energy">   -144.37441049 </i>
    <i name="e_wo_entrp">   -144.37502661 </i>
    <i name="e_0_energy">   -144.37461586 </i>
   </energy>
  </scstep>
  <scstep>
   <time name="diag">    0.07    0.07</time>
   <time name="diis">    0.41    0.41</time>
   <time name="orth">    0.01    0.01</time>
   <time name="total">    0.54    0.55</time>
   <energy>
    <i name="e_fr_energy">   -144.37388402 </i>
    <i name="e_wo_entrp">   -144.37527264 </i>
    <i name="e_0_energy">   -144.37434690 </i>
   </energy>
  </scstep>
  <scstep>
   <time name="diag">    0.07    0.07</time>
   <time name="diis">    0.46    0.46</time>
   <time name="orth">    0.01    0.01</time>
   <time name="total">    0.60    0.60</time>
   <energy>
    <i name="e_fr_energy">   -144.37338477 </i>
    <i name="e_wo_entrp">   -144.37391026 </i>
    <i name="e_0_energy">   -144.37355993 </i>
   </energy>
  </scstep>
  <scstep>
   <time name="diag">    0.07    0.07</time>
   <time name="diis">    0.40    0.40</time>
   <time name="orth">    0.01    0.05</time>
   <time name="total">    0.54    0.61</time>
   <energy>
    <i name="e_fr_energy">   -144.37335629 </i>
    <i name="e_wo_entrp">   -144.37398565 </i>
    <i name="e_0_energy">   -144.37356607 </i>
   </energy>
  </scstep>
  <scstep>
   <time name="diag">    0.07    0.07</time>
   <time name="diis">    0.29    0.29</time>
   <time name="orth">    0.01    0.01</time>
   <time name="total">    0.43    0.44</time>
   <energy>
    <i name="e_fr_energy">   -144.37332919 </i>
    <i name="e_wo_entrp">   -144.37399259 </i>
    <i name="e_0_energy">   -144.37355032 </i>
   </energy>
  </scstep>
  <scstep>
   <time name="diag">    0.07    0.07</time>
   <time name="diis">    0.25    0.28</time>
   <time name="orth">    0.01    0.01</time>
   <time name="total">    0.37    0.40</time>
   <energy>
    <i name="alphaZ">   2032.45155872 </i>
    <i name="ewald"> -28892.88113088 </i>
    <i name="hartreedc">  -2976.53756186 </i>
    <i name="XCdc">    304.59796293 </i>
    <i name="pawpsdc">  31140.71532337 </i>
    <i name="pawaedc"> -30407.64246065 </i>
    <i name="eentropy">      0.00062923 </i>
    <i name="bandstr">   1976.08073918 </i>
    <i name="atom">  26678.84160970 </i>
    <i name="e_fr_energy">   -144.37333027 </i>
    <i name="e_wo_entrp">   -144.37395950 </i>
    <i name="e_0_energy">   -144.37354002 </i>
   </energy>
  </scstep>
  <structure>
   <crystal>
    <varray name="basis" >
     <v>       7.96981655       0.00915741       0.00869327 </v>
     <v>       0.00891541       8.19773976       0.05955171 </v>
     <v>       0.00859062       0.05911191       8.18761129 </v>
    </varray>
    <i name="volume">    534.90401578 </i>
    <varray name="rec_basis" >
     <v>       0.12547370      -0.00013551      -0.00013067 </v>
     <v>      -0.00013921       0.12199139      -0.00088059 </v>
     <v>      -0.00013221      -0.00088715       0.12214229 </v>
    </varray>
   </crystal>
   <varray name="positions" >
    <v>       0.25323319       0.25080671      -0.00160799 </v>
    <v>       0.00091204       0.24498591       0.25283071 </v>
    <v>      -0.00120741       0.00003503       0.50462570 </v>
    <v>       0.25120030      -0.00380924       0.74919849 </v>
    <v>       0.25101001       0.75049433      -0.00665814 </v>
    <v>       0.24645888       0.75579032       0.50853259 </v>
    <v>       0.24708874       0.50439296       0.75569423 </v>
    <v>       0.00076185       0.75413149       0.74845518 </v>
    <v>       0.49675672      -0.00325300       0.99056341 </v>
    <v>       0.50223041      -0.00245785       0.50495065 </v>
    <v>       0.75314698       0.24088141       0.49832746 </v>
    <v>       0.75059348      -0.00409883       0.74821597 </v>
    <v>       0.49575584       0.50282409      -0.00110232 </v>
    <v>       0.74698269       0.75299513      -0.00621721 </v>
    <v>       0.75394256       0.75697647       0.50322670 </v>
    <v>       0.00033714       0.75216281       0.25018366 </v>
    <v>       0.00219251      -0.00021027      -0.00233148 </v>
    <v>       0.25226049      -0.00045449       0.24983269 </v>
    <v>       0.25023333       0.24798502       0.50239139 </v>
    <v>       0.00131845       0.24801410       0.75017874 </v>
    <v>       0.00037268       0.50055941       0.00185470 </v>
    <v>       0.24916637       0.50122610       0.24947710 </v>
    <v>      -0.00015725       0.50058094       0.50110113 </v>
    <v>       0.74682312       0.24886811       0.99975078 </v>
    <v>       0.74789766      -0.00108106       0.24875055 </v>
    <v>       0.49964326       0.24883433       0.24934787 </v>
    <v>       0.49928376       0.24974086       0.74953196 </v>
    <v>       0.74965217       0.50039145       0.25041743 </v>
    <v>       0.49936630       0.75110496       0.25001366 </v>
    <v>       0.50075476       0.50186482       0.50188563 </v>
    <v>       0.75169990       0.50131346       0.74988468 </v>
    <v>       0.50028707       0.74840754       0.74869407 </v>
   </varray>
  </structure>
  <varray name="forces" >
   <v>      -0.00467944      -0.00120743       0.00903279 </v>
   <v>      -0.00166242       0.01137086      -0.01271962 </v>
   <v>       0.01376261      -0.00939988      -0.00084600 </v>
   <v>      -0.00429605       0.00199649      -0.00749129 </v>
   <v>      -0.00310710       0.00267694       0.01571695 </v>
   <v>       0.00476709      -0.00426449      -0.01104133 </v>
   <v>      -0.00069459      -0.01236451      -0.02367717 </v>
   <v>      -0.00161961       0.00187302       0.01079607 </v>
   <v>       0.00305890      -0.00590647       0.01361871 </v>
   <v>      -0.01036764      -0.00323598      -0.00647409 </v>
   <v>      -0.00976898       0.02811814      -0.00131181 </v>
   <v>       0.00534121       0.00620132       0.01230131 </v>
   <v>       0.02107367      -0.00467975      -0.00168604 </v>
   <v>      -0.00011279      -0.00564850       0.01049999 </v>
   <v>      -0.01037744      -0.01277132       0.00398416 </v>
   <v>       0.00599053       0.01172378      -0.00232590 </v>
   <v>      -0.01225150       0.00145143       0.00063137 </v>
   <v>       0.00567459      -0.00325162       0.00058573 </v>
   <v>       0.01135912       0.01878163      -0.01410738 </v>
   <v>      -0.01112076       0.01564553       0.01269301 </v>
   <v>      -0.02697934      -0.01654540      -0.00288868 </v>
   <v>       0.00794824      -0.01731865       0.02247715 </v>
   <v>       0.00670559      -0.01330083       0.00442556 </v>
   <v>       0.02052660       0.00566703      -0.00073676 </v>
   <v>       0.00554382      -0.00145173      -0.02495736 </v>
   <v>      -0.00517508       0.00414621       0.01639893 </v>
   <v>       0.00488363       0.02329165      -0.01040666 </v>
   <v>      -0.00617392      -0.00674336      -0.00183796 </v>
   <v>      -0.00742077       0.00228295       0.00415119 </v>
   <v>      -0.01030306      -0.00524092      -0.00537885 </v>
   <v>       0.00272283      -0.01356630       0.00745607 </v>
   <v>       0.00675208       0.00167018      -0.01688208 </v>
  </varray>
  <varray name="stress" >
   <v>      -0.45281879      -0.05512852      -0.03473283 </v>
   <v>      -0.05512810      -0.39814778      -0.06652819 </v>
   <v>      -0.03473338      -0.06652815       0.44283469 </v>
  </varray>
  <energy>
   <i name="e_fr_energy">   -144.37333027 </i>
   <i name="e_wo_entrp">   -144.37354002 </i>
   <i name="e_0_energy">      0.00062923 </i>
  </energy>
