automatically generated by mexm         
           1
     8.040487    0.010405    0.002560
     0.010310    8.186436    0.024758
     0.002544    0.024705    8.145831
   Pt   Au
  15  17
Direct configuration=     1
   0.25030700  0.25136700  0.00087200
   0.00137200  0.24946200  0.25009900
   0.00242200  0.00321700  0.49777000
   0.25019600  0.00244000  0.75019000
   0.24830600  0.74949400  0.00347100
   0.25093400  0.74812600  0.49885200
   0.24835300  0.49965300  0.75019600
   0.99813400  0.74823500  0.75250400
   0.49945400  0.00042500  0.99734100
   0.49959900  0.00036000  0.49954500
   0.74993000  0.25041000  0.49859100
   0.75039400  0.00210000  0.75127700
   0.50126800  0.49968900  0.00210300
   0.74894100  0.74881700  0.00078600
   0.75087500  0.74685400  0.49675900
   0.99925700  0.75027400  0.24859500
   0.99775800  0.00615700  0.00264400
   0.25500200  0.00229000  0.24981700
   0.25359500  0.25542800  0.50067800
   0.99893300  0.25363800  0.75229400
   0.99360000  0.49461900  0.00355800
   0.25086200  0.49821200  0.25611200
   0.00011800  0.49397200  0.49996500
   0.74996600  0.25183500  0.99947200
   0.74437000  0.00425700  0.24179700
   0.49833700  0.25192500  0.25258800
   0.50219900  0.25648400  0.74703800
   0.74772300  0.49692400  0.25018700
   0.49982200  0.74847500  0.25234800
   0.50147000  0.49844700  0.49734700
   0.75225100  0.49443500  0.74949700
   0.50425000  0.74198200  0.74570700
automatically generated by mexm         
           1
     7.984313    0.010562    0.005319
     0.010474    8.133062    0.029505
     0.005333    0.029430    8.090960
   Pt   Au
  15  17
Direct configuration=     2
   0.25080983  0.25151437  0.00050769
   0.00137328  0.24895422  0.25061982
   0.00184742  0.00277323  0.49853442
   0.25032443  0.00148301  0.75014450
   0.24858797  0.74943346  0.00221825
   0.25024385  0.74901205  0.50018584
   0.24827756  0.50056312  0.75119988
   0.99858945  0.74908155  0.75198246
   0.49898581  0.00000806  0.99620241
   0.50008366 -0.00003307  0.50049247
   0.75046675  0.24894271  0.49841604
   0.75038343  0.00110595  0.75048544
   0.50033947  0.50011547  0.00170768
   0.74861124  0.74923828 -0.00008634
   0.75152803  0.74816853  0.49743768
   0.99924066  0.75053928  0.24894511
   0.99838448  0.00532298  0.00193489
   0.25459875  0.00208773  0.24982458
   0.25302971  0.25425187  0.50119943
   0.99950324  0.25259713  0.75178504
   0.99485442  0.49550701  0.00342517
   0.25048092  0.49860376  0.25483297
  -0.00004769  0.49489149  0.50008010
   0.74920087  0.25146809  0.99955590
   0.74470282  0.00382512  0.24305136
   0.49851341  0.25150944  0.25196040
   0.50167521  0.25542148  0.74765253
   0.74801610  0.49720772  0.25024103
   0.49988779  0.74885089  0.25185778
   0.50164222  0.49896548  0.49789682
   0.75214660  0.49557236  0.74942529
   0.50371634  0.74302024  0.74628337
automatically generated by mexm         
           1
     7.997730    0.010460    0.006949
     0.010365    8.152560    0.033276
     0.006977    0.033184    8.109137
   Pt   Au
  15  17
Direct configuration=     3
   0.25181549  0.25180920 -0.00022101
   0.00137567  0.24793871  0.25166151
   0.00069815  0.00188557  0.50006334
   0.25058130 -0.00043026  0.75005404
   0.24915227  0.74931317 -0.00028669
   0.24886324  0.75078275  0.50285258
   0.24812633  0.50238212  0.75320661
   0.99950040  0.75077434  0.75093896
   0.49804994 -0.00082483  0.99392620
   0.50105254 -0.00081952  0.50238701
   0.75154021  0.24600925  0.49806690
   0.75036260 -0.00088096  0.74890330
   0.49848276  0.50096836  0.00091730
   0.74795209  0.75008106 -0.00183074
   0.75283365  0.75079624  0.49879370
   0.99920784  0.75106944  0.24964501
   0.99963756  0.00365595  0.00051729
   0.25379235  0.00168333  0.24984000
   0.25189911  0.25190014  0.50224293
   0.00064378  0.25051642  0.75076781
   0.99736298  0.49728245  0.00315861
   0.24971927  0.49938778  0.25227543
  -0.00037909  0.49672975  0.50030975
   0.74767077  0.25073451  0.99972414
   0.74536795  0.00296092  0.24555962
   0.49886643  0.25067899  0.25070570
   0.50062758  0.25329684  0.74888210
   0.74860219  0.49777491  0.25034880
   0.50001951  0.74960268  0.25087735
   0.50198641  0.50000174  0.49899583
   0.75193780  0.49784631  0.74928124
   0.50264891  0.74509565  0.74743538
automatically generated by mexm         
           1
     8.016426    0.010318    0.009221
     0.010215    8.179730    0.038531
     0.009267    0.038415    8.134466
   Pt   Au
  15  17
Direct configuration=     4
   0.25242730  0.25191384 -0.00074131
   0.00135551  0.24720940  0.25227810
  -0.00008790  0.00114972  0.50118927
   0.25074959 -0.00187918  0.74997781
   0.24956997  0.74937435 -0.00207265
   0.24793508  0.75203674  0.50469505
   0.24801103  0.50356866  0.75446565
   0.00012872  0.75200906  0.75015223
   0.49744757 -0.00147801  0.99245568
   0.50165091 -0.00139905  0.50364269
   0.75221762  0.24409859  0.49795558
   0.75042004 -0.00227883  0.74788992
   0.49728635  0.50159195  0.00033302
   0.74756385  0.75073991 -0.00304297
   0.75365984  0.75270305  0.49980107
   0.99923932  0.75151245  0.25005599
   0.00043354  0.00246630 -0.00043199
   0.25324762  0.00129612  0.24986753
   0.25122155  0.25042552  0.50286621
   0.00126560  0.24920283  0.75018898
   0.99891300  0.49842225  0.00285983
   0.24927317  0.49993956  0.25076194
  -0.00050761  0.49800401  0.50050466
   0.74685548  0.25025071  0.99973240
   0.74590379  0.00219560  0.24716813
   0.49903606  0.25011826  0.24997324
   0.49996334  0.25190902  0.74961540
   0.74903272  0.49823073  0.25036998
   0.50004407  0.75017064  0.25026903
   0.50205170  0.50063413  0.49976429
   0.75183340  0.49927518  0.74924736
   0.50185576  0.74658949  0.74820789
automatically generated by mexm         
           1
     8.017962    0.010307    0.009407
     0.010202    8.181963    0.038963
     0.009455    0.038845    8.136547
   Pt   Au
  15  17
Direct configuration=     5
   0.25327854  0.25205964 -0.00146493
   0.00132728  0.24619519  0.25313585
  -0.00118173  0.00012607  0.50275538
   0.25098370 -0.00389333  0.74987268
   0.25015154  0.74946054 -0.00455591
   0.24664339  0.75377876  0.50725618
   0.24785031  0.50521732  0.75621541
   0.00100305  0.75372600  0.74905745
   0.49660999 -0.00238512  0.99041175
   0.50248294 -0.00220545  0.50538872
   0.75315996  0.24144262  0.49780183
   0.75050020 -0.00422143  0.74648185
   0.49562217  0.50245916 -0.00047940
   0.74702413  0.75165655 -0.00472869
   0.75480892  0.75535316  0.50120022
   0.99928301  0.75212803  0.25062711
   0.00154110  0.00081314 -0.00175130
   0.25248982  0.00075780  0.24990619
   0.25027878  0.24837519  0.50373391
   0.00213075  0.24737715  0.74938486
   0.00106939  0.50000696  0.00244328
   0.24865303  0.50070755  0.24865745
  -0.00068642  0.49977528  0.50077487
   0.74572130  0.24957816  0.99974441
   0.74664872  0.00113072  0.24940485
   0.49927224  0.24933923  0.24895518
   0.49903905  0.24997929  0.75063600
   0.74963165  0.49886437  0.25039901
   0.50007843  0.75096057  0.24942290
   0.50214233  0.50151275  0.50083230
   0.75168821  0.50126152  0.74919936
   0.50075220  0.74866562  0.74928121
automatically generated by mexm         
           1
     8.020393    0.010384    0.008962
     0.010271    8.187746    0.041240
     0.008994    0.041103    8.144013
   Pt   Au
  15  17
Direct configuration=     6
   0.25334836  0.25207163 -0.00152425
   0.00132495  0.24611206  0.25320618
  -0.00127146  0.00004214  0.50288377
   0.25100290 -0.00405831  0.74986417
   0.25019928  0.74946773 -0.00475938
   0.24653742  0.75392133  0.50746595
   0.24783710  0.50535228  0.75635869
   0.00107477  0.75386670  0.74896764
   0.49654136 -0.00245932  0.99024435
   0.50255112 -0.00227160  0.50553180
   0.75323723  0.24122506  0.49778935
   0.75050680 -0.00438048  0.74636659
   0.49548573  0.50253024 -0.00054597
   0.74697992  0.75173172 -0.00486684
   0.75490311  0.75557017  0.50131469
   0.99928658  0.75217843  0.25067387
   0.00163194  0.00067779 -0.00185933
   0.25242768  0.00071370  0.24990941
   0.25020145  0.24820719  0.50380513
   0.00220170  0.24722764  0.74931905
   0.00124621  0.50013680  0.00240902
   0.24860223  0.50077057  0.24848500
  -0.00070108  0.49992035  0.50079692
   0.74562830  0.24952306  0.99974546
   0.74670975  0.00104337  0.24958815
   0.49929163  0.24927547  0.24887180
   0.49896323  0.24982116  0.75071974
   0.74968076  0.49891628  0.25040134
   0.50008127  0.75102532  0.24935353
   0.50214973  0.50158467  0.50091976
   0.75167631  0.50142423  0.74919533
   0.50066169  0.74883562  0.74936907
automatically generated by mexm         
           1
     8.023903    0.010495    0.008318
     0.010372    8.196097    0.044530
     0.008329    0.044363    8.154796
   Pt   Au
  15  17
Direct configuration=     7
   0.25317924  0.25186121 -0.00153680
   0.00130364  0.24601959  0.25306092
  -0.00110511 -0.00003505  0.50298229
   0.25096002 -0.00410622  0.74979983
   0.25024116  0.74977084 -0.00476354
   0.24665564  0.75401781  0.50743539
   0.24781283  0.50520398  0.75604947
   0.00097885  0.75388022  0.74894839
   0.49661860 -0.00258250  0.99046417
   0.50235453 -0.00233805  0.50539396
   0.75314163  0.24144600  0.49799096
   0.75062023 -0.00435724  0.74668876
   0.49569508  0.50260558 -0.00063527
   0.74707839  0.75188831 -0.00491690
   0.75468742  0.75557219  0.50148588
   0.99939539  0.75229300  0.25052100
   0.00149551  0.00068442 -0.00180276
   0.25248884  0.00054048  0.24992377
   0.25041157  0.24838894  0.50360311
   0.00194318  0.24742846  0.74956667
   0.00080439  0.50001408  0.00222327
   0.24876209  0.50078885  0.24896004
  -0.00052492  0.49984781  0.50090361
   0.74601242  0.24948424  0.99957651
   0.74679572  0.00081666  0.24922574
   0.49915271  0.24925407  0.24910039
   0.49907198  0.25000857  0.75043815
   0.74966409  0.49901256  0.25032245
   0.49995550  0.75109832  0.24947571
   0.50190652  0.50152965  0.50098779
   0.75174364  0.50126501  0.74933638
   0.50069725  0.74870119  0.74919068
automatically generated by mexm         
           1
     8.023202    0.010472    0.008447
     0.010352    8.194429    0.043873
     0.008462    0.043712    8.152642
   Pt   Au
  15  17
Direct configuration=     8
   0.25293507  0.25155755 -0.00155484
   0.00127286  0.24588619  0.25285135
  -0.00086493 -0.00014650  0.50312448
   0.25089811 -0.00417533  0.74970700
   0.25030161  0.75020830 -0.00476966
   0.24682633  0.75415707  0.50739125
   0.24777777  0.50499007  0.75560334
   0.00084034  0.75389974  0.74892059
   0.49673013 -0.00276036  0.99078141
   0.50207068 -0.00243390  0.50519509
   0.75300361  0.24176479  0.49828176
   0.75078402 -0.00432384  0.74715363
   0.49599732  0.50271435 -0.00076413
   0.74722055  0.75211433 -0.00498919
   0.75437603  0.75557504  0.50173288
   0.99955246  0.75245841  0.25030038
   0.00129855  0.00069396 -0.00172115
   0.25257715  0.00029048  0.24994456
   0.25071492  0.24865132  0.50331156
   0.00156994  0.24771819  0.74992386
   0.00016647  0.49983706  0.00195525
   0.24899292  0.50081504  0.24964549
  -0.00027057  0.49974307  0.50105759
   0.74656698  0.24942828  0.99933277
   0.74691982  0.00048960  0.24870292
   0.49895216  0.24922311  0.24943022
   0.49922897  0.25027916  0.75003179
   0.74964000  0.49915156  0.25020858
   0.49977391  0.75120364  0.24965196
   0.50155539  0.50145023  0.50108595
   0.75184086  0.50103516  0.74953997
   0.50074857  0.74850723  0.74893333
automatically generated by mexm         
           1
     8.013461    0.010543    0.008218
     0.010411    8.190469    0.047203
     0.008217    0.047011    8.151433
   Pt   Au
  15  17
Direct configuration=     9
   0.25298382  0.25161813 -0.00155126
   0.00127901  0.24591279  0.25289314
  -0.00091288 -0.00012425  0.50309611
   0.25091047 -0.00416155  0.74972551
   0.25028954  0.75012102 -0.00476841
   0.24679226  0.75412928  0.50740006
   0.24778477  0.50503271  0.75569231
   0.00086799  0.75389585  0.74892614
   0.49670786 -0.00272485  0.99071812
   0.50212735 -0.00241479  0.50523476
   0.75303116  0.24170121  0.49822379
   0.75075131 -0.00433047  0.74706091
   0.49593698  0.50269264 -0.00073843
   0.74719217  0.75206923 -0.00497476
   0.75443819  0.75557449  0.50168362
   0.99952111  0.75242539  0.25034440
   0.00133787  0.00069206 -0.00173743
   0.25255952  0.00034036  0.24994039
   0.25065437  0.24859895  0.50336973
   0.00164444  0.24766041  0.74985264
   0.00029382  0.49987236  0.00200870
   0.24894682  0.50080987  0.24950877
  -0.00032135  0.49976398  0.50102687
   0.74645628  0.24943943  0.99938137
   0.74689506  0.00055481  0.24880717
   0.49899219  0.24922931  0.24936444
   0.49919764  0.25022514  0.75011286
   0.74964481  0.49912382  0.25023131
   0.49981016  0.75118264  0.24961681
   0.50162548  0.50146608  0.50106637
   0.75182144  0.50108104  0.74949934
   0.50073833  0.74854591  0.74898465
automatically generated by mexm         
           1
     8.007318    0.010587    0.008074
     0.010449    8.187971    0.049303
     0.008062    0.049092    8.150670
   Pt   Au
  15  17
Direct configuration=    10
   0.25284358  0.25136387 -0.00161563
   0.00123834  0.24570157  0.25278544
  -0.00079191 -0.00022851  0.50336234
   0.25087547 -0.00429842  0.74961603
   0.25037466  0.75045841 -0.00497778
   0.24684450  0.75439710  0.50754832
   0.24770452  0.50493113  0.75545644
   0.00080730  0.75400323  0.74881666
   0.49677538 -0.00290482  0.99084667
   0.50196328 -0.00253592  0.50515909
   0.75298526  0.24176013  0.49843821
   0.75087056 -0.00440294  0.74738941
   0.49606920  0.50282710 -0.00089248
   0.74726588  0.75234220 -0.00517963
   0.75421150  0.75576324  0.50202161
   0.99969360  0.75255492  0.25018224
   0.00127101  0.00059545 -0.00175843
   0.25257814  0.00009462  0.24996258
   0.25079666  0.24867012  0.50316761
   0.00140699  0.24780666  0.75008614
  -0.00005314  0.49984919  0.00177139
   0.24908873  0.50091039  0.24992879
  -0.00012060  0.49978985  0.50116730
   0.74683003  0.24931568  0.99921393
   0.74704957  0.00021872  0.24850495
   0.49889558  0.24914159  0.24955915
   0.49928138  0.25030972  0.74983815
   0.74963400  0.49931674  0.25016294
   0.49965410  0.75127493  0.24975201
   0.50134819  0.50147993  0.50121849
   0.75187978  0.50101841  0.74965295
   0.50072646  0.74847870  0.74881511
automatically generated by mexm         
           1
     8.003653    0.010522    0.008228
     0.010373    8.190148    0.051282
     0.008208    0.051046    8.155245
   Pt   Au
  15  17
Direct configuration=    11
   0.25275503  0.25120345 -0.00165617
   0.00121265  0.24556832  0.25271756
  -0.00071553 -0.00029437  0.50353030
   0.25085336 -0.00438475  0.74954700
   0.25042840  0.75067135 -0.00510993
   0.24687749  0.75456605  0.50764177
   0.24765384  0.50486710  0.75530769
   0.00076897  0.75407102  0.74874758
   0.49681802 -0.00301840  0.99092780
   0.50185969 -0.00261232  0.50511139
   0.75295628  0.24179726  0.49857344
   0.75094587 -0.00444875  0.74759663
   0.49615268  0.50291197 -0.00098969
   0.74731242  0.75251448 -0.00530893
   0.75406837  0.75588226  0.50223474
   0.99980251  0.75263668  0.25007993
   0.00122879  0.00053450 -0.00177165
   0.25258990 -0.00006043  0.24997663
   0.25088650  0.24871508  0.50304011
   0.00125706  0.24789889  0.75023337
  -0.00027222  0.49983463  0.00162170
   0.24917834  0.50097371  0.25019369
   0.00000616  0.49980614  0.50125588
   0.74706602  0.24923764  0.99910835
   0.74714713  0.00000673  0.24831442
   0.49883459  0.24908620  0.24968199
   0.49933426  0.25036315  0.74966485
   0.74962717  0.49943849  0.25011977
   0.49955556  0.75133312  0.24983726
   0.50117310  0.50148863  0.50131443
   0.75191661  0.50097885  0.74974986
   0.50071897  0.74843634  0.74870819
automatically generated by mexm         
           1
     7.992657    0.010324    0.008690
     0.010145    8.196676    0.057216
     0.008644    0.056909    8.168971
   Pt   Au
  15  17
Direct configuration=    12
   0.25277214  0.25109919 -0.00170930
   0.00118064  0.24540787  0.25273136
  -0.00073533 -0.00027787  0.50374370
   0.25086413 -0.00439872  0.74947813
   0.25048624  0.75072360 -0.00535506
   0.24682915  0.75477721  0.50780774
   0.24756094  0.50483877  0.75534360
   0.00077611  0.75412812  0.74865965
   0.49684450 -0.00306701  0.99087918
   0.50187897 -0.00265198  0.50511472
   0.75298699  0.24165603  0.49861041
   0.75093643 -0.00448297  0.74771210
   0.49610672  0.50296367 -0.00105621
   0.74729763  0.75266374 -0.00549519
   0.75398878  0.75606838  0.50245377
   0.99992225  0.75261584  0.25003607
   0.00131865  0.00041492 -0.00184584
   0.25252511 -0.00016773  0.24998158
   0.25080083  0.24860193  0.50298220
   0.00124758  0.24789391  0.75024809
  -0.00021014  0.49995858  0.00156487
   0.24917921  0.50108870  0.25018422
   0.00004765  0.49991810  0.50128940
   0.74707717  0.24912303  0.99912658
   0.74724741 -0.00016565  0.24831611
   0.49892867  0.24900435  0.24965912
   0.49934237  0.25026322  0.74962946
   0.74961272  0.49960585  0.25014021
   0.49950655  0.75132674  0.24989628
   0.50109904  0.50157743  0.50142626
   0.75189751  0.50105966  0.74977078
   0.50068139  0.74843609  0.74867602
automatically generated by mexm         
           1
     7.983241    0.010033    0.008773
     0.009837    8.194477    0.058199
     0.008713    0.057856    8.171528
   Pt   Au
  15  17
Direct configuration=    13
   0.25282349  0.25078651 -0.00186855
   0.00108457  0.24492661  0.25277286
  -0.00079479 -0.00022854  0.50438353
   0.25089645 -0.00444057  0.74927164
   0.25065986  0.75088049 -0.00609009
   0.24668409  0.75541040  0.50830523
   0.24728210  0.50475376  0.75545130
   0.00079753  0.75429945  0.74839597
   0.49692397 -0.00321276  0.99073342
   0.50193685 -0.00277091  0.50512474
   0.75307918  0.24123242  0.49872134
   0.75090808 -0.00458569  0.74805835
   0.49596876  0.50311877 -0.00125569
   0.74725323  0.75311152 -0.00605377
   0.75374990  0.75662645  0.50311035
   0.00028164  0.75255337  0.24990456
   0.00158834  0.00005634 -0.00206822
   0.25233066 -0.00048955  0.24999651
   0.25054368  0.24826260  0.50280864
   0.00121911  0.24787899  0.75029220
  -0.00002381  0.50033040  0.00139438
   0.24918184  0.50143360  0.25015574
   0.00017215  0.50025386  0.50138984
   0.74711064  0.24877926  0.99918131
   0.74754838 -0.00068266  0.24832130
   0.49921103  0.24875891  0.24959058
   0.49936671  0.24996356  0.74952341
   0.74956935  0.50010779  0.25020135
   0.49935945  0.75130755  0.25007323
   0.50087676  0.50184365  0.50176149
   0.75184016  0.50130203  0.74983348
   0.50056862  0.74843539  0.74857957
automatically generated by mexm         
           1
     7.980501    0.009948    0.008797
     0.009747    8.193838    0.058486
     0.008733    0.058131    8.172272
   Pt   Au
  15  17
Direct configuration=    14
   0.25295300  0.25077906 -0.00181555
   0.00103390  0.24490421  0.25280441
  -0.00092945 -0.00014481  0.50449450
   0.25098746 -0.00427327  0.74924714
   0.25077330  0.75077280 -0.00631226
   0.24660597  0.75555703  0.50841244
   0.24721246  0.50466524  0.75555655
   0.00079400  0.75426532  0.74838836
   0.49687620 -0.00322932  0.99065544
   0.50203647 -0.00268957  0.50508772
   0.75311515  0.24108041  0.49861815
   0.75081475 -0.00446947  0.74810633
   0.49587594  0.50305236 -0.00122657
   0.74716902  0.75311103 -0.00614789
   0.75380254  0.75677171  0.50318029
   0.00031473  0.75242972  0.24998190
   0.00178616 -0.00004387 -0.00216082
   0.25229605 -0.00049013  0.24995070
   0.25042592  0.24814305  0.50269931
   0.00125737  0.24789755  0.75024706
   0.00012429  0.50043351  0.00151603
   0.24916864  0.50141265  0.24993958
   0.00008145  0.50037752  0.50131294
   0.74701056  0.24878035  0.99934465
   0.74765705 -0.00081827  0.24846827
   0.49935486  0.24876116  0.24950215
   0.49933562  0.24986062  0.74953483
   0.74959171  0.50022056  0.25026517
   0.49935981  0.75124673  0.25006163
   0.50083968  0.50187397  0.50181865
   0.75179376  0.50133572  0.74984477
   0.50047961  0.74842943  0.74862408
automatically generated by mexm         
           1
     7.976400    0.009645    0.008757
     0.009428    8.195335    0.058895
     0.008678    0.058508    8.178159
   Pt   Au
  15  17
Direct configuration=    15
   0.25299073  0.25077690 -0.00180013
   0.00101913  0.24489769  0.25281359
  -0.00096868 -0.00012045  0.50452678
   0.25101398 -0.00422457  0.74924001
   0.25080635  0.75074147 -0.00637688
   0.24658322  0.75559970  0.50844362
   0.24719218  0.50463947  0.75558717
   0.00079297  0.75425539  0.74838615
   0.49686229 -0.00323414  0.99063276
   0.50206550 -0.00266589  0.50507695
   0.75312562  0.24103617  0.49858813
   0.75078756 -0.00443564  0.74812028
   0.49584890  0.50303303 -0.00121809
   0.74714448  0.75311089 -0.00617527
   0.75381788  0.75681399  0.50320063
   0.00032437  0.75239373  0.25000440
   0.00184379 -0.00007304 -0.00218775
   0.25228597 -0.00049030  0.24993738
   0.25039162  0.24810825  0.50266751
   0.00126851  0.24790295  0.75023393
   0.00016744  0.50046352  0.00155142
   0.24916479  0.50140656  0.24987671
   0.00005503  0.50041351  0.50129057
   0.74698140  0.24878066  0.99939217
   0.74768870 -0.00085774  0.24851102
   0.49939677  0.24876182  0.24947642
   0.49932657  0.24983065  0.74953816
   0.74959823  0.50025338  0.25028373
   0.49935991  0.75122902  0.25005825
   0.50082888  0.50188279  0.50183528
   0.75178024  0.50134552  0.74984806
   0.50045368  0.74842769  0.74863703
automatically generated by mexm         
           1
     7.970624    0.009217    0.008701
     0.008978    8.197445    0.059471
     0.008601    0.059038    8.186453
   Pt   Au
  15  17
Direct configuration=    16
   0.25308377  0.25078834 -0.00172644
   0.00097802  0.24493157  0.25282023
  -0.00106025 -0.00006077  0.50456475
   0.25108547 -0.00406513  0.74922413
   0.25088450  0.75064660 -0.00648491
   0.24653551  0.75567287  0.50847783
   0.24715246  0.50454482  0.75562839
   0.00078102  0.75420783  0.74841258
   0.49682178 -0.00324138  0.99060606
   0.50212874 -0.00258604  0.50502852
   0.75313379  0.24097679  0.49848810
   0.75071311 -0.00430633  0.74815695
   0.49581328  0.50295282 -0.00117365
   0.74708238  0.75306645 -0.00619143
   0.75386568  0.75687634  0.50321062
   0.00032931  0.75230510  0.25007321
   0.00197757 -0.00012572 -0.00224292
   0.25227621 -0.00047656  0.24989720
   0.25033092  0.24806097  0.50256162
   0.00128763  0.24794564  0.75021268
   0.00024607  0.50050030  0.00166782
   0.24916543  0.50133726  0.24972321
  -0.00002642  0.50047776  0.50121784
   0.74692076  0.24881425  0.99952981
   0.74776892 -0.00094347  0.24860309
   0.49949136  0.24878966  0.24942699
   0.49931017  0.24979621  0.74953584
   0.74961890  0.50030638  0.25033505
   0.49936233  0.75118140  0.25004111
   0.50080038  0.50187588  0.50185463
   0.75174942  0.50133320  0.74986207
   0.50038976  0.74841996  0.74865902
automatically generated by mexm         
           1
     7.969856    0.009160    0.008694
     0.008918    8.197725    0.059548
     0.008591    0.059108    8.187555
   Pt   Au
  15  17
Direct configuration=    17
   0.25321491  0.25080447 -0.00162271
   0.00092008  0.24497928  0.25282958
  -0.00118931  0.00002328  0.50461820
   0.25118625 -0.00384055  0.74920176
   0.25099466  0.75051298 -0.00663699
   0.24646828  0.75577593  0.50852600
   0.24709647  0.50441149  0.75568642
   0.00076418  0.75414085  0.74844979
   0.49676469 -0.00325159  0.99056848
   0.50221789 -0.00247356  0.50496033
   0.75314528  0.24089315  0.49834728
   0.75060817 -0.00412419  0.74820856
   0.49576308  0.50283985 -0.00111109
   0.74699485  0.75300384 -0.00621418
   0.75393306  0.75696417  0.50322466
   0.00033627  0.75218027  0.25017009
   0.00216614 -0.00019992 -0.00232058
   0.25226247 -0.00045720  0.24984064
   0.25024537  0.24799437  0.50241256
   0.00131459  0.24800577  0.75018276
   0.00035691  0.50055210  0.00183169
   0.24916633  0.50123966  0.24950713
  -0.00014123  0.50056827  0.50111546
   0.74683529  0.24886156  0.99972357
   0.74788200 -0.00106422  0.24873271
   0.49962468  0.24882888  0.24935740
   0.49928706  0.24974770  0.74953259
   0.74964804  0.50038102  0.25040730
   0.49936573  0.75111431  0.25001698
   0.50076020  0.50186614  0.50188187
   0.75170596  0.50131584  0.74988179
   0.50029967  0.74840906  0.74868997
automatically generated by mexm         
           1
     7.968320    0.009047    0.008679
     0.008799    8.198286    0.059701
     0.008571    0.059249    8.189760
   Pt   Au
  15  17
Direct configuration=    18
   0.25323235  0.25080661 -0.00160894
   0.00091237  0.24498562  0.25283082
  -0.00120648  0.00003445  0.50462530
   0.25119966 -0.00381070  0.74919878
   0.25100931  0.75049522 -0.00665719
   0.24645934  0.75578962  0.50853239
   0.24708902  0.50439377  0.75569413
   0.00076194  0.75413194  0.74845473
   0.49675710 -0.00325295  0.99056349
   0.50222975 -0.00245861  0.50495127
   0.75314681  0.24088204  0.49832858
   0.75059421 -0.00409999  0.74821541
   0.49575640  0.50282483 -0.00110278
   0.74698320  0.75299552 -0.00621721
   0.75394202  0.75697585  0.50322653
   0.00033719  0.75216368  0.25018296
   0.00219122 -0.00020978 -0.00233089
   0.25226064 -0.00045463  0.24983313
   0.25023399  0.24798552  0.50239277
   0.00131817  0.24801376  0.75017878
   0.00037165  0.50055899  0.00185345
   0.24916645  0.50122669  0.24947844
  -0.00015650  0.50058030  0.50110186
   0.74682392  0.24886784  0.99974930
   0.74789704 -0.00108027  0.24874992
   0.49964242  0.24883410  0.24934816
   0.49928398  0.24974126  0.74953216
   0.74965192  0.50039094  0.25041689
   0.49936618  0.75110540  0.25001378
   0.50075486  0.50186484  0.50188549
   0.75170018  0.50131353  0.74988441
   0.50028768  0.74840761  0.74869408
automatically generated by mexm         
           1
     7.969000    0.009097    0.008685
     0.008852    8.198038    0.059633
     0.008580    0.059187    8.188783
   Pt   Au
  15  17
Direct configuration=    19
   0.25326724  0.25081090 -0.00158139
   0.00089695  0.24499830  0.25283330
  -0.00124081  0.00005679  0.50463949
   0.25122648 -0.00375101  0.74919284
   0.25103862  0.75045971 -0.00669757
   0.24644145  0.75581701  0.50854518
   0.24707413  0.50435834  0.75570954
   0.00075745  0.75411414  0.74846461
   0.49674191 -0.00325566  0.99055351
   0.50225347 -0.00242872  0.50493316
   0.75314987  0.24085981  0.49829119
   0.75056629 -0.00405158  0.74822911
   0.49574304  0.50279481 -0.00108616
   0.74695991  0.75297887 -0.00622325
   0.75395995  0.75699919  0.50323026
   0.00033904  0.75213050  0.25020868
   0.00224139 -0.00022950 -0.00235151
   0.25225699 -0.00044948  0.24981810
   0.25021122  0.24796782  0.50235319
   0.00132535  0.24802974  0.75017084
   0.00040115  0.50057276  0.00189696
   0.24916668  0.50120075  0.24942106
  -0.00018704  0.50060435  0.50107467
   0.74680118  0.24888041  0.99980075
   0.74792712 -0.00111236  0.24878434
   0.49967789  0.24884452  0.24932969
   0.49927783  0.24972837  0.74953129
   0.74965967  0.50041077  0.25043607
   0.49936708  0.75108757  0.25000737
   0.50074417  0.50186225  0.50189272
   0.75168862  0.50130892  0.74988965
   0.50026371  0.74840471  0.74870230
automatically generated by mexm         
           1
     7.969536    0.009137    0.008691
     0.008894    8.197842    0.059580
     0.008587    0.059138    8.188014
   Pt   Au
  15  17
Direct configuration=    20
   0.25325179  0.25080900 -0.00159359
   0.00090378  0.24499269  0.25283220
  -0.00122560  0.00004689  0.50463321
   0.25121460 -0.00377745  0.74919547
   0.25102563  0.75047544 -0.00667969
   0.24644938  0.75580488  0.50853952
   0.24708073  0.50437403  0.75570271
   0.00075944  0.75412203  0.74846023
   0.49674864 -0.00325446  0.99055793
   0.50224296 -0.00244196  0.50494118
   0.75314852  0.24086965  0.49830774
   0.75057866 -0.00407302  0.74822304
   0.49574896  0.50280810 -0.00109352
   0.74697023  0.75298624 -0.00622057
   0.75395200  0.75698885  0.50322860
   0.00033822  0.75214519  0.25019729
   0.00221917 -0.00022077 -0.00234238
   0.25225861 -0.00045176  0.24982476
   0.25022131  0.24797566  0.50237072
   0.00132217  0.24802266  0.75017435
   0.00038808  0.50056666  0.00187769
   0.24916658  0.50121224  0.24944647
  -0.00017351  0.50059370  0.50108671
   0.74681125  0.24887484  0.99977797
   0.74791380 -0.00109815  0.24876910
   0.49966218  0.24883991  0.24933787
   0.49928056  0.24973408  0.74953167
   0.74965624  0.50040199  0.25042758
   0.49936668  0.75109546  0.25001021
   0.50074890  0.50186340  0.50188952
   0.75169374  0.50131096  0.74988733
   0.50027433  0.74840600  0.74869866
automatically generated by mexm         
           1
     7.969721    0.009150    0.008692
     0.008908    8.197775    0.059561
     0.008589    0.059121    8.187748
   Pt   Au
  15  17
Direct configuration=    21
   0.25323960  0.25080750 -0.00160320
   0.00090917  0.24498826  0.25283134
  -0.00121361  0.00003909  0.50462825
   0.25120523 -0.00379829  0.74919755
   0.25101540  0.75048784 -0.00666559
   0.24645562  0.75579532  0.50853505
   0.24708593  0.50438640  0.75569733
   0.00076101  0.75412824  0.74845678
   0.49675394 -0.00325351  0.99056141
   0.50223468 -0.00245240  0.50494750
   0.75314745  0.24087741  0.49832080
   0.75058841 -0.00408992  0.74821826
   0.49575362  0.50281859 -0.00109932
   0.74697836  0.75299206 -0.00621846
   0.75394574  0.75698070  0.50322730
   0.00033757  0.75215678  0.25018831
   0.00220164 -0.00021388 -0.00233518
   0.25225988 -0.00045356  0.24983000
   0.25022926  0.24798184  0.50238453
   0.00131966  0.24801708  0.75017713
   0.00037778  0.50056185  0.00186250
   0.24916650  0.50122130  0.24946650
  -0.00016284  0.50058530  0.50109620
   0.74681919  0.24887046  0.99976001
   0.74790329 -0.00108694  0.24875708
   0.49964979  0.24883626  0.24934432
   0.49928271  0.24973858  0.74953198
   0.74965353  0.50039506  0.25042088
   0.49936637  0.75110169  0.25001245
   0.50075263  0.50186430  0.50188700