       N       E                     dE             d eps       ncg     rms          rms(c)
DAV:   1     0.226578511403E+04    0.22658E+04   -0.12425E+05  5944   0.107E+03
DAV:   2    -0.525844460664E+02   -0.23184E+04   -0.22385E+04  6240   0.410E+02
DAV:   3    -0.335945513744E+03   -0.28336E+03   -0.26891E+03  9216   0.990E+01
DAV:   4    -0.369628842097E+03   -0.33683E+02   -0.32225E+02  9320   0.319E+01
DAV:   5    -0.372945590684E+03   -0.33167E+01   -0.32656E+01  8768   0.962E+00    0.625E+01
RMM:   6    -0.362596110848E+03    0.10349E+02   -0.24242E+01  7484   0.104E+01    0.292E+01
RMM:   7    -0.364723957904E+03   -0.21278E+01   -0.23733E+01  7919   0.748E+00    0.121E+01
RMM:   8    -0.358647741762E+03    0.60762E+01   -0.58864E+00  8014   0.344E+00    0.456E+00
RMM:   9    -0.358440081240E+03    0.20766E+00   -0.20780E+00  8182   0.188E+00    0.320E+00
RMM:  10    -0.358388190905E+03    0.51890E-01   -0.45888E-01  8076   0.115E+00    0.143E+00
RMM:  11    -0.358353975876E+03    0.34215E-01   -0.15292E-01  8076   0.601E-01    0.705E-01
RMM:  12    -0.358349093644E+03    0.48822E-02   -0.52569E-02  8162   0.339E-01    0.405E-01
RMM:  13    -0.358347646681E+03    0.14470E-02   -0.15506E-02  8197   0.179E-01    0.238E-01
RMM:  14    -0.358347635654E+03    0.11027E-04   -0.57500E-03  8577   0.947E-02    0.126E-01
RMM:  15    -0.358347810644E+03   -0.17499E-03   -0.27287E-03  8444   0.610E-02    0.645E-02
RMM:  16    -0.358347821261E+03   -0.10618E-04   -0.10879E-03  7214   0.348E-02    0.328E-02
RMM:  17    -0.358347829494E+03   -0.82326E-05   -0.45603E-04  6388   0.236E-02    0.156E-02
RMM:  18    -0.358347842249E+03   -0.12755E-04   -0.22350E-04  5927   0.176E-02    0.805E-03
RMM:  19    -0.358347846651E+03   -0.44017E-05   -0.80179E-05  4891   0.124E-02
   1 F= -.35834785E+03 E0= -.35835259E+03  d E =-.358348E+03
       N       E                     dE             d eps       ncg     rms          rms(c)
DAV:   1    -0.358348676818E+03   -0.83457E-03   -0.53705E-02  6092   0.635E-01    0.600E-02
RMM:   2    -0.358348886351E+03   -0.20953E-03   -0.25774E-03  7381   0.130E-01    0.295E-02
RMM:   3    -0.358348874020E+03    0.12332E-04   -0.23860E-04  6831   0.388E-02    0.253E-02
RMM:   4    -0.358348868984E+03    0.50359E-05   -0.65792E-05  5138   0.124E-02
   2 F= -.35834887E+03 E0= -.35835363E+03  d E =-.102233E-02
       N       E                     dE             d eps       ncg     rms          rms(c)
DAV:   1    -0.358349717370E+03   -0.84335E-03   -0.48085E-01  5872   0.190E+00    0.181E-01
RMM:   2    -0.358351418411E+03   -0.17010E-02   -0.21443E-02  7255   0.385E-01    0.902E-02
RMM:   3    -0.358351330583E+03    0.87828E-04   -0.21345E-03  7962   0.108E-01    0.791E-02
RMM:   4    -0.358351274339E+03    0.56244E-04   -0.47218E-04  8086   0.317E-02    0.522E-02
RMM:   5    -0.358351262701E+03    0.11638E-04   -0.19177E-04  7272   0.237E-02    0.292E-02
RMM:   6    -0.358351253430E+03    0.92709E-05   -0.81243E-05  6970   0.170E-02
   3 F= -.35835125E+03 E0= -.35835607E+03  d E =-.340678E-02
       N       E                     dE             d eps       ncg     rms          rms(c)
DAV:   1    -0.358347065560E+03    0.41971E-02   -0.19276E+00  5600   0.382E+00    0.362E-01
RMM:   2    -0.358353798890E+03   -0.67333E-02   -0.85271E-02  7164   0.770E-01    0.173E-01
RMM:   3    -0.358353398483E+03    0.40041E-03   -0.81969E-03  7982   0.215E-01    0.153E-01
RMM:   4    -0.358353213846E+03    0.18464E-03   -0.18299E-03  8813   0.613E-02    0.102E-01
RMM:   5    -0.358353176385E+03    0.37461E-04   -0.71725E-04  8235   0.434E-02    0.606E-02
RMM:   6    -0.358353147458E+03    0.28928E-04   -0.32762E-04  8093   0.353E-02    0.259E-02
RMM:   7    -0.358353144632E+03    0.28259E-05   -0.10988E-04  6019   0.156E-02    0.176E-02
RMM:   8    -0.358353143110E+03    0.15213E-05   -0.39431E-05  4400   0.128E-02
   4 F= -.35835314E+03 E0= -.35835805E+03  d E =-.529646E-02
       N       E                     dE             d eps       ncg     rms          rms(c)
DAV:   1    -0.358358784960E+03   -0.56403E-02   -0.38960E-01  6328   0.198E+00    0.668E-01
RMM:   2    -0.358356526692E+03    0.22583E-02   -0.36396E-02  7683   0.493E-01    0.242E-01
RMM:   3    -0.358355046194E+03    0.14805E-02   -0.71579E-03  8226   0.149E-01    0.185E-01
RMM:   4    -0.358354118267E+03    0.92793E-03   -0.22977E-03  8267   0.933E-02    0.945E-02
RMM:   5    -0.358354004789E+03    0.11348E-03   -0.68448E-04  8092   0.538E-02    0.713E-02
RMM:   6    -0.358354046559E+03   -0.41770E-04   -0.29358E-04  7285   0.269E-02    0.460E-02
RMM:   7    -0.358354063579E+03   -0.17020E-04   -0.10572E-04  6473   0.203E-02    0.233E-02
RMM:   8    -0.358354081810E+03   -0.18231E-04   -0.74826E-05  5030   0.146E-02    0.165E-02
RMM:   9    -0.358354092611E+03   -0.10801E-04   -0.27170E-05  4014   0.113E-02    0.116E-02
RMM:  10    -0.358354104406E+03   -0.11795E-04   -0.17372E-05  3670   0.101E-02    0.636E-03
RMM:  11    -0.358354111828E+03   -0.74219E-05   -0.16929E-05  3649   0.105E-02
   5 F= -.35835411E+03 E0= -.35835901E+03  d E =-.968717E-03
       N       E                     dE             d eps       ncg     rms          rms(c)
DAV:   1    -0.358354189407E+03   -0.85001E-04   -0.62694E-03  6428   0.252E-01    0.829E-02
RMM:   2    -0.358354149478E+03    0.39929E-04   -0.55906E-04  7098   0.622E-02    0.295E-02
RMM:   3    -0.358354126150E+03    0.23328E-04   -0.95598E-05  6585   0.193E-02    0.218E-02
RMM:   4    -0.358354113965E+03    0.12184E-04   -0.28975E-05  3607   0.139E-02    0.134E-02
RMM:   5    -0.358354114351E+03   -0.38640E-06   -0.93847E-06  3100   0.105E-02
   6 F= -.35835411E+03 E0= -.35835901E+03  d E =-.971241E-03
       N       E                     dE             d eps       ncg     rms          rms(c)
DAV:   1    -0.358354743108E+03   -0.62914E-03   -0.19190E-01  5744   0.118E+00    0.146E-01
RMM:   2    -0.358355171963E+03   -0.42885E-03   -0.71410E-03  7854   0.232E-01    0.751E-02
RMM:   3    -0.358355089134E+03    0.82829E-04   -0.89248E-04  8028   0.626E-02    0.546E-02
RMM:   4    -0.358355054044E+03    0.35090E-04   -0.22958E-04  7487   0.239E-02    0.342E-02
RMM:   5    -0.358355044456E+03    0.95885E-05   -0.94552E-05  6556   0.165E-02
   7 F= -.35835504E+03 E0= -.35835994E+03  d E =-.930104E-03
       N       E                     dE             d eps       ncg     rms          rms(c)
DAV:   1    -0.358355318315E+03   -0.26427E-03   -0.15350E-01  5744   0.106E+00    0.126E-01
RMM:   2    -0.358355664801E+03   -0.34649E-03   -0.56871E-03  7877   0.206E-01    0.669E-02
RMM:   3    -0.358355595182E+03    0.69619E-04   -0.74016E-04  7957   0.547E-02    0.478E-02
RMM:   4    -0.358355571177E+03    0.24005E-04   -0.19515E-04  7275   0.217E-02    0.302E-02
RMM:   5    -0.358355565243E+03    0.59339E-05   -0.85492E-05  6504   0.150E-02
   8 F= -.35835557E+03 E0= -.35836046E+03  d E =-.145089E-02
       N       E                     dE             d eps       ncg     rms          rms(c)
DAV:   1    -0.358354827398E+03    0.74378E-03   -0.61501E-01  5640   0.212E+00    0.253E-01
RMM:   2    -0.358356180504E+03   -0.13531E-02   -0.22562E-02  7863   0.412E-01    0.130E-01
RMM:   3    -0.358355920872E+03    0.25963E-03   -0.27862E-03  8024   0.109E-01    0.934E-02
RMM:   4    -0.358355823836E+03    0.97036E-04   -0.73279E-04  8437   0.420E-02    0.590E-02
RMM:   5    -0.358355802836E+03    0.21000E-04   -0.31908E-04  8147   0.303E-02    0.372E-02
RMM:   6    -0.358355788320E+03    0.14517E-04   -0.13146E-04  7131   0.194E-02    0.207E-02
RMM:   7    -0.358355783913E+03    0.44063E-05   -0.46940E-05  4543   0.129E-02
   9 F= -.35835578E+03 E0= -.35836068E+03  d E =-.166956E-02
       N       E                     dE             d eps       ncg     rms          rms(c)
DAV:   1    -0.358355763326E+03    0.24993E-04   -0.50447E-02  5728   0.607E-01    0.760E-02
RMM:   2    -0.358355866740E+03   -0.10341E-03   -0.18622E-03  7585   0.119E-01    0.364E-02
RMM:   3    -0.358355839432E+03    0.27308E-04   -0.20878E-04  7469   0.337E-02    0.286E-02
RMM:   4    -0.358355827329E+03    0.12103E-04   -0.45491E-05  4767   0.132E-02    0.180E-02
RMM:   5    -0.358355823818E+03    0.35105E-05   -0.14639E-05  3161   0.103E-02
  10 F= -.35835582E+03 E0= -.35836072E+03  d E =-.170947E-02
       N       E                     dE             d eps       ncg     rms          rms(c)
DAV:   1    -0.358355959590E+03   -0.13226E-03   -0.13843E-01  5584   0.105E+00    0.123E-01
RMM:   2    -0.358356237582E+03   -0.27799E-03   -0.53478E-03  7649   0.205E-01    0.580E-02
RMM:   3    -0.358356183060E+03    0.54522E-04   -0.53239E-04  7837   0.563E-02    0.454E-02
RMM:   4    -0.358356151387E+03    0.31673E-04   -0.14994E-04  7222   0.205E-02    0.264E-02
RMM:   5    -0.358356149363E+03    0.20243E-05   -0.62393E-05  5940   0.138E-02
  11 F= -.35835615E+03 E0= -.35836103E+03  d E =-.325545E-03
       N       E                     dE             d eps       ncg     rms          rms(c)
DAV:   1    -0.358355868150E+03    0.28324E-03   -0.31749E-01  5528   0.158E+00    0.187E-01
RMM:   2    -0.358356512907E+03   -0.64476E-03   -0.12363E-02  7856   0.311E-01    0.925E-02
RMM:   3    -0.358356405761E+03    0.10715E-03   -0.13562E-03  7988   0.833E-02    0.690E-02
RMM:   4    -0.358356338445E+03    0.67316E-04   -0.38515E-04  8160   0.321E-02    0.408E-02
RMM:   5    -0.358356334752E+03    0.36933E-05   -0.17009E-04  7634   0.229E-02    0.265E-02
RMM:   6    -0.358356338381E+03   -0.36293E-05   -0.64841E-05  5391   0.140E-02
  12 F= -.35835634E+03 E0= -.35836119E+03  d E =-.514563E-03
       N       E                     dE             d eps       ncg     rms          rms(c)
DAV:   1    -0.358356981355E+03   -0.64660E-03   -0.11315E-01  6056   0.102E+00    0.247E-01
RMM:   2    -0.358356951233E+03    0.30122E-04   -0.76176E-03  7591   0.234E-01    0.975E-02
RMM:   3    -0.358356722228E+03    0.22900E-03   -0.12267E-03  8129   0.733E-02    0.735E-02
RMM:   4    -0.358356600692E+03    0.12154E-03   -0.38344E-04  8162   0.357E-02    0.392E-02
RMM:   5    -0.358356573543E+03    0.27150E-04   -0.12724E-04  7307   0.219E-02    0.278E-02
RMM:   6    -0.358356568574E+03    0.49690E-05   -0.46483E-05  4625   0.117E-02
  13 F= -.35835657E+03 E0= -.35836143E+03  d E =-.230192E-03
       N       E                     dE             d eps       ncg     rms          rms(c)
DAV:   1    -0.358356627519E+03   -0.53977E-04   -0.16807E-02  5864   0.393E-01    0.887E-02
RMM:   2    -0.358356631006E+03   -0.34872E-05   -0.10951E-03  7597   0.890E-02    0.354E-02
RMM:   3    -0.358356590167E+03    0.40840E-04   -0.15522E-04  6889   0.272E-02    0.266E-02
RMM:   4    -0.358356573351E+03    0.16816E-04   -0.49633E-05  5137   0.157E-02    0.155E-02
RMM:   5    -0.358356568404E+03    0.49467E-05   -0.15835E-05  3280   0.111E-02
  14 F= -.35835657E+03 E0= -.35836143E+03  d E =-.230023E-03
       N       E                     dE             d eps       ncg     rms          rms(c)
DAV:   1    -0.358356604587E+03   -0.31236E-04   -0.18167E-02  5712   0.387E-01    0.359E-02
RMM:   2    -0.358356653459E+03   -0.48872E-04   -0.71911E-04  7716   0.760E-02    0.195E-02
RMM:   3    -0.358356647977E+03    0.54821E-05   -0.64583E-05  5158   0.217E-02
  15 F= -.35835665E+03 E0= -.35836152E+03  d E =-.795734E-04
       N       E                     dE             d eps       ncg     rms          rms(c)
DAV:   1    -0.358356449104E+03    0.20436E-03   -0.13261E-01  5648   0.105E+00    0.930E-02
RMM:   2    -0.358356813195E+03   -0.36409E-03   -0.51236E-03  7710   0.204E-01    0.493E-02
RMM:   3    -0.358356793129E+03    0.20066E-04   -0.53704E-04  7873   0.540E-02    0.394E-02
RMM:   4    -0.358356780213E+03    0.12916E-04   -0.13522E-04  6916   0.178E-02    0.257E-02
RMM:   5    -0.358356778512E+03    0.17003E-05   -0.49184E-05  5033   0.126E-02
  16 F= -.35835678E+03 E0= -.35836167E+03  d E =-.210108E-03
       N       E                     dE             d eps       ncg     rms          rms(c)
DAV:   1    -0.358355348035E+03    0.14322E-02   -0.52927E-01  5576   0.209E+00    0.178E-01
RMM:   2    -0.358356854466E+03   -0.15064E-02   -0.20124E-02  7474   0.407E-01    0.907E-02
RMM:   3    -0.358356752515E+03    0.10195E-03   -0.19655E-03  8007   0.109E-01    0.737E-02
RMM:   4    -0.358356699841E+03    0.52673E-04   -0.46411E-04  8590   0.331E-02    0.476E-02
RMM:   5    -0.358356696369E+03    0.34725E-05   -0.18555E-04  7864   0.259E-02    0.261E-02
RMM:   6    -0.358356699035E+03   -0.26664E-05   -0.79275E-05  6124   0.165E-02
  17 F= -.35835670E+03 E0= -.35836163E+03  d E =-.130631E-03
       N       E                     dE             d eps       ncg     rms          rms(c)
DAV:   1    -0.358356205906E+03    0.49046E-03   -0.24968E-01  5536   0.144E+00    0.124E-01
RMM:   2    -0.358356923633E+03   -0.71773E-03   -0.94067E-03  7118   0.278E-01    0.580E-02
RMM:   3    -0.358356856041E+03    0.67591E-04   -0.83611E-04  7924   0.792E-02    0.506E-02
RMM:   4    -0.358356822880E+03    0.33161E-04   -0.18481E-04  7554   0.218E-02    0.318E-02
RMM:   5    -0.358356815913E+03    0.69667E-05   -0.63269E-05  5973   0.146E-02
  18 F= -.35835682E+03 E0= -.35836172E+03  d E =-.247509E-03
       N       E                     dE             d eps       ncg     rms          rms(c)
DAV:   1    -0.358356791482E+03    0.31397E-04   -0.51891E-02  5672   0.619E-01    0.457E-02
RMM:   2    -0.358356920440E+03   -0.12896E-03   -0.16140E-03  6916   0.116E-01    0.215E-02
RMM:   3    -0.358356910863E+03    0.95776E-05   -0.13192E-04  6310   0.331E-02    0.172E-02
RMM:   4    -0.358356909629E+03    0.12334E-05   -0.42181E-05  4470   0.113E-02
  19 F= -.35835691E+03 E0= -.35836182E+03  d E =-.937161E-04
       N       E                     dE             d eps       ncg     rms          rms(c)
DAV:   1    -0.358356705353E+03    0.20551E-03   -0.11861E-01  5624   0.932E-01    0.732E-02
RMM:   2    -0.358356999562E+03   -0.29421E-03   -0.37572E-03  7525   0.175E-01    0.383E-02
RMM:   3    -0.358356993258E+03    0.63039E-05   -0.40380E-04  7489   0.477E-02    0.272E-02
RMM:   4    -0.358356994573E+03   -0.13151E-05   -0.11550E-04  6333   0.160E-02    0.190E-02
RMM:   5    -0.358356991492E+03    0.30808E-05   -0.34061E-05  3983   0.107E-02
  20 F= -.35835699E+03 E0= -.35836191E+03  d E =-.175579E-03
       N       E                     dE             d eps       ncg     rms          rms(c)
DAV:   1    -0.358355823763E+03    0.11708E-02   -0.47537E-01  5608   0.187E+00    0.147E-01
RMM:   2    -0.358357005039E+03   -0.11813E-02   -0.15023E-02  7438   0.352E-01    0.746E-02
RMM:   3    -0.358356981283E+03    0.23755E-04   -0.16206E-03  7958   0.959E-02    0.554E-02
RMM:   4    -0.358356970511E+03    0.10772E-04   -0.37993E-04  8432   0.296E-02    0.382E-02
RMM:   5    -0.358356967809E+03    0.27018E-05   -0.13906E-04  7256   0.209E-02    0.215E-02
RMM:   6    -0.358356960414E+03    0.73951E-05   -0.57769E-05  5120   0.132E-02
  21 F= -.35835696E+03 E0= -.35836189E+03  d E =-.144501E-03
       N       E                     dE             d eps       ncg     rms          rms(c)
DAV:   1    -0.358356464290E+03    0.50352E-03   -0.24506E-01  5608   0.134E+00    0.107E-01
RMM:   2    -0.358357047680E+03   -0.58339E-03   -0.75733E-03  6878   0.251E-01    0.487E-02
RMM:   3    -0.358357015461E+03    0.32219E-04   -0.71387E-04  7775   0.721E-02    0.388E-02
RMM:   4    -0.358357006685E+03    0.87761E-05   -0.18162E-04  7585   0.199E-02    0.260E-02
RMM:   5    -0.358357006688E+03   -0.26157E-08   -0.52526E-05  5232   0.127E-02
  22 F= -.35835701E+03 E0= -.35836193E+03  d E =-.190774E-03
       N       E                     dE             d eps       ncg     rms          rms(c)
DAV:   1    -0.358357075597E+03   -0.68912E-04   -0.41110E-02  5624   0.554E-01    0.826E-02
RMM:   2    -0.358357128298E+03   -0.52701E-04   -0.16511E-03  7559   0.109E-01    0.375E-02
RMM:   3    -0.358357089030E+03    0.39268E-04   -0.17187E-04  6924   0.346E-02    0.277E-02
RMM:   4    -0.358357076960E+03    0.12070E-04   -0.57421E-05  5874   0.155E-02    0.153E-02
RMM:   5    -0.358357075024E+03    0.19355E-05   -0.15876E-05  3138   0.999E-03
  23 F= -.35835708E+03 E0= -.35836199E+03  d E =-.683367E-04
       N       E                     dE             d eps       ncg     rms          rms(c)
DAV:   1    -0.358357096991E+03   -0.20031E-04   -0.87426E-02  5624   0.808E-01    0.122E-01
RMM:   2    -0.358357215837E+03   -0.11885E-03   -0.36213E-03  7764   0.160E-01    0.571E-02
RMM:   3    -0.358357137741E+03    0.78096E-04   -0.43334E-04  7832   0.481E-02    0.425E-02
RMM:   4    -0.358357110854E+03    0.26887E-04   -0.14602E-04  7340   0.207E-02    0.241E-02
RMM:   5    -0.358357107537E+03    0.33175E-05   -0.53194E-05  5554   0.136E-02
  24 F= -.35835711E+03 E0= -.35836201E+03  d E =-.100849E-03
       N       E                     dE             d eps       ncg     rms          rms(c)
DAV:   1    -0.358357175510E+03   -0.64656E-04   -0.28866E-02  5592   0.455E-01    0.669E-02
RMM:   2    -0.358357207575E+03   -0.32065E-04   -0.11199E-03  8018   0.884E-02    0.335E-02
RMM:   3    -0.358357200956E+03    0.66190E-05   -0.16882E-04  7225   0.261E-02    0.240E-02
RMM:   4    -0.358357192026E+03    0.89301E-05   -0.59104E-05  5401   0.148E-02
  25 F= -.35835719E+03 E0= -.35836209E+03  d E =-.844890E-04
       N       E                     dE             d eps       ncg     rms          rms(c)
DAV:   1    -0.358357235733E+03   -0.34777E-04   -0.25970E-01  5496   0.136E+00    0.184E-01
RMM:   2    -0.358357465554E+03   -0.22982E-03   -0.94484E-03  8006   0.261E-01    0.886E-02
RMM:   3    -0.358357385066E+03    0.80489E-04   -0.12236E-03  8070   0.720E-02    0.631E-02
RMM:   4    -0.358357304123E+03    0.80943E-04   -0.40105E-04  8209   0.338E-02    0.334E-02
RMM:   5    -0.358357294066E+03    0.10056E-04   -0.16193E-04  7021   0.202E-02    0.225E-02
RMM:   6    -0.358357290263E+03    0.38035E-05   -0.52854E-05  4596   0.126E-02
  26 F= -.35835729E+03 E0= -.35836218E+03  d E =-.182726E-03
       N       E                     dE             d eps       ncg     rms          rms(c)
DAV:   1    -0.358357284038E+03    0.10028E-04   -0.74113E-03  5872   0.230E-01    0.314E-02
RMM:   2    -0.358357293623E+03   -0.95857E-05   -0.30842E-04  7918   0.454E-02    0.163E-02
RMM:   3    -0.358357289886E+03    0.37374E-05   -0.42813E-05  4239   0.136E-02
  27 F= -.35835729E+03 E0= -.35836217E+03  d E =-.182349E-03
       N       E                     dE             d eps       ncg     rms          rms(c)
DAV:   1    -0.358357270852E+03    0.22771E-04   -0.29664E-02  5560   0.460E-01    0.639E-02
RMM:   2    -0.358357295985E+03   -0.25133E-04   -0.11499E-03  7999   0.885E-02    0.311E-02
RMM:   3    -0.358357283973E+03    0.12012E-04   -0.17071E-04  7065   0.255E-02    0.212E-02
RMM:   4    -0.358357276780E+03    0.71926E-05   -0.60708E-05  5111   0.144E-02
  28 F= -.35835728E+03 E0= -.35836215E+03  d E =-.169243E-03
       N       E                     dE             d eps       ncg     rms          rms(c)
DAV:   1    -0.358357286360E+03   -0.23875E-05   -0.93721E-03  5592   0.259E-01    0.375E-02
RMM:   2    -0.358357290379E+03   -0.40185E-05   -0.33137E-04  7478   0.499E-02    0.166E-02
RMM:   3    -0.358357283997E+03    0.63820E-05   -0.30366E-05  4026   0.152E-02
  29 F= -.35835728E+03 E0= -.35836217E+03  d E =-.176460E-03
       N       E                     dE             d eps       ncg     rms          rms(c)
DAV:   1    -0.358357285198E+03    0.51806E-05   -0.32016E-03  5676   0.150E-01    0.229E-02
RMM:   2    -0.358357285508E+03   -0.30936E-06   -0.13437E-04  7645   0.295E-02    0.121E-02
RMM:   3    -0.358357283463E+03    0.20449E-05   -0.14930E-05  3081   0.950E-03
  30 F= -.35835728E+03 E0= -.35836216E+03  d E =-.175926E-03
       N       E                     dE             d eps       ncg     rms          rms(c)
DAV:   1    -0.358357283350E+03    0.21578E-05   -0.14891E-04  5848   0.328E-02    0.755E-03
RMM:   2    -0.358357283653E+03   -0.30373E-06   -0.11422E-05  2910   0.827E-03
  31 F= -.35835728E+03 E0= -.35836217E+03  d E =-.176117E-03
       N       E                     dE             d eps       ncg     rms          rms(c)
DAV:   1    -0.358357208257E+03    0.75093E-04   -0.60987E-02  5624   0.633E-01    0.416E-02
RMM:   2    -0.358357349725E+03   -0.14147E-03   -0.16698E-03  6497   0.116E-01    0.212E-02
RMM:   3    -0.358357340225E+03    0.95003E-05   -0.14624E-04  6222   0.343E-02    0.179E-02
RMM:   4    -0.358357338588E+03    0.16368E-05   -0.42286E-05  4538   0.109E-02
  32 F= -.35835734E+03 E0= -.35836221E+03  d E =-.549343E-04
