<?xml version="1.0" encoding="ISO-8859-1"?>
<modeling>
 <generator>
  <i name="program" type="string">vasp </i>
  <i name="version" type="string">5.4.1  </i>
  <i name="subversion" type="string">05Feb16 (build Jan 29 2020 16:04:39) complex                          parallel </i>
  <i name="platform" type="string">IFC91_ompi </i>
  <i name="date" type="string">2020 06 15 </i>
  <i name="time" type="string">10:00:10 </i>
 </generator>
 <incar>
  <i type="string" name="SYSTEM"> automatically generated by mexm</i>
  <i type="int" name="ISTART">     0</i>
  <i type="string" name="PREC">accurate               ! avoid wrap aro</i>
  <i type="string" name="ALGO"> Fast                   ! blocked Davids</i>
  <i type="int" name="ISPIN">     1</i>
  <i type="int" name="ICHARG">     2</i>
  <i type="int" name="NELM">    70</i>
  <i type="int" name="IBRION">     2</i>
  <i name="EDIFF">      0.00001000</i>
  <i name="EDIFFG">     -0.01000000</i>
  <i type="int" name="NSW">   300</i>
  <i type="int" name="ISIF">     3</i>
  <i type="int" name="ISYM">     1</i>
  <i name="ENCUT">    300.00000000</i>
  <i name="POTIM">      0.15000000</i>
  <i type="string" name="LREAL"> Auto                  ! unpublished met</i>
  <i type="int" name="ISMEAR">     1</i>
  <i name="SIGMA">      0.15000000</i>
  <i type="logical" name="LWAVE"> F  </i>
  <i type="logical" name="LCHARG"> F  </i>
  <i type="logical" name="LVTOT"> F  </i>
  <v type="int" name="KPOINT_BSE">    -1     0     0     0</v>
  <i type="int" name="NELM">    70</i>
 </incar>
 <kpoints>
  <generation param="Gamma">
   <v type="int" name="divisions">       3        3        3 </v>
   <v name="usershift">      0.00000000       0.00000000       0.00000000 </v>
   <v name="genvec1">      0.33333333      -0.00000000       0.00000000 </v>
   <v name="genvec2">      0.00000000       0.33333333      -0.00000000 </v>
   <v name="genvec3">      0.00000000       0.00000000       0.33333333 </v>
   <v name="shift">      0.00000000       0.00000000       0.00000000 </v>
  </generation>
  <varray name="kpointlist" >
   <v>       0.00000000       0.00000000       0.00000000 </v>
   <v>       0.33333333      -0.00000000      -0.00000000 </v>
   <v>      -0.00000000       0.33333333       0.00000000 </v>
   <v>       0.33333333       0.33333333      -0.00000000 </v>
   <v>      -0.33333333       0.33333333       0.00000000 </v>
   <v>       0.00000000       0.00000000       0.33333333 </v>
   <v>       0.33333333      -0.00000000       0.33333333 </v>
   <v>      -0.33333333       0.00000000       0.33333333 </v>
   <v>       0.00000000       0.33333333       0.33333333 </v>
   <v>       0.33333333       0.33333333       0.33333333 </v>
   <v>      -0.33333333       0.33333333       0.33333333 </v>
   <v>       0.00000000      -0.33333333       0.33333333 </v>
   <v>       0.33333333      -0.33333333       0.33333333 </v>
   <v>      -0.33333333      -0.33333333       0.33333333 </v>
  </varray>
  <varray name="weights" >
   <v>       0.03703704 </v>
   <v>       0.07407407 </v>
   <v>       0.07407407 </v>
   <v>       0.07407407 </v>
   <v>       0.07407407 </v>
   <v>       0.07407407 </v>
   <v>       0.07407407 </v>
   <v>       0.07407407 </v>
   <v>       0.07407407 </v>
   <v>       0.07407407 </v>
   <v>       0.07407407 </v>
   <v>       0.07407407 </v>
   <v>       0.07407407 </v>
   <v>       0.07407407 </v>
  </varray>
 </kpoints>
 <parameters>
  <separator name="general" >
   <i type="string" name="SYSTEM">automatically generated by mexm</i>
   <i type="logical" name="LCOMPAT"> F  </i>
  </separator>
  <separator name="electronic" >
   <i type="string" name="PREC">accura</i>
   <i name="ENMAX">    300.00000000</i>
   <i name="ENAUG">    461.25700000</i>
   <i name="EDIFF">      0.00001000</i>
   <i type="int" name="IALGO">    68</i>
   <i type="int" name="IWAVPR">    11</i>
   <i type="int" name="NBANDS">   196</i>
   <i name="NELECT">    322.00000000</i>
   <i type="int" name="TURBO">     0</i>
   <i type="int" name="IRESTART">     0</i>
   <i type="int" name="NREBOOT">     0</i>
   <i type="int" name="NMIN">     0</i>
   <i name="EREF">      0.00000000</i>
   <separator name="electronic smearing" >
    <i type="int" name="ISMEAR">     1</i>
    <i name="SIGMA">      0.15000000</i>
    <i name="KSPACING">      0.50000000</i>
    <i type="logical" name="KGAMMA"> T  </i>
   </separator>
   <separator name="electronic projectors" >
    <i type="logical" name="LREAL"> T  </i>
    <v name="ROPT">     -0.00025000     -0.00025000     -0.00025000     -0.00025000</v>
    <i type="int" name="LMAXPAW">  -100</i>
    <i type="int" name="LMAXMIX">     2</i>
    <i type="logical" name="NLSPLINE"> F  </i>
   </separator>
   <separator name="electronic startup" >
    <i type="int" name="ISTART">     0</i>
    <i type="int" name="ICHARG">     2</i>
    <i type="int" name="INIWAV">     1</i>
   </separator>
   <separator name="electronic spin" >
    <i type="int" name="ISPIN">     1</i>
    <i type="logical" name="LNONCOLLINEAR"> F  </i>
    <v name="MAGMOM">      1.00000000      1.00000000      1.00000000      1.00000000      1.00000000      1.00000000      1.00000000      1.00000000      1.00000000      1.00000000      1.00000000      1.00000000      1.00000000      1.00000000      1.00000000      1.00000000      1.00000000      1.00000000      1.00000000      1.00000000
      1.00000000      1.00000000      1.00000000      1.00000000      1.00000000      1.00000000      1.00000000      1.00000000      1.00000000      1.00000000      1.00000000      1.00000000      1.00000000      1.00000000      1.00000000      1.00000000</v>
    <i name="NUPDOWN">     -1.00000000</i>
    <i type="logical" name="LSORBIT"> F  </i>
    <v name="SAXIS">      0.00000000      0.00000000      1.00000000</v>
    <i type="logical" name="LSPIRAL"> F  </i>
    <v name="QSPIRAL">      0.00000000      0.00000000      0.00000000</v>
    <i type="logical" name="LZEROZ"> F  </i>
   </separator>
   <separator name="electronic exchange-correlation" >
    <i type="logical" name="LASPH"> F  </i>
    <i type="logical" name="LMETAGGA"> F  </i>
   </separator>
   <separator name="electronic convergence" >
    <i type="int" name="NELM">    70</i>
    <i type="int" name="NELMDL">    -5</i>
    <i type="int" name="NELMIN">     2</i>
    <i name="ENINI">    300.00000000</i>
    <separator name="electronic convergence detail" >
     <i type="logical" name="LDIAG"> T  </i>
     <i type="logical" name="LSUBROT"> F  </i>
     <i name="WEIMIN">      0.00100000</i>
     <i name="EBREAK">      0.00000001</i>
     <i name="DEPER">      0.30000000</i>
     <i type="int" name="NRMM">     4</i>
     <i name="TIME">      0.40000000</i>
    </separator>
   </separator>
   <separator name="electronic mixer" >
    <i name="AMIX">      0.40000000</i>
    <i name="BMIX">      1.00000000</i>
    <i name="AMIN">      0.10000000</i>
    <i name="AMIX_MAG">      1.60000000</i>
    <i name="BMIX_MAG">      1.00000000</i>
    <separator name="electronic mixer details" >
     <i type="int" name="IMIX">     4</i>
     <i type="logical" name="MIXFIRST"> F  </i>
     <i type="int" name="MAXMIX">   -45</i>
     <i name="WC">    100.00000000</i>
     <i type="int" name="INIMIX">     1</i>
     <i type="int" name="MIXPRE">     1</i>
     <i type="int" name="MREMOVE">     5</i>
    </separator>
   </separator>
   <separator name="electronic dipolcorrection" >
    <i type="logical" name="LDIPOL"> F  </i>
    <i type="logical" name="LMONO"> F  </i>
    <i type="int" name="IDIPOL">     0</i>
    <i name="EPSILON">      1.00000000</i>
    <v name="DIPOL">   -100.00000000   -100.00000000   -100.00000000</v>
    <i name="EFIELD">      0.00000000</i>
   </separator>
  </separator>
  <separator name="grids" >
   <i type="int" name="NGX">    40</i>
   <i type="int" name="NGY">    60</i>
   <i type="int" name="NGZ">    60</i>
   <i type="int" name="NGXF">    80</i>
   <i type="int" name="NGYF">   120</i>
   <i type="int" name="NGZF">   120</i>
   <i type="logical" name="ADDGRID"> F  </i>
  </separator>
  <separator name="ionic" >
   <i type="int" name="NSW">   300</i>
   <i type="int" name="IBRION">     2</i>
   <i type="int" name="ISIF">     3</i>
   <i name="PSTRESS">      0.00000000</i>
   <i name="EDIFFG">     -0.01000000</i>
   <i type="int" name="NFREE">     1</i>
   <i name="POTIM">      0.15000000</i>
   <i name="SMASS">     -3.00000000</i>
   <i name="SCALEE">      1.00000000</i>
  </separator>
  <separator name="ionic md" >
   <i name="TEBEG">      0.00010000</i>
   <i name="TEEND">      0.00010000</i>
   <i type="int" name="NBLOCK">     1</i>
   <i type="int" name="KBLOCK">   300</i>
   <i type="int" name="NPACO">   256</i>
   <i name="APACO">     16.00000000</i>
  </separator>
  <separator name="symmetry" >
   <i type="int" name="ISYM">     1</i>
   <i name="SYMPREC">      0.00001000</i>
  </separator>
  <separator name="dos" >
   <i type="logical" name="LORBIT"> F  </i>
   <v name="RWIGS">     -1.00000000     -1.00000000     -1.00000000     -1.00000000</v>
   <i type="int" name="NEDOS">   301</i>
   <i name="EMIN">     10.00000000</i>
   <i name="EMAX">    -10.00000000</i>
   <i name="EFERMI">      0.00000000</i>
  </separator>
  <separator name="writing" >
   <i type="int" name="NWRITE">     2</i>
   <i type="logical" name="LWAVE"> F  </i>
   <i type="logical" name="LCHARG"> F  </i>
   <i type="logical" name="LPARD"> F  </i>
   <i type="logical" name="LVTOT"> F  </i>
   <i type="logical" name="LVHAR"> F  </i>
   <i type="logical" name="LELF"> F  </i>
   <i type="logical" name="LOPTICS"> F  </i>
   <v name="STM">      0.00000000      0.00000000      0.00000000      0.00000000      0.00000000      0.00000000      0.00000000</v>
  </separator>
  <separator name="performance" >
   <i type="int" name="NPAR">     4</i>
   <i type="int" name="NSIM">     4</i>
   <i type="int" name="NBLK">    -1</i>
   <i type="logical" name="LPLANE"> T  </i>
   <i type="logical" name="LSCALAPACK"> T  </i>
   <i type="logical" name="LSCAAWARE"> F  </i>
   <i type="logical" name="LSCALU"> F  </i>
   <i type="logical" name="LASYNC"> F  </i>
   <i type="logical" name="LORBITALREAL"> F  </i>
  </separator>
  <separator name="miscellaneous" >
   <i type="int" name="IDIOT">     3</i>
   <i type="logical" name="LMUSIC"> F  </i>
   <v name="POMASS">    178.49000000     92.91000000    180.94800000     91.22400000</v>
   <v name="DARWINR">      0.00000000      0.00000000      0.00000000      0.00000000</v>
   <v name="DARWINV">      1.00000000      1.00000000      1.00000000      1.00000000</v>
   <i type="logical" name="LCORR"> T  </i>
  </separator>
  <i type="logical" name="GGA_COMPAT"> T  </i>
  <i type="logical" name="LBERRY"> F  </i>
  <i type="int" name="ICORELEVEL">     0</i>
  <i type="logical" name="LDAU"> F  </i>
  <i type="int" name="I_CONSTRAINED_M">     0</i>
  <separator name="electronic exchange-correlation" >
   <i type="string" name="GGA">--</i>
   <i type="int" name="VOSKOWN">     0</i>
   <i type="logical" name="LHFCALC"> F  </i>
   <i type="string" name="PRECFOCK"></i>
   <i type="logical" name="LSYMGRAD"> F  </i>
   <i type="logical" name="LHFONE"> F  </i>
   <i type="logical" name="LRHFCALC"> F  </i>
   <i type="logical" name="LTHOMAS"> F  </i>
   <i type="logical" name="LMODELHF"> F  </i>
   <i name="ENCUT4O">     -1.00000000</i>
   <i type="int" name="EXXOEP">     0</i>
   <i type="int" name="FOURORBIT">     0</i>
   <i name="AEXX">      0.00000000</i>
   <i name="HFALPHA">      0.00000000</i>
   <i name="MCALPHA">      0.00000000</i>
   <i name="ALDAX">      1.00000000</i>
   <i name="AGGAX">      1.00000000</i>
   <i name="ALDAC">      1.00000000</i>
   <i name="AGGAC">      1.00000000</i>
   <i type="int" name="NKREDX">     1</i>
   <i type="int" name="NKREDY">     1</i>
   <i type="int" name="NKREDZ">     1</i>
   <i type="logical" name="SHIFTRED"> F  </i>
   <i type="logical" name="ODDONLY"> F  </i>
   <i type="logical" name="EVENONLY"> F  </i>
   <i type="int" name="LMAXFOCK">     0</i>
   <i type="int" name="NMAXFOCKAE">     0</i>
   <i type="logical" name="LFOCKAEDFT"> F  </i>
   <i name="HFSCREEN">      0.00000000</i>
   <i name="HFSCREENC">      0.00000000</i>
   <i type="int" name="NBANDSGWLOW">     0</i>
  </separator>
  <separator name="vdW DFT" >
   <i type="logical" name="LUSE_VDW"> F  </i>
   <i name="Zab_VDW">     -0.84910000</i>
   <i name="PARAM1">      0.12340000</i>
   <i name="PARAM2">      1.00000000</i>
   <i name="PARAM3">      0.00000000</i>
  </separator>
  <separator name="model GW" >
   <i type="int" name="MODEL_GW">     0</i>
   <i name="MODEL_EPS0">     12.10745757</i>
   <i name="MODEL_ALPHA">      1.00000000</i>
  </separator>
  <separator name="linear response parameters" >
   <i type="logical" name="LEPSILON"> F  </i>
   <i type="logical" name="LRPA"> F  </i>
   <i type="logical" name="LNABLA"> F  </i>
   <i type="logical" name="LVEL"> F  </i>
   <i type="int" name="KINTER">     0</i>
   <i name="CSHIFT">      0.10000000</i>
   <i name="OMEGAMAX">     -1.00000000</i>
   <i name="DEG_THRESHOLD">      0.00200000</i>
  </separator>
  <separator name="orbital magnetization" >
   <i type="logical" name="NUCIND"> F  </i>
   <v name="MAGPOS">      0.00000000      0.00000000      0.00000000</v>
   <i type="logical" name="LNICSALL"> T  </i>
   <i type="logical" name="ORBITALMAG"> F  </i>
   <i type="logical" name="LMAGBLOCH"> F  </i>
   <i type="logical" name="LCHIMAG"> F  </i>
   <i type="logical" name="LGAUGE"> T  </i>
   <i type="int" name="MAGATOM">     0</i>
   <v name="MAGDIPOL">      0.00000000      0.00000000      0.00000000</v>
   <v name="AVECCONST">      0.00000000      0.00000000      0.00000000</v>
  </separator>
  <separator name="response functions" >
   <i type="logical" name="LADDER"> F  </i>
   <i type="logical" name="LFXC"> F  </i>
   <i type="logical" name="LHARTREE"> T  </i>
   <i type="int" name="IBSE">     0</i>
   <v type="int" name="KPOINT">    -1     0     0     0</v>
   <i type="logical" name="LTCTE"> F  </i>
   <i type="logical" name="LTETE"> F  </i>
   <i type="logical" name="LTRIPLET"> F  </i>
   <i type="logical" name="LFXCEPS"> F  </i>
   <i type="logical" name="LFXHEG"> F  </i>
   <i type="int" name="NATURALO">     0</i>
   <i type="logical" name="L2ORDER"> F  </i>
   <i type="logical" name="LUSEW"> F  </i>
   <i name="ENCUTGW">     -2.00000000</i>
   <i name="ENCUTGWSOFT">     -2.00000000</i>
   <i name="ENCUTLF">     -1.00000000</i>
   <i type="int" name="LMAXMP2">    -1</i>
   <i name="SCISSOR">      0.00000000</i>
   <i type="int" name="NOMEGA">     0</i>
   <i type="int" name="NOMEGAR">     0</i>
   <i type="int" name="NBANDSGW">    -1</i>
   <i type="int" name="NBANDSO">    -1</i>
   <i type="int" name="NBANDSV">    -1</i>
   <i type="int" name="NELM">    70</i>
   <i type="int" name="NELMHF">     1</i>
   <i type="int" name="DIM">     3</i>
   <i type="int" name="ANTIRES">     0</i>
   <i name="OMEGAMAX">    -30.00000000</i>
   <i name="OMEGAMIN">    -30.00000000</i>
   <i name="OMEGATL">   -200.00000000</i>
   <i type="int" name="OMEGAGRID">     0</i>
   <i name="CSHIFT">     -0.10000000</i>
   <i type="logical" name="SELFENERGY"> F  </i>
   <i type="logical" name="LSPECTRAL"> F  </i>
   <i type="logical" name="LSPECTRALGW"> F  </i>
   <i type="logical" name="LSINGLES"> F  </i>
   <i type="logical" name="LFERMIGW"> F  </i>
   <i type="logical" name="ODDONLYGW"> F  </i>
   <i type="logical" name="EVENONLYGW"> F  </i>
   <i type="int" name="NKREDLFX">     1</i>
   <i type="int" name="NKREDLFY">     1</i>
   <i type="int" name="NKREDLFZ">     1</i>
   <i type="int" name="MAXMEM">  1800</i>
   <i type="int" name="TELESCOPE">     0</i>
   <i type="int" name="TAUPAR">     1</i>
   <i type="int" name="OMEGAPAR">    -1</i>
   <i name="LAMBDA">      1.00000000</i>
  </separator>
  <separator name="External order field" >
   <i name="OFIELD_KAPPA">      0.00000000</i>
   <v name="OFIELD_K">      0.00000000      0.00000000      0.00000000</v>
   <i name="OFIELD_Q6_NEAR">      0.00000000</i>
   <i name="OFIELD_Q6_FAR">      0.00000000</i>
   <i name="OFIELD_A">      0.00000000</i>
  </separator>
 </parameters>
 <atominfo>
  <atoms>      36 </atoms>
  <types>       4 </types>
  <array name="atoms" >
   <dimension dim="1">ion</dimension>
   <field type="string">element</field>
   <field type="int">atomtype</field>
   <set>
    <rc><c>Hf</c><c>   1</c></rc>
    <rc><c>Hf</c><c>   1</c></rc>
    <rc><c>Hf</c><c>   1</c></rc>
    <rc><c>Hf</c><c>   1</c></rc>
    <rc><c>Hf</c><c>   1</c></rc>
    <rc><c>Hf</c><c>   1</c></rc>
    <rc><c>Hf</c><c>   1</c></rc>
    <rc><c>Hf</c><c>   1</c></rc>
    <rc><c>Hf</c><c>   1</c></rc>
    <rc><c>Nb</c><c>   2</c></rc>
    <rc><c>Nb</c><c>   2</c></rc>
    <rc><c>Nb</c><c>   2</c></rc>
    <rc><c>Nb</c><c>   2</c></rc>
    <rc><c>Nb</c><c>   2</c></rc>
    <rc><c>Nb</c><c>   2</c></rc>
    <rc><c>Nb</c><c>   2</c></rc>
    <rc><c>Nb</c><c>   2</c></rc>
    <rc><c>Nb</c><c>   2</c></rc>
    <rc><c>Nb</c><c>   2</c></rc>
    <rc><c>Nb</c><c>   2</c></rc>
    <rc><c>Ta</c><c>   3</c></rc>
    <rc><c>Ta</c><c>   3</c></rc>
    <rc><c>Ta</c><c>   3</c></rc>
    <rc><c>Ta</c><c>   3</c></rc>
    <rc><c>Ta</c><c>   3</c></rc>
    <rc><c>Ta</c><c>   3</c></rc>
    <rc><c>Ta</c><c>   3</c></rc>
    <rc><c>Zr</c><c>   4</c></rc>
    <rc><c>Zr</c><c>   4</c></rc>
    <rc><c>Zr</c><c>   4</c></rc>
    <rc><c>Zr</c><c>   4</c></rc>
    <rc><c>Zr</c><c>   4</c></rc>
    <rc><c>Zr</c><c>   4</c></rc>
    <rc><c>Zr</c><c>   4</c></rc>
    <rc><c>Zr</c><c>   4</c></rc>
    <rc><c>Zr</c><c>   4</c></rc>
   </set>
  </array>
  <array name="atomtypes" >
   <dimension dim="1">type</dimension>
   <field type="int">atomspertype</field>
   <field type="string">element</field>
   <field>mass</field>
   <field>valence</field>
   <field type="string">pseudopotential</field>
   <set>
    <rc><c>   9</c><c>Hf</c><c>    178.49000000</c><c>      4.00000000</c><c>  PAW_PBE Hf 20Jan2003                  </c></rc>
    <rc><c>  11</c><c>Nb</c><c>     92.91000000</c><c>     13.00000000</c><c>  PAW_PBE Nb_sv 25May2007               </c></rc>
    <rc><c>   7</c><c>Ta</c><c>    180.94800000</c><c>      5.00000000</c><c>  PAW_PBE Ta 17Jan2003                  </c></rc>
    <rc><c>   9</c><c>Zr</c><c>     91.22400000</c><c>     12.00000000</c><c>  PAW_PBE Zr_sv 04Jan2005               </c></rc>
   </set>
  </array>
 </atominfo>
 <structure name="initialpos" >
  <crystal>
   <varray name="basis" >
    <v>       6.94274981      -0.01090943       0.03952737 </v>
    <v>      -0.01616711      10.25329661       0.00222479 </v>
    <v>       0.05775465       0.00119221      10.20526418 </v>
   </varray>
   <i name="volume">    726.44745439 </i>
   <varray name="rec_basis" >
    <v>       0.14404015       0.00022730      -0.00081519 </v>
    <v>       0.00015332       0.09752985      -0.00001226 </v>
    <v>      -0.00055793      -0.00002214       0.09799180 </v>
   </varray>
  </crystal>
  <varray name="positions" >
   <v>       0.22936400       0.17114500       0.48667600 </v>
   <v>       0.26571100       0.50671800       0.16774900 </v>
   <v>       0.99796200       0.33955700       0.99960800 </v>
   <v>       0.97258100       0.66125300       0.00499500 </v>
   <v>       0.26246500       0.82180500       0.16805500 </v>
   <v>       0.46628400       0.00491000       0.65915900 </v>
   <v>       0.75667800       0.83289900       0.50548800 </v>
   <v>       0.01245800       0.65727200       0.66678600 </v>
   <v>       0.26854600       0.81625900       0.84482600 </v>
   <v>       0.53747600       0.65951000       0.00171100 </v>
   <v>       0.99625800       0.98205300       0.32332100 </v>
   <v>       0.49666900       0.98602100       0.34473100 </v>
   <v>       0.74166300       0.83172600       0.18196600 </v>
   <v>       0.51414700       0.34491700       0.34451700 </v>
   <v>       0.26301300       0.50491400       0.84160400 </v>
   <v>       0.97754400       0.35136600       0.31778900 </v>
   <v>       0.00660100       0.34738300       0.68046400 </v>
   <v>       0.25053500       0.82971600       0.48927800 </v>
   <v>       0.49363400       0.33576600       0.98789900 </v>
   <v>       0.23377600       0.17387900       0.82935700 </v>
   <v>       0.74011800       0.49489600       0.83182500 </v>
   <v>       0.73022600       0.49774900       0.17237400 </v>
   <v>       0.03938800       0.99253000       0.66843600 </v>
   <v>       0.51795600       0.66971300       0.33828600 </v>
   <v>       0.75178200       0.50660500       0.49501300 </v>
   <v>       0.98467100       0.66839800       0.33001300 </v>
   <v>       0.49999700       0.65227400       0.66360000 </v>
   <v>       0.25218000       0.17365100       0.18337700 </v>
   <v>       0.99756100       0.00022300       0.00659900 </v>
   <v>       0.76685300       0.16282200       0.49909000 </v>
   <v>       0.76503400       0.16878800       0.81988500 </v>
   <v>       0.49759700       0.01022100       0.99781900 </v>
   <v>       0.72915100       0.17436200       0.17796900 </v>
   <v>       0.49258200       0.33730600       0.66603400 </v>
   <v>       0.74634800       0.83615700       0.81645300 </v>
   <v>       0.24518600       0.49524300       0.48724800 </v>
  </varray>
 </structure>
 <calculation>
  <scstep>
   <time name="dav">    1.28    1.31</time>
   <time name="total">    1.57    1.81</time>
   <energy>
    <i name="alphaZ">   1674.13886823 </i>
    <i name="ewald"> -22918.89667365 </i>
    <i name="hartreedc">  -8027.92765682 </i>
    <i name="XCdc">    130.14062328 </i>
    <i name="pawpsdc">  25045.23586184 </i>
    <i name="pawaedc"> -23618.97125449 </i>
    <i name="eentropy">     -0.01222764 </i>
    <i name="bandstr">   -279.38409412 </i>
    <i name="atom">  30261.46166738 </i>
    <i name="e_fr_energy">   2265.78511403 </i>
    <i name="e_wo_entrp">   2265.79734167 </i>
    <i name="e_0_energy">   2265.78918991 </i>
   </energy>
  </scstep>
  <scstep>
   <time name="dav">    1.19    1.19</time>
   <time name="total">    1.19    1.31</time>
   <energy>
    <i name="e_fr_energy">    -52.58444607 </i>
    <i name="e_wo_entrp">    -52.58909094 </i>
    <i name="e_0_energy">    -52.58599436 </i>
   </energy>
  </scstep>
  <scstep>
   <time name="dav">    1.63    1.64</time>
   <time name="total">    1.63    1.66</time>
   <energy>
    <i name="e_fr_energy">   -335.94551374 </i>
    <i name="e_wo_entrp">   -335.95585719 </i>
    <i name="e_0_energy">   -335.94896156 </i>
   </energy>
  </scstep>
  <scstep>
   <time name="dav">    1.65    1.66</time>
   <time name="total">    1.65    1.68</time>
   <energy>
    <i name="e_fr_energy">   -369.62884210 </i>
    <i name="e_wo_entrp">   -369.64181596 </i>
    <i name="e_0_energy">   -369.63316672 </i>
   </energy>
  </scstep>
  <scstep>
   <time name="dav">    1.63    1.64</time>
   <time name="total">    1.67    1.72</time>
   <energy>
    <i name="e_fr_energy">   -372.94559068 </i>
    <i name="e_wo_entrp">   -372.95818074 </i>
    <i name="e_0_energy">   -372.94978737 </i>
   </energy>
  </scstep>
  <scstep>
   <time name="diag">    0.09    0.09</time>
   <time name="diis">    0.77    0.77</time>
   <time name="orth">    0.01    0.01</time>
   <time name="total">    0.95    0.97</time>
   <energy>
    <i name="e_fr_energy">   -362.59611085 </i>
    <i name="e_wo_entrp">   -362.60274681 </i>
    <i name="e_0_energy">   -362.59832283 </i>
   </energy>
  </scstep>
  <scstep>
   <time name="diag">    0.11    0.11</time>
   <time name="diis">    0.90    0.90</time>
   <time name="orth">    0.01    0.01</time>
   <time name="total">    1.10    1.13</time>
   <energy>
    <i name="e_fr_energy">   -364.72395790 </i>
    <i name="e_wo_entrp">   -364.71933005 </i>
    <i name="e_0_energy">   -364.72241529 </i>
   </energy>
  </scstep>
  <scstep>
   <time name="diag">    0.09    0.09</time>
   <time name="diis">    0.78    0.89</time>
   <time name="orth">    0.01    0.01</time>
   <time name="total">    0.97    1.10</time>
   <energy>
    <i name="e_fr_energy">   -358.64774176 </i>
    <i name="e_wo_entrp">   -358.66276925 </i>
    <i name="e_0_energy">   -358.65275093 </i>
   </energy>
  </scstep>
  <scstep>
   <time name="diag">    0.10    0.10</time>
   <time name="diis">    0.84    0.84</time>
   <time name="orth">    0.01    0.02</time>
   <time name="total">    1.05    1.08</time>
   <energy>
    <i name="e_fr_energy">   -358.44008124 </i>
    <i name="e_wo_entrp">   -358.45523431 </i>
    <i name="e_0_energy">   -358.44513226 </i>
   </energy>
  </scstep>
  <scstep>
   <time name="diag">    0.10    0.10</time>
   <time name="diis">    0.83    0.83</time>
   <time name="orth">    0.04    0.04</time>
   <time name="total">    1.08    1.11</time>
   <energy>
    <i name="e_fr_energy">   -358.38819090 </i>
    <i name="e_wo_entrp">   -358.40379914 </i>
    <i name="e_0_energy">   -358.39339365 </i>
   </energy>
  </scstep>
  <scstep>
   <time name="diag">    0.10    0.13</time>
   <time name="diis">    0.83    0.83</time>
   <time name="orth">    0.01    0.01</time>
   <time name="total">    1.02    1.10</time>
   <energy>
    <i name="e_fr_energy">   -358.35397588 </i>
    <i name="e_wo_entrp">   -358.36846405 </i>
    <i name="e_0_energy">   -358.35880527 </i>
   </energy>
  </scstep>
  <scstep>
   <time name="diag">    0.09    0.09</time>
   <time name="diis">    0.84    0.85</time>
   <time name="orth">    0.01    0.01</time>
   <time name="total">    1.01    1.05</time>
   <energy>
    <i name="e_fr_energy">   -358.34909364 </i>
    <i name="e_wo_entrp">   -358.36290655 </i>
    <i name="e_0_energy">   -358.35369795 </i>
   </energy>
  </scstep>
  <scstep>
   <time name="diag">    0.09    0.09</time>
   <time name="diis">    0.89    0.90</time>
   <time name="orth">    0.01    0.02</time>
   <time name="total">    1.06    1.11</time>
   <energy>
    <i name="e_fr_energy">   -358.34764668 </i>
    <i name="e_wo_entrp">   -358.36181538 </i>
    <i name="e_0_energy">   -358.35236958 </i>
   </energy>
  </scstep>
  <scstep>
   <time name="diag">    0.09    0.09</time>
   <time name="diis">    0.89    0.90</time>
   <time name="orth">    0.02    0.02</time>
   <time name="total">    1.06    1.09</time>
   <energy>
    <i name="e_fr_energy">   -358.34763565 </i>
    <i name="e_wo_entrp">   -358.36187120 </i>
    <i name="e_0_energy">   -358.35238084 </i>
   </energy>
  </scstep>
  <scstep>
   <time name="diag">    0.09    0.09</time>
   <time name="diis">    0.87    0.87</time>
   <time name="orth">    0.02    0.02</time>
   <time name="total">    1.04    1.07</time>
   <energy>
    <i name="e_fr_energy">   -358.34781064 </i>
    <i name="e_wo_entrp">   -358.36208161 </i>
    <i name="e_0_energy">   -358.35256763 </i>
   </energy>
  </scstep>
  <scstep>
   <time name="diag">    0.09    0.09</time>
   <time name="diis">    0.83    0.83</time>
   <time name="orth">    0.01    0.01</time>
   <time name="total">    1.00    1.03</time>
   <energy>
    <i name="e_fr_energy">   -358.34782126 </i>
    <i name="e_wo_entrp">   -358.36207719 </i>
    <i name="e_0_energy">   -358.35257324 </i>
   </energy>
  </scstep>
  <scstep>
   <time name="diag">    0.09    0.09</time>
   <time name="diis">    0.67    0.67</time>
   <time name="orth">    0.01    0.01</time>
   <time name="total">    0.84    0.86</time>
   <energy>
    <i name="e_fr_energy">   -358.34782949 </i>
    <i name="e_wo_entrp">   -358.36207414 </i>
    <i name="e_0_energy">   -358.35257771 </i>
   </energy>
  </scstep>
  <scstep>
   <time name="diag">    0.09    0.09</time>
   <time name="diis">    0.62    0.63</time>
   <time name="orth">    0.01    0.01</time>
   <time name="total">    0.99    1.01</time>
   <energy>
    <i name="e_fr_energy">   -358.34784225 </i>
    <i name="e_wo_entrp">   -358.36207061 </i>
    <i name="e_0_energy">   -358.35258504 </i>
   </energy>
  </scstep>
  <scstep>
   <time name="diag">    0.09    0.09</time>
   <time name="diis">    0.52    0.53</time>
   <time name="orth">    0.01    0.01</time>
   <time name="total">    0.66    0.68</time>
   <energy>
    <i name="alphaZ">   1674.13886823 </i>
    <i name="ewald"> -22918.89667365 </i>
    <i name="hartreedc">  -7750.11641637 </i>
    <i name="XCdc">    125.27669891 </i>
    <i name="pawpsdc">  37469.79033554 </i>
    <i name="pawaedc"> -36013.98643525 </i>
    <i name="eentropy">      0.01423521 </i>
    <i name="bandstr">  -3206.03012667 </i>
    <i name="atom">  30261.46166738 </i>
    <i name="e_fr_energy">   -358.34784665 </i>
    <i name="e_wo_entrp">   -358.36208186 </i>
    <i name="e_0_energy">   -358.35259172 </i>
   </energy>
  </scstep>
  <structure>
   <crystal>
    <varray name="basis" >
     <v>       6.94274981      -0.01090943       0.03952737 </v>
     <v>      -0.01616711      10.25329661       0.00222479 </v>
     <v>       0.05775465       0.00119221      10.20526418 </v>
    </varray>
    <i name="volume">    726.44745439 </i>
    <varray name="rec_basis" >
     <v>       0.14404015       0.00022730      -0.00081519 </v>
     <v>       0.00015332       0.09752985      -0.00001226 </v>
     <v>      -0.00055793      -0.00002214       0.09799180 </v>
    </varray>
   </crystal>
   <varray name="positions" >
    <v>       0.22936400       0.17114500       0.48667600 </v>
    <v>       0.26571100       0.50671800       0.16774900 </v>
    <v>       0.99796200       0.33955700       0.99960800 </v>
    <v>       0.97258100       0.66125300       0.00499500 </v>
    <v>       0.26246500       0.82180500       0.16805500 </v>
    <v>       0.46628400       0.00491000       0.65915900 </v>
    <v>       0.75667800       0.83289900       0.50548800 </v>
    <v>       0.01245800       0.65727200       0.66678600 </v>
    <v>       0.26854600       0.81625900       0.84482600 </v>
    <v>       0.53747600       0.65951000       0.00171100 </v>
    <v>       0.99625800       0.98205300       0.32332100 </v>
    <v>       0.49666900       0.98602100       0.34473100 </v>
    <v>       0.74166300       0.83172600       0.18196600 </v>
    <v>       0.51414700       0.34491700       0.34451700 </v>
    <v>       0.26301300       0.50491400       0.84160400 </v>
    <v>       0.97754400       0.35136600       0.31778900 </v>
    <v>       0.00660100       0.34738300       0.68046400 </v>
    <v>       0.25053500       0.82971600       0.48927800 </v>
    <v>       0.49363400       0.33576600       0.98789900 </v>
    <v>       0.23377600       0.17387900       0.82935700 </v>
    <v>       0.74011800       0.49489600       0.83182500 </v>
    <v>       0.73022600       0.49774900       0.17237400 </v>
    <v>       0.03938800       0.99253000       0.66843600 </v>
    <v>       0.51795600       0.66971300       0.33828600 </v>
    <v>       0.75178200       0.50660500       0.49501300 </v>
    <v>       0.98467100       0.66839800       0.33001300 </v>
    <v>       0.49999700       0.65227400       0.66360000 </v>
    <v>       0.25218000       0.17365100       0.18337700 </v>
    <v>       0.99756100       0.00022300       0.00659900 </v>
    <v>       0.76685300       0.16282200       0.49909000 </v>
    <v>       0.76503400       0.16878800       0.81988500 </v>
    <v>       0.49759700       0.01022100       0.99781900 </v>
    <v>       0.72915100       0.17436200       0.17796900 </v>
    <v>       0.49258200       0.33730600       0.66603400 </v>
    <v>       0.74634800       0.83615700       0.81645300 </v>
    <v>       0.24518600       0.49524300       0.48724800 </v>
   </varray>
  </structure>
  <varray name="forces" >
   <v>      -0.01569618      -0.00071973      -0.00417662 </v>
   <v>       0.00665820       0.00060322      -0.01506099 </v>
   <v>      -0.00582688       0.02879591       0.00856094 </v>
   <v>       0.09445585       0.00753648       0.01446969 </v>
   <v>       0.01567838      -0.00774048       0.00759400 </v>
   <v>       0.00676929      -0.00775719       0.00984286 </v>
   <v>       0.00183122       0.01317862       0.00183476 </v>
   <v>      -0.00464513       0.00452384       0.03030809 </v>
   <v>       0.01556069      -0.01787060      -0.00522350 </v>
   <v>      -0.11571980       0.04998622      -0.00231278 </v>
   <v>       0.00125525      -0.00352538      -0.00503740 </v>
   <v>       0.00185460      -0.01558671      -0.02455495 </v>
   <v>       0.01055020       0.02252704       0.03339724 </v>
   <v>      -0.00278353       0.01972468      -0.01183108 </v>
   <v>       0.00436340      -0.00921614      -0.00632860 </v>
   <v>       0.00820890      -0.00209078       0.00050187 </v>
   <v>       0.00404099      -0.00219030      -0.00509244 </v>
   <v>      -0.00747835       0.01162691       0.00467184 </v>
   <v>      -0.01768564      -0.10700285      -0.00412659 </v>
   <v>       0.00920732       0.00217342      -0.01557291 </v>
   <v>      -0.02662943       0.00635050       0.00424125 </v>
   <v>       0.00871821       0.00830547      -0.00813160 </v>
   <v>      -0.02109222      -0.01478556       0.02008891 </v>
   <v>      -0.00014771       0.00694254       0.08031539 </v>
   <v>       0.01312522      -0.02090499       0.00763862 </v>
   <v>      -0.00057271      -0.00111416      -0.04376186 </v>
   <v>       0.00071095      -0.00001466      -0.09623832 </v>
   <v>       0.00137465       0.00162668       0.00653606 </v>
   <v>       0.00381874      -0.03106844      -0.00358354 </v>
   <v>       0.01065195      -0.00434017       0.00373710 </v>
   <v>      -0.00046382      -0.00145361      -0.00374068 </v>
   <v>      -0.00920674       0.07036166      -0.00467846 </v>
   <v>       0.00665499      -0.00632223      -0.00083166 </v>
   <v>       0.00172109       0.01830528       0.01136981 </v>
   <v>       0.00547083      -0.01227188       0.01018333 </v>
   <v>      -0.00473279      -0.00659258       0.00499224 </v>
  </varray>
  <varray name="stress" >
   <v>      -0.07098611       0.03376251       0.14951027 </v>
   <v>       0.03376248       0.29695410       0.10395187 </v>
   <v>       0.14951027       0.10395189       0.25660480 </v>
  </varray>
  <energy>
   <i name="e_fr_energy">   -358.34784665 </i>
   <i name="e_wo_entrp">   -358.35259172 </i>
   <i name="e_0_energy">      0.01423521 </i>
  </energy>
  <time name="totalsc">   23.42   24.50</time>
 </calculation>
 <calculation>
  <scstep>
   <time name="dav">    1.13    1.14</time>
   <time name="total">    1.28    1.40</time>
   <energy>
    <i name="alphaZ">   1673.99161660 </i>
    <i name="ewald"> -22917.83324138 </i>
    <i name="hartreedc">  -7750.28928128 </i>
    <i name="XCdc">    125.24507917 </i>
    <i name="pawpsdc">  37470.18250796 </i>
    <i name="pawaedc"> -36014.36940400 </i>
    <i name="eentropy">      0.01428855 </i>
    <i name="bandstr">  -3206.75190983 </i>
    <i name="atom">  30261.46166738 </i>
    <i name="e_fr_energy">   -358.34867682 </i>
    <i name="e_wo_entrp">   -358.36296536 </i>
    <i name="e_0_energy">   -358.35343967 </i>
   </energy>
  </scstep>
  <scstep>
   <time name="diag">    0.09    0.09</time>
   <time name="diis">    0.86    0.87</time>
   <time name="orth">    0.01    0.02</time>
   <time name="total">    1.03    1.06</time>
   <energy>
    <i name="e_fr_energy">   -358.34888635 </i>
    <i name="e_wo_entrp">   -358.36317964 </i>
    <i name="e_0_energy">   -358.35365078 </i>
   </energy>
  </scstep>
  <scstep>
   <time name="diag">    0.09    0.09</time>
   <time name="diis">    0.71    0.71</time>
   <time name="orth">    0.01    0.01</time>
   <time name="total">    0.88    0.90</time>
   <energy>
    <i name="e_fr_energy">   -358.34887402 </i>
    <i name="e_wo_entrp">   -358.36316798 </i>
    <i name="e_0_energy">   -358.35363867 </i>
   </energy>
  </scstep>
  <scstep>
   <time name="diag">    0.09    0.09</time>
   <time name="diis">    0.55    0.55</time>
   <time name="orth">    0.01    0.01</time>
   <time name="total">    0.69    0.71</time>
   <energy>
    <i name="alphaZ">   1673.99161660 </i>
    <i name="ewald"> -22917.83324138 </i>
    <i name="hartreedc">  -7750.71102447 </i>
    <i name="XCdc">    125.26386913 </i>
    <i name="pawpsdc">  37466.95854486 </i>
    <i name="pawaedc"> -36011.13447424 </i>
    <i name="eentropy">      0.01428825 </i>
    <i name="bandstr">  -3206.36011512 </i>
    <i name="atom">  30261.46166738 </i>
    <i name="e_fr_energy">   -358.34886898 </i>
    <i name="e_wo_entrp">   -358.36315723 </i>
    <i name="e_0_energy">   -358.35363173 </i>
   </energy>
  </scstep>
  <structure>
   <crystal>
    <varray name="basis" >
     <v>       6.94266099      -0.01086655       0.03971822 </v>
     <v>      -0.01610374      10.25385156       0.00241873 </v>
     <v>       0.05803204       0.00138600      10.20574312 </v>
    </varray>
    <i name="volume">    726.51135588 </i>
    <varray name="rec_basis" >
     <v>       0.14404203       0.00022641      -0.00081908 </v>
     <v>       0.00015272       0.09752457      -0.00001411 </v>
     <v>      -0.00056061      -0.00002399       0.09798724 </v>
    </varray>
   </crystal>
   <varray name="positions" >
    <v>       0.22933133       0.17114395       0.48667020 </v>
    <v>       0.26572506       0.50671887       0.16772759 </v>
    <v>       0.99794985       0.33959763       0.99962018 </v>
    <v>       0.97277776       0.66126384       0.00501476 </v>
    <v>       0.26249757       0.82179411       0.16806565 </v>
    <v>       0.46629797       0.00489906       0.65917291 </v>
    <v>       0.75668184       0.83291761       0.50549058 </v>
    <v>       0.01244797       0.65727837       0.66682902 </v>
    <v>       0.26857844       0.81623381       0.84481847 </v>
    <v>       0.53723495       0.65958030       0.00170864 </v>
    <v>       0.99626066       0.98204803       0.32331385 </v>
    <v>       0.49667310       0.98599901       0.34469617 </v>
    <v>       0.74168467       0.83175782       0.18201327 </v>
    <v>       0.51414140       0.34494484       0.34450024 </v>
    <v>       0.26302214       0.50490100       0.84159499 </v>
    <v>       0.97756110       0.35136307       0.31778965 </v>
    <v>       0.00660948       0.34737992       0.68045675 </v>
    <v>       0.25051939       0.82973239       0.48928468 </v>
    <v>       0.49359683       0.33561492       0.98789332 </v>
    <v>       0.23379539       0.17388209       0.82933484 </v>
    <v>       0.74006246       0.49490490       0.83183123 </v>
    <v>       0.73024430       0.49776074       0.17236239 </v>
    <v>       0.03934374       0.99250908       0.66846467 </v>
    <v>       0.51795477       0.66972279       0.33839990 </v>
    <v>       0.75180920       0.50657552       0.49502373 </v>
    <v>       0.98467032       0.66839643       0.32995094 </v>
    <v>       0.49999962       0.65227400       0.66346351 </v>
    <v>       0.25218279       0.17365330       0.18338626 </v>
    <v>       0.99756890       0.00017916       0.00659390 </v>
    <v>       0.76687515       0.16281590       0.49909522 </v>
    <v>       0.76503307       0.16878595       0.81987970 </v>
    <v>       0.49757809       0.01032030       0.99781242 </v>
    <v>       0.72916486       0.17435309       0.17796777 </v>
    <v>       0.49258551       0.33733184       0.66605011 </v>
    <v>       0.74635924       0.83613969       0.81646740 </v>
    <v>       0.24517605       0.49523368       0.48725512 </v>
   </varray>
  </structure>
  <varray name="forces" >
   <v>      -0.01336739      -0.00125612      -0.00247280 </v>
   <v>       0.00794815      -0.00019282      -0.01175727 </v>
   <v>      -0.00497648       0.02724829       0.00609825 </v>
   <v>       0.08163971       0.00575425       0.01373970 </v>
   <v>       0.01557753      -0.00572190       0.00847163 </v>
   <v>       0.00477529      -0.00629214       0.00767883 </v>
   <v>       0.00379072       0.01256726       0.00164214 </v>
   <v>      -0.00512881       0.00382730       0.02933696 </v>
   <v>       0.01609230      -0.01522146      -0.00648619 </v>
   <v>      -0.09788552       0.04123296      -0.00174464 </v>
   <v>       0.00104894      -0.00096586      -0.00399037 </v>
   <v>       0.00227995      -0.01302555      -0.02103933 </v>
   <v>       0.00849626       0.01843871       0.02854965 </v>
   <v>      -0.00169574       0.01634916      -0.01136649 </v>
   <v>       0.00470441      -0.00887719      -0.00732466 </v>
   <v>       0.00732492      -0.00289563      -0.00004605 </v>
   <v>       0.00335559      -0.00208744      -0.00451335 </v>
   <v>      -0.00659128       0.01036282       0.00401443 </v>
   <v>      -0.01642009      -0.09701803      -0.00369870 </v>
   <v>       0.00756569       0.00275089      -0.01313238 </v>
   <v>      -0.02635616       0.00894470       0.00727032 </v>
   <v>       0.00381815       0.01134014      -0.00988221 </v>
   <v>      -0.01797096      -0.01357256       0.01832223 </v>
   <v>      -0.00045512       0.00547110       0.07380798 </v>
   <v>       0.01484571      -0.01960074       0.00608142 </v>
   <v>      -0.00101742      -0.00156164      -0.04055173 </v>
   <v>      -0.00031621       0.00034502      -0.08881807 </v>
   <v>       0.00043976       0.00158823       0.00616353 </v>
   <v>       0.00434231      -0.03012467      -0.00432279 </v>
   <v>       0.00938792      -0.00325845       0.00275630 </v>
   <v>      -0.00013185      -0.00077612      -0.00297233 </v>
   <v>      -0.00985086       0.06567380      -0.00494007 </v>
   <v>       0.00690047      -0.00531802       0.00025676 </v>
   <v>       0.00051546       0.01509987       0.00979748 </v>
   <v>       0.00330668      -0.01294980       0.01106430 </v>
   <v>      -0.00599202      -0.00627834       0.00400754 </v>
  </varray>
  <varray name="stress" >
   <v>      -0.13296195       0.04996111       0.17854845 </v>
   <v>       0.04996106       0.29380701       0.11860361 </v>
   <v>       0.17854846       0.11860360       0.23930964 </v>
  </varray>
  <energy>
   <i name="e_fr_energy">   -358.34886898 </i>
   <i name="e_wo_entrp">   -358.35363173 </i>
   <i name="e_0_energy">      0.01428825 </i>
  </energy>
  <time name="totalsc">    5.72    5.96</time>
 </calculation>
 <calculation>
  <scstep>
   <time name="dav">    1.18    1.20</time>
   <time name="total">    1.33    1.47</time>
   <energy>
    <i name="alphaZ">   1673.55001536 </i>
    <i name="ewald"> -22914.62171992 </i>
    <i name="hartreedc">  -7751.30298874 </i>
    <i name="XCdc">    125.17257753 </i>
    <i name="pawpsdc">  37466.29031284 </i>
    <i name="pawaedc"> -36010.45986806 </i>
    <i name="eentropy">      0.01443499 </i>
    <i name="bandstr">  -3208.45414875 </i>
    <i name="atom">  30261.46166738 </i>
    <i name="e_fr_energy">   -358.34971737 </i>
    <i name="e_wo_entrp">   -358.36415236 </i>
    <i name="e_0_energy">   -358.35452903 </i>
   </energy>
  </scstep>
  <scstep>
   <time name="diag">    0.09    0.09</time>
   <time name="diis">    0.76    0.76</time>
   <time name="orth">    0.01    0.01</time>
   <time name="total">    0.93    0.95</time>
   <energy>
    <i name="e_fr_energy">   -358.35141841 </i>
    <i name="e_wo_entrp">   -358.36586166 </i>
    <i name="e_0_energy">   -358.35623283 </i>
   </energy>
  </scstep>
  <scstep>
   <time name="diag">    0.10    0.10</time>
   <time name="diis">    0.92    0.93</time>
   <time name="orth">    0.01    0.01</time>
   <time name="total">    1.12    1.16</time>
   <energy>
    <i name="e_fr_energy">   -358.35133058 </i>
    <i name="e_wo_entrp">   -358.36578371 </i>
    <i name="e_0_energy">   -358.35614829 </i>
   </energy>
  </scstep>
  <scstep>
   <time name="diag">    0.09    0.09</time>
   <time name="diis">    0.84    0.85</time>
   <time name="orth">    0.01    0.01</time>
   <time name="total">    1.01    1.04</time>
   <energy>
    <i name="e_fr_energy">   -358.35127434 </i>
    <i name="e_wo_entrp">   -358.36570880 </i>
    <i name="e_0_energy">   -358.35608583 </i>
   </energy>
  </scstep>
  <scstep>
   <time name="diag">    0.09    0.09</time>
   <time name="diis">    0.75    0.76</time>
   <time name="orth">    0.01    0.01</time>
   <time name="total">    0.92    0.94</time>
   <energy>
    <i name="e_fr_energy">   -358.35126270 </i>
    <i name="e_wo_entrp">   -358.36571600 </i>
    <i name="e_0_energy">   -358.35608047 </i>
   </energy>
  </scstep>
  <scstep>
   <time name="diag">    0.09    0.09</time>
   <time name="diis">    0.83    0.83</time>
   <time name="orth">    0.01    0.02</time>
   <time name="total">    0.96    0.98</time>
   <energy>
    <i name="alphaZ">   1673.55001536 </i>
    <i name="ewald"> -22914.62171992 </i>
    <i name="hartreedc">  -7752.68773143 </i>
    <i name="XCdc">    125.23685796 </i>
    <i name="pawpsdc">  37453.17076183 </i>
    <i name="pawaedc"> -35997.31002928 </i>
    <i name="eentropy">      0.01444243 </i>
    <i name="bandstr">  -3207.16551778 </i>
    <i name="atom">  30261.46166738 </i>
    <i name="e_fr_energy">   -358.35125343 </i>
    <i name="e_wo_entrp">   -358.36569586 </i>
    <i name="e_0_energy">   -358.35606757 </i>
   </energy>
  </scstep>
  <structure>
   <crystal>
    <varray name="basis" >
     <v>       6.94239451      -0.01073789       0.04029078 </v>
     <v>      -0.01591363      10.25551640       0.00300058 </v>
     <v>       0.05886419       0.00196739      10.20717994 </v>
    </varray>
    <i name="volume">    726.70306113 </i>
    <varray name="rec_basis" >
     <v>       0.14404769       0.00022376      -0.00083076 </v>
     <v>       0.00015093       0.09750874      -0.00001966 </v>
     <v>      -0.00056864      -0.00002955       0.09797354 </v>
    </varray>
   </crystal>
   <varray name="positions" >
    <v>       0.22923330       0.17114080       0.48665282 </v>
    <v>       0.26576724       0.50672148       0.16766335 </v>
    <v>       0.99791338       0.33971952       0.99965671 </v>
    <v>       0.97336806       0.66129637       0.00507401 </v>
    <v>       0.26259528       0.82176143       0.16809758 </v>
    <v>       0.46633988       0.00486626       0.65921463 </v>
    <v>       0.75669336       0.83297342       0.50549833 </v>
    <v>       0.01241789       0.65729748       0.66695807 </v>
    <v>       0.26867577       0.81615825       0.84479589 </v>
    <v>       0.53651181       0.65979119       0.00170156 </v>
    <v>       0.99626866       0.98203311       0.32329239 </v>
    <v>       0.49668542       0.98593303       0.34459167 </v>
    <v>       0.74174969       0.83185325       0.18215508 </v>
    <v>       0.51412461       0.34502835       0.34444995 </v>
    <v>       0.26304956       0.50486201       0.84156797 </v>
    <v>       0.97761240       0.35135427       0.31779158 </v>
    <v>       0.00663491       0.34737067       0.68043498 </v>
    <v>       0.25047257       0.82978157       0.48930473 </v>
    <v>       0.49348532       0.33516172       0.98787631 </v>
    <v>       0.23385354       0.17389136       0.82926836 </v>
    <v>       0.73989583       0.49493162       0.83184991 </v>
    <v>       0.73029919       0.49779598       0.17232758 </v>
    <v>       0.03921097       0.99244632       0.66855066 </v>
    <v>       0.51795106       0.66975213       0.33874160 </v>
    <v>       0.75189081       0.50648708       0.49505593 </v>
    <v>       0.98466828       0.66839174       0.32976477 </v>
    <v>       0.50000749       0.65227400       0.66305405 </v>
    <v>       0.25219117       0.17366019       0.18341403 </v>
    <v>       0.99759261       0.00004763       0.00657859 </v>
    <v>       0.76694159       0.16279759       0.49911086 </v>
    <v>       0.76503029       0.16877979       0.81986380 </v>
    <v>       0.49752137       0.01061818       0.99779266 </v>
    <v>       0.72920645       0.17432636       0.17796408 </v>
    <v>       0.49259605       0.33740936       0.66609842 </v>
    <v>       0.74639298       0.83608775       0.81651061 </v>
    <v>       0.24514621       0.49520573       0.48727648 </v>
   </varray>
  </structure>
  <varray name="forces" >
   <v>      -0.00539273      -0.00484767       0.00348675 </v>
   <v>       0.01233703      -0.00293887      -0.00160274 </v>
   <v>      -0.00544339       0.02416057      -0.00080939 </v>
   <v>       0.04252240      -0.00194908       0.01102810 </v>
   <v>       0.01544364       0.00088942       0.01246745 </v>
   <v>      -0.00085854      -0.00199049       0.00186478 </v>
   <v>       0.00940179       0.01187036       0.00138346 </v>
   <v>      -0.00832751       0.00082126       0.02833121 </v>
   <v>       0.01773574      -0.00523634      -0.01171976 </v>
   <v>      -0.05437619       0.01829659      -0.00063082 </v>
   <v>       0.00068463       0.00444876      -0.00195224 </v>
   <v>       0.00451168      -0.00724104      -0.01341430 </v>
   <v>       0.00440302       0.00810380       0.01862371 </v>
   <v>       0.00260270       0.01226395      -0.01247801 </v>
   <v>       0.00696794      -0.00954940      -0.01046673 </v>
   <v>       0.00434091      -0.00254135      -0.00176152 </v>
   <v>       0.00081639      -0.00066435      -0.00162412 </v>
   <v>      -0.00452850       0.00860429       0.00309537 </v>
   <v>      -0.01297979      -0.07557238      -0.00338487 </v>
   <v>       0.00288492       0.00315117      -0.00963582 </v>
   <v>      -0.02375453       0.01549490       0.01680610 </v>
   <v>      -0.00865194       0.01997394      -0.01488789 </v>
   <v>      -0.00869975      -0.00867531       0.01315705 </v>
   <v>       0.00063494       0.00079232       0.05660312 </v>
   <v>       0.01896831      -0.01597275       0.00197369 </v>
   <v>      -0.00471545      -0.00407863      -0.03277319 </v>
   <v>      -0.00106989       0.00098282      -0.06806491 </v>
   <v>      -0.00295402       0.00068223       0.00636616 </v>
   <v>       0.00557296      -0.02770560      -0.00683505 </v>
   <v>       0.00440981      -0.00095796      -0.00105462 </v>
   <v>       0.00334928       0.00157337      -0.00159903 </v>
   <v>      -0.01131178       0.05330070      -0.00557729 </v>
   <v>       0.00888827      -0.00215833       0.00508389 </v>
   <v>      -0.00079090       0.00807209       0.00557375 </v>
   <v>      -0.00294576      -0.01609364       0.01443327 </v>
   <v>      -0.00967571      -0.00530935      -0.00000556 </v>
  </varray>
  <varray name="stress" >
   <v>      -0.48689587       0.04061550       0.05663785 </v>
   <v>       0.04061550      -0.30742155       0.02356860 </v>
   <v>       0.05663787       0.02356863      -0.37428785 </v>
  </varray>
  <energy>
   <i name="e_fr_energy">   -358.35125343 </i>
   <i name="e_wo_entrp">   -358.35606757 </i>
   <i name="e_0_energy">      0.01444243 </i>
  </energy>
  <time name="totalsc">    8.06    8.41</time>
 </calculation>
 <calculation>
  <scstep>
   <time name="dav">    1.13    1.15</time>
   <time name="total">    1.33    1.43</time>
   <energy>
    <i name="alphaZ">   1672.66750376 </i>
    <i name="ewald"> -22908.10338993 </i>
    <i name="hartreedc">  -7753.85070680 </i>
    <i name="XCdc">    125.05014785 </i>
    <i name="pawpsdc">  37453.19403262 </i>
    <i name="pawaedc"> -35997.34219262 </i>
    <i name="eentropy">      0.01470641 </i>
    <i name="bandstr">  -3211.43883424 </i>
    <i name="atom">  30261.46166738 </i>
    <i name="e_fr_energy">   -358.34706556 </i>
    <i name="e_wo_entrp">   -358.36177197 </i>
    <i name="e_0_energy">   -358.35196770 </i>
   </energy>
  </scstep>
  <scstep>
   <time name="diag">    0.13    0.13</time>
   <time name="diis">    0.73    0.77</time>
   <time name="orth">    0.01    0.01</time>
   <time name="total">    0.96    1.00</time>
   <energy>
    <i name="e_fr_energy">   -358.35379889 </i>
    <i name="e_wo_entrp">   -358.36853988 </i>
    <i name="e_0_energy">   -358.35871255 </i>
   </energy>
  </scstep>
  <scstep>
   <time name="diag">    0.09    0.09</time>
   <time name="diis">    0.89    0.90</time>
   <time name="orth">    0.01    0.01</time>
   <time name="total">    1.07    1.09</time>
   <energy>
    <i name="e_fr_energy">   -358.35339848 </i>
    <i name="e_wo_entrp">   -358.36813744 </i>
    <i name="e_0_energy">   -358.35831147 </i>
   </energy>
  </scstep>
  <scstep>
   <time name="diag">    0.13    0.14</time>
   <time name="diis">    1.06    1.08</time>
   <time name="orth">    0.02    0.02</time>
   <time name="total">    1.34    1.40</time>
   <energy>
    <i name="e_fr_energy">   -358.35321385 </i>
    <i name="e_wo_entrp">   -358.36792653 </i>
    <i name="e_0_energy">   -358.35811807 </i>
   </energy>
  </scstep>
  <scstep>
   <time name="diag">    0.17    0.17</time>
   <time name="diis">    0.85    0.86</time>
   <time name="orth">    0.01    0.01</time>
   <time name="total">    1.13    1.16</time>
   <energy>
    <i name="e_fr_energy">   -358.35317639 </i>
    <i name="e_wo_entrp">   -358.36792117 </i>
    <i name="e_0_energy">   -358.35809131 </i>
   </energy>
  </scstep>
  <scstep>
   <time name="diag">    0.09    0.09</time>
   <time name="diis">    0.84    0.85</time>
   <time name="orth">    0.01    0.01</time>
   <time name="total">    1.02    1.05</time>
   <energy>
    <i name="e_fr_energy">   -358.35314746 </i>
    <i name="e_wo_entrp">   -358.36787525 </i>
    <i name="e_0_energy">   -358.35805672 </i>
   </energy>
  </scstep>
  <scstep>
   <time name="diag">    0.09    0.09</time>
   <time name="diis">    0.72    0.72</time>
   <time name="orth">    0.02    0.02</time>
   <time name="total">    0.89    0.91</time>
   <energy>
    <i name="e_fr_energy">   -358.35314463 </i>
    <i name="e_wo_entrp">   -358.36788273 </i>
    <i name="e_0_energy">   -358.35805733 </i>
   </energy>
  </scstep>
  <scstep>
   <time name="diag">    0.09    0.09</time>
   <time name="diis">    0.47    0.47</time>
   <time name="orth">    0.02    0.02</time>
   <time name="total">    0.60    0.63</time>
   <energy>
    <i name="alphaZ">   1672.66750376 </i>
    <i name="ewald"> -22908.10338993 </i>
    <i name="hartreedc">  -7756.52871796 </i>
    <i name="XCdc">    125.17386695 </i>
    <i name="pawpsdc">  37428.03215952 </i>
    <i name="pawaedc"> -35972.20360464 </i>
    <i name="eentropy">      0.01473193 </i>
    <i name="bandstr">  -3208.86736013 </i>
    <i name="atom">  30261.46166738 </i>
    <i name="e_fr_energy">   -358.35314311 </i>
    <i name="e_wo_entrp">   -358.36787505 </i>
    <i name="e_0_energy">   -358.35805376 </i>
   </energy>
  </scstep>
  <structure>
   <crystal>
    <varray name="basis" >
     <v>       6.94186156      -0.01048057       0.04143590 </v>
     <v>      -0.01553340      10.25884608       0.00416427 </v>
     <v>       0.06052850       0.00313016      10.21005360 </v>
    </varray>
    <i name="volume">    727.08647497 </i>
    <varray name="rec_basis" >
     <v>       0.14405901       0.00021847      -0.00085410 </v>
     <v>       0.00014735       0.09747709      -0.00003076 </v>
     <v>      -0.00058470      -0.00004064       0.09794616 </v>
    </varray>
   </crystal>
   <varray name="positions" >
    <v>       0.22903725       0.17113451       0.48661806 </v>
    <v>       0.26585163       0.50672670       0.16753488 </v>
    <v>       0.99784044       0.33996325       0.99972976 </v>
    <v>       0.97454867       0.66136140       0.00519243 </v>
    <v>       0.26279069       0.82169608       0.16816143 </v>
    <v>       0.46642369       0.00480065       0.65929805 </v>
    <v>       0.75671639       0.83308503       0.50551382 </v>
    <v>       0.01235769       0.65733567       0.66721614 </v>
    <v>       0.26887044       0.81600714       0.84475073 </v>
    <v>       0.53506545       0.66021293       0.00168747 </v>
    <v>       0.99628466       0.98200329       0.32324948 </v>
    <v>       0.49671009       0.98580112       0.34438271 </v>
    <v>       0.74187969       0.83204408       0.18243863 </v>
    <v>       0.51409103       0.34519535       0.34434938 </v>
    <v>       0.26310442       0.50478404       0.84151394 </v>
    <v>       0.97771501       0.35133667       0.31779545 </v>
    <v>       0.00668578       0.34735219       0.68039147 </v>
    <v>       0.25037892       0.82987992       0.48934481 </v>
    <v>       0.49326231       0.33425547       0.98784235 </v>
    <v>       0.23396988       0.17390992       0.82913541 </v>
    <v>       0.73956255       0.49498503       0.83188730 </v>
    <v>       0.73040899       0.49786643       0.17225795 </v>
    <v>       0.03894540       0.99232081       0.66872265 </v>
    <v>       0.51794355       0.66981078       0.33942489 </v>
    <v>       0.75205403       0.50631023       0.49512033 </v>
    <v>       0.98466425       0.66838237       0.32939249 </v>
    <v>       0.50002332       0.65227405       0.66223525 </v>
    <v>       0.25220793       0.17367397       0.18346956 </v>
    <v>       0.99764003      -0.00021538       0.00654799 </v>
    <v>       0.76707448       0.16276097       0.49914214 </v>
    <v>       0.76502473       0.16876748       0.81983200 </v>
    <v>       0.49740791       0.01121384       0.99775313 </v>
    <v>       0.72928963       0.17427292       0.17795669 </v>
    <v>       0.49261712       0.33756436       0.66619502 </v>
    <v>       0.74646044       0.83598390       0.81659700 </v>
    <v>       0.24508652       0.49514984       0.48731920 </v>
   </varray>
  </structure>
  <varray name="forces" >
   <v>       0.00974713      -0.01290421       0.01492131 </v>
   <v>       0.02039677      -0.00788028       0.01811684 </v>
   <v>      -0.00601972       0.01663478      -0.01410833 </v>
   <v>      -0.03055253      -0.01515764       0.00649959 </v>
   <v>       0.01505942       0.01299138       0.01920178 </v>
   <v>      -0.01246454       0.00358478      -0.00855951 </v>
   <v>       0.02021890       0.00897157       0.00173350 </v>
   <v>      -0.01487623      -0.00226566       0.02486427 </v>
   <v>       0.01973590       0.01509390      -0.02212546 </v>
   <v>       0.04372160      -0.03137392       0.00299410 </v>
   <v>       0.00033973       0.01427431       0.00181905 </v>
   <v>       0.00674595       0.00474161       0.00561570 </v>
   <v>      -0.00626647      -0.01653450      -0.00680416 </v>
   <v>       0.01129276       0.00165142      -0.01407230 </v>
   <v>       0.01195191      -0.00644361      -0.01495303 </v>
   <v>      -0.00380286       0.00079763      -0.00664372 </v>
   <v>      -0.00440861       0.00338522       0.00558379 </v>
   <v>       0.00082137       0.00363853       0.00115438 </v>
   <v>      -0.00498045      -0.01839580      -0.00147617 </v>
   <v>      -0.00840101       0.00134767       0.00088812 </v>
   <v>      -0.02013356       0.02985202       0.03593339 </v>
   <v>      -0.03274294       0.03721906      -0.02382771 </v>
   <v>       0.00804972      -0.00218136       0.00425050 </v>
   <v>       0.00003074      -0.00859901       0.02302343 </v>
   <v>       0.02735474      -0.00743612      -0.00721368 </v>
   <v>      -0.01055478      -0.00924044      -0.01703092 </v>
   <v>      -0.00321397       0.00467997      -0.02943823 </v>
   <v>      -0.00961462      -0.00144025       0.00483192 </v>
   <v>       0.00816494      -0.02293086      -0.01316575 </v>
   <v>      -0.00549459       0.00246566      -0.00934073 </v>
   <v>       0.00962104       0.00432262       0.00349974 </v>
   <v>      -0.01401802       0.02433189      -0.00759041 </v>
   <v>       0.01174593       0.00354736       0.01326017 </v>
   <v>      -0.00444548      -0.00658221      -0.00367650 </v>
   <v>      -0.01557499      -0.02228230       0.02167024 </v>
   <v>      -0.01743319      -0.00188318      -0.00983521 </v>
  </varray>
  <varray name="stress" >
   <v>      -1.10031620       0.04430967      -0.06811244 </v>
   <v>       0.04430967      -1.32277835      -0.08889300 </v>
   <v>      -0.06811243      -0.08889300      -1.36745172 </v>
  </varray>
  <energy>
   <i name="e_fr_energy">   -358.35314311 </i>
   <i name="e_wo_entrp">   -358.35805376 </i>
   <i name="e_0_energy">      0.01473193 </i>
  </energy>
  <time name="totalsc">   10.08   10.47</time>
 </calculation>
 <calculation>
  <scstep>
   <time name="dav">    1.13    1.14</time>
   <time name="total">    1.32    1.40</time>
   <energy>
    <i name="alphaZ">   1675.12684912 </i>
    <i name="ewald"> -22918.38676186 </i>
    <i name="hartreedc">  -7761.22751684 </i>
    <i name="XCdc">    125.68469317 </i>
    <i name="pawpsdc">  37427.98423280 </i>
    <i name="pawaedc"> -35972.18603323 </i>
    <i name="eentropy">      0.01477466 </i>
    <i name="bandstr">  -3196.83069017 </i>
    <i name="atom">  30261.46166738 </i>
    <i name="e_fr_energy">   -358.35878496 </i>
    <i name="e_wo_entrp">   -358.37355962 </i>
    <i name="e_0_energy">   -358.36370985 </i>
   </energy>
  </scstep>
  <scstep>
   <time name="diag">    0.09    0.09</time>
   <time name="diis">    0.80    0.81</time>
   <time name="orth">    0.01    0.01</time>
   <time name="total">    0.97    0.99</time>
   <energy>
    <i name="e_fr_energy">   -358.35652669 </i>
    <i name="e_wo_entrp">   -358.37120050 </i>
    <i name="e_0_energy">   -358.36141796 </i>
   </energy>
  </scstep>
  <scstep>
   <time name="diag">    0.09    0.09</time>
   <time name="diis">    0.85    0.86</time>
   <time name="orth">    0.01    0.01</time>
   <time name="total">    1.02    1.04</time>
   <energy>
    <i name="e_fr_energy">   -358.35504619 </i>
    <i name="e_wo_entrp">   -358.36972695 </i>
    <i name="e_0_energy">   -358.35993978 </i>
   </energy>
  </scstep>
  <scstep>
   <time name="diag">    0.09    0.09</time>
   <time name="diis">    0.94    0.94</time>
   <time name="orth">    0.01    0.01</time>
   <time name="total">    1.11    1.13</time>
   <energy>
    <i name="e_fr_energy">   -358.35411827 </i>
    <i name="e_wo_entrp">   -358.36882791 </i>
    <i name="e_0_energy">   -358.35902148 </i>
   </energy>
  </scstep>
  <scstep>
   <time name="diag">    0.09    0.09</time>
   <time name="diis">    0.85    0.86</time>
   <time name="orth">    0.01    0.02</time>
   <time name="total">    1.02    1.05</time>
   <energy>
    <i name="e_fr_energy">   -358.35400479 </i>
    <i name="e_wo_entrp">   -358.36870657 </i>
    <i name="e_0_energy">   -358.35890538 </i>
   </energy>
  </scstep>
  <scstep>
   <time name="diag">    0.08    0.09</time>
   <time name="diis">    0.75    0.75</time>
   <time name="orth">    0.01    0.01</time>
   <time name="total">    0.92    0.94</time>
   <energy>
    <i name="e_fr_energy">   -358.35404656 </i>
    <i name="e_wo_entrp">   -358.36875563 </i>
    <i name="e_0_energy">   -358.35894958 </i>
   </energy>
  </scstep>
  <scstep>
   <time name="diag">    0.09    0.09</time>
   <time name="diis">    0.77    0.77</time>
   <time name="orth">    0.01    0.01</time>
   <time name="total">    0.94    0.96</time>
   <energy>
    <i name="e_fr_energy">   -358.35406358 </i>
    <i name="e_wo_entrp">   -358.36875661 </i>
    <i name="e_0_energy">   -358.35896125 </i>
   </energy>
  </scstep>
  <scstep>
   <time name="diag">    0.09    0.09</time>
   <time name="diis">    0.54    0.54</time>
   <time name="orth">    0.01    0.01</time>
   <time name="total">    0.71    0.73</time>
   <energy>
    <i name="e_fr_energy">   -358.35408181 </i>
    <i name="e_wo_entrp">   -358.36877980 </i>
    <i name="e_0_energy">   -358.35898114 </i>
   </energy>
  </scstep>
  <scstep>
   <time name="diag">    0.09    0.09</time>
   <time name="diis">    0.43    0.44</time>
   <time name="orth">    0.02    0.02</time>
   <time name="total">    0.61    0.63</time>
   <energy>
    <i name="e_fr_energy">   -358.35409261 </i>
    <i name="e_wo_entrp">   -358.36879405 </i>
    <i name="e_0_energy">   -358.35899309 </i>
   </energy>
  </scstep>
  <scstep>
   <time name="diag">    0.09    0.09</time>
   <time name="diis">    0.41    0.41</time>
   <time name="orth">    0.01    0.01</time>
   <time name="total">    0.58    0.59</time>
   <energy>
    <i name="e_fr_energy">   -358.35410441 </i>
    <i name="e_wo_entrp">   -358.36880416 </i>
    <i name="e_0_energy">   -358.35900432 </i>
   </energy>
  </scstep>
  <scstep>
   <time name="diag">    0.09    0.09</time>
   <time name="diis">    0.40    0.41</time>
   <time name="orth">    0.01    0.01</time>
   <time name="total">    0.55    0.57</time>
   <energy>
    <i name="alphaZ">   1675.12684912 </i>
    <i name="ewald"> -22918.38676186 </i>
    <i name="hartreedc">  -7753.91948856 </i>
    <i name="XCdc">    125.35528104 </i>
    <i name="pawpsdc">  37492.58277610 </i>
    <i name="pawaedc"> -36036.76853903 </i>
    <i name="eentropy">      0.01469878 </i>
    <i name="bandstr">  -3203.82059481 </i>
    <i name="atom">  30261.46166738 </i>
    <i name="e_fr_energy">   -358.35411183 </i>
    <i name="e_wo_entrp">   -358.36881061 </i>
    <i name="e_0_energy">   -358.35901142 </i>
   </energy>
  </scstep>
  <structure>
   <crystal>
    <varray name="basis" >
     <v>       6.93845315      -0.01027286       0.04153137 </v>
     <v>      -0.01522570      10.25399108       0.00409969 </v>
     <v>       0.06066994       0.00306852      10.20490240 </v>
    </varray>
    <i name="volume">    726.01899955 </i>
    <varray name="rec_basis" >
     <v>       0.14412979       0.00021435      -0.00085694 </v>
     <v>       0.00014457       0.09752323      -0.00003018 </v>
     <v>      -0.00058663      -0.00004005       0.09799562 </v>
    </varray>
   </crystal>
   <varray name="positions" >
    <v>       0.22902931       0.17109022       0.48665761 </v>
    <v>       0.26597411       0.50670226       0.16755855 </v>
    <v>       0.99779118       0.34008636       0.99970355 </v>
    <v>       0.97473020       0.66132945       0.00524772 </v>
    <v>       0.26291838       0.82172068       0.16824263 </v>
    <v>       0.46638669       0.00479404       0.65929329 </v>
    <v>       0.75682140       0.83314597       0.50552348 </v>
    <v>       0.01226756       0.65733878       0.66737111 </v>
    <v>       0.26902193       0.81601473       0.84466434 </v>
    <v>       0.53487303       0.66022779       0.00169266 </v>
    <v>       0.99629085       0.98204201       0.32324346 </v>
    <v>       0.49674977       0.98577985       0.34434267 </v>
    <v>       0.74188561       0.83204295       0.18249563 </v>
    <v>       0.51413708       0.34524764       0.34427435 </v>
    <v>       0.26317844       0.50474103       0.84144902 </v>
    <v>       0.97772541       0.35133436       0.31777459 </v>
    <v>       0.00667841       0.34735815       0.68039786 </v>
    <v>       0.25035667       0.82991946       0.48935984 </v>
    <v>       0.49317548       0.33394098       0.98782811 </v>
    <v>       0.23396152       0.17391952       0.82910128 </v>
    <v>       0.73937022       0.49509831       0.83201721 </v>
    <v>       0.73028113       0.49800877       0.17216007 </v>
    <v>       0.03891009       0.99227851       0.66878476 </v>
    <v>       0.51794082       0.66979880       0.33969255 </v>
    <v>       0.75223324       0.50623632       0.49511392 </v>
    <v>       0.98461213       0.66834925       0.32923201 </v>
    <v>       0.50001303       0.65228954       0.66190844 </v>
    <v>       0.25216561       0.17367303       0.18350132 </v>
    <v>       0.99769333      -0.00036461       0.00649567 </v>
    <v>       0.76708521       0.16275883       0.49912005 </v>
    <v>       0.76507000       0.16877834       0.81983450 </v>
    <v>       0.49730819       0.01146084       0.99771714 </v>
    <v>       0.72936983       0.17426970       0.17799832 </v>
    <v>       0.49260140       0.33758603       0.66620998 </v>
    <v>       0.74640262       0.83588122       0.81669335 </v>
    <v>       0.24498510       0.49512790       0.48729893 </v>
   </varray>
  </structure>
  <varray name="forces" >
   <v>       0.01350750      -0.00940098       0.01289610 </v>
   <v>       0.01668701      -0.00825583       0.01552848 </v>
   <v>      -0.00411300       0.01160130      -0.01087584 </v>
   <v>      -0.02673483      -0.00997216       0.00379587 </v>
   <v>       0.01161012       0.01442634       0.01278582 </v>
   <v>      -0.00112459       0.00337430      -0.00821192 </v>
   <v>       0.01994419       0.00979414       0.00430892 </v>
   <v>      -0.01351671      -0.00094268       0.02220062 </v>
   <v>       0.01781494       0.01538891      -0.01730022 </v>
   <v>       0.04016577      -0.02699691       0.00080405 </v>
   <v>       0.00028155       0.01830253       0.00313432 </v>
   <v>       0.00856011       0.01288560       0.00810908 </v>
   <v>      -0.00703971      -0.01499446      -0.01847108 </v>
   <v>       0.00639956      -0.00598055      -0.01183508 </v>
   <v>       0.00615408      -0.00566977      -0.01274918 </v>
   <v>      -0.00167572      -0.00235277      -0.00663990 </v>
   <v>      -0.00518250       0.00327561       0.00278915 </v>
   <v>      -0.00118140      -0.00026545       0.00444032 </v>
   <v>      -0.00391267      -0.00664158       0.00245485 </v>
   <v>      -0.00696957       0.00072779       0.00493798 </v>
   <v>      -0.01217679       0.02516985       0.02929717 </v>
   <v>      -0.02721215       0.02663050      -0.02308378 </v>
   <v>       0.00100163      -0.00131900       0.00174027 </v>
   <v>      -0.00334820      -0.00785771       0.01509127 </v>
   <v>       0.02630881      -0.00892027      -0.00348229 </v>
   <v>      -0.00389248      -0.00798109      -0.01189540 </v>
   <v>      -0.00313451       0.00898878      -0.01844859 </v>
   <v>      -0.01250507      -0.00252530       0.00133294 </v>
   <v>       0.00750292      -0.01869434      -0.01129201 </v>
   <v>      -0.00860288       0.00396557      -0.00632802 </v>
   <v>       0.00517621       0.00171117       0.00373116 </v>
   <v>      -0.01296385       0.01658728      -0.00476719 </v>
   <v>       0.01323074      -0.00041694       0.00739686 </v>
   <v>      -0.00259116      -0.01133419      -0.00747012 </v>
   <v>      -0.01688894      -0.01922025       0.02340553 </v>
   <v>      -0.01957839      -0.00308745      -0.00733012 </v>
  </varray>
  <varray name="stress" >
   <v>       0.83452516       0.02282003      -0.04235988 </v>
   <v>       0.02282000       0.61041778      -0.09152177 </v>
   <v>      -0.04235994      -0.09152171       0.55028231 </v>
  </varray>
  <energy>
   <i name="e_fr_energy">   -358.35411183 </i>
   <i name="e_wo_entrp">   -358.35901142 </i>
   <i name="e_0_energy">      0.01469878 </i>
  </energy>
  <time name="totalsc">   11.62   12.10</time>
 </calculation>
 <calculation>
  <scstep>
   <time name="dav">    1.17    1.18</time>
   <time name="total">    1.33    1.42</time>
   <energy>
    <i name="alphaZ">   1675.44081557 </i>
    <i name="ewald"> -22919.69808862 </i>
    <i name="hartreedc">  -7754.53463238 </i>
    <i name="XCdc">    125.42114551 </i>
    <i name="pawpsdc">  37492.48350175 </i>
    <i name="pawaedc"> -36036.65798840 </i>
    <i name="eentropy">      0.01470585 </i>
    <i name="bandstr">  -3202.28531607 </i>
    <i name="atom">  30261.46166738 </i>
    <i name="e_fr_energy">   -358.35418941 </i>
    <i name="e_wo_entrp">   -358.36889526 </i>
    <i name="e_0_energy">   -358.35909136 </i>
   </energy>
  </scstep>
  <scstep>
   <time name="diag">    0.09    0.09</time>
   <time name="diis">    0.82    0.83</time>
   <time name="orth">    0.01    0.01</time>
   <time name="total">    0.99    1.02</time>
   <energy>
    <i name="e_fr_energy">   -358.35414948 </i>
    <i name="e_wo_entrp">   -358.36884143 </i>
    <i name="e_0_energy">   -358.35904679 </i>
   </energy>
  </scstep>
  <scstep>
   <time name="diag">    0.09    0.09</time>
   <time name="diis">    0.68    0.69</time>
   <time name="orth">    0.01    0.01</time>
   <time name="total">    0.85    0.88</time>
   <energy>
    <i name="e_fr_energy">   -358.35412615 </i>
    <i name="e_wo_entrp">   -358.36881922 </i>
    <i name="e_0_energy">   -358.35902384 </i>
   </energy>
  </scstep>
  <scstep>
   <time name="diag">    0.10    0.10</time>
   <time name="diis">    0.38    0.39</time>
   <time name="orth">    0.01    0.01</time>
   <time name="total">    0.57    0.59</time>
   <energy>
    <i name="e_fr_energy">   -358.35411397 </i>
    <i name="e_wo_entrp">   -358.36880917 </i>
    <i name="e_0_energy">   -358.35901237 </i>
   </energy>
  </scstep>
  <scstep>
   <time name="diag">    0.09    0.09</time>
   <time name="diis">    0.34    0.35</time>
   <time name="orth">    0.02    0.02</time>
   <time name="total">    0.48    0.50</time>
   <energy>
    <i name="alphaZ">   1675.44081557 </i>
    <i name="ewald"> -22919.69808862 </i>
    <i name="hartreedc">  -7753.60108209 </i>
    <i name="XCdc">    125.37888206 </i>
    <i name="pawpsdc">  37503.03930450 </i>
    <i name="pawaedc"> -36047.22307337 </i>
    <i name="eentropy">      0.01469397 </i>
    <i name="bandstr">  -3203.16723375 </i>
    <i name="atom">  30261.46166738 </i>
    <i name="e_fr_energy">   -358.35411435 </i>
    <i name="e_wo_entrp">   -358.36880832 </i>
    <i name="e_0_energy">   -358.35901234 </i>
   </energy>
  </scstep>
  <structure>
   <crystal>
    <varray name="basis" >
     <v>       6.93801850      -0.01024638       0.04154355 </v>
     <v>      -0.01518646      10.25337197       0.00409145 </v>
     <v>       0.06068798       0.00306066      10.20424551 </v>
    </varray>
    <i name="volume">    725.88294842 </i>
    <varray name="rec_basis" >
     <v>       0.14413882       0.00021383      -0.00085730 </v>
     <v>       0.00014422       0.09752912      -0.00003011 </v>
     <v>      -0.00058688      -0.00003998       0.09800193 </v>
    </varray>
   </crystal>
   <varray name="positions" >
    <v>       0.22902830       0.17108457       0.48666265 </v>
    <v>       0.26598974       0.50669914       0.16756157 </v>
    <v>       0.99778490       0.34010206       0.99970021 </v>
    <v>       0.97475336       0.66132537       0.00525477 </v>
    <v>       0.26293467       0.82172382       0.16825299 </v>
    <v>       0.46638197       0.00479319       0.65929268 </v>
    <v>       0.75683480       0.83315375       0.50552471 </v>
    <v>       0.01225606       0.65733918       0.66739089 </v>
    <v>       0.26904126       0.81601570       0.84465332 </v>
    <v>       0.53484848       0.66022968       0.00169332 </v>
    <v>       0.99629164       0.98204695       0.32324270 </v>
    <v>       0.49675483       0.98577714       0.34433756 </v>
    <v>       0.74188637       0.83204281       0.18250290 </v>
    <v>       0.51414296       0.34525431       0.34426478 </v>
    <v>       0.26318788       0.50473554       0.84144074 </v>
    <v>       0.97772674       0.35133407       0.31777193 </v>
    <v>       0.00667747       0.34735891       0.68039868 </v>
    <v>       0.25035383       0.82992451       0.48936176 </v>
    <v>       0.49316441       0.33390086       0.98782629 </v>
    <v>       0.23396045       0.17392074       0.82909692 </v>
    <v>       0.73934568       0.49511276       0.83203379 </v>
    <v>       0.73026481       0.49802693       0.17214758 </v>
    <v>       0.03890558       0.99227311       0.66879268 </v>
    <v>       0.51794047       0.66979727       0.33972670 </v>
    <v>       0.75225611       0.50622689       0.49511311 </v>
    <v>       0.98460548       0.66834502       0.32921154 </v>
    <v>       0.50001172       0.65229151       0.66186674 </v>
    <v>       0.25216021       0.17367291       0.18350537 </v>
    <v>       0.99770013      -0.00038365       0.00648900 </v>
    <v>       0.76708658       0.16275856       0.49911723 </v>
    <v>       0.76507578       0.16877972       0.81983482 </v>
    <v>       0.49729547       0.01149235       0.99771255 </v>
    <v>       0.72938006       0.17426929       0.17800364 </v>
    <v>       0.49259939       0.33758880       0.66621188 </v>
    <v>       0.74639525       0.83586812       0.81670565 </v>
    <v>       0.24497216       0.49512510       0.48729634 </v>
   </varray>
  </structure>
  <varray name="forces" >
   <v>       0.01390284      -0.00884385       0.01287286 </v>
   <v>       0.01612956      -0.00825950       0.01499262 </v>
   <v>      -0.00376296       0.01111138      -0.01064946 </v>
   <v>      -0.02614413      -0.00927231       0.00331492 </v>
   <v>       0.01119605       0.01453442       0.01182495 </v>
   <v>       0.00028822       0.00347769      -0.00798290 </v>
   <v>       0.01989943       0.00986487       0.00470968 </v>
   <v>      -0.01321041      -0.00075225       0.02198433 </v>
   <v>       0.01767009       0.01533040      -0.01659934 </v>
   <v>       0.03955640      -0.02635653       0.00036284 </v>
   <v>       0.00023739       0.01866417       0.00359950 </v>
   <v>       0.00885652       0.01358597       0.00853024 </v>
   <v>      -0.00708586      -0.01534581      -0.01962533 </v>
   <v>       0.00591931      -0.00651321      -0.01163437 </v>
   <v>       0.00532749      -0.00551526      -0.01256814 </v>
   <v>      -0.00148522      -0.00228573      -0.00686787 </v>
   <v>      -0.00555153       0.00313905       0.00243704 </v>
   <v>      -0.00137632      -0.00089159       0.00489157 </v>
   <v>      -0.00373967      -0.00539482       0.00308817 </v>
   <v>      -0.00671212       0.00038196       0.00552991 </v>
   <v>      -0.01111101       0.02454039       0.02850281 </v>
   <v>      -0.02664114       0.02532714      -0.02316199 </v>
   <v>       0.00022854      -0.00123583       0.00164203 </v>
   <v>      -0.00364146      -0.00780180       0.01410861 </v>
   <v>       0.02616051      -0.00894867      -0.00292472 </v>
   <v>      -0.00314898      -0.00786278      -0.01113439 </v>
   <v>      -0.00323893       0.00950260      -0.01674917 </v>
   <v>      -0.01289050      -0.00259062       0.00074723 </v>
   <v>       0.00769866      -0.01830451      -0.01144815 </v>
   <v>      -0.00901866       0.00407768      -0.00568746 </v>
   <v>       0.00444323       0.00142527       0.00373200 </v>
   <v>      -0.01316519       0.01563144      -0.00476751 </v>
   <v>       0.01344418      -0.00075540       0.00656553 </v>
   <v>      -0.00221975      -0.01192634      -0.00790629 </v>
   <v>      -0.01705728      -0.01884462       0.02343576 </v>
   <v>      -0.01975728      -0.00289297      -0.00716550 </v>
  </varray>
  <varray name="stress" >
   <v>       0.99429300       0.02417979      -0.03822429 </v>
   <v>       0.02417975       0.76896145      -0.09205547 </v>
   <v>      -0.03822426      -0.09205547       0.70148560 </v>
  </varray>
  <energy>
   <i name="e_fr_energy">   -358.35411435 </i>
   <i name="e_wo_entrp">   -358.35901234 </i>
   <i name="e_0_energy">      0.01469397 </i>
  </energy>
  <time name="totalsc">    6.09    6.34</time>
 </calculation>
 <calculation>
  <scstep>
   <time name="dav">    1.12    1.13</time>
   <time name="total">    1.30    1.40</time>
   <energy>
    <i name="alphaZ">   1674.96854505 </i>
    <i name="ewald"> -22916.82814600 </i>
    <i name="hartreedc">  -7753.57681157 </i>
    <i name="XCdc">    125.28124282 </i>
    <i name="pawpsdc">  37502.56322943 </i>
    <i name="pawaedc"> -36046.73434483 </i>
    <i name="eentropy">      0.01463677 </i>
    <i name="bandstr">  -3205.50476216 </i>
    <i name="atom">  30261.46166738 </i>
    <i name="e_fr_energy">   -358.35474311 </i>
    <i name="e_wo_entrp">   -358.36937987 </i>
    <i name="e_0_energy">   -358.35962203 </i>
   </energy>
  </scstep>
  <scstep>
   <time name="diag">    0.13    0.13</time>
   <time name="diis">    0.88    0.89</time>
   <time name="orth">    0.02    0.02</time>
   <time name="total">    1.13    1.15</time>
   <energy>
    <i name="e_fr_energy">   -358.35517196 </i>
    <i name="e_wo_entrp">   -358.36988269 </i>
    <i name="e_0_energy">   -358.36007554 </i>
[...]
       <r>    7.4500    1.0000 </r>
       <r>    7.5028    1.0000 </r>
       <r>    7.5187    1.0000 </r>
       <r>    7.5771    1.0003 </r>
       <r>    7.6094    1.0009 </r>
       <r>    7.6461    1.0025 </r>
       <r>    7.6740    1.0051 </r>
       <r>    7.7371    1.0181 </r>
       <r>    7.7476    1.0212 </r>
       <r>    7.7704    1.0282 </r>
       <r>    7.7993    1.0348 </r>
       <r>    7.8817    0.9749 </r>
       <r>    7.9077    0.9073 </r>
       <r>    7.9225    0.8556 </r>
       <r>    7.9603    0.6831 </r>
       <r>    8.0092    0.4126 </r>
       <r>    8.0417    0.2435 </r>
       <r>    8.0616    0.1566 </r>
       <r>    8.1333   -0.0164 </r>
       <r>    8.1531   -0.0305 </r>
       <r>    8.1862   -0.0350 </r>
       <r>    8.2191   -0.0275 </r>
       <r>    8.2569   -0.0162 </r>
       <r>    8.2691   -0.0131 </r>
       <r>    8.3202   -0.0043 </r>
       <r>    8.3472   -0.0021 </r>
       <r>    8.3942   -0.0005 </r>
       <r>    8.4275   -0.0002 </r>
       <r>    8.4757   -0.0000 </r>
       <r>    8.5072   -0.0000 </r>
       <r>    8.5454   -0.0000 </r>
       <r>    8.6035   -0.0000 </r>
       <r>    8.6670   -0.0000 </r>
       <r>    8.6975   -0.0000 </r>
       <r>    8.7690   -0.0000 </r>
       <r>    8.8229   -0.0000 </r>
       <r>    8.9472   -0.0000 </r>
       <r>    9.0876   -0.0000 </r>
       <r>    9.2029   -0.0000 </r>
       <r>    9.3381   -0.0000 </r>
       <r>    9.7583   -0.0000 </r>
       <r>    9.9194   -0.0000 </r>
       <r>    9.9443   -0.0000 </r>
       <r>    9.9894   -0.0000 </r>
       <r>   10.0769   -0.0000 </r>
       <r>   10.1132   -0.0000 </r>
       <r>   10.1917   -0.0000 </r>
       <r>   10.2200   -0.0000 </r>
       <r>   10.2814   -0.0000 </r>
      </set>
     </set>
    </set>
   </array>
  </eigenvalues>
  <separator name="orbital magnetization" >
   <v name="MAGDIPOLOUT">      0.00000000      0.00000000      0.00000000</v>
  </separator>
  <dos>
   <i name="efermi">      7.99361447 </i>
   <total>
    <array>
     <dimension dim="1">gridpoints</dimension>
     <dimension dim="2">spin</dimension>
     <field>energy</field>
     <field>total</field>
     <field>integrated</field>
     <set>
      <set comment="spin 1">
       <r>   -49.1424     0.0000     0.0000 </r>
       <r>   -48.9346     0.0000     0.0000 </r>
       <r>   -48.7268     0.0000     0.0000 </r>
       <r>   -48.5191     0.0000     0.0000 </r>
       <r>   -48.3113     0.0000     0.0000 </r>
       <r>   -48.1035     0.0000     0.0000 </r>
       <r>   -47.8958     0.0000     0.0000 </r>
       <r>   -47.6880    -0.0000    -0.0000 </r>
       <r>   -47.4802    -0.0000    -0.0000 </r>
       <r>   -47.2725    -0.0000    -0.0000 </r>
       <r>   -47.0647    -0.0000    -0.0000 </r>
       <r>   -46.8569    -0.0000    -0.0000 </r>
       <r>   -46.6492    -0.0712    -0.0148 </r>
       <r>   -46.4414    -2.0409    -0.4388 </r>
       <r>   -46.2336    45.9015     9.0980 </r>
       <r>   -46.0259    61.5416    21.8843 </r>
       <r>   -45.8181     0.8457    22.0600 </r>
       <r>   -45.6103    -0.2885    22.0001 </r>
       <r>   -45.4026    -0.0003    22.0000 </r>
       <r>   -45.1948    -0.0000    22.0000 </r>
       <r>   -44.9870    -0.0000    22.0000 </r>
       <r>   -44.7793     0.0000    22.0000 </r>
       <r>   -44.5715     0.0000    22.0000 </r>
       <r>   -44.3637     0.0000    22.0000 </r>
       <r>   -44.1560     0.0000    22.0000 </r>
       <r>   -43.9482     0.0000    22.0000 </r>
       <r>   -43.7404     0.0000    22.0000 </r>
       <r>   -43.5327     0.0000    22.0000 </r>
       <r>   -43.3249     0.0000    22.0000 </r>
       <r>   -43.1171     0.0000    22.0000 </r>
       <r>   -42.9094     0.0000    22.0000 </r>
       <r>   -42.7016     0.0000    22.0000 </r>
       <r>   -42.4938     0.0000    22.0000 </r>
       <r>   -42.2861     0.0000    22.0000 </r>
       <r>   -42.0783     0.0000    22.0000 </r>
       <r>   -41.8705     0.0000    22.0000 </r>
       <r>   -41.6628    -0.0000    22.0000 </r>
       <r>   -41.4550    -0.0000    22.0000 </r>
       <r>   -41.2472    -0.0000    22.0000 </r>
       <r>   -41.0395    -0.0000    22.0000 </r>
       <r>   -40.8317    -0.0001    22.0000 </r>
       <r>   -40.6239    -0.1455    21.9697 </r>
       <r>   -40.4162     0.0601    21.9822 </r>
       <r>   -40.2084    35.6323    29.3854 </r>
       <r>   -40.0006    47.9002    39.3375 </r>
       <r>   -39.7929     3.5872    40.0828 </r>
       <r>   -39.5851    -0.3964    40.0005 </r>
       <r>   -39.3773    -0.0022    40.0000 </r>
       <r>   -39.1696    -0.0000    40.0000 </r>
       <r>   -38.9618    -0.0000    40.0000 </r>
       <r>   -38.7540     0.0000    40.0000 </r>
       <r>   -38.5463     0.0000    40.0000 </r>
       <r>   -38.3385     0.0000    40.0000 </r>
       <r>   -38.1307     0.0000    40.0000 </r>
       <r>   -37.9230     0.0000    40.0000 </r>
       <r>   -37.7152     0.0000    40.0000 </r>
       <r>   -37.5074     0.0000    40.0000 </r>
       <r>   -37.2997     0.0000    40.0000 </r>
       <r>   -37.0919     0.0000    40.0000 </r>
       <r>   -36.8841     0.0000    40.0000 </r>
       <r>   -36.6764     0.0000    40.0000 </r>
       <r>   -36.4686     0.0000    40.0000 </r>
       <r>   -36.2608     0.0000    40.0000 </r>
       <r>   -36.0531     0.0000    40.0000 </r>
       <r>   -35.8453     0.0000    40.0000 </r>
       <r>   -35.6375     0.0000    40.0000 </r>
       <r>   -35.4298     0.0000    40.0000 </r>
       <r>   -35.2220     0.0000    40.0000 </r>
       <r>   -35.0142     0.0000    40.0000 </r>
       <r>   -34.8065     0.0000    40.0000 </r>
       <r>   -34.5987     0.0000    40.0000 </r>
       <r>   -34.3909     0.0000    40.0000 </r>
       <r>   -34.1832     0.0000    40.0000 </r>
       <r>   -33.9754     0.0000    40.0000 </r>
       <r>   -33.7676     0.0000    40.0000 </r>
       <r>   -33.5598     0.0000    40.0000 </r>
       <r>   -33.3521     0.0000    40.0000 </r>
       <r>   -33.1443     0.0000    40.0000 </r>
       <r>   -32.9365     0.0000    40.0000 </r>
       <r>   -32.7288     0.0000    40.0000 </r>
       <r>   -32.5210     0.0000    40.0000 </r>
       <r>   -32.3132     0.0000    40.0000 </r>
       <r>   -32.1055     0.0000    40.0000 </r>
       <r>   -31.8977     0.0000    40.0000 </r>
       <r>   -31.6899     0.0000    40.0000 </r>
       <r>   -31.4822     0.0000    40.0000 </r>
       <r>   -31.2744     0.0000    40.0000 </r>
       <r>   -31.0666     0.0000    40.0000 </r>
       <r>   -30.8589     0.0000    40.0000 </r>
       <r>   -30.6511     0.0000    40.0000 </r>
       <r>   -30.4433     0.0000    40.0000 </r>
       <r>   -30.2356     0.0000    40.0000 </r>
       <r>   -30.0278     0.0000    40.0000 </r>
       <r>   -29.8200     0.0000    40.0000 </r>
       <r>   -29.6123     0.0000    40.0000 </r>
       <r>   -29.4045     0.0000    40.0000 </r>
       <r>   -29.1967     0.0000    40.0000 </r>
       <r>   -28.9890     0.0000    40.0000 </r>
       <r>   -28.7812     0.0000    40.0000 </r>
       <r>   -28.5734     0.0000    40.0000 </r>
       <r>   -28.3657     0.0000    40.0000 </r>
       <r>   -28.1579     0.0000    40.0000 </r>
       <r>   -27.9501     0.0000    40.0000 </r>
       <r>   -27.7424     0.0000    40.0000 </r>
       <r>   -27.5346     0.0000    40.0000 </r>
       <r>   -27.3268     0.0000    40.0000 </r>
       <r>   -27.1191     0.0000    40.0000 </r>
       <r>   -26.9113     0.0000    40.0000 </r>
       <r>   -26.7035     0.0000    40.0000 </r>
       <r>   -26.4958     0.0000    40.0000 </r>
       <r>   -26.2880     0.0000    40.0000 </r>
       <r>   -26.0802     0.0000    40.0000 </r>
       <r>   -25.8725     0.0000    40.0000 </r>
       <r>   -25.6647     0.0000    40.0000 </r>
       <r>   -25.4569     0.0000    40.0000 </r>
       <r>   -25.2492     0.0000    40.0000 </r>
       <r>   -25.0414     0.0000    40.0000 </r>
       <r>   -24.8336     0.0000    40.0000 </r>
       <r>   -24.6259     0.0000    40.0000 </r>
       <r>   -24.4181     0.0000    40.0000 </r>
       <r>   -24.2103     0.0000    40.0000 </r>
       <r>   -24.0026    -0.0000    40.0000 </r>
       <r>   -23.7948    -0.0000    40.0000 </r>
       <r>   -23.5870    -0.0000    40.0000 </r>
       <r>   -23.3793    -0.0000    40.0000 </r>
       <r>   -23.1715    -0.0016    39.9997 </r>
       <r>   -22.9637    -0.4002    39.9165 </r>
       <r>   -22.7560     3.4570    40.6348 </r>
       <r>   -22.5482    45.6403    50.1173 </r>
       <r>   -22.3404   111.6960    73.3241 </r>
       <r>   -22.1327   107.7982    95.7210 </r>
       <r>   -21.9249    45.1380   105.0991 </r>
       <r>   -21.7171     4.8062   106.0977 </r>
       <r>   -21.5094    -0.4672   106.0006 </r>
       <r>   -21.3016    -0.0031   106.0000 </r>
       <r>   -21.0938    -0.0000   106.0000 </r>
       <r>   -20.8861    -0.0000   106.0000 </r>
       <r>   -20.6783     0.0000   106.0000 </r>
       <r>   -20.4705     0.0000   106.0000 </r>
       <r>   -20.2628     0.0000   106.0000 </r>
       <r>   -20.0550    -0.0000   106.0000 </r>
       <r>   -19.8472    -0.0000   106.0000 </r>
       <r>   -19.6395    -0.0000   106.0000 </r>
       <r>   -19.4317    -0.0000   106.0000 </r>
       <r>   -19.2239    -0.0002   106.0000 </r>
       <r>   -19.0162    -0.1112   105.9769 </r>
       <r>   -18.8084     0.1740   106.0130 </r>
       <r>   -18.6006    23.1744   110.8279 </r>
       <r>   -18.3929    53.2121   121.8836 </r>
       <r>   -18.1851    89.8903   140.5598 </r>
       <r>   -17.9773    82.2578   157.6503 </r>
       <r>   -17.7696    12.1085   160.1660 </r>
       <r>   -17.5618    -0.7780   160.0044 </r>
       <r>   -17.3540    -0.0211   160.0000 </r>
       <r>   -17.1463    -0.0000   160.0000 </r>
       <r>   -16.9385    -0.0000   160.0000 </r>
       <r>   -16.7307     0.0000   160.0000 </r>
       <r>   -16.5230     0.0000   160.0000 </r>
       <r>   -16.3152     0.0000   160.0000 </r>
       <r>   -16.1074     0.0000   160.0000 </r>
       <r>   -15.8997     0.0000   160.0000 </r>
       <r>   -15.6919     0.0000   160.0000 </r>
       <r>   -15.4841     0.0000   160.0000 </r>
       <r>   -15.2764     0.0000   160.0000 </r>
       <r>   -15.0686     0.0000   160.0000 </r>
       <r>   -14.8608     0.0000   160.0000 </r>
       <r>   -14.6531     0.0000   160.0000 </r>
       <r>   -14.4453     0.0000   160.0000 </r>
       <r>   -14.2375     0.0000   160.0000 </r>
       <r>   -14.0298     0.0000   160.0000 </r>
       <r>   -13.8220     0.0000   160.0000 </r>
       <r>   -13.6142     0.0000   160.0000 </r>
       <r>   -13.4065     0.0000   160.0000 </r>
       <r>   -13.1987     0.0000   160.0000 </r>
       <r>   -12.9909     0.0000   160.0000 </r>
       <r>   -12.7832     0.0000   160.0000 </r>
       <r>   -12.5754     0.0000   160.0000 </r>
       <r>   -12.3676     0.0000   160.0000 </r>
       <r>   -12.1599     0.0000   160.0000 </r>
       <r>   -11.9521     0.0000   160.0000 </r>
       <r>   -11.7443     0.0000   160.0000 </r>
       <r>   -11.5366     0.0000   160.0000 </r>
       <r>   -11.3288     0.0000   160.0000 </r>
       <r>   -11.1210     0.0000   160.0000 </r>
       <r>   -10.9133     0.0000   160.0000 </r>
       <r>   -10.7055     0.0000   160.0000 </r>
       <r>   -10.4977     0.0000   160.0000 </r>
       <r>   -10.2900     0.0000   160.0000 </r>
       <r>   -10.0822     0.0000   160.0000 </r>
       <r>    -9.8744     0.0000   160.0000 </r>
       <r>    -9.6666     0.0000   160.0000 </r>
       <r>    -9.4589     0.0000   160.0000 </r>
       <r>    -9.2511     0.0000   160.0000 </r>
       <r>    -9.0433     0.0000   160.0000 </r>
       <r>    -8.8356     0.0000   160.0000 </r>
       <r>    -8.6278     0.0000   160.0000 </r>
       <r>    -8.4200     0.0000   160.0000 </r>
       <r>    -8.2123     0.0000   160.0000 </r>
       <r>    -8.0045     0.0000   160.0000 </r>
       <r>    -7.7967     0.0000   160.0000 </r>
       <r>    -7.5890     0.0000   160.0000 </r>
       <r>    -7.3812     0.0000   160.0000 </r>
       <r>    -7.1734     0.0000   160.0000 </r>
       <r>    -6.9657     0.0000   160.0000 </r>
       <r>    -6.7579     0.0000   160.0000 </r>
       <r>    -6.5501     0.0000   160.0000 </r>
       <r>    -6.3424     0.0000   160.0000 </r>
       <r>    -6.1346     0.0000   160.0000 </r>
       <r>    -5.9268     0.0000   160.0000 </r>
       <r>    -5.7191     0.0000   160.0000 </r>
       <r>    -5.5113     0.0000   160.0000 </r>
       <r>    -5.3035     0.0000   160.0000 </r>
       <r>    -5.0958     0.0000   160.0000 </r>
       <r>    -4.8880     0.0000   160.0000 </r>
       <r>    -4.6802     0.0000   160.0000 </r>
       <r>    -4.4725     0.0000   160.0000 </r>
       <r>    -4.2647     0.0000   160.0000 </r>
       <r>    -4.0569     0.0000   160.0000 </r>
       <r>    -3.8492     0.0000   160.0000 </r>
       <r>    -3.6414     0.0000   160.0000 </r>
       <r>    -3.4336     0.0000   160.0000 </r>
       <r>    -3.2259     0.0000   160.0000 </r>
       <r>    -3.0181     0.0000   160.0000 </r>
       <r>    -2.8103     0.0000   160.0000 </r>
       <r>    -2.6026     0.0000   160.0000 </r>
       <r>    -2.3948     0.0000   160.0000 </r>
       <r>    -2.1870     0.0000   160.0000 </r>
       <r>    -1.9793     0.0000   160.0000 </r>
       <r>    -1.7715     0.0000   160.0000 </r>
       <r>    -1.5637     0.0000   160.0000 </r>
       <r>    -1.3560     0.0000   160.0000 </r>
       <r>    -1.1482     0.0000   160.0000 </r>
       <r>    -0.9404     0.0000   160.0000 </r>
       <r>    -0.7327     0.0000   160.0000 </r>
       <r>    -0.5249     0.0000   160.0000 </r>
       <r>    -0.3171     0.0000   160.0000 </r>
       <r>    -0.1094     0.0000   160.0000 </r>
       <r>     0.0984    -0.0000   160.0000 </r>
       <r>     0.3062    -0.0000   160.0000 </r>
       <r>     0.5139    -0.0000   160.0000 </r>
       <r>     0.7217    -0.0000   160.0000 </r>
       <r>     0.9295    -0.0003   159.9999 </r>
       <r>     1.1372    -0.0140   159.9970 </r>
       <r>     1.3450     0.1987   160.0383 </r>
       <r>     1.5528     1.0649   160.2596 </r>
       <r>     1.7605     1.7234   160.6176 </r>
       <r>     1.9683     1.9026   161.0129 </r>
       <r>     2.1761     3.6331   161.7678 </r>
       <r>     2.3838     3.1786   162.4282 </r>
       <r>     2.5916     1.2582   162.6896 </r>
       <r>     2.7994     5.1774   163.7653 </r>
       <r>     3.0071     2.7082   164.3280 </r>
       <r>     3.2149     4.8336   165.3322 </r>
       <r>     3.4227     6.4830   166.6791 </r>
       <r>     3.6304     7.7857   168.2968 </r>
       <r>     3.8382     6.6364   169.6756 </r>
       <r>     4.0460     9.1951   171.5860 </r>
       <r>     4.2537    10.8927   173.8492 </r>
       <r>     4.4615    17.0998   177.4020 </r>
       <r>     4.6693    21.8120   181.9338 </r>
       <r>     4.8770    24.5828   187.0413 </r>
       <r>     5.0848    30.3867   193.3546 </r>
       <r>     5.2926    34.9232   200.6105 </r>
       <r>     5.5003    40.5212   209.0295 </r>
       <r>     5.7081    41.4964   217.6510 </r>
       <r>     5.9159    37.7996   225.5046 </r>
       <r>     6.1236    33.1631   232.3948 </r>
       <r>     6.3314    31.6943   238.9798 </r>
       <r>     6.5392    18.6152   242.8474 </r>
       <r>     6.7469    53.2462   253.9102 </r>
       <r>     6.9547    62.2926   266.8525 </r>
       <r>     7.1625    56.8458   278.6632 </r>
       <r>     7.3702    54.8551   290.0603 </r>
       <r>     7.5780    52.4057   300.9485 </r>
       <r>     7.7858    53.5182   312.0678 </r>
       <r>     7.9935    47.7884   321.9966 </r>
       <r>     8.2013    48.7644   332.1282 </r>
       <r>     8.4091    53.3833   343.2195 </r>
       <r>     8.6168    43.1201   352.1784 </r>
       <r>     8.8246    31.7035   358.7654 </r>
       <r>     9.0324    27.2080   364.4183 </r>
       <r>     9.2401    19.6695   368.5050 </r>
       <r>     9.4479    14.2974   371.4755 </r>
       <r>     9.6557    17.6915   375.1512 </r>
       <r>     9.8634    29.8888   381.3611 </r>
       <r>    10.0712    28.1328   387.2062 </r>
       <r>    10.2790    18.8087   391.1140 </r>
       <r>    10.4867     4.5505   392.0595 </r>
       <r>    10.6945    -0.2805   392.0012 </r>
       <r>    10.9023    -0.0057   392.0000 </r>
       <r>    11.1100    -0.0000   392.0000 </r>
       <r>    11.3178    -0.0000   392.0000 </r>
       <r>    11.5256     0.0000   392.0000 </r>
       <r>    11.7333     0.0000   392.0000 </r>
       <r>    11.9411     0.0000   392.0000 </r>
       <r>    12.1489     0.0000   392.0000 </r>
       <r>    12.3566     0.0000   392.0000 </r>
       <r>    12.5644     0.0000   392.0000 </r>
       <r>    12.7722     0.0000   392.0000 </r>
       <r>    12.9799     0.0000   392.0000 </r>
       <r>    13.1877     0.0000   392.0000 </r>
      </set>
     </set>
    </array>
   </total>
  </dos>
 </calculation>
 <structure name="finalpos" >
  <crystal>
   <varray name="basis" >
    <v>       6.94488654      -0.01424127       0.04661411 </v>
    <v>      -0.02109168      10.25295726       0.00260603 </v>
    <v>       0.06819600       0.00155876      10.20411287 </v>
   </varray>
   <i name="volume">    726.55454262 </i>
   <varray name="rec_basis" >
    <v>       0.14399790       0.00029647      -0.00096241 </v>
    <v>       0.00020011       0.09753325      -0.00001624 </v>
    <v>      -0.00065786      -0.00002626       0.09800410 </v>
   </varray>
  </crystal>
  <varray name="positions" >
   <v>       0.22932168       0.17092832       0.48686130 </v>
   <v>       0.26668745       0.50653780       0.16813866 </v>
   <v>       0.99808801       0.34078397       0.99950240 </v>
   <v>       0.97581650       0.66173017       0.00534246 </v>
   <v>       0.26422530       0.82202610       0.16927237 </v>
   <v>       0.46710136       0.00504840       0.65856338 </v>
   <v>       0.75782480       0.83338238       0.50562934 </v>
   <v>       0.01097080       0.65772690       0.66877555 </v>
   <v>       0.27134634       0.81582946       0.84388582 </v>
   <v>       0.53509007       0.65959297       0.00195702 </v>
   <v>       0.99603306       0.98232264       0.32312121 </v>
   <v>       0.49774919       0.98645979       0.34530174 </v>
   <v>       0.74131436       0.83190829       0.18209284 </v>
   <v>       0.51450550       0.34500228       0.34403694 </v>
   <v>       0.26338602       0.50477514       0.84071889 </v>
   <v>       0.97740247       0.35106652       0.31688346 </v>
   <v>       0.00633984       0.34742402       0.68046826 </v>
   <v>       0.25012080       0.82995061       0.48956820 </v>
   <v>       0.49299753       0.33373796       0.98796599 </v>
   <v>       0.23268847       0.17398467       0.82819459 </v>
   <v>       0.73908575       0.49561487       0.83273132 </v>
   <v>       0.72960216       0.49838082       0.17159339 </v>
   <v>       0.03838092       0.99151539       0.66893648 </v>
   <v>       0.51849013       0.66953500       0.34062841 </v>
   <v>       0.75331070       0.50582156       0.49491969 </v>
   <v>       0.98413292       0.66842589       0.32838127 </v>
   <v>       0.50056899       0.65201094       0.66101944 </v>
   <v>       0.25136784       0.17381939       0.18404842 </v>
   <v>       0.99976852      -0.00173652       0.00600457 </v>
   <v>       0.76763741       0.16282303       0.49893268 </v>
   <v>       0.76506050       0.16854548       0.82062261 </v>
   <v>       0.49290994       0.01335447       0.99729005 </v>
   <v>       0.72979187       0.17379582       0.17727520 </v>
   <v>       0.49289382       0.33735334       0.66592385 </v>
   <v>       0.74439498       0.83547847       0.81809208 </v>
   <v>       0.24358901       0.49505066       0.48732013 </v>
  </varray>
 </structure>
</modeling>
