  16  16   0   0
  0.2157260E+02  0.6935810E-09  0.7105392E-09  0.7004041E-09  0.1500000E-15
  1.000000000000000E-004
  CAR 
 automatically generated by mexm         
     12.04197538    -49.33777076  301      7.60183085      1.00000000
    -49.338  0.0000E+00  0.0000E+00
    -49.133  0.0000E+00  0.0000E+00
    -48.929  0.0000E+00  0.0000E+00
    -48.724  0.0000E+00  0.0000E+00
    -48.519  0.0000E+00  0.0000E+00
    -48.315  0.0000E+00  0.0000E+00
    -48.110  0.0000E+00  0.0000E+00
    -47.906 -0.2147E-36 -0.4393E-37
    -47.701 -0.1506E-26 -0.3080E-27
    -47.496 -0.2476E-18 -0.5065E-19
    -47.292 -0.9022E-12 -0.1846E-12
    -47.087 -0.7387E-07 -0.1511E-07
    -46.883 -0.1145E-03 -0.2345E-04
    -46.678 -0.6573E-04 -0.3689E-04
    -46.473  0.2845E-01  0.5784E-02
    -46.269  0.4711E-02  0.6748E-02
    -46.064 -0.3983E-03  0.6667E-02
    -45.860 -0.8255E-06  0.6667E-02
    -45.655 -0.2912E-10  0.6667E-02
    -45.450 -0.2171E-16  0.6667E-02
    -45.246  0.0000E+00  0.6667E-02
    -45.041  0.0000E+00  0.6667E-02
    -44.837  0.0000E+00  0.6667E-02
    -44.632  0.0000E+00  0.6667E-02
    -44.427  0.0000E+00  0.6667E-02
    -44.223  0.0000E+00  0.6667E-02
    -44.018  0.0000E+00  0.6667E-02
    -43.814  0.0000E+00  0.6667E-02
    -43.609  0.0000E+00  0.6667E-02
    -43.404  0.0000E+00  0.6667E-02
    -43.200  0.0000E+00  0.6667E-02
    -42.995  0.0000E+00  0.6667E-02
    -42.791  0.0000E+00  0.6667E-02
    -42.586  0.0000E+00  0.6667E-02
    -42.381  0.0000E+00  0.6667E-02
    -42.177 -0.4833E-32  0.6667E-02
    -41.972 -0.7120E-23  0.6667E-02
    -41.768 -0.2430E-15  0.6667E-02
    -41.563 -0.1969E-09  0.6667E-02
    -41.358 -0.3621E-05  0.6666E-02
    -41.154 -0.1238E-02  0.6413E-02
    -40.949  0.1326E-01  0.9125E-02
    -40.745  0.1005E+00  0.2968E-01
    -40.540  0.1232E+00  0.5489E-01
    -40.335  0.2680E-01  0.6037E-01
    -40.131 -0.1786E-02  0.6001E-01
    -39.926 -0.3676E-04  0.6000E-01
    -39.722 -0.1001E-07  0.6000E-01
    -39.517 -0.5545E-13  0.6000E-01
    -39.312  0.0000E+00  0.6000E-01
    -39.108  0.0000E+00  0.6000E-01
    -38.903  0.0000E+00  0.6000E-01
    -38.699  0.0000E+00  0.6000E-01
    -38.494  0.0000E+00  0.6000E-01
    -38.289  0.0000E+00  0.6000E-01
    -38.085  0.0000E+00  0.6000E-01
    -37.880  0.0000E+00  0.6000E-01
    -37.676  0.0000E+00  0.6000E-01
    -37.471  0.0000E+00  0.6000E-01
    -37.266  0.0000E+00  0.6000E-01
    -37.062  0.0000E+00  0.6000E-01
    -36.857  0.0000E+00  0.6000E-01
    -36.653  0.0000E+00  0.6000E-01
    -36.448  0.0000E+00  0.6000E-01
    -36.243  0.0000E+00  0.6000E-01
    -36.039  0.0000E+00  0.6000E-01
    -35.834  0.0000E+00  0.6000E-01
    -35.630  0.0000E+00  0.6000E-01
    -35.425  0.0000E+00  0.6000E-01
    -35.220  0.0000E+00  0.6000E-01
    -35.016  0.0000E+00  0.6000E-01
    -34.811  0.0000E+00  0.6000E-01
    -34.607  0.0000E+00  0.6000E-01
    -34.402  0.0000E+00  0.6000E-01
    -34.197  0.0000E+00  0.6000E-01
    -33.993  0.0000E+00  0.6000E-01
    -33.788  0.0000E+00  0.6000E-01
    -33.584  0.0000E+00  0.6000E-01
    -33.379  0.0000E+00  0.6000E-01
    -33.174  0.0000E+00  0.6000E-01
    -32.970  0.0000E+00  0.6000E-01
    -32.765  0.0000E+00  0.6000E-01
    -32.561  0.0000E+00  0.6000E-01
    -32.356  0.0000E+00  0.6000E-01
    -32.151  0.0000E+00  0.6000E-01
    -31.947  0.0000E+00  0.6000E-01
    -31.742  0.0000E+00  0.6000E-01
    -31.538  0.0000E+00  0.6000E-01
    -31.333  0.0000E+00  0.6000E-01
    -31.128  0.0000E+00  0.6000E-01
    -30.924  0.0000E+00  0.6000E-01
    -30.719  0.0000E+00  0.6000E-01
    -30.515  0.0000E+00  0.6000E-01
    -30.310  0.0000E+00  0.6000E-01
    -30.105  0.0000E+00  0.6000E-01
    -29.901  0.0000E+00  0.6000E-01
    -29.696  0.0000E+00  0.6000E-01
    -29.492  0.0000E+00  0.6000E-01
    -29.287  0.0000E+00  0.6000E-01
    -29.082  0.0000E+00  0.6000E-01
    -28.878  0.0000E+00  0.6000E-01
    -28.673  0.0000E+00  0.6000E-01
    -28.469  0.0000E+00  0.6000E-01
    -28.264  0.0000E+00  0.6000E-01
    -28.059  0.0000E+00  0.6000E-01
    -27.855  0.0000E+00  0.6000E-01
    -27.650  0.0000E+00  0.6000E-01
    -27.446  0.0000E+00  0.6000E-01
    -27.241  0.0000E+00  0.6000E-01
    -27.036  0.0000E+00  0.6000E-01
    -26.832  0.0000E+00  0.6000E-01
    -26.627  0.0000E+00  0.6000E-01
    -26.423  0.0000E+00  0.6000E-01
    -26.218  0.0000E+00  0.6000E-01
    -26.013  0.0000E+00  0.6000E-01
    -25.809  0.0000E+00  0.6000E-01
    -25.604  0.0000E+00  0.6000E-01
    -25.400  0.0000E+00  0.6000E-01
    -25.195  0.0000E+00  0.6000E-01
    -24.990  0.0000E+00  0.6000E-01
    -24.786  0.0000E+00  0.6000E-01
    -24.581  0.0000E+00  0.6000E-01
    -24.377  0.0000E+00  0.6000E-01
    -24.172  0.0000E+00  0.6000E-01
    -23.967 -0.3041E-30  0.6000E-01
    -23.763 -0.2270E-21  0.6000E-01
    -23.558 -0.3906E-14  0.6000E-01
    -23.354 -0.1614E-08  0.6000E-01
    -23.149 -0.1501E-04  0.6000E-01
    -22.944 -0.2268E-02  0.5953E-01
    -22.740  0.3331E-01  0.6635E-01
    -22.535  0.6972E-01  0.8061E-01
    -22.331 -0.2860E-02  0.8003E-01
    -22.126 -0.1296E-03  0.8000E-01
    -21.921 -0.4685E-07  0.8000E-01
    -21.717 -0.3484E-12  0.8000E-01
    -21.512  0.0000E+00  0.8000E-01
    -21.308  0.0000E+00  0.8000E-01
    -21.103  0.0000E+00  0.8000E-01
    -20.898  0.0000E+00  0.8000E-01
    -20.694  0.0000E+00  0.8000E-01
    -20.489 -0.1137E-30  0.8000E-01
    -20.285 -0.7811E-22  0.8000E-01
    -20.080 -0.1246E-14  0.8000E-01
    -19.875 -0.4830E-09  0.8000E-01
    -19.671 -0.4471E-05  0.8000E-01
    -19.466 -0.9907E-03  0.7980E-01
    -19.262  0.6526E-02  0.8113E-01
    -19.057  0.1358E+00  0.1089E+00
    -18.852  0.1525E+00  0.1401E+00
    -18.648  0.3028E+00  0.2021E+00
    -18.443  0.1794E+00  0.2388E+00
    -18.239  0.7118E-02  0.2403E+00
    -18.034 -0.1246E-02  0.2400E+00
    -17.830 -0.3690E-05  0.2400E+00
    -17.625 -0.2258E-09  0.2400E+00
    -17.420 -0.3133E-15  0.2400E+00
    -17.216  0.0000E+00  0.2400E+00
    -17.011  0.0000E+00  0.2400E+00
    -16.807  0.0000E+00  0.2400E+00
    -16.602  0.0000E+00  0.2400E+00
    -16.397  0.0000E+00  0.2400E+00
    -16.193  0.0000E+00  0.2400E+00
    -15.988  0.0000E+00  0.2400E+00
    -15.784  0.0000E+00  0.2400E+00
    -15.579  0.0000E+00  0.2400E+00
    -15.374  0.0000E+00  0.2400E+00
    -15.170  0.0000E+00  0.2400E+00
    -14.965  0.0000E+00  0.2400E+00
    -14.761  0.0000E+00  0.2400E+00
    -14.556  0.0000E+00  0.2400E+00
    -14.351  0.0000E+00  0.2400E+00
    -14.147  0.0000E+00  0.2400E+00
    -13.942  0.0000E+00  0.2400E+00
    -13.738  0.0000E+00  0.2400E+00
    -13.533  0.0000E+00  0.2400E+00
    -13.328  0.0000E+00  0.2400E+00
    -13.124  0.0000E+00  0.2400E+00
    -12.919  0.0000E+00  0.2400E+00
    -12.715  0.0000E+00  0.2400E+00
    -12.510  0.0000E+00  0.2400E+00
    -12.305  0.0000E+00  0.2400E+00
    -12.101  0.0000E+00  0.2400E+00
    -11.896  0.0000E+00  0.2400E+00
    -11.692  0.0000E+00  0.2400E+00
    -11.487  0.0000E+00  0.2400E+00
    -11.282  0.0000E+00  0.2400E+00
    -11.078  0.0000E+00  0.2400E+00
    -10.873  0.0000E+00  0.2400E+00
    -10.669  0.0000E+00  0.2400E+00
    -10.464  0.0000E+00  0.2400E+00
    -10.259  0.0000E+00  0.2400E+00
    -10.055  0.0000E+00  0.2400E+00
     -9.850  0.0000E+00  0.2400E+00
     -9.646  0.0000E+00  0.2400E+00
     -9.441  0.0000E+00  0.2400E+00
     -9.236  0.0000E+00  0.2400E+00
     -9.032  0.0000E+00  0.2400E+00
     -8.827  0.0000E+00  0.2400E+00
     -8.623  0.0000E+00  0.2400E+00
     -8.418  0.0000E+00  0.2400E+00
     -8.213  0.0000E+00  0.2400E+00
     -8.009  0.0000E+00  0.2400E+00
     -7.804  0.0000E+00  0.2400E+00
     -7.600  0.0000E+00  0.2400E+00
     -7.395  0.0000E+00  0.2400E+00
     -7.190  0.0000E+00  0.2400E+00
     -6.986  0.0000E+00  0.2400E+00
     -6.781  0.0000E+00  0.2400E+00
     -6.577  0.0000E+00  0.2400E+00
     -6.372  0.0000E+00  0.2400E+00
     -6.167  0.0000E+00  0.2400E+00
     -5.963  0.0000E+00  0.2400E+00
     -5.758  0.0000E+00  0.2400E+00
     -5.554  0.0000E+00  0.2400E+00
     -5.349  0.0000E+00  0.2400E+00
     -5.144  0.0000E+00  0.2400E+00
     -4.940  0.0000E+00  0.2400E+00
     -4.735  0.0000E+00  0.2400E+00
     -4.531  0.0000E+00  0.2400E+00
     -4.326  0.0000E+00  0.2400E+00
     -4.121  0.0000E+00  0.2400E+00
     -3.917  0.0000E+00  0.2400E+00
     -3.712  0.0000E+00  0.2400E+00
     -3.508  0.0000E+00  0.2400E+00
     -3.303  0.0000E+00  0.2400E+00
     -3.098  0.0000E+00  0.2400E+00
     -2.894  0.0000E+00  0.2400E+00
     -2.689  0.0000E+00  0.2400E+00
     -2.485  0.0000E+00  0.2400E+00
     -2.280  0.0000E+00  0.2400E+00
     -2.075  0.0000E+00  0.2400E+00
     -1.871  0.0000E+00  0.2400E+00
     -1.666  0.0000E+00  0.2400E+00
     -1.462  0.0000E+00  0.2400E+00
     -1.257  0.0000E+00  0.2400E+00
     -1.052  0.0000E+00  0.2400E+00
     -0.848  0.0000E+00  0.2400E+00
     -0.643  0.0000E+00  0.2400E+00
     -0.439  0.0000E+00  0.2400E+00
     -0.234 -0.1013E-37  0.2400E+00
     -0.029 -0.6845E-28  0.2400E+00
      0.175 -0.1085E-19  0.2400E+00
      0.380 -0.3807E-13  0.2400E+00
      0.584 -0.3000E-08  0.2400E+00
      0.789 -0.4464E-05  0.2400E+00
      0.994  0.1091E-05  0.2400E+00
      1.198  0.1054E-02  0.2402E+00
      1.403 -0.5930E-04  0.2402E+00
      1.607  0.4294E-02  0.2411E+00
      1.812  0.2934E-02  0.2417E+00
      2.017  0.7510E-02  0.2432E+00
      2.221  0.7302E-02  0.2447E+00
      2.426  0.5316E-02  0.2458E+00
      2.630  0.4516E-02  0.2467E+00
      2.835 -0.6056E-03  0.2466E+00
      3.040  0.6812E-02  0.2480E+00
      3.244  0.1372E-01  0.2508E+00
      3.449  0.1825E-01  0.2545E+00
      3.653  0.1341E-01  0.2573E+00
      3.858  0.9032E-02  0.2591E+00
      4.063  0.2342E-01  0.2639E+00
      4.267  0.2025E-01  0.2681E+00
      4.472  0.2983E-01  0.2742E+00
      4.676  0.4420E-01  0.2832E+00
      4.881  0.4526E-01  0.2925E+00
      5.086  0.5975E-01  0.3047E+00
      5.290  0.5313E-01  0.3156E+00
      5.495  0.5715E-01  0.3273E+00
      5.699  0.5387E-01  0.3383E+00
      5.904  0.5264E-01  0.3491E+00
      6.109  0.4671E-01  0.3586E+00
      6.313  0.4873E-01  0.3686E+00
      6.518  0.6532E-01  0.3819E+00
      6.722  0.7183E-01  0.3966E+00
      6.927  0.8442E-01  0.4139E+00
      7.132  0.1023E+00  0.4348E+00
      7.336  0.8275E-01  0.4518E+00
      7.541  0.5901E-01  0.4638E+00
      7.745  0.5942E-01  0.4760E+00
      7.950  0.8958E-01  0.4943E+00
      8.155  0.8615E-01  0.5119E+00
      8.359  0.7077E-01  0.5264E+00
      8.564  0.4442E-01  0.5355E+00
      8.768  0.3527E-01  0.5427E+00
      8.973  0.4205E-01  0.5513E+00
      9.178  0.3487E-01  0.5585E+00
      9.382  0.7962E-02  0.5601E+00
      9.587 -0.4734E-03  0.5600E+00
      9.791 -0.1375E-04  0.5600E+00
      9.996 -0.6588E-08  0.5600E+00
     10.201 -0.7239E-13  0.5600E+00
     10.405  0.0000E+00  0.5600E+00
     10.610  0.0000E+00  0.5600E+00
     10.814  0.0000E+00  0.5600E+00
     11.019  0.0000E+00  0.5600E+00
     11.224  0.0000E+00  0.5600E+00
     11.428  0.0000E+00  0.5600E+00
     11.633  0.0000E+00  0.5600E+00
     11.837  0.0000E+00  0.5600E+00
     12.042  0.0000E+00  0.5600E+00
