   16   16  300    1
  0.2157260E+02  0.6935810E-09  0.7105392E-09  0.7004041E-09  0.1500000E-15
  1.000000000000000E-004
  CAR 
 automatically generated by mexm         
    140     14     84
 
  0.0000000E+00  0.0000000E+00  0.0000000E+00  0.3703704E-01
    1      -46.547628   1.000000
    2      -40.908922   1.000000
    3      -40.869533   1.000000
    4      -40.838647   1.000000
    5      -40.696216   1.000000
    6      -40.689839   1.000000
    7      -40.644966   1.000000
    8      -40.618759   1.000000
    9      -40.507183   1.000000
   10      -22.732974   1.000000
   11      -22.697265   1.000000
   12      -22.685801   1.000000
   13      -19.265835   1.000000
   14      -19.154214   1.000000
   15      -19.133862   1.000000
   16      -19.122983   1.000000
   17      -19.076224   1.000000
   18      -18.995457   1.000000
   19      -18.963211   1.000000
   20      -18.874758   1.000000
   21      -18.869913   1.000000
   22      -18.830979   1.000000
   23      -18.821268   1.000000
   24      -18.802721   1.000000
   25      -18.776378   1.000000
   26      -18.720196   1.000000
   27      -18.711640   1.000000
   28      -18.697381   1.000000
   29      -18.689521   1.000000
   30      -18.648323   1.000000
   31      -18.635358   1.000000
   32      -18.614763   1.000000
   33      -18.588294   1.000000
   34      -18.549101   1.000000
   35      -18.528880   1.000000
   36      -18.480437   1.000000
   37        1.121861   1.000000
   38        3.868109   1.000000
   39        3.933186   1.000000
   40        4.063938   1.000000
   41        4.215795   1.000000
   42        4.272631   1.000000
   43        4.397112   1.000000
   44        4.519828   1.000000
   45        4.557068   1.000000
   46        4.655390   1.000000
   47        4.773625   1.000000
   48        4.788134   1.000000
   49        4.993120   1.000000
   50        5.034172   1.000000
   51        5.065541   1.000000
   52        6.277184   1.000000
   53        6.299313   1.000000
   54        6.388706   1.000000
   55        6.497091   1.000000
   56        6.521782   1.000000
   57        6.621808   1.000000
   58        6.660506   1.000000
   59        6.684681   1.000000
   60        6.724292   1.000000
   61        6.783646   1.000000
   62        6.820097   1.000000
   63        6.853815   1.000000
   64        7.046259   1.000001
   65        7.091160   1.000008
   66        7.130197   1.000041
   67        7.259284   1.002881
   68        7.464042   1.014486
   69        7.682637   0.109389
   70        8.322150  -0.000000
   71        8.367377  -0.000000
   72        8.428937  -0.000000
   73        8.512098  -0.000000
   74        8.608903  -0.000000
   75        8.676944  -0.000000
   76        8.745979  -0.000000
   77        8.800078  -0.000000
   78        8.848210  -0.000000
   79        8.887759  -0.000000
   80        8.928462  -0.000000
   81        8.965694  -0.000000
   82        9.038659  -0.000000
   83        9.084907  -0.000000
   84        9.123728  -0.000000
 
  0.3333333E+00 -0.4944555E-19 -0.4065758E-19  0.7407407E-01
    1      -46.547721   1.000000
    2      -40.908367   1.000000
    3      -40.869373   1.000000
    4      -40.839188   1.000000
    5      -40.695887   1.000000
    6      -40.689778   1.000000
    7      -40.645924   1.000000
    8      -40.618662   1.000000
    9      -40.507551   1.000000
   10      -22.732858   1.000000
   11      -22.698169   1.000000
   12      -22.685838   1.000000
   13      -19.257243   1.000000
   14      -19.159510   1.000000
   15      -19.125374   1.000000
   16      -19.114470   1.000000
   17      -19.085174   1.000000
   18      -18.975589   1.000000
   19      -18.955019   1.000000
   20      -18.870278   1.000000
   21      -18.846829   1.000000
   22      -18.828685   1.000000
   23      -18.800903   1.000000
   24      -18.782288   1.000000
   25      -18.758324   1.000000
   26      -18.730734   1.000000
   27      -18.714302   1.000000
   28      -18.710284   1.000000
   29      -18.694865   1.000000
   30      -18.682432   1.000000
   31      -18.643838   1.000000
   32      -18.621952   1.000000
   33      -18.615630   1.000000
   34      -18.579854   1.000000
   35      -18.529580   1.000000
   36      -18.481600   1.000000
   37        1.624707   1.000000
   38        2.964316   1.000000
   39        4.110120   1.000000
   40        4.249359   1.000000
   41        4.375439   1.000000
   42        4.531383   1.000000
   43        4.601895   1.000000
   44        4.700741   1.000000
   45        4.734828   1.000000
   46        4.851360   1.000000
   47        4.946968   1.000000
   48        4.997224   1.000000
   49        5.048365   1.000000
   50        5.131136   1.000000
   51        5.561898   1.000000
   52        5.630585   1.000000
   53        5.855923   1.000000
   54        6.011452   1.000000
   55        6.391506   1.000000
   56        6.531835   1.000000
   57        6.633627   1.000000
   58        6.682912   1.000000
   59        6.844673   1.000000
   60        6.920624   1.000000
   61        6.970925   1.000000
   62        7.008177   1.000000
   63        7.022993   1.000000
   64        7.069818   1.000003
   65        7.092866   1.000009
   66        7.170297   1.000183
   67        7.289746   1.006109
   68        7.379387   1.028404
   69        7.780383  -0.035267
   70        7.835731  -0.024948
   71        7.926691  -0.004514
   72        8.005298  -0.000476
   73        8.022258  -0.000269
   74        8.076585  -0.000036
   75        8.119640  -0.000006
   76        8.296975  -0.000000
   77        8.416831  -0.000000
   78        8.509495  -0.000000
   79        8.585665  -0.000000
   80        8.657354  -0.000000
   81        8.744351  -0.000000
   82        8.795740  -0.000000
   83        8.902629  -0.000000
   84        9.093791  -0.000000
 
  0.6723324E-19  0.3333333E+00  0.0000000E+00  0.7407407E-01
    1      -46.547751   1.000000
    2      -40.908122   1.000000
    3      -40.869431   1.000000
    4      -40.839785   1.000000
    5      -40.696695   1.000000
    6      -40.689638   1.000000
    7      -40.645100   1.000000
    8      -40.618817   1.000000
    9      -40.507297   1.000000
   10      -22.733477   1.000000
   11      -22.697449   1.000000
   12      -22.686024   1.000000
   13      -19.259460   1.000000
   14      -19.159923   1.000000
   15      -19.132852   1.000000
   16      -19.109764   1.000000
   17      -19.077989   1.000000
   18      -18.992963   1.000000
   19      -18.953642   1.000000
   20      -18.880812   1.000000
   21      -18.865118   1.000000
   22      -18.852038   1.000000
   23      -18.814871   1.000000
   24      -18.789834   1.000000
   25      -18.762313   1.000000
   26      -18.724118   1.000000
   27      -18.708514   1.000000
   28      -18.705176   1.000000
   29      -18.695839   1.000000
   30      -18.666585   1.000000
   31      -18.640447   1.000000
   32      -18.618051   1.000000
   33      -18.580609   1.000000
   34      -18.555465   1.000000
   35      -18.531568   1.000000
   36      -18.483073   1.000000
   37        1.565335   1.000000
   38        3.020501   1.000000
   39        3.913034   1.000000
   40        4.201542   1.000000
   41        4.258970   1.000000
   42        4.428737   1.000000
   43        4.543806   1.000000
   44        4.720683   1.000000
   45        4.860042   1.000000
   46        4.882176   1.000000
   47        4.920246   1.000000
   48        5.032433   1.000000
   49        5.049001   1.000000
   50        5.226416   1.000000
   51        5.514904   1.000000
   52        5.850777   1.000000
   53        6.007006   1.000000
   54        6.023093   1.000000
   55        6.124722   1.000000
   56        6.172944   1.000000
   57        6.464426   1.000000
   58        6.532645   1.000000
   59        6.853412   1.000000
   60        6.909905   1.000000
   61        6.949256   1.000000
   62        6.979455   1.000000
   63        7.016933   1.000000
   64        7.101648   1.000013
   65        7.140362   1.000061
   66        7.194331   1.000417
   67        7.412289   1.035237
   68        7.760437  -0.030102
   69        7.798805  -0.034393
   70        7.918435  -0.005501
   71        7.999169  -0.000580
   72        8.081135  -0.000030
   73        8.124714  -0.000005
   74        8.147677  -0.000002
   75        8.268626  -0.000000
   76        8.423268  -0.000000
   77        8.551551  -0.000000
   78        8.562080  -0.000000
   79        8.617929  -0.000000
   80        8.679527  -0.000000
   81        8.723148  -0.000000
   82        8.747110  -0.000000
   83        8.820804  -0.000000
   84        8.919267  -0.000000
 
  0.3333333E+00  0.3333333E+00  0.4336809E-18  0.7407407E-01
    1      -46.547739   1.000000
    2      -40.907556   1.000000
    3      -40.869181   1.000000
    4      -40.840108   1.000000
    5      -40.695957   1.000000
    6      -40.690055   1.000000
    7      -40.645828   1.000000
    8      -40.618597   1.000000
    9      -40.507575   1.000000
   10      -22.733324   1.000000
   11      -22.698086   1.000000
   12      -22.685936   1.000000
   13      -19.244276   1.000000
   14      -19.141761   1.000000
   15      -19.128965   1.000000
   16      -19.114567   1.000000
   17      -19.080673   1.000000
   18      -18.973103   1.000000
   19      -18.950621   1.000000
   20      -18.878167   1.000000
   21      -18.859447   1.000000
   22      -18.829760   1.000000
   23      -18.805646   1.000000
   24      -18.781064   1.000000
   25      -18.762720   1.000000
   26      -18.726464   1.000000
   27      -18.720271   1.000000
   28      -18.707250   1.000000
   29      -18.702796   1.000000
   30      -18.693314   1.000000
   31      -18.660760   1.000000
   32      -18.623167   1.000000
   33      -18.615322   1.000000
   34      -18.566466   1.000000
   35      -18.527496   1.000000
   36      -18.476193   1.000000
   37        2.012828   1.000000
   38        3.108567   1.000000
   39        3.426331   1.000000
   40        4.016498   1.000000
   41        4.493589   1.000000
   42        4.618539   1.000000
   43        4.802489   1.000000
   44        4.937969   1.000000
   45        5.024195   1.000000
   46        5.108443   1.000000
   47        5.192088   1.000000
   48        5.324027   1.000000
   49        5.372622   1.000000
   50        5.482914   1.000000
   51        5.574226   1.000000
   52        5.766869   1.000000
   53        5.851666   1.000000
   54        6.037432   1.000000
   55        6.246064   1.000000
   56        6.335700   1.000000
   57        6.400102   1.000000
   58        6.534552   1.000000
   59        6.579353   1.000000
   60        6.760403   1.000000
   61        6.810869   1.000000
   62        6.869911   1.000000
   63        6.898196   1.000000
   64        7.041842   1.000001
   65        7.124676   1.000033
   66        7.196680   1.000450
   67        7.244695   1.001939
   68        7.348819   1.019129
   69        7.416731   1.035445
   70        7.514960   0.910435
   71        7.672094   0.147737
   72        7.705572   0.043089
   73        7.819181  -0.029853
   74        7.943456  -0.002952
   75        8.004229  -0.000493
   76        8.103979  -0.000012
   77        8.214795  -0.000000
   78        8.296425  -0.000000
   79        8.330895  -0.000000
   80        8.453248  -0.000000
   81        8.653641  -0.000000
   82        8.934069  -0.000000
   83        9.044629  -0.000000
   84        9.144668  -0.000000
 
 -0.3333333E+00  0.3333333E+00  0.4336809E-18  0.7407407E-01
    1      -46.547723   1.000000
    2      -40.907551   1.000000
    3      -40.869165   1.000000
    4      -40.840088   1.000000
    5      -40.696212   1.000000
    6      -40.689761   1.000000
    7      -40.645821   1.000000
    8      -40.618600   1.000000
    9      -40.507562   1.000000
   10      -22.733299   1.000000
   11      -22.698060   1.000000
   12      -22.685918   1.000000
   13      -19.244189   1.000000
   14      -19.143164   1.000000
   15      -19.128355   1.000000
   16      -19.109624   1.000000
   17      -19.083905   1.000000
   18      -18.977453   1.000000
   19      -18.951788   1.000000
   20      -18.871497   1.000000
   21      -18.854542   1.000000
   22      -18.836679   1.000000
   23      -18.802813   1.000000
   24      -18.784750   1.000000
   25      -18.759796   1.000000
   26      -18.732032   1.000000
   27      -18.721121   1.000000
   28      -18.709122   1.000000
   29      -18.700805   1.000000
   30      -18.689370   1.000000
   31      -18.666033   1.000000
   32      -18.619718   1.000000
   33      -18.612258   1.000000
   34      -18.561523   1.000000
   35      -18.528812   1.000000
   36      -18.480371   1.000000
   37        2.021613   1.000000
   38        3.049659   1.000000
   39        3.484750   1.000000
   40        4.009197   1.000000
   41        4.497297   1.000000
   42        4.630102   1.000000
   43        4.780917   1.000000
   44        4.918082   1.000000
   45        5.044464   1.000000
   46        5.113765   1.000000
   47        5.187151   1.000000
   48        5.302020   1.000000
   49        5.396548   1.000000
   50        5.471874   1.000000
   51        5.601094   1.000000
   52        5.777868   1.000000
   53        5.851415   1.000000
   54        6.044268   1.000000
   55        6.224458   1.000000
   56        6.324543   1.000000
   57        6.420118   1.000000
   58        6.587431   1.000000
   59        6.624192   1.000000
   60        6.692655   1.000000
   61        6.772477   1.000000
   62        6.815022   1.000000
   63        6.910712   1.000000
   64        7.053179   1.000001
   65        7.120419   1.000028
   66        7.188750   1.000346
   67        7.244429   1.001925
   68        7.321705   1.011975
   69        7.452344   1.024768
   70        7.500316   0.951499
   71        7.704999   0.044463
   72        7.738397  -0.013164
   73        7.801302  -0.033989
   74        7.944692  -0.002857
   75        7.998545  -0.000592
   76        8.103144  -0.000012
   77        8.200639  -0.000000
   78        8.259890  -0.000000
   79        8.356690  -0.000000
   80        8.457771  -0.000000
   81        8.662630  -0.000000
   82        8.938336  -0.000000
   83        9.004922  -0.000000
   84        9.191017  -0.000000
 
 -0.2710505E-19  0.2168404E-18  0.3333333E+00  0.7407407E-01
    1      -46.547715   1.000000
    2      -40.903759   1.000000
    3      -40.876024   1.000000
    4      -40.837801   1.000000
    5      -40.696123   1.000000
    6      -40.689687   1.000000
    7      -40.644935   1.000000
    8      -40.618943   1.000000
    9      -40.507405   1.000000
   10      -22.732925   1.000000
   11      -22.697167   1.000000
   12      -22.686519   1.000000
   13      -19.216124   1.000000
   14      -19.141857   1.000000
   15      -19.122928   1.000000
   16      -19.112832   1.000000
   17      -19.083308   1.000000
   18      -19.041665   1.000000
   19      -18.990000   1.000000
   20      -18.886736   1.000000
   21      -18.848374   1.000000
   22      -18.829434   1.000000
   23      -18.815456   1.000000
   24      -18.786338   1.000000
   25      -18.767052   1.000000
   26      -18.738508   1.000000
   27      -18.724626   1.000000
   28      -18.696658   1.000000
   29      -18.681671   1.000000
   30      -18.647926   1.000000
   31      -18.628135   1.000000
   32      -18.625661   1.000000
   33      -18.586483   1.000000
   34      -18.562495   1.000000
   35      -18.542970   1.000000
   36      -18.485375   1.000000
   37        1.596272   1.000000
   38        3.020176   1.000000
   39        4.052681   1.000000
   40        4.271060   1.000000
   41        4.322837   1.000000
   42        4.341625   1.000000
   43        4.424514   1.000000
   44        4.728170   1.000000
   45        4.764209   1.000000
   46        4.857844   1.000000
   47        4.887961   1.000000
   48        5.030792   1.000000
   49        5.128372   1.000000
   50        5.271973   1.000000
   51        5.486598   1.000000
   52        5.832055   1.000000
   53        5.924603   1.000000
   54        5.972723   1.000000
   55        6.187387   1.000000
   56        6.213339   1.000000
   57        6.478186   1.000000
   58        6.507373   1.000000
   59        6.923034   1.000000
   60        6.971216   1.000000
   61        6.984212   1.000000
   62        7.032592   1.000001
   63        7.075728   1.000004
   64        7.160181   1.000127
   65        7.191255   1.000376
   66        7.319023   1.011372
   67        7.348493   1.019033
   68        7.653995   0.224502
   69        7.791636  -0.035217
   70        7.880183  -0.012385
   71        7.938524  -0.003355
   72        7.966602  -0.001562
   73        8.008008  -0.000435
   74        8.066014  -0.000055
   75        8.203167  -0.000000
   76        8.332307  -0.000000
   77        8.411031  -0.000000
   78        8.583678  -0.000000
   79        8.612855  -0.000000
   80        8.671799  -0.000000
   81        8.748711  -0.000000
   82        8.840637  -0.000000
   83        8.918093  -0.000000
   84        8.982343  -0.000000
 
  0.3333333E+00  0.0000000E+00  0.3333333E+00  0.7407407E-01
    1      -46.547709   1.000000
    2      -40.903279   1.000000
    3      -40.875586   1.000000
    4      -40.838299   1.000000
    5      -40.695782   1.000000
    6      -40.689501   1.000000
    7      -40.645734   1.000000
    8      -40.618837   1.000000
    9      -40.507675   1.000000
   10      -22.732833   1.000000
   11      -22.697827   1.000000
   12      -22.686335   1.000000
   13      -19.203388   1.000000
   14      -19.141895   1.000000
   15      -19.116679   1.000000
   16      -19.095699   1.000000
   17      -19.083416   1.000000
   18      -19.036002   1.000000
   19      -18.965749   1.000000
   20      -18.885524   1.000000
   21      -18.843288   1.000000
   22      -18.824109   1.000000
   23      -18.801970   1.000000
   24      -18.775057   1.000000
   25      -18.767146   1.000000
   26      -18.746588   1.000000
   27      -18.733541   1.000000
   28      -18.712114   1.000000
   29      -18.687649   1.000000
   30      -18.677199   1.000000
   31      -18.643058   1.000000
   32      -18.636013   1.000000
   33      -18.597116   1.000000
   34      -18.581231   1.000000
   35      -18.532857   1.000000
   36      -18.484703   1.000000
   37        2.051012   1.000000
   38        3.140441   1.000000
   39        3.428385   1.000000
   40        3.919922   1.000000
   41        4.609941   1.000000
   42        4.698328   1.000000
   43        4.799452   1.000000
   44        4.951151   1.000000
   45        5.011250   1.000000
   46        5.051629   1.000000
   47        5.172026   1.000000
   48        5.307540   1.000000
   49        5.413627   1.000000
   50        5.488372   1.000000
   51        5.549500   1.000000
   52        5.707526   1.000000
   53        5.865789   1.000000
   54        6.075786   1.000000
   55        6.135130   1.000000
   56        6.357615   1.000000
   57        6.504664   1.000000
   58        6.543429   1.000000
   59        6.663409   1.000000
   60        6.735456   1.000000
   61        6.794839   1.000000
   62        6.859955   1.000000
   63        6.956539   1.000000
   64        7.065661   1.000003
   65        7.111389   1.000019
   66        7.220494   1.000957
   67        7.296533   1.007121
   68        7.363349   1.023534
   69        7.427077   1.034862
   70        7.513329   0.915482
   71        7.651051   0.238189
   72        7.744501  -0.019285
   73        7.798425  -0.034449
   74        7.854199  -0.019318
   75        7.922349  -0.005013
   76        8.070693  -0.000045
   77        8.156336  -0.000001
   78        8.219388  -0.000000
   79        8.289406  -0.000000
   80        8.394549  -0.000000
   81        8.599520  -0.000000
   82        8.901369  -0.000000
   83        9.016342  -0.000000
   84        9.109669  -0.000000
 
 -0.3333333E+00  0.2168404E-18  0.3333333E+00  0.7407407E-01
    1      -46.547713   1.000000
    2      -40.903284   1.000000
    3      -40.875597   1.000000
    4      -40.838289   1.000000
    5      -40.695759   1.000000
    6      -40.689535   1.000000
    7      -40.645770   1.000000
    8      -40.618802   1.000000
    9      -40.507684   1.000000
   10      -22.732849   1.000000
   11      -22.697840   1.000000
   12      -22.686332   1.000000
   13      -19.203448   1.000000
   14      -19.140653   1.000000
   15      -19.117921   1.000000
   16      -19.094106   1.000000
   17      -19.085744   1.000000
   18      -19.035508   1.000000
   19      -18.963865   1.000000
   20      -18.890630   1.000000
   21      -18.843453   1.000000
   22      -18.820199   1.000000
   23      -18.798922   1.000000
   24      -18.776826   1.000000
   25      -18.768738   1.000000
   26      -18.748071   1.000000
   27      -18.733476   1.000000
   28      -18.707926   1.000000
   29      -18.693051   1.000000
   30      -18.680260   1.000000
   31      -18.638917   1.000000
   32      -18.633209   1.000000
   33      -18.601009   1.000000
   34      -18.573178   1.000000
   35      -18.537029   1.000000
   36      -18.486016   1.000000
   37        2.047515   1.000000
   38        3.187651   1.000000
   39        3.377658   1.000000
   40        3.925098   1.000000
   41        4.596429   1.000000
   42        4.737736   1.000000
   43        4.782841   1.000000
   44        4.970924   1.000000
   45        5.010750   1.000000
   46        5.039666   1.000000
   47        5.182832   1.000000
   48        5.266941   1.000000
   49        5.403312   1.000000
   50        5.508496   1.000000
   51        5.557833   1.000000
   52        5.684008   1.000000
   53        5.868822   1.000000
   54        6.090602   1.000000
   55        6.136706   1.000000
   56        6.327781   1.000000
   57        6.516183   1.000000
   58        6.545699   1.000000
   59        6.670826   1.000000
   60        6.759841   1.000000
   61        6.783845   1.000000
   62        6.847605   1.000000
   63        6.958467   1.000000
   64        7.055540   1.000002
   65        7.095406   1.000010
   66        7.209047   1.000671
   67        7.309949   1.009485
   68        7.372757   1.026426
   69        7.441967   1.030675
   70        7.566268   0.694521
   71        7.668849   0.160511
   72        7.715430   0.021689
   73        7.776220  -0.034811
   74        7.835182  -0.025117
   75        7.947476  -0.002654
   76        8.079571  -0.000032
   77        8.138300  -0.000003
   78        8.201620  -0.000000
   79        8.275901  -0.000000
   80        8.407339  -0.000000
   81        8.618883  -0.000000
   82        8.879135  -0.000000
   83        9.020368  -0.000000
   84        9.157637  -0.000000
 
  0.6776264E-19  0.3333333E+00  0.3333333E+00  0.7407407E-01
    1      -46.547764   1.000000
    2      -40.903083   1.000000
    3      -40.875512   1.000000
    4      -40.839031   1.000000
    5      -40.696530   1.000000
    6      -40.689459   1.000000
    7      -40.644925   1.000000
    8      -40.619015   1.000000
    9      -40.507461   1.000000
   10      -22.733428   1.000000
   11      -22.697231   1.000000
   12      -22.686557   1.000000
   13      -19.206257   1.000000
   14      -19.146096   1.000000
   15      -19.119057   1.000000
   16      -19.095366   1.000000
   17      -19.077345   1.000000
   18      -19.033069   1.000000
   19      -18.988394   1.000000
   20      -18.881954   1.000000
   21      -18.864216   1.000000
   22      -18.851700   1.000000
   23      -18.812939   1.000000
   24      -18.788817   1.000000
   25      -18.762553   1.000000
   26      -18.744650   1.000000
   27      -18.738315   1.000000
   28      -18.702739   1.000000
   29      -18.686534   1.000000
   30      -18.654986   1.000000
   31      -18.633956   1.000000
   32      -18.623067   1.000000
   33      -18.574311   1.000000
   34      -18.558845   1.000000
   35      -18.539391   1.000000
   36      -18.484852   1.000000
   37        1.979088   1.000000
   38        3.149468   1.000000
   39        3.473660   1.000000
   40        3.940103   1.000000
   41        4.509221   1.000000
   42        4.535311   1.000000
   43        4.677344   1.000000
   44        4.903556   1.000000
   45        5.030616   1.000000
   46        5.057243   1.000000
   47        5.123150   1.000000
   48        5.263095   1.000000
   49        5.297063   1.000000
   50        5.415399   1.000000
   51        5.592092   1.000000
   52        5.731080   1.000000
   53        5.758219   1.000000
   54        6.174657   1.000000
   55        6.261916   1.000000
   56        6.332971   1.000000
   57        6.400415   1.000000
   58        6.590771   1.000000
   59        6.614241   1.000000
   60        6.685999   1.000000
   61        6.796885   1.000000
   62        6.965608   1.000000
   63        7.002611   1.000000
   64        7.057460   1.000002
   65        7.154175   1.000102
   66        7.253800   1.002489
   67        7.351022   1.019781
   68        7.403610   1.034198
   69        7.563402   0.709120
   70        7.716752   0.019130
   71        7.795204  -0.034873
   72        7.862405  -0.016958
   73        7.911474  -0.006459
   74        7.975641  -0.001200
   75        8.000683  -0.000553
   76        8.031361  -0.000196
   77        8.078891  -0.000033
   78        8.188324  -0.000000
   79        8.303631  -0.000000
   80        8.352534  -0.000000
   81        8.476397  -0.000000
   82        8.999723  -0.000000
   83        9.116449  -0.000000
   84        9.209848  -0.000000
 
  0.3333333E+00  0.3333333E+00  0.3333333E+00  0.7407407E-01
    1      -46.547710   1.000000
    2      -40.902629   1.000000
    3      -40.875056   1.000000
    4      -40.839346   1.000000
    5      -40.695790   1.000000
    6      -40.689843   1.000000
    7      -40.645583   1.000000
    8      -40.618797   1.000000
    9      -40.507689   1.000000
   10      -22.733229   1.000000
   11      -22.697807   1.000000
   12      -22.686368   1.000000
   13      -19.189637   1.000000
   14      -19.129932   1.000000
   15      -19.112360   1.000000
   16      -19.097514   1.000000
   17      -19.079824   1.000000
   18      -19.024676   1.000000
   19      -18.969078   1.000000
   20      -18.885203   1.000000
   21      -18.867730   1.000000
   22      -18.831640   1.000000
   23      -18.798061   1.000000
   24      -18.783178   1.000000
   25      -18.763833   1.000000
   26      -18.755585   1.000000
   27      -18.731523   1.000000
   28      -18.721452   1.000000
   29      -18.704559   1.000000
   30      -18.664149   1.000000
   31      -18.646579   1.000000
   32      -18.634078   1.000000
   33      -18.595812   1.000000
   34      -18.565878   1.000000
   35      -18.538983   1.000000
   36      -18.485667   1.000000
   37        2.411973   1.000000
   38        3.424473   1.000000
   39        3.523527   1.000000
   40        4.001230   1.000000
   41        4.256177   1.000000
   42        4.427703   1.000000
   43        4.686308   1.000000
   44        5.152709   1.000000
   45        5.228468   1.000000
   46        5.382163   1.000000
   47        5.473907   1.000000
   48        5.552700   1.000000
   49        5.590060   1.000000
   50        5.724419   1.000000
   51        5.801031   1.000000
   52        5.885066   1.000000
   53        5.951214   1.000000
   54        5.992546   1.000000
   55        6.215012   1.000000
   56        6.334551   1.000000
   57        6.412928   1.000000
   58        6.445796   1.000000
   59        6.528924   1.000000
   60        6.622616   1.000000
   61        6.737434   1.000000
   62        6.796147   1.000000
   63        6.852398   1.000000
   64        6.891398   1.000000
   65        6.920814   1.000000
   66        7.035701   1.000001
   67        7.083765   1.000006
   68        7.167881   1.000168
   69        7.226598   1.001150
   70        7.323487   1.012387
   71        7.418590   1.035456
   72        7.472501   1.004294
   73        7.566376   0.693966
   74        7.621707   0.388947
   75        7.728909  -0.001155
   76        7.825780  -0.027963
   77        7.869254  -0.015101
   78        7.903737  -0.007671
   79        7.978906  -0.001088
   80        8.080104  -0.000031
   81        8.195267  -0.000000
   82        8.286331  -0.000000
   83        8.362361  -0.000000
   84        8.896390  -0.000000
 
 -0.3333333E+00  0.3333333E+00  0.3333333E+00  0.7407407E-01
    1      -46.547715   1.000000
    2      -40.902636   1.000000
    3      -40.875056   1.000000
    4      -40.839342   1.000000
    5      -40.696056   1.000000
    6      -40.689580   1.000000
    7      -40.645594   1.000000
    8      -40.618806   1.000000
    9      -40.507690   1.000000
   10      -22.733227   1.000000
   11      -22.697811   1.000000
   12      -22.686393   1.000000
   13      -19.189244   1.000000
   14      -19.130615   1.000000
   15      -19.114952   1.000000
   16      -19.093768   1.000000
   17      -19.078725   1.000000
   18      -19.025480   1.000000
   19      -18.971762   1.000000
   20      -18.890973   1.000000
   21      -18.858661   1.000000
   22      -18.833928   1.000000
   23      -18.795499   1.000000
   24      -18.786250   1.000000
   25      -18.766819   1.000000
   26      -18.747564   1.000000
   27      -18.739307   1.000000
   28      -18.715070   1.000000
   29      -18.695503   1.000000
   30      -18.670859   1.000000
   31      -18.648601   1.000000
   32      -18.637550   1.000000
   33      -18.601216   1.000000
   34      -18.564064   1.000000
   35      -18.536541   1.000000
   36      -18.484140   1.000000
   37        2.416071   1.000000
   38        3.394573   1.000000
   39        3.541561   1.000000
   40        4.012686   1.000000
   41        4.239812   1.000000
   42        4.441703   1.000000