automatically generated by mexm         
           1
     6.931102    0.006095   -0.001528
     0.006375    7.100773    0.025540
    -0.001591    0.024615    6.999281
   Ta   Hf   Zr   Nb
   3   4   8   1
Direct configuration=     1
   0.26089878  0.79349290  0.75844908
   0.48923955  0.97963484  0.03150408
   0.74274454  0.72445058  0.23214143
   0.00949424  0.97813714  0.03485104
   0.25102620  0.26251558  0.24457761
   0.25314676  0.21632461  0.75813271
   0.73953691  0.78867177  0.76834952
   0.00049288  0.97877415  0.48123991
   0.01038318  0.51874609  0.97515256
   0.00417278  0.51907507  0.51150205
   0.74876702  0.26802237  0.23895610
   0.50034415  0.98453945  0.47243318
   0.74708045  0.22885701  0.75827527
   0.48741472  0.51559554  0.97913021
   0.49750789  0.51570457  0.51038377
   0.25774994  0.72745834  0.24492148
automatically generated by mexm         
           1
     6.928352    0.006106   -0.001567
     0.006386    7.098100    0.025716
    -0.001630    0.024788    6.996524
   Ta   Hf   Zr   Nb
   3   4   8   1
Direct configuration=     2
   0.26091176  0.79348905  0.75843551
   0.48923650  0.97966461  0.03149322
   0.74275202  0.72447293  0.23211604
   0.00950013  0.97814670  0.03483780
   0.25100744  0.26250002  0.24459289
   0.25313771  0.21632946  0.75812074
   0.73952862  0.78865766  0.76836256
   0.00048947  0.97876675  0.48124941
   0.01039214  0.51873476  0.97515514
   0.00417572  0.51907359  0.51150910
   0.74878240  0.26800666  0.23895321
   0.50034504  0.98454680  0.47244652
   0.74708911  0.22886532  0.75827440
   0.48741069  0.51557157  0.97913120
   0.49750769  0.51569800  0.51040036
   0.25773358  0.72747609  0.24492190
automatically generated by mexm         
           1
     6.928121    0.006122   -0.001608
     0.006402    7.098237    0.025928
    -0.001671    0.024999    6.996366
   Ta   Hf   Zr   Nb
   3   4   8   1
Direct configuration=     3
   0.26091935  0.79348680  0.75842757
   0.48923471  0.97968202  0.03148687
   0.74275639  0.72448601  0.23210119
   0.00950357  0.97815230  0.03483005
   0.25099647  0.26249092  0.24460184
   0.25313242  0.21633230  0.75811374
   0.73952377  0.78864941  0.76837019
   0.00048747  0.97876243  0.48125497
   0.01039738  0.51872814  0.97515664
   0.00417744  0.51907273  0.51151322
   0.74879140  0.26799746  0.23895152
   0.50034556  0.98455111  0.47245433
   0.74709417  0.22887018  0.75827388
   0.48740834  0.51555755  0.97913177
   0.49750757  0.51569417  0.51041006
   0.25772400  0.72748648  0.24492214
automatically generated by mexm         
           1
     6.927426    0.006170   -0.001730
     0.006451    7.098647    0.026564
    -0.001795    0.025629    6.995895
   Ta   Hf   Zr   Nb
   3   4   8   1
Direct configuration=     4
   0.26092096  0.79345814  0.75839929
   0.48924446  0.97974331  0.03146828
   0.74276968  0.72450761  0.23209248
   0.00949876  0.97818433  0.03480709
   0.25097281  0.26247365  0.24463202
   0.25311697  0.21635696  0.75808821
   0.73952546  0.78862350  0.76836850
   0.00047585  0.97876993  0.48126868
   0.01039921  0.51869695  0.97515572
   0.00417525  0.51905603  0.51152247
   0.74881000  0.26797880  0.23895688
   0.50035593  0.98457918  0.47247734
   0.74710821  0.22889028  0.75826310
   0.48741159  0.51550770  0.97913324
   0.49751451  0.51566989  0.51042853
   0.25770033  0.72750373  0.24493815
automatically generated by mexm         
           1
     6.926035    0.006267   -0.001974
     0.006547    7.099467    0.027837
    -0.002043    0.026890    6.994951
   Ta   Hf   Zr   Nb
   3   4   8   1
Direct configuration=     5
   0.26092579  0.79337217  0.75831443
   0.48927371  0.97992717  0.03141252
   0.74280953  0.72457242  0.23206635
   0.00948435  0.97828042  0.03473820
   0.25090185  0.26242187  0.24472256
   0.25307061  0.21643097  0.75801161
   0.73953052  0.78854575  0.76836344
   0.00044100  0.97879244  0.48130982
   0.01040471  0.51860339  0.97515297
   0.00416871  0.51900595  0.51155025
   0.74886582  0.26792281  0.23897294
   0.50038707  0.98466341  0.47254638
   0.74715031  0.22895057  0.75823076
   0.48742136  0.51535814  0.97913764
   0.49753536  0.51559704  0.51048394
   0.25762931  0.72755548  0.24498617
automatically generated by mexm         
           1
     6.926756    0.006217   -0.001848
     0.006497    7.099042    0.027177
    -0.001914    0.026236    6.995440
   Ta   Hf   Zr   Nb
   3   4   8   1
Direct configuration=     6
   0.26093545  0.79320023  0.75814473
   0.48933221  0.98029488  0.03130096
   0.74288925  0.72470202  0.23201406
   0.00945552  0.97847262  0.03460040
   0.25075990  0.26231829  0.24490368
   0.25297788  0.21657898  0.75785839
   0.73954064  0.78839027  0.76835333
   0.00037130  0.97883744  0.48139211
   0.01041571  0.51841628  0.97514747
   0.00415561  0.51890577  0.51160580
   0.74897748  0.26781084  0.23900508
   0.50044934  0.98483184  0.47268446
   0.74723452  0.22907116  0.75816606
   0.48744091  0.51505904  0.97914647
   0.49757705  0.51545136  0.51059479
   0.25748725  0.72765898  0.24508221
automatically generated by mexm         
           1
     6.927913    0.006171   -0.001764
     0.006451    7.099037    0.026834
    -0.001830    0.025896    6.996143
   Ta   Hf   Zr   Nb
   3   4   8   1
Direct configuration=     7
   0.26093044  0.79328939  0.75823275
   0.48930186  0.98010417  0.03135887
   0.74284790  0.72463480  0.23204120
   0.00947048  0.97837293  0.03467191
   0.25083354  0.26237203  0.24480972
   0.25302599  0.21650220  0.75793789
   0.73953539  0.78847091  0.76835856
   0.00040746  0.97881411  0.48134943
   0.01041000  0.51851332  0.97515030
   0.00416240  0.51895773  0.51157697
   0.74891955  0.26786891  0.23898840
   0.50041703  0.98474450  0.47261284
   0.74719083  0.22900861  0.75819963
   0.48743076  0.51521416  0.97914186
   0.49755541  0.51552693  0.51053727
   0.25756095  0.72760531  0.24503240
automatically generated by mexm         
           1
     6.929274    0.006117   -0.001666
     0.006397    7.099031    0.026431
    -0.001731    0.025495    6.996970
   Ta   Hf   Zr   Nb
   3   4   8   1
Direct configuration=     8
   0.26096308  0.79325450  0.75822954
   0.48930290  0.98016094  0.03132610
   0.74283393  0.72470316  0.23198762
   0.00947952  0.97839797  0.03461670
   0.25078290  0.26235280  0.24489516
   0.25299819  0.21650952  0.75787241
   0.73950987  0.78841032  0.76840422
   0.00038062  0.97878616  0.48135126
   0.01042677  0.51850137  0.97516101
   0.00415973  0.51896113  0.51158362
   0.74895728  0.26784357  0.23900945
   0.50043624  0.98476273  0.47263082
   0.74722313  0.22901423  0.75818166
   0.48741823  0.51516526  0.97917765
   0.49756900  0.51552538  0.51054058
   0.25755861  0.72765096  0.24503221
automatically generated by mexm         
           1
     6.929537    0.006081   -0.001603
     0.006362    7.098012    0.026324
    -0.001667    0.025387    6.996632
   Ta   Hf   Zr   Nb
   3   4   8   1
Direct configuration=     9
   0.26100146  0.79321347  0.75822575
   0.48930413  0.98022773  0.03128757
   0.74281751  0.72478357  0.23192461
   0.00949016  0.97842743  0.03455177
   0.25072333  0.26233019  0.24499566
   0.25296549  0.21651812  0.75779539
   0.73947986  0.78833906  0.76845792
   0.00034905  0.97875328  0.48135342
   0.01044648  0.51848731  0.97517359
   0.00415659  0.51896512  0.51159143
   0.74900165  0.26781377  0.23903421
   0.50045884  0.98478418  0.47265197
   0.74726112  0.22902084  0.75816052
   0.48740349  0.51510774  0.97921973
   0.49758497  0.51552355  0.51054447
   0.25755586  0.72770465  0.24503199
automatically generated by mexm         
           1
     6.930327    0.005975   -0.001413
     0.006257    7.094956    0.026002
    -0.001476    0.025062    6.995615
   Ta   Hf   Zr   Nb
   3   4   8   1
Direct configuration=    10
   0.26104375  0.79320417  0.75824155
   0.48928855  0.98024934  0.03127068
   0.74278958  0.72484507  0.23186194
   0.00951212  0.97842847  0.03450448
   0.25067941  0.26232442  0.24507371
   0.25294776  0.21650527  0.75773771
   0.73944198  0.78829265  0.76851469
   0.00032758  0.97870636  0.48134691
   0.01046900  0.51849839  0.97519125
   0.00415649  0.51898661  0.51158955
   0.74903383  0.26779445  0.23905080
   0.50047305  0.98478313  0.47265679
   0.74728667  0.22901427  0.75815060
   0.48738030  0.51508662  0.97926084
   0.49759340  0.51554459  0.51053412
   0.25757651  0.72773618  0.24501436
automatically generated by mexm         
           1
     6.930327    0.005975   -0.001413
     0.006257    7.094956    0.026002
    -0.001476    0.025062    6.995615
   Ta   Hf   Zr   Nb
   3   4   8   1
Direct configuration=    11
   0.26117061  0.79317629  0.75828894
   0.48924183  0.98031419  0.03122000
   0.74270582  0.72502960  0.23167394
   0.00957798  0.97843157  0.03436260
   0.25054765  0.26230714  0.24530789
   0.25289457  0.21646669  0.75756467
   0.73932835  0.78815338  0.76868503
   0.00026317  0.97856558  0.48132737
   0.01053653  0.51853165  0.97524424
   0.00415621  0.51905109  0.51158391
   0.74913037  0.26773651  0.23910057
   0.50051568  0.98478000  0.47267125
   0.74736333  0.22899454  0.75812085
   0.48731074  0.51502325  0.97938417
   0.49761870  0.51560773  0.51050307
   0.25763845  0.72783079  0.24496148
