       N       E                     dE             d eps       ncg     rms          rms(c)
DAV:   1     0.172124184504E+04    0.17212E+04   -0.10474E+05  5240   0.104E+03
DAV:   2    -0.786197800717E+02   -0.17999E+04   -0.17252E+04  5212   0.360E+02
DAV:   3    -0.333969572582E+03   -0.25535E+03   -0.24181E+03  8120   0.106E+02
DAV:   4    -0.366689479846E+03   -0.32720E+02   -0.31176E+02  8224   0.316E+01
DAV:   5    -0.370134427336E+03   -0.34449E+01   -0.33645E+01  7480   0.102E+01    0.655E+01
RMM:   6    -0.360366861611E+03    0.97676E+01   -0.25113E+01  7053   0.961E+00    0.312E+01
RMM:   7    -0.363994290525E+03   -0.36274E+01   -0.32363E+01  7336   0.783E+00    0.139E+01
RMM:   8    -0.355988089042E+03    0.80062E+01   -0.86983E+00  7226   0.422E+00    0.451E+00
RMM:   9    -0.355502473094E+03    0.48562E+00   -0.30395E+00  7355   0.200E+00    0.281E+00
RMM:  10    -0.355526435121E+03   -0.23962E-01   -0.75634E-01  7332   0.122E+00    0.182E+00
RMM:  11    -0.355496038523E+03    0.30397E-01   -0.20367E-01  7280   0.660E-01    0.978E-01
RMM:  12    -0.355489665045E+03    0.63735E-02   -0.98018E-02  7406   0.475E-01    0.451E-01
RMM:  13    -0.355487480995E+03    0.21840E-02   -0.30707E-02  7435   0.234E-01    0.245E-01
RMM:  14    -0.355487719815E+03   -0.23882E-03   -0.12835E-02  7471   0.120E-01    0.158E-01
RMM:  15    -0.355488124239E+03   -0.40442E-03   -0.67421E-03  7340   0.825E-02    0.889E-02
RMM:  16    -0.355488344025E+03   -0.21979E-03   -0.30540E-03  7087   0.512E-02    0.561E-02
RMM:  17    -0.355488331128E+03    0.12897E-04   -0.12638E-03  6180   0.318E-02    0.279E-02
RMM:  18    -0.355488364606E+03   -0.33478E-04   -0.70992E-04  6122   0.257E-02    0.128E-02
RMM:  19    -0.355488391050E+03   -0.26444E-04   -0.31150E-04  5066   0.162E-02    0.855E-03
RMM:  20    -0.355488397720E+03   -0.66699E-05   -0.12245E-04  4268   0.121E-02    0.637E-03
RMM:  21    -0.355488401801E+03   -0.40811E-05   -0.71819E-05  4243   0.116E-02
   1 F= -.35548840E+03 E0= -.35549487E+03  d E =-.355488E+03
       N       E                     dE             d eps       ncg     rms          rms(c)
DAV:   1    -0.355556299281E+03   -0.67902E-01   -0.25264E+00  5744   0.490E+00    0.171E+00
RMM:   2    -0.355540691983E+03    0.15607E-01   -0.19753E-01  7020   0.112E+00    0.563E-01
RMM:   3    -0.355535389626E+03    0.53024E-02   -0.50725E-02  7445   0.405E-01    0.428E-01
RMM:   4    -0.355530257839E+03    0.51318E-02   -0.12251E-02  7479   0.225E-01    0.229E-01
RMM:   5    -0.355529837400E+03    0.42044E-03   -0.40657E-03  7408   0.114E-01    0.180E-01
RMM:   6    -0.355529857785E+03   -0.20384E-04   -0.14944E-03  7695   0.641E-02    0.115E-01
RMM:   7    -0.355529877177E+03   -0.19392E-04   -0.68332E-04  6775   0.449E-02    0.596E-02
RMM:   8    -0.355529890641E+03   -0.13464E-04   -0.39834E-04  6522   0.296E-02    0.380E-02
RMM:   9    -0.355529904573E+03   -0.13932E-04   -0.16560E-04  6122   0.233E-02    0.278E-02
RMM:  10    -0.355529908977E+03   -0.44040E-05   -0.71166E-05  4719   0.152E-02
   2 F= -.35552991E+03 E0= -.35553670E+03  d E =-.415072E-01
       N       E                     dE             d eps       ncg     rms          rms(c)
DAV:   1    -0.355786654717E+03   -0.25675E+00   -0.20717E+01  5280   0.140E+01    0.478E+00
RMM:   2    -0.355660851416E+03    0.12580E+00   -0.15954E+00  7090   0.319E+00    0.161E+00
RMM:   3    -0.355613707328E+03    0.47144E-01   -0.40577E-01  7480   0.114E+00    0.122E+00
RMM:   4    -0.355572191933E+03    0.41515E-01   -0.99548E-02  7485   0.639E-01    0.647E-01
RMM:   5    -0.355568341656E+03    0.38503E-02   -0.31407E-02  7335   0.340E-01    0.508E-01
RMM:   6    -0.355568763575E+03   -0.42192E-03   -0.13013E-02  7921   0.183E-01    0.328E-01
RMM:   7    -0.355569158043E+03   -0.39447E-03   -0.55572E-03  8254   0.136E-01    0.168E-01
RMM:   8    -0.355569370050E+03   -0.21201E-03   -0.32488E-03  8294   0.767E-02    0.113E-01
RMM:   9    -0.355569542339E+03   -0.17229E-03   -0.11252E-03  7675   0.568E-02    0.834E-02
RMM:  10    -0.355569663509E+03   -0.12117E-03   -0.60876E-04  6814   0.340E-02    0.512E-02
RMM:  11    -0.355569686636E+03   -0.23127E-04   -0.22918E-04  5843   0.263E-02    0.259E-02
RMM:  12    -0.355569692552E+03   -0.59164E-05   -0.16075E-04  5696   0.205E-02    0.113E-02
RMM:  13    -0.355569690813E+03    0.17392E-05   -0.64401E-05  4887   0.162E-02
   3 F= -.35556969E+03 E0= -.35557735E+03  d E =-.812890E-01
       N       E                     dE             d eps       ncg     rms          rms(c)
DAV:   1    -0.355598185640E+03   -0.28493E-01   -0.22570E+00  5040   0.417E+00    0.733E-01
RMM:   2    -0.355599797471E+03   -0.16118E-02   -0.85785E-02  7079   0.776E-01    0.283E-01
RMM:   3    -0.355598658128E+03    0.11393E-02   -0.13497E-02  7364   0.211E-01    0.218E-01
RMM:   4    -0.355597745248E+03    0.91288E-03   -0.31726E-03  7506   0.950E-02    0.129E-01
RMM:   5    -0.355597667561E+03    0.77687E-04   -0.12579E-03  7460   0.617E-02    0.817E-02
RMM:   6    -0.355597696296E+03   -0.28735E-04   -0.50990E-04  7031   0.353E-02    0.533E-02
RMM:   7    -0.355597698041E+03   -0.17455E-05   -0.21242E-04  6346   0.234E-02    0.325E-02
RMM:   8    -0.355597711912E+03   -0.13871E-04   -0.77093E-05  4920   0.154E-02    0.148E-02
RMM:   9    -0.355597721002E+03   -0.90899E-05   -0.48504E-05  4390   0.131E-02
   4 F= -.35559772E+03 E0= -.35560551E+03  d E =-.280302E-01
       N       E                     dE             d eps       ncg     rms          rms(c)
DAV:   1    -0.355648707575E+03   -0.50996E-01   -0.20307E+01  4928   0.125E+01    0.222E+00
RMM:   2    -0.355663124032E+03   -0.14416E-01   -0.76734E-01  7076   0.233E+00    0.834E-01
RMM:   3    -0.355652728550E+03    0.10395E-01   -0.11943E-01  7367   0.623E-01    0.641E-01
RMM:   4    -0.355644524423E+03    0.82041E-02   -0.28550E-02  7491   0.291E-01    0.372E-01
RMM:   5    -0.355643938198E+03    0.58623E-03   -0.11335E-02  7509   0.179E-01    0.240E-01
RMM:   6    -0.355644166208E+03   -0.22801E-03   -0.43597E-03  7974   0.105E-01    0.160E-01
RMM:   7    -0.355644155190E+03    0.11018E-04   -0.19504E-03  8031   0.631E-02    0.981E-02
RMM:   8    -0.355644257867E+03   -0.10268E-03   -0.79737E-04  7005   0.407E-02    0.478E-02
RMM:   9    -0.355644309925E+03   -0.52058E-04   -0.37418E-04  6484   0.290E-02    0.311E-02
RMM:  10    -0.355644333136E+03   -0.23211E-04   -0.15920E-04  5635   0.202E-02    0.198E-02
RMM:  11    -0.355644343890E+03   -0.10753E-04   -0.66521E-05  4929   0.147E-02    0.992E-03
RMM:  12    -0.355644347756E+03   -0.38659E-05   -0.21612E-05  3690   0.118E-02
   5 F= -.35564435E+03 E0= -.35565240E+03  d E =-.746569E-01
       N       E                     dE             d eps       ncg     rms          rms(c)
DAV:   1    -0.355647261238E+03   -0.29173E-02   -0.19263E+00  5008   0.386E+00    0.679E-01
RMM:   2    -0.355648665875E+03   -0.14046E-02   -0.72583E-02  7067   0.714E-01    0.258E-01
RMM:   3    -0.355647779467E+03    0.88641E-03   -0.11271E-02  7345   0.191E-01    0.196E-01
RMM:   4    -0.355647044107E+03    0.73536E-03   -0.26877E-03  7488   0.876E-02    0.115E-01
RMM:   5    -0.355646996277E+03    0.47830E-04   -0.10940E-03  7494   0.552E-02    0.734E-02
RMM:   6    -0.355647025267E+03   -0.28990E-04   -0.41882E-04  6924   0.324E-02    0.483E-02
RMM:   7    -0.355647032602E+03   -0.73349E-05   -0.18281E-04  6103   0.213E-02    0.297E-02
RMM:   8    -0.355647046914E+03   -0.14312E-04   -0.70908E-05  4712   0.153E-02    0.135E-02
RMM:   9    -0.355647055282E+03   -0.83677E-05   -0.43154E-05  4374   0.132E-02
   6 F= -.35564706E+03 E0= -.35565514E+03  d E =-.773645E-01
       N       E                     dE             d eps       ncg     rms          rms(c)
DAV:   1    -0.355666091841E+03   -0.19045E-01   -0.73736E-01  5392   0.272E+00    0.989E-01
RMM:   2    -0.355659647939E+03    0.64439E-02   -0.60996E-02  7228   0.632E-01    0.322E-01
RMM:   3    -0.355657893950E+03    0.17540E-02   -0.16549E-02  7505   0.226E-01    0.236E-01
RMM:   4    -0.355656220102E+03    0.16738E-02   -0.38675E-03  7468   0.131E-01    0.129E-01
RMM:   5    -0.355656148787E+03    0.71315E-04   -0.12633E-03  7452   0.614E-02    0.101E-01
RMM:   6    -0.355656210591E+03   -0.61804E-04   -0.47648E-04  7059   0.371E-02    0.607E-02
RMM:   7    -0.355656253033E+03   -0.42443E-04   -0.22335E-04  6243   0.266E-02    0.315E-02
RMM:   8    -0.355656276385E+03   -0.23352E-04   -0.12598E-04  5262   0.195E-02    0.224E-02
RMM:   9    -0.355656294464E+03   -0.18079E-04   -0.51545E-05  4512   0.144E-02    0.156E-02
RMM:  10    -0.355656308317E+03   -0.13853E-04   -0.26724E-05  3686   0.116E-02    0.827E-03
RMM:  11    -0.355656314073E+03   -0.57558E-05   -0.13196E-05  3280   0.112E-02
   7 F= -.35565631E+03 E0= -.35566433E+03  d E =-.925879E-02
       N       E                     dE             d eps       ncg     rms          rms(c)
DAV:   1    -0.355690032604E+03   -0.33724E-01   -0.21670E+00  5296   0.467E+00    0.171E+00
RMM:   2    -0.355670998588E+03    0.19034E-01   -0.18026E-01  7221   0.108E+00    0.554E-01
RMM:   3    -0.355665872245E+03    0.51263E-02   -0.49007E-02  7486   0.390E-01    0.408E-01
RMM:   4    -0.355660904642E+03    0.49676E-02   -0.11656E-02  7477   0.228E-01    0.224E-01
RMM:   5    -0.355660688219E+03    0.21642E-03   -0.38568E-03  7462   0.106E-01    0.175E-01
RMM:   6    -0.355660836272E+03   -0.14805E-03   -0.14295E-03  7763   0.641E-02    0.104E-01
RMM:   7    -0.355660933538E+03   -0.97266E-04   -0.70651E-04  6870   0.436E-02    0.537E-02
RMM:   8    -0.355660986196E+03   -0.52658E-04   -0.34325E-04  6293   0.296E-02    0.383E-02
RMM:   9    -0.355661031771E+03   -0.45575E-04   -0.16563E-04  5711   0.224E-02    0.290E-02
RMM:  10    -0.355661061799E+03   -0.30027E-04   -0.71430E-05  4884   0.158E-02    0.166E-02
RMM:  11    -0.355661075812E+03   -0.14014E-04   -0.30286E-05  4010   0.129E-02    0.874E-03
RMM:  12    -0.355661082782E+03   -0.69704E-05   -0.22059E-05  3688   0.123E-02
   8 F= -.35566108E+03 E0= -.35566896E+03  d E =-.140275E-01
       N       E                     dE             d eps       ncg     rms          rms(c)
DAV:   1    -0.355667870681E+03   -0.67949E-02   -0.94666E-01  4848   0.281E+00    0.450E-01
RMM:   2    -0.355668690293E+03   -0.81961E-03   -0.36370E-02  7266   0.520E-01    0.191E-01
RMM:   3    -0.355668316926E+03    0.37337E-03   -0.50638E-03  7318   0.132E-01    0.132E-01
RMM:   4    -0.355667990173E+03    0.32675E-03   -0.15540E-03  7305   0.651E-02    0.824E-02
RMM:   5    -0.355667930894E+03    0.59279E-04   -0.62619E-04  7411   0.428E-02    0.537E-02
RMM:   6    -0.355667915601E+03    0.15293E-04   -0.23979E-04  6660   0.251E-02    0.331E-02
RMM:   7    -0.355667910623E+03    0.49785E-05   -0.10478E-04  5364   0.171E-02    0.176E-02
RMM:   8    -0.355667907847E+03    0.27755E-05   -0.42928E-05  4106   0.133E-02
   9 F= -.35566791E+03 E0= -.35567581E+03  d E =-.682506E-02
       N       E                     dE             d eps       ncg     rms          rms(c)
DAV:   1    -0.355672228640E+03   -0.43180E-02   -0.29871E+00  4816   0.499E+00    0.790E-01
RMM:   2    -0.355674763409E+03   -0.25348E-02   -0.11359E-01  7269   0.920E-01    0.335E-01
RMM:   3    -0.355673602847E+03    0.11606E-02   -0.15539E-02  7347   0.230E-01    0.229E-01
RMM:   4    -0.355672633220E+03    0.96963E-03   -0.48303E-03  7302   0.114E-01    0.142E-01
RMM:   5    -0.355672471970E+03    0.16125E-03   -0.19608E-03  7493   0.756E-02    0.931E-02
RMM:   6    -0.355672445988E+03    0.25982E-04   -0.77097E-04  7666   0.437E-02    0.583E-02
RMM:   7    -0.355672445010E+03    0.97795E-06   -0.34635E-04  6578   0.280E-02    0.317E-02
RMM:   8    -0.355672443180E+03    0.18299E-05   -0.12558E-04  5441   0.187E-02    0.182E-02
RMM:   9    -0.355672445321E+03   -0.21412E-05   -0.74353E-05  4896   0.156E-02
  10 F= -.35567245E+03 E0= -.35568037E+03  d E =-.113625E-01
       N       E                     dE             d eps       ncg     rms          rms(c)
DAV:   1    -0.355677800882E+03   -0.53577E-02   -0.39361E-01  5112   0.189E+00    0.482E-01
RMM:   2    -0.355677072283E+03    0.72860E-03   -0.23261E-02  7084   0.397E-01    0.168E-01
RMM:   3    -0.355676614569E+03    0.45771E-03   -0.42622E-03  7330   0.122E-01    0.122E-01
RMM:   4    -0.355676234622E+03    0.37995E-03   -0.11038E-03  7396   0.625E-02    0.698E-02
RMM:   5    -0.355676188807E+03    0.45815E-04   -0.39229E-04  7324   0.355E-02    0.535E-02
RMM:   6    -0.355676179719E+03    0.90877E-05   -0.16310E-04  6608   0.208E-02    0.334E-02
RMM:   7    -0.355676172424E+03    0.72951E-05   -0.69467E-05  5243   0.164E-02
  11 F= -.35567617E+03 E0= -.35568418E+03  d E =-.372710E-02
       N       E                     dE             d eps       ncg     rms          rms(c)
DAV:   1    -0.355688277115E+03   -0.12097E-01   -0.21213E+00  5040   0.438E+00    0.112E+00
RMM:   2    -0.355684123006E+03    0.41541E-02   -0.12655E-01  7116   0.923E-01    0.393E-01
RMM:   3    -0.355681627977E+03    0.24950E-02   -0.23495E-02  7369   0.282E-01    0.288E-01
RMM:   4    -0.355679566695E+03    0.20613E-02   -0.61103E-03  7420   0.147E-01    0.165E-01
RMM:   5    -0.355679335235E+03    0.23146E-03   -0.21928E-03  7435   0.829E-02    0.126E-01
RMM:   6    -0.355679318388E+03    0.16847E-04   -0.90968E-04  7557   0.482E-02    0.782E-02
RMM:   7    -0.355679314193E+03    0.41949E-05   -0.43169E-04  6706   0.360E-02    0.394E-02
RMM:   8    -0.355679315383E+03   -0.11900E-05   -0.18813E-04  5560   0.220E-02    0.267E-02
RMM:   9    -0.355679320404E+03   -0.50206E-05   -0.95534E-05  5152   0.186E-02
  12 F= -.35567932E+03 E0= -.35568750E+03  d E =-.687508E-02
       N       E                     dE             d eps       ncg     rms          rms(c)
DAV:   1    -0.355681643677E+03   -0.23283E-02   -0.16909E-01  5040   0.120E+00    0.242E-01
RMM:   2    -0.355681721464E+03   -0.77787E-04   -0.83126E-03  7255   0.237E-01    0.976E-02
RMM:   3    -0.355681596356E+03    0.12511E-03   -0.13950E-03  7345   0.647E-02    0.702E-02
RMM:   4    -0.355681489489E+03    0.10687E-03   -0.36503E-04  7336   0.344E-02    0.397E-02
RMM:   5    -0.355681481113E+03    0.83762E-05   -0.13289E-04  6517   0.208E-02    0.266E-02
RMM:   6    -0.355681483568E+03   -0.24549E-05   -0.47572E-05  4031   0.124E-02
  13 F= -.35568148E+03 E0= -.35568967E+03  d E =-.216316E-02
       N       E                     dE             d eps       ncg     rms          rms(c)
DAV:   1    -0.355686604150E+03   -0.51230E-02   -0.15162E+00  4928   0.359E+00    0.705E-01
RMM:   2    -0.355687341401E+03   -0.73725E-03   -0.71874E-02  7230   0.702E-01    0.274E-01
RMM:   3    -0.355686202999E+03    0.11384E-02   -0.11137E-02  7320   0.189E-01    0.194E-01
RMM:   4    -0.355685335723E+03    0.86728E-03   -0.28713E-03  7439   0.976E-02    0.110E-01
RMM:   5    -0.355685289896E+03    0.45828E-04   -0.10753E-03  7445   0.570E-02    0.762E-02
RMM:   6    -0.355685318286E+03   -0.28391E-04   -0.43193E-04  6880   0.330E-02    0.481E-02
RMM:   7    -0.355685337181E+03   -0.18895E-04   -0.18965E-04  6116   0.236E-02    0.270E-02
RMM:   8    -0.355685351942E+03   -0.14761E-04   -0.86936E-05  5052   0.168E-02    0.160E-02
RMM:   9    -0.355685360422E+03   -0.84795E-05   -0.39242E-05  4246   0.131E-02
  14 F= -.35568536E+03 E0= -.35569356E+03  d E =-.604002E-02
       N       E                     dE             d eps       ncg     rms          rms(c)
DAV:   1    -0.355686017443E+03   -0.66550E-03   -0.34269E-01  4944   0.171E+00    0.334E-01
RMM:   2    -0.355686205076E+03   -0.18763E-03   -0.16099E-02  7227   0.333E-01    0.129E-01
RMM:   3    -0.355685971775E+03    0.23330E-03   -0.24996E-03  7318   0.905E-02    0.904E-02
RMM:   4    -0.355685787807E+03    0.18397E-03   -0.65994E-04  7367   0.462E-02    0.511E-02
RMM:   5    -0.355685784519E+03    0.32884E-05   -0.24746E-04  6886   0.276E-02    0.356E-02
RMM:   6    -0.355685796769E+03   -0.12251E-04   -0.10196E-04  5511   0.163E-02    0.228E-02
RMM:   7    -0.355685805302E+03   -0.85329E-05   -0.44222E-05  3890   0.136E-02
  15 F= -.35568581E+03 E0= -.35569401E+03  d E =-.648490E-02
       N       E                     dE             d eps       ncg     rms          rms(c)
DAV:   1    -0.355686769930E+03   -0.97316E-03   -0.49089E-02  4976   0.645E-01    0.106E-01
RMM:   2    -0.355686778697E+03   -0.87663E-05   -0.21140E-03  7256   0.120E-01    0.495E-02
RMM:   3    -0.355686736206E+03    0.42491E-04   -0.31601E-04  6707   0.310E-02    0.333E-02
RMM:   4    -0.355686715113E+03    0.21093E-04   -0.10234E-04  6180   0.189E-02    0.177E-02
RMM:   5    -0.355686715955E+03   -0.84218E-06   -0.35398E-05  3490   0.118E-02
  16 F= -.35568672E+03 E0= -.35569492E+03  d E =-.910653E-03
       N       E                     dE             d eps       ncg     rms          rms(c)
DAV:   1    -0.355689021513E+03   -0.23064E-02   -0.44157E-01  4816   0.193E+00    0.323E-01
RMM:   2    -0.355689123898E+03   -0.10239E-03   -0.19408E-02  7265   0.362E-01    0.151E-01
RMM:   3    -0.355688752156E+03    0.37174E-03   -0.31085E-03  7338   0.944E-02    0.104E-01
RMM:   4    -0.355688520951E+03    0.23121E-03   -0.98046E-04  7237   0.549E-02    0.556E-02
RMM:   5    -0.355688509214E+03    0.11737E-04   -0.39054E-04  7101   0.326E-02    0.361E-02
RMM:   6    -0.355688517570E+03   -0.83560E-05   -0.15741E-04  5336   0.193E-02    0.228E-02
RMM:   7    -0.355688526157E+03   -0.85869E-05   -0.78562E-05  4768   0.152E-02
  17 F= -.35568853E+03 E0= -.35569673E+03  d E =-.272085E-02
       N       E                     dE             d eps       ncg     rms          rms(c)
DAV:   1    -0.355690129803E+03   -0.16122E-02   -0.17676E+00  4816   0.387E+00    0.651E-01
RMM:   2    -0.355690506255E+03   -0.37645E-03   -0.77464E-02  7263   0.725E-01    0.301E-01
RMM:   3    -0.355689003499E+03    0.15028E-02   -0.12304E-02  7323   0.191E-01    0.207E-01
RMM:   4    -0.355688051236E+03    0.95226E-03   -0.38643E-03  7243   0.109E-01    0.110E-01
RMM:   5    -0.355687998405E+03    0.52830E-04   -0.16027E-03  7349   0.647E-02    0.709E-02
RMM:   6    -0.355688019470E+03   -0.21064E-04   -0.62103E-04  6880   0.366E-02    0.446E-02
RMM:   7    -0.355688041047E+03   -0.21577E-04   -0.25673E-04  5829   0.240E-02    0.239E-02
RMM:   8    -0.355688052379E+03   -0.11332E-04   -0.11249E-04  5378   0.185E-02    0.144E-02
RMM:   9    -0.355688059993E+03   -0.76139E-05   -0.46850E-05  4757   0.146E-02
  18 F= -.35568806E+03 E0= -.35569623E+03  d E =-.225469E-02
       N       E                     dE             d eps       ncg     rms          rms(c)
DAV:   1    -0.355689834158E+03   -0.17818E-02   -0.59538E-01  4816   0.225E+00    0.379E-01
RMM:   2    -0.355689958543E+03   -0.12439E-03   -0.25930E-02  7260   0.422E-01    0.177E-01
RMM:   3    -0.355689417004E+03    0.54154E-03   -0.39961E-03  7385   0.110E-01    0.123E-01
RMM:   4    -0.355689061846E+03    0.35516E-03   -0.11887E-03  7244   0.630E-02    0.657E-02
RMM:   5    -0.355689024176E+03    0.37671E-04   -0.47400E-04  7230   0.368E-02    0.419E-02
RMM:   6    -0.355689016206E+03    0.79698E-05   -0.17476E-04  5976   0.205E-02    0.264E-02
RMM:   7    -0.355689012711E+03    0.34946E-05   -0.73361E-05  4775   0.148E-02
  19 F= -.35568901E+03 E0= -.35569721E+03  d E =-.320741E-02
       N       E                     dE             d eps       ncg     rms          rms(c)
DAV:   1    -0.355690644469E+03   -0.16283E-02   -0.10155E-01  5216   0.988E-01    0.308E-01
RMM:   2    -0.355690104316E+03    0.54015E-03   -0.69202E-03  6959   0.220E-01    0.102E-01
RMM:   3    -0.355689937295E+03    0.16702E-03   -0.15138E-03  7386   0.753E-02    0.734E-02
RMM:   4    -0.355689781085E+03    0.15621E-03   -0.40897E-04  7358   0.398E-02    0.414E-02
RMM:   5    -0.355689763663E+03    0.17422E-04   -0.12699E-04  6524   0.219E-02    0.324E-02
RMM:   6    -0.355689757592E+03    0.60711E-05   -0.45881E-05  3834   0.126E-02
  20 F= -.35568976E+03 E0= -.35569798E+03  d E =-.744881E-03
       N       E                     dE             d eps       ncg     rms          rms(c)
DAV:   1    -0.355691607883E+03   -0.18442E-02   -0.18409E-01  5168   0.133E+00    0.414E-01
RMM:   2    -0.355690604229E+03    0.10037E-02   -0.12698E-02  7143   0.298E-01    0.137E-01
RMM:   3    -0.355690317854E+03    0.28638E-03   -0.28729E-03  7432   0.101E-01    0.993E-02
RMM:   4    -0.355690048656E+03    0.26920E-03   -0.79944E-04  7474   0.550E-02    0.574E-02
RMM:   5    -0.355690022734E+03    0.25923E-04   -0.26357E-04  6894   0.290E-02    0.455E-02
RMM:   6    -0.355690018443E+03    0.42906E-05   -0.11104E-04  6394   0.178E-02    0.269E-02
RMM:   7    -0.355690011934E+03    0.65095E-05   -0.44962E-05  4042   0.144E-02
  21 F= -.35569001E+03 E0= -.35569827E+03  d E =-.999222E-03
       N       E                     dE             d eps       ncg     rms          rms(c)
DAV:   1    -0.355690257149E+03   -0.23871E-03   -0.22299E-02  4960   0.432E-01    0.392E-02
RMM:   2    -0.355690299376E+03   -0.42227E-04   -0.74782E-04  7063   0.768E-02    0.211E-02
RMM:   3    -0.355690290742E+03    0.86344E-05   -0.80642E-05  4688   0.207E-02
  22 F= -.35569029E+03 E0= -.35569854E+03  d E =-.278808E-03
       N       E                     dE             d eps       ncg     rms          rms(c)
DAV:   1    -0.355690650056E+03   -0.35068E-03   -0.20041E-01  4816   0.129E+00    0.121E-01
RMM:   2    -0.355691027357E+03   -0.37730E-03   -0.67927E-03  7149   0.229E-01    0.654E-02
RMM:   3    -0.355690970143E+03    0.57214E-04   -0.92038E-04  7024   0.605E-02    0.471E-02
RMM:   4    -0.355690944816E+03    0.25327E-04   -0.30801E-04  6906   0.274E-02    0.257E-02
RMM:   5    -0.355690941270E+03    0.35458E-05   -0.10908E-04  5311   0.164E-02    0.135E-02
RMM:   6    -0.355690940603E+03    0.66764E-06   -0.47367E-05  3887   0.114E-02
  23 F= -.35569094E+03 E0= -.35569919E+03  d E =-.928669E-03
       N       E                     dE             d eps       ncg     rms          rms(c)
DAV:   1    -0.355690180544E+03    0.76073E-03   -0.80199E-01  4816   0.259E+00    0.235E-01
RMM:   2    -0.355691750204E+03   -0.15697E-02   -0.26617E-02  7163   0.458E-01    0.127E-01
RMM:   3    -0.355691522079E+03    0.22812E-03   -0.35132E-03  7203   0.121E-01    0.908E-02
RMM:   4    -0.355691411702E+03    0.11038E-03   -0.10298E-03  7868   0.510E-02    0.503E-02
RMM:   5    -0.355691404872E+03    0.68303E-05   -0.42384E-04  6895   0.318E-02    0.264E-02
RMM:   6    -0.355691401704E+03    0.31685E-05   -0.14242E-04  5167   0.182E-02    0.149E-02
RMM:   7    -0.355691404529E+03   -0.28252E-05   -0.78821E-05  4427   0.144E-02
  24 F= -.35569140E+03 E0= -.35569965E+03  d E =-.139260E-02
       N       E                     dE             d eps       ncg     rms          rms(c)
DAV:   1    -0.355692547643E+03   -0.11459E-02   -0.98070E-02  5360   0.980E-01    0.316E-01
RMM:   2    -0.355692025614E+03    0.52203E-03   -0.73176E-03  7148   0.217E-01    0.106E-01
RMM:   3    -0.355691843236E+03    0.18238E-03   -0.17756E-03  7482   0.762E-02    0.763E-02
RMM:   4    -0.355691670619E+03    0.17262E-03   -0.43226E-04  7334   0.416E-02    0.414E-02
RMM:   5    -0.355691666571E+03    0.40482E-05   -0.13500E-04  6533   0.223E-02    0.319E-02
RMM:   6    -0.355691678069E+03   -0.11499E-04   -0.53725E-05  4106   0.130E-02    0.189E-02
RMM:   7    -0.355691686991E+03   -0.89217E-05   -0.21551E-05  3094   0.125E-02
  25 F= -.35569169E+03 E0= -.35569992E+03  d E =-.282462E-03
       N       E                     dE             d eps       ncg     rms          rms(c)
DAV:   1    -0.355691855051E+03   -0.17698E-03   -0.18900E-02  5392   0.432E-01    0.135E-01
RMM:   2    -0.355691752192E+03    0.10286E-03   -0.13876E-03  6887   0.967E-02    0.436E-02
RMM:   3    -0.355691718567E+03    0.33626E-04   -0.31041E-04  7140   0.333E-02    0.315E-02
RMM:   4    -0.355691691541E+03    0.27026E-04   -0.77307E-05  5027   0.180E-02    0.184E-02
RMM:   5    -0.355691693255E+03   -0.17144E-05   -0.17131E-05  2880   0.126E-02
  26 F= -.35569169E+03 E0= -.35569992E+03  d E =-.288726E-03
       N       E                     dE             d eps       ncg     rms          rms(c)
DAV:   1    -0.355691916738E+03   -0.22520E-03   -0.29085E-02  4848   0.488E-01    0.633E-02
RMM:   2    -0.355691924703E+03   -0.79651E-05   -0.10271E-03  7243   0.870E-02    0.338E-02
RMM:   3    -0.355691912437E+03    0.12266E-04   -0.16076E-04  5632   0.256E-02    0.219E-02
RMM:   4    -0.355691906704E+03    0.57327E-05   -0.86469E-05  4740   0.166E-02
  27 F= -.35569191E+03 E0= -.35570015E+03  d E =-.213449E-03
       N       E                     dE             d eps       ncg     rms          rms(c)
DAV:   1    -0.355692246540E+03   -0.33410E-03   -0.26102E-01  4816   0.146E+00    0.183E-01
RMM:   2    -0.355692301896E+03   -0.55357E-04   -0.91369E-03  7228   0.258E-01    0.963E-02
RMM:   3    -0.355692204891E+03    0.97006E-04   -0.16578E-03  7117   0.753E-02    0.629E-02
RMM:   4    -0.355692127801E+03    0.77090E-04   -0.67391E-04  7285   0.411E-02    0.281E-02
RMM:   5    -0.355692129424E+03   -0.16233E-05   -0.24859E-04  5774   0.220E-02    0.165E-02
RMM:   6    -0.355692129603E+03   -0.17955E-06   -0.73366E-05  4641   0.147E-02
  28 F= -.35569213E+03 E0= -.35570041E+03  d E =-.436348E-03
       N       E                     dE             d eps       ncg     rms          rms(c)
DAV:   1    -0.355692145582E+03   -0.16158E-04   -0.55204E-03  5056   0.213E-01    0.274E-02
RMM:   2    -0.355692143856E+03    0.17257E-05   -0.16780E-04  6287   0.379E-02    0.139E-02
RMM:   3    -0.355692139374E+03    0.44822E-05   -0.15375E-05  2825   0.104E-02
  29 F= -.35569214E+03 E0= -.35570042E+03  d E =-.446119E-03
       N       E                     dE             d eps       ncg     rms          rms(c)
DAV:   1    -0.355692403637E+03   -0.25978E-03   -0.28373E-02  5156   0.523E-01    0.150E-01
RMM:   2    -0.355692291671E+03    0.11197E-03   -0.18098E-03  7158   0.112E-01    0.509E-02
RMM:   3    -0.355692253788E+03    0.37883E-04   -0.39092E-04  7412   0.368E-02    0.367E-02
RMM:   4    -0.355692213634E+03    0.40154E-04   -0.10340E-04  6591   0.203E-02    0.201E-02
RMM:   5    -0.355692207574E+03    0.60606E-05   -0.26874E-05  3154   0.116E-02
  30 F= -.35569221E+03 E0= -.35570046E+03  d E =-.681996E-04
       N       E                     dE             d eps       ncg     rms          rms(c)
DAV:   1    -0.355692220767E+03   -0.71324E-05   -0.22365E-03  5120   0.149E-01    0.379E-02
RMM:   2    -0.355692213344E+03    0.74228E-05   -0.15015E-04  7114   0.319E-02    0.142E-02
RMM:   3    -0.355692207082E+03    0.62617E-05   -0.23678E-05  3389   0.105E-02
  31 F= -.35569221E+03 E0= -.35570046E+03  d E =-.677082E-04
