<?xml version="1.0" encoding="ISO-8859-1"?>
<modeling>
 <generator>
  <i name="program" type="string">vasp </i>
  <i name="version" type="string">5.4.1  </i>
  <i name="subversion" type="string">05Feb16 (build Jan 29 2020 16:04:39) complex                          parallel </i>
  <i name="platform" type="string">IFC91_ompi </i>
  <i name="date" type="string">2020 06 08 </i>
  <i name="time" type="string">01:45:23 </i>
 </generator>
 <incar>
  <i type="string" name="SYSTEM"> automatically generated by mexm</i>
  <i type="int" name="ISTART">     0</i>
  <i type="string" name="PREC">accurate               ! avoid wrap aro</i>
  <i type="string" name="ALGO"> Fast                   ! blocked Davids</i>
  <i type="int" name="ISPIN">     1</i>
  <i type="int" name="ICHARG">     2</i>
  <i type="int" name="NELM">    70</i>
  <i type="int" name="IBRION">     2</i>
  <i name="EDIFF">      0.00001000</i>
  <i name="EDIFFG">     -0.01000000</i>
  <i type="int" name="NSW">   300</i>
  <i type="int" name="ISIF">     3</i>
  <i type="int" name="ISYM">     1</i>
  <i name="ENCUT">    300.00000000</i>
  <i name="POTIM">      0.15000000</i>
  <i type="string" name="LREAL"> Auto                  ! unpublished met</i>
  <i type="int" name="ISMEAR">     1</i>
  <i name="SIGMA">      0.15000000</i>
  <i type="logical" name="LWAVE"> F  </i>
  <i type="logical" name="LCHARG"> F  </i>
  <i type="logical" name="LVTOT"> F  </i>
  <v type="int" name="KPOINT_BSE">    -1     0     0     0</v>
  <i type="int" name="NELM">    70</i>
 </incar>
 <kpoints>
  <generation param="Gamma">
   <v type="int" name="divisions">       3        3        3 </v>
   <v name="usershift">      0.00000000       0.00000000       0.00000000 </v>
   <v name="genvec1">      0.33333333       0.00000000       0.00000000 </v>
   <v name="genvec2">     -0.00000000       0.33333333       0.00000000 </v>
   <v name="genvec3">     -0.00000000       0.00000000       0.33333333 </v>
   <v name="shift">      0.00000000       0.00000000       0.00000000 </v>
  </generation>
  <varray name="kpointlist" >
   <v>       0.00000000       0.00000000       0.00000000 </v>
   <v>       0.33333333      -0.00000000       0.00000000 </v>
   <v>       0.00000000       0.33333333       0.00000000 </v>
   <v>       0.33333333       0.33333333       0.00000000 </v>
   <v>      -0.33333333       0.33333333       0.00000000 </v>
   <v>      -0.00000000       0.00000000       0.33333333 </v>
   <v>       0.33333333       0.00000000       0.33333333 </v>
   <v>      -0.33333333      -0.00000000       0.33333333 </v>
   <v>       0.00000000       0.33333333       0.33333333 </v>
   <v>       0.33333333       0.33333333       0.33333333 </v>
   <v>      -0.33333333       0.33333333       0.33333333 </v>
   <v>      -0.00000000      -0.33333333       0.33333333 </v>
   <v>       0.33333333      -0.33333333       0.33333333 </v>
   <v>      -0.33333333      -0.33333333       0.33333333 </v>
  </varray>
  <varray name="weights" >
   <v>       0.03703704 </v>
   <v>       0.07407407 </v>
   <v>       0.07407407 </v>
   <v>       0.07407407 </v>
   <v>       0.07407407 </v>
   <v>       0.07407407 </v>
   <v>       0.07407407 </v>
   <v>       0.07407407 </v>
   <v>       0.07407407 </v>
   <v>       0.07407407 </v>
   <v>       0.07407407 </v>
   <v>       0.07407407 </v>
   <v>       0.07407407 </v>
   <v>       0.07407407 </v>
  </varray>
 </kpoints>
 <parameters>
  <separator name="general" >
   <i type="string" name="SYSTEM">automatically generated by mexm</i>
   <i type="logical" name="LCOMPAT"> F  </i>
  </separator>
  <separator name="electronic" >
   <i type="string" name="PREC">accura</i>
   <i name="ENMAX">    300.00000000</i>
   <i name="ENAUG">    461.25700000</i>
   <i name="EDIFF">      0.00001000</i>
   <i type="int" name="IALGO">    68</i>
   <i type="int" name="IWAVPR">    11</i>
   <i type="int" name="NBANDS">   184</i>
   <i name="NELECT">    305.00000000</i>
   <i type="int" name="TURBO">     0</i>
   <i type="int" name="IRESTART">     0</i>
   <i type="int" name="NREBOOT">     0</i>
   <i type="int" name="NMIN">     0</i>
   <i name="EREF">      0.00000000</i>
   <separator name="electronic smearing" >
    <i type="int" name="ISMEAR">     1</i>
    <i name="SIGMA">      0.15000000</i>
    <i name="KSPACING">      0.50000000</i>
    <i type="logical" name="KGAMMA"> T  </i>
   </separator>
   <separator name="electronic projectors" >
    <i type="logical" name="LREAL"> T  </i>
    <v name="ROPT">     -0.00025000     -0.00025000     -0.00025000     -0.00025000</v>
    <i type="int" name="LMAXPAW">  -100</i>
    <i type="int" name="LMAXMIX">     2</i>
    <i type="logical" name="NLSPLINE"> F  </i>
   </separator>
   <separator name="electronic startup" >
    <i type="int" name="ISTART">     0</i>
    <i type="int" name="ICHARG">     2</i>
    <i type="int" name="INIWAV">     1</i>
   </separator>
   <separator name="electronic spin" >
    <i type="int" name="ISPIN">     1</i>
    <i type="logical" name="LNONCOLLINEAR"> F  </i>
    <v name="MAGMOM">      1.00000000      1.00000000      1.00000000      1.00000000      1.00000000      1.00000000      1.00000000      1.00000000      1.00000000      1.00000000      1.00000000      1.00000000      1.00000000      1.00000000      1.00000000      1.00000000      1.00000000      1.00000000      1.00000000      1.00000000
      1.00000000      1.00000000      1.00000000      1.00000000      1.00000000      1.00000000      1.00000000      1.00000000      1.00000000      1.00000000      1.00000000      1.00000000      1.00000000      1.00000000      1.00000000      1.00000000</v>
    <i name="NUPDOWN">     -1.00000000</i>
    <i type="logical" name="LSORBIT"> F  </i>
    <v name="SAXIS">      0.00000000      0.00000000      1.00000000</v>
    <i type="logical" name="LSPIRAL"> F  </i>
    <v name="QSPIRAL">      0.00000000      0.00000000      0.00000000</v>
    <i type="logical" name="LZEROZ"> F  </i>
   </separator>
   <separator name="electronic exchange-correlation" >
    <i type="logical" name="LASPH"> F  </i>
    <i type="logical" name="LMETAGGA"> F  </i>
   </separator>
   <separator name="electronic convergence" >
    <i type="int" name="NELM">    70</i>
    <i type="int" name="NELMDL">    -5</i>
    <i type="int" name="NELMIN">     2</i>
    <i name="ENINI">    300.00000000</i>
    <separator name="electronic convergence detail" >
     <i type="logical" name="LDIAG"> T  </i>
     <i type="logical" name="LSUBROT"> F  </i>
     <i name="WEIMIN">      0.00100000</i>
     <i name="EBREAK">      0.00000001</i>
     <i name="DEPER">      0.30000000</i>
     <i type="int" name="NRMM">     4</i>
     <i name="TIME">      0.40000000</i>
    </separator>
   </separator>
   <separator name="electronic mixer" >
    <i name="AMIX">      0.40000000</i>
    <i name="BMIX">      1.00000000</i>
    <i name="AMIN">      0.10000000</i>
    <i name="AMIX_MAG">      1.60000000</i>
    <i name="BMIX_MAG">      1.00000000</i>
    <separator name="electronic mixer details" >
     <i type="int" name="IMIX">     4</i>
     <i type="logical" name="MIXFIRST"> F  </i>
     <i type="int" name="MAXMIX">   -45</i>
     <i name="WC">    100.00000000</i>
     <i type="int" name="INIMIX">     1</i>
     <i type="int" name="MIXPRE">     1</i>
     <i type="int" name="MREMOVE">     5</i>
    </separator>
   </separator>
   <separator name="electronic dipolcorrection" >
    <i type="logical" name="LDIPOL"> F  </i>
    <i type="logical" name="LMONO"> F  </i>
    <i type="int" name="IDIPOL">     0</i>
    <i name="EPSILON">      1.00000000</i>
    <v name="DIPOL">   -100.00000000   -100.00000000   -100.00000000</v>
    <i name="EFIELD">      0.00000000</i>
   </separator>
  </separator>
  <separator name="grids" >
   <i type="int" name="NGX">    40</i>
   <i type="int" name="NGY">    60</i>
   <i type="int" name="NGZ">    60</i>
   <i type="int" name="NGXF">    80</i>
   <i type="int" name="NGYF">   120</i>
   <i type="int" name="NGZF">   120</i>
   <i type="logical" name="ADDGRID"> F  </i>
  </separator>
  <separator name="ionic" >
   <i type="int" name="NSW">   300</i>
   <i type="int" name="IBRION">     2</i>
   <i type="int" name="ISIF">     3</i>
   <i name="PSTRESS">      0.00000000</i>
   <i name="EDIFFG">     -0.01000000</i>
   <i type="int" name="NFREE">     1</i>
   <i name="POTIM">      0.15000000</i>
   <i name="SMASS">     -3.00000000</i>
   <i name="SCALEE">      1.00000000</i>
  </separator>
  <separator name="ionic md" >
   <i name="TEBEG">      0.00010000</i>
   <i name="TEEND">      0.00010000</i>
   <i type="int" name="NBLOCK">     1</i>
   <i type="int" name="KBLOCK">   300</i>
   <i type="int" name="NPACO">   256</i>
   <i name="APACO">     16.00000000</i>
  </separator>
  <separator name="symmetry" >
   <i type="int" name="ISYM">     1</i>
   <i name="SYMPREC">      0.00001000</i>
  </separator>
  <separator name="dos" >
   <i type="logical" name="LORBIT"> F  </i>
   <v name="RWIGS">     -1.00000000     -1.00000000     -1.00000000     -1.00000000</v>
   <i type="int" name="NEDOS">   301</i>
   <i name="EMIN">     10.00000000</i>
   <i name="EMAX">    -10.00000000</i>
   <i name="EFERMI">      0.00000000</i>
  </separator>
  <separator name="writing" >
   <i type="int" name="NWRITE">     2</i>
   <i type="logical" name="LWAVE"> F  </i>
   <i type="logical" name="LCHARG"> F  </i>
   <i type="logical" name="LPARD"> F  </i>
   <i type="logical" name="LVTOT"> F  </i>
   <i type="logical" name="LVHAR"> F  </i>
   <i type="logical" name="LELF"> F  </i>
   <i type="logical" name="LOPTICS"> F  </i>
   <v name="STM">      0.00000000      0.00000000      0.00000000      0.00000000      0.00000000      0.00000000      0.00000000</v>
  </separator>
  <separator name="performance" >
   <i type="int" name="NPAR">     4</i>
   <i type="int" name="NSIM">     4</i>
   <i type="int" name="NBLK">    -1</i>
   <i type="logical" name="LPLANE"> T  </i>
   <i type="logical" name="LSCALAPACK"> T  </i>
   <i type="logical" name="LSCAAWARE"> F  </i>
   <i type="logical" name="LSCALU"> F  </i>
   <i type="logical" name="LASYNC"> F  </i>
   <i type="logical" name="LORBITALREAL"> F  </i>
  </separator>
  <separator name="miscellaneous" >
   <i type="int" name="IDIOT">     3</i>
   <i type="logical" name="LMUSIC"> F  </i>
   <v name="POMASS">    180.94800000     91.22400000     92.91000000    178.49000000</v>
   <v name="DARWINR">      0.00000000      0.00000000      0.00000000      0.00000000</v>
   <v name="DARWINV">      1.00000000      1.00000000      1.00000000      1.00000000</v>
   <i type="logical" name="LCORR"> T  </i>
  </separator>
  <i type="logical" name="GGA_COMPAT"> T  </i>
  <i type="logical" name="LBERRY"> F  </i>
  <i type="int" name="ICORELEVEL">     0</i>
  <i type="logical" name="LDAU"> F  </i>
  <i type="int" name="I_CONSTRAINED_M">     0</i>
  <separator name="electronic exchange-correlation" >
   <i type="string" name="GGA">--</i>
   <i type="int" name="VOSKOWN">     0</i>
   <i type="logical" name="LHFCALC"> F  </i>
   <i type="string" name="PRECFOCK"></i>
   <i type="logical" name="LSYMGRAD"> F  </i>
   <i type="logical" name="LHFONE"> F  </i>
   <i type="logical" name="LRHFCALC"> F  </i>
   <i type="logical" name="LTHOMAS"> F  </i>
   <i type="logical" name="LMODELHF"> F  </i>
   <i name="ENCUT4O">     -1.00000000</i>
   <i type="int" name="EXXOEP">     0</i>
   <i type="int" name="FOURORBIT">     0</i>
   <i name="AEXX">      0.00000000</i>
   <i name="HFALPHA">      0.00000000</i>
   <i name="MCALPHA">      0.00000000</i>
   <i name="ALDAX">      1.00000000</i>
   <i name="AGGAX">      1.00000000</i>
   <i name="ALDAC">      1.00000000</i>
   <i name="AGGAC">      1.00000000</i>
   <i type="int" name="NKREDX">     1</i>
   <i type="int" name="NKREDY">     1</i>
   <i type="int" name="NKREDZ">     1</i>
   <i type="logical" name="SHIFTRED"> F  </i>
   <i type="logical" name="ODDONLY"> F  </i>
   <i type="logical" name="EVENONLY"> F  </i>
   <i type="int" name="LMAXFOCK">     0</i>
   <i type="int" name="NMAXFOCKAE">     0</i>
   <i type="logical" name="LFOCKAEDFT"> F  </i>
   <i name="HFSCREEN">      0.00000000</i>
   <i name="HFSCREENC">      0.00000000</i>
   <i type="int" name="NBANDSGWLOW">     0</i>
  </separator>
  <separator name="vdW DFT" >
   <i type="logical" name="LUSE_VDW"> F  </i>
   <i name="Zab_VDW">     -0.84910000</i>
   <i name="PARAM1">      0.12340000</i>
   <i name="PARAM2">      1.00000000</i>
   <i name="PARAM3">      0.00000000</i>
  </separator>
  <separator name="model GW" >
   <i type="int" name="MODEL_GW">     0</i>
   <i name="MODEL_EPS0">     12.11368959</i>
   <i name="MODEL_ALPHA">      1.00000000</i>
  </separator>
  <separator name="linear response parameters" >
   <i type="logical" name="LEPSILON"> F  </i>
   <i type="logical" name="LRPA"> F  </i>
   <i type="logical" name="LNABLA"> F  </i>
   <i type="logical" name="LVEL"> F  </i>
   <i type="int" name="KINTER">     0</i>
   <i name="CSHIFT">      0.10000000</i>
   <i name="OMEGAMAX">     -1.00000000</i>
   <i name="DEG_THRESHOLD">      0.00200000</i>
  </separator>
  <separator name="orbital magnetization" >
   <i type="logical" name="NUCIND"> F  </i>
   <v name="MAGPOS">      0.00000000      0.00000000      0.00000000</v>
   <i type="logical" name="LNICSALL"> T  </i>
   <i type="logical" name="ORBITALMAG"> F  </i>
   <i type="logical" name="LMAGBLOCH"> F  </i>
   <i type="logical" name="LCHIMAG"> F  </i>
   <i type="logical" name="LGAUGE"> T  </i>
   <i type="int" name="MAGATOM">     0</i>
   <v name="MAGDIPOL">      0.00000000      0.00000000      0.00000000</v>
   <v name="AVECCONST">      0.00000000      0.00000000      0.00000000</v>
  </separator>
  <separator name="response functions" >
   <i type="logical" name="LADDER"> F  </i>
   <i type="logical" name="LFXC"> F  </i>
   <i type="logical" name="LHARTREE"> T  </i>
   <i type="int" name="IBSE">     0</i>
   <v type="int" name="KPOINT">    -1     0     0     0</v>
   <i type="logical" name="LTCTE"> F  </i>
   <i type="logical" name="LTETE"> F  </i>
   <i type="logical" name="LTRIPLET"> F  </i>
   <i type="logical" name="LFXCEPS"> F  </i>
   <i type="logical" name="LFXHEG"> F  </i>
   <i type="int" name="NATURALO">     0</i>
   <i type="logical" name="L2ORDER"> F  </i>
   <i type="logical" name="LUSEW"> F  </i>
   <i name="ENCUTGW">     -2.00000000</i>
   <i name="ENCUTGWSOFT">     -2.00000000</i>
   <i name="ENCUTLF">     -1.00000000</i>
   <i type="int" name="LMAXMP2">    -1</i>
   <i name="SCISSOR">      0.00000000</i>
   <i type="int" name="NOMEGA">     0</i>
   <i type="int" name="NOMEGAR">     0</i>
   <i type="int" name="NBANDSGW">    -1</i>
   <i type="int" name="NBANDSO">    -1</i>
   <i type="int" name="NBANDSV">    -1</i>
   <i type="int" name="NELM">    70</i>
   <i type="int" name="NELMHF">     1</i>
   <i type="int" name="DIM">     3</i>
   <i type="int" name="ANTIRES">     0</i>
   <i name="OMEGAMAX">    -30.00000000</i>
   <i name="OMEGAMIN">    -30.00000000</i>
   <i name="OMEGATL">   -200.00000000</i>
   <i type="int" name="OMEGAGRID">     0</i>
   <i name="CSHIFT">     -0.10000000</i>
   <i type="logical" name="SELFENERGY"> F  </i>
   <i type="logical" name="LSPECTRAL"> F  </i>
   <i type="logical" name="LSPECTRALGW"> F  </i>
   <i type="logical" name="LSINGLES"> F  </i>
   <i type="logical" name="LFERMIGW"> F  </i>
   <i type="logical" name="ODDONLYGW"> F  </i>
   <i type="logical" name="EVENONLYGW"> F  </i>
   <i type="int" name="NKREDLFX">     1</i>
   <i type="int" name="NKREDLFY">     1</i>
   <i type="int" name="NKREDLFZ">     1</i>
   <i type="int" name="MAXMEM">  1800</i>
   <i type="int" name="TELESCOPE">     0</i>
   <i type="int" name="TAUPAR">     1</i>
   <i type="int" name="OMEGAPAR">    -1</i>
   <i name="LAMBDA">      1.00000000</i>
  </separator>
  <separator name="External order field" >
   <i name="OFIELD_KAPPA">      0.00000000</i>
   <v name="OFIELD_K">      0.00000000      0.00000000      0.00000000</v>
   <i name="OFIELD_Q6_NEAR">      0.00000000</i>
   <i name="OFIELD_Q6_FAR">      0.00000000</i>
   <i name="OFIELD_A">      0.00000000</i>
  </separator>
 </parameters>
 <atominfo>
  <atoms>      36 </atoms>
  <types>       4 </types>
  <array name="atoms" >
   <dimension dim="1">ion</dimension>
   <field type="string">element</field>
   <field type="int">atomtype</field>
   <set>
    <rc><c>Ta</c><c>   1</c></rc>
    <rc><c>Ta</c><c>   1</c></rc>
    <rc><c>Ta</c><c>   1</c></rc>
    <rc><c>Ta</c><c>   1</c></rc>
    <rc><c>Ta</c><c>   1</c></rc>
    <rc><c>Ta</c><c>   1</c></rc>
    <rc><c>Ta</c><c>   1</c></rc>
    <rc><c>Ta</c><c>   1</c></rc>
    <rc><c>Zr</c><c>   2</c></rc>
    <rc><c>Zr</c><c>   2</c></rc>
    <rc><c>Zr</c><c>   2</c></rc>
    <rc><c>Zr</c><c>   2</c></rc>
    <rc><c>Zr</c><c>   2</c></rc>
    <rc><c>Zr</c><c>   2</c></rc>
    <rc><c>Zr</c><c>   2</c></rc>
    <rc><c>Zr</c><c>   2</c></rc>
    <rc><c>Zr</c><c>   2</c></rc>
    <rc><c>Nb</c><c>   3</c></rc>
    <rc><c>Nb</c><c>   3</c></rc>
    <rc><c>Nb</c><c>   3</c></rc>
    <rc><c>Nb</c><c>   3</c></rc>
    <rc><c>Nb</c><c>   3</c></rc>
    <rc><c>Nb</c><c>   3</c></rc>
    <rc><c>Nb</c><c>   3</c></rc>
    <rc><c>Nb</c><c>   3</c></rc>
    <rc><c>Nb</c><c>   3</c></rc>
    <rc><c>Hf</c><c>   4</c></rc>
    <rc><c>Hf</c><c>   4</c></rc>
    <rc><c>Hf</c><c>   4</c></rc>
    <rc><c>Hf</c><c>   4</c></rc>
    <rc><c>Hf</c><c>   4</c></rc>
    <rc><c>Hf</c><c>   4</c></rc>
    <rc><c>Hf</c><c>   4</c></rc>
    <rc><c>Hf</c><c>   4</c></rc>
    <rc><c>Hf</c><c>   4</c></rc>
    <rc><c>Hf</c><c>   4</c></rc>
   </set>
  </array>
  <array name="atomtypes" >
   <dimension dim="1">type</dimension>
   <field type="int">atomspertype</field>
   <field type="string">element</field>
   <field>mass</field>
   <field>valence</field>
   <field type="string">pseudopotential</field>
   <set>
    <rc><c>   8</c><c>Ta</c><c>    180.94800000</c><c>      5.00000000</c><c>  PAW_PBE Ta 17Jan2003                  </c></rc>
    <rc><c>   9</c><c>Zr</c><c>     91.22400000</c><c>     12.00000000</c><c>  PAW_PBE Zr_sv 04Jan2005               </c></rc>
    <rc><c>   9</c><c>Nb</c><c>     92.91000000</c><c>     13.00000000</c><c>  PAW_PBE Nb_sv 25May2007               </c></rc>
    <rc><c>  10</c><c>Hf</c><c>    178.49000000</c><c>      4.00000000</c><c>  PAW_PBE Hf 20Jan2003                  </c></rc>
   </set>
  </array>
 </atominfo>
 <structure name="initialpos" >
  <crystal>
   <varray name="basis" >
    <v>       6.89554045       0.00094778      -0.00759221 </v>
    <v>       0.00152642      10.27143411      -0.02622853 </v>
    <v>      -0.01120873      -0.02602401      10.26199124 </v>
   </varray>
   <i name="volume">    726.82137513 </i>
   <varray name="rec_basis" >
    <v>       0.14502144      -0.00002115       0.00015835 </v>
    <v>      -0.00001311       0.09735802       0.00024688 </v>
    <v>       0.00010726       0.00024882       0.09744772 </v>
   </varray>
  </crystal>
  <varray name="positions" >
   <v>       0.98489100       0.33706200       0.35719800 </v>
   <v>       0.24352500       0.50791400       0.49719300 </v>
   <v>       0.24237500       0.52283800       0.82446500 </v>
   <v>       0.00301400       0.67051600       0.00111000 </v>
   <v>       0.21052200       0.82444600       0.18486700 </v>
   <v>       0.51104900       0.34155900       0.34756800 </v>
   <v>       0.75110200       0.50714500       0.50218900 </v>
   <v>       0.78569400       0.82248800       0.17250900 </v>
   <v>       0.28147500       0.14610200       0.82390700 </v>
   <v>       0.02142900       0.33745500       0.98214400 </v>
   <v>       0.23441300       0.49518300       0.18001100 </v>
   <v>       0.49464100       0.97849800       0.02003200 </v>
   <v>       0.48387300       0.34623400       0.99583500 </v>
   <v>       0.49571400       0.33690800       0.65737600 </v>
   <v>       0.49524800       0.67156200       0.00992100 </v>
   <v>       0.76035000       0.83326600       0.50809500 </v>
   <v>       0.75068800       0.83506300       0.82241300 </v>
   <v>       0.99105700       0.00459300       0.33426000 </v>
   <v>       0.24717400       0.16261100       0.48969000 </v>
   <v>       0.00869700       0.01215400       0.66399900 </v>
   <v>       0.98794400       0.65710500       0.33575600 </v>
   <v>       0.00771900       0.66092000       0.66897800 </v>
   <v>       0.24413200       0.82692100       0.81796000 </v>
   <v>       0.75356100       0.16250600       0.49300600 </v>
   <v>       0.49997800       0.00800200       0.64165800 </v>
   <v>       0.48699800       0.65932800       0.66164400 </v>
   <v>       0.01365900       0.98891400       0.00020700 </v>
   <v>       0.24165600       0.17552500       0.18405400 </v>
   <v>       0.00722800       0.33180500       0.66037600 </v>
   <v>       0.23781400       0.83196000       0.50222500 </v>
   <v>       0.75653300       0.18235900       0.16745600 </v>
   <v>       0.50558100       0.99236100       0.32856000 </v>
   <v>       0.73914800       0.15651500       0.83184000 </v>
   <v>       0.75451500       0.51228200       0.82869600 </v>
   <v>       0.50675100       0.66703200       0.32946500 </v>
   <v>       0.75985100       0.49286900       0.17333800 </v>
  </varray>
 </structure>
 <calculation>
  <scstep>
   <time name="dav">    1.08    1.09</time>
   <time name="total">    1.32    1.74</time>
   <energy>
    <i name="alphaZ">   1569.88533620 </i>
    <i name="ewald"> -20565.96757819 </i>
    <i name="hartreedc">  -7571.63508928 </i>
    <i name="XCdc">   -102.70956043 </i>
    <i name="pawpsdc">  22890.47804512 </i>
    <i name="pawaedc"> -21369.64431920 </i>
    <i name="eentropy">      0.00010664 </i>
    <i name="bandstr">   -181.92024162 </i>
    <i name="atom">  27357.74267996 </i>
    <i name="e_fr_energy">   2026.22937920 </i>
    <i name="e_wo_entrp">   2026.22927256 </i>
    <i name="e_0_energy">   2026.22934365 </i>
   </energy>
  </scstep>
  <scstep>
   <time name="dav">    1.03    1.04</time>
   <time name="total">    1.03    1.28</time>
   <energy>
    <i name="e_fr_energy">    -72.83912980 </i>
    <i name="e_wo_entrp">    -72.84271744 </i>
    <i name="e_0_energy">    -72.84032568 </i>
   </energy>
  </scstep>
  <scstep>
   <time name="dav">    1.42    1.43</time>
   <time name="total">    1.42    1.47</time>
   <energy>
    <i name="e_fr_energy">   -338.99097685 </i>
    <i name="e_wo_entrp">   -338.99142929 </i>
    <i name="e_0_energy">   -338.99112767 </i>
   </energy>
  </scstep>
  <scstep>
   <time name="dav">    1.48    1.49</time>
   <time name="total">    1.48    1.54</time>
   <energy>
    <i name="e_fr_energy">   -371.05724020 </i>
    <i name="e_wo_entrp">   -371.06304184 </i>
    <i name="e_0_energy">   -371.05917408 </i>
   </energy>
  </scstep>
  <scstep>
   <time name="dav">    1.46    1.46</time>
   <time name="total">    1.50    1.54</time>
   <energy>
    <i name="e_fr_energy">   -374.34242850 </i>
    <i name="e_wo_entrp">   -374.34893036 </i>
    <i name="e_0_energy">   -374.34459579 </i>
   </energy>
  </scstep>
  <scstep>
   <time name="diag">    0.14    0.14</time>
   <time name="diis">    0.76    0.81</time>
   <time name="orth">    0.01    0.01</time>
   <time name="total">    0.99    1.12</time>
   <energy>
    <i name="e_fr_energy">   -364.57455203 </i>
    <i name="e_wo_entrp">   -364.58555966 </i>
    <i name="e_0_energy">   -364.57822124 </i>
   </energy>
  </scstep>
  <scstep>
   <time name="diag">    0.09    0.10</time>
   <time name="diis">    0.88    0.89</time>
   <time name="orth">    0.01    0.01</time>
   <time name="total">    1.04    1.13</time>
   <energy>
    <i name="e_fr_energy">   -368.31586887 </i>
    <i name="e_wo_entrp">   -368.30997242 </i>
    <i name="e_0_energy">   -368.31390339 </i>
   </energy>
  </scstep>
  <scstep>
   <time name="diag">    0.08    0.08</time>
   <time name="diis">    0.91    0.91</time>
   <time name="orth">    0.01    0.01</time>
   <time name="total">    1.07    1.12</time>
   <energy>
    <i name="e_fr_energy">   -360.07313146 </i>
    <i name="e_wo_entrp">   -360.09281147 </i>
    <i name="e_0_energy">   -360.07969147 </i>
   </energy>
  </scstep>
  <scstep>
   <time name="diag">    0.10    0.10</time>
   <time name="diis">    0.80    0.80</time>
   <time name="orth">    0.01    0.01</time>
   <time name="total">    0.98    1.03</time>
   <energy>
    <i name="e_fr_energy">   -359.84230161 </i>
    <i name="e_wo_entrp">   -359.86113106 </i>
    <i name="e_0_energy">   -359.84857809 </i>
   </energy>
  </scstep>
  <scstep>
   <time name="diag">    0.08    0.08</time>
   <time name="diis">    0.79    0.80</time>
   <time name="orth">    0.01    0.01</time>
   <time name="total">    0.95    1.01</time>
   <energy>
    <i name="e_fr_energy">   -359.79252308 </i>
    <i name="e_wo_entrp">   -359.81292361 </i>
    <i name="e_0_energy">   -359.79932326 </i>
   </energy>
  </scstep>
  <scstep>
   <time name="diag">    0.09    0.09</time>
   <time name="diis">    0.81    0.82</time>
   <time name="orth">    0.01    0.02</time>
   <time name="total">    0.99    1.05</time>
   <energy>
    <i name="e_fr_energy">   -359.76609948 </i>
    <i name="e_wo_entrp">   -359.78499700 </i>
    <i name="e_0_energy">   -359.77239865 </i>
   </energy>
  </scstep>
  <scstep>
   <time name="diag">    0.08    0.08</time>
   <time name="diis">    0.80    0.81</time>
   <time name="orth">    0.01    0.01</time>
   <time name="total">    0.97    1.02</time>
   <energy>
    <i name="e_fr_energy">   -359.75615912 </i>
    <i name="e_wo_entrp">   -359.77530186 </i>
    <i name="e_0_energy">   -359.76254004 </i>
   </energy>
  </scstep>
  <scstep>
   <time name="diag">    0.09    0.13</time>
   <time name="diis">    0.80    0.81</time>
   <time name="orth">    0.01    0.01</time>
   <time name="total">    0.97    1.08</time>
   <energy>
    <i name="e_fr_energy">   -359.75477913 </i>
    <i name="e_wo_entrp">   -359.77377457 </i>
    <i name="e_0_energy">   -359.76111094 </i>
   </energy>
  </scstep>
  <scstep>
   <time name="diag">    0.08    0.08</time>
   <time name="diis">    0.80    0.81</time>
   <time name="orth">    0.01    0.01</time>
   <time name="total">    0.96    1.01</time>
   <energy>
    <i name="e_fr_energy">   -359.75490544 </i>
    <i name="e_wo_entrp">   -359.77401192 </i>
    <i name="e_0_energy">   -359.76127426 </i>
   </energy>
  </scstep>
  <scstep>
   <time name="diag">    0.08    0.08</time>
   <time name="diis">    0.86    0.87</time>
   <time name="orth">    0.01    0.01</time>
   <time name="total">    1.02    1.07</time>
   <energy>
    <i name="e_fr_energy">   -359.75498484 </i>
    <i name="e_wo_entrp">   -359.77402179 </i>
    <i name="e_0_energy">   -359.76133049 </i>
   </energy>
  </scstep>
  <scstep>
   <time name="diag">    0.09    0.09</time>
   <time name="diis">    0.76    0.76</time>
   <time name="orth">    0.01    0.01</time>
   <time name="total">    0.93    0.98</time>
   <energy>
    <i name="e_fr_energy">   -359.75502097 </i>
    <i name="e_wo_entrp">   -359.77411962 </i>
    <i name="e_0_energy">   -359.76138719 </i>
   </energy>
  </scstep>
  <scstep>
   <time name="diag">    0.08    0.08</time>
   <time name="diis">    0.72    0.72</time>
   <time name="orth">    0.01    0.01</time>
   <time name="total">    0.90    0.94</time>
   <energy>
    <i name="e_fr_energy">   -359.75502173 </i>
    <i name="e_wo_entrp">   -359.77410832 </i>
    <i name="e_0_energy">   -359.76138393 </i>
   </energy>
  </scstep>
  <scstep>
   <time name="diag">    0.10    0.10</time>
   <time name="diis">    0.60    0.61</time>
   <time name="orth">    0.01    0.01</time>
   <time name="total">    0.97    1.02</time>
   <energy>
    <i name="e_fr_energy">   -359.75504245 </i>
    <i name="e_wo_entrp">   -359.77414229 </i>
    <i name="e_0_energy">   -359.76140906 </i>
   </energy>
  </scstep>
  <scstep>
   <time name="diag">    0.08    0.08</time>
   <time name="diis">    0.55    0.56</time>
   <time name="orth">    0.01    0.01</time>
   <time name="total">    0.71    0.76</time>
   <energy>
    <i name="e_fr_energy">   -359.75505185 </i>
    <i name="e_wo_entrp">   -359.77412775 </i>
    <i name="e_0_energy">   -359.76141048 </i>
   </energy>
  </scstep>
  <scstep>
   <time name="diag">    0.08    0.08</time>
   <time name="diis">    0.51    0.52</time>
   <time name="orth">    0.01    0.01</time>
   <time name="total">    0.65    0.69</time>
   <energy>
    <i name="alphaZ">   1569.88533620 </i>
    <i name="ewald"> -20565.96757819 </i>
    <i name="hartreedc">  -7324.92852205 </i>
    <i name="XCdc">   -104.55282742 </i>
    <i name="pawpsdc">  35603.32603409 </i>
    <i name="pawaedc"> -34059.01311863 </i>
    <i name="eentropy">      0.01909197 </i>
    <i name="bandstr">  -2836.26614864 </i>
    <i name="atom">  27357.74267996 </i>
    <i name="e_fr_energy">   -359.75505270 </i>
    <i name="e_wo_entrp">   -359.77414467 </i>
    <i name="e_0_energy">   -359.76141669 </i>
   </energy>
  </scstep>
  <structure>
   <crystal>
    <varray name="basis" >
     <v>       6.89554045       0.00094778      -0.00759221 </v>
     <v>       0.00152642      10.27143411      -0.02622853 </v>
     <v>      -0.01120873      -0.02602401      10.26199124 </v>
    </varray>
    <i name="volume">    726.82137513 </i>
    <varray name="rec_basis" >
     <v>       0.14502144      -0.00002115       0.00015835 </v>
     <v>      -0.00001311       0.09735802       0.00024688 </v>
     <v>       0.00010726       0.00024882       0.09744772 </v>
    </varray>
   </crystal>
   <varray name="positions" >
    <v>       0.98489100       0.33706200       0.35719800 </v>
    <v>       0.24352500       0.50791400       0.49719300 </v>
    <v>       0.24237500       0.52283800       0.82446500 </v>
    <v>       0.00301400       0.67051600       0.00111000 </v>
    <v>       0.21052200       0.82444600       0.18486700 </v>
    <v>       0.51104900       0.34155900       0.34756800 </v>
    <v>       0.75110200       0.50714500       0.50218900 </v>
    <v>       0.78569400       0.82248800       0.17250900 </v>
    <v>       0.28147500       0.14610200       0.82390700 </v>
    <v>       0.02142900       0.33745500       0.98214400 </v>
    <v>       0.23441300       0.49518300       0.18001100 </v>
    <v>       0.49464100       0.97849800       0.02003200 </v>
    <v>       0.48387300       0.34623400       0.99583500 </v>
    <v>       0.49571400       0.33690800       0.65737600 </v>
    <v>       0.49524800       0.67156200       0.00992100 </v>
    <v>       0.76035000       0.83326600       0.50809500 </v>
    <v>       0.75068800       0.83506300       0.82241300 </v>
    <v>       0.99105700       0.00459300       0.33426000 </v>
    <v>       0.24717400       0.16261100       0.48969000 </v>
    <v>       0.00869700       0.01215400       0.66399900 </v>
    <v>       0.98794400       0.65710500       0.33575600 </v>
    <v>       0.00771900       0.66092000       0.66897800 </v>
    <v>       0.24413200       0.82692100       0.81796000 </v>
    <v>       0.75356100       0.16250600       0.49300600 </v>
    <v>       0.49997800       0.00800200       0.64165800 </v>
    <v>       0.48699800       0.65932800       0.66164400 </v>
    <v>       0.01365900       0.98891400       0.00020700 </v>
    <v>       0.24165600       0.17552500       0.18405400 </v>
    <v>       0.00722800       0.33180500       0.66037600 </v>
    <v>       0.23781400       0.83196000       0.50222500 </v>
    <v>       0.75653300       0.18235900       0.16745600 </v>
    <v>       0.50558100       0.99236100       0.32856000 </v>
    <v>       0.73914800       0.15651500       0.83184000 </v>
    <v>       0.75451500       0.51228200       0.82869600 </v>
    <v>       0.50675100       0.66703200       0.32946500 </v>
    <v>       0.75985100       0.49286900       0.17333800 </v>
   </varray>
  </structure>
  <varray name="forces" >
   <v>       0.18589512      -0.27124448       0.41194595 </v>
   <v>       0.00300125       0.03175659       0.00229819 </v>
   <v>      -0.01011882      -0.02780408       0.01246149 </v>
   <v>       0.23855580       0.26356706      -0.23346484 </v>
   <v>       0.01538465      -0.01143635       0.01783994 </v>
   <v>      -0.25158092      -0.25350374       0.34544062 </v>
   <v>       0.00671382      -0.03745767      -0.06451011 </v>
   <v>      -0.04770777       0.03768792      -0.02501251 </v>
   <v>      -0.01242454       0.02357177       0.01333970 </v>
   <v>       0.29172571      -0.16628819      -0.26121260 </v>
   <v>       0.00608610      -0.04334661      -0.05566463 </v>
   <v>      -0.01244040      -0.01145594       0.00295498 </v>
   <v>      -0.34631611      -0.13754601      -0.23164863 </v>
   <v>      -0.00899614      -0.00417607      -0.04553818 </v>
   <v>      -0.19306186       0.21612272      -0.13151997 </v>
   <v>       0.00264525      -0.01907098       0.00350714 </v>
   <v>       0.00073660      -0.01793454      -0.00669642 </v>
   <v>       0.02044849       0.02258393       0.00538581 </v>
   <v>       0.00108219       0.02202039      -0.02791360 </v>
   <v>      -0.01728673      -0.00466679      -0.00872131 </v>
   <v>       0.27809385       0.36994237       0.37108910 </v>
   <v>       0.02690332       0.00250955       0.00987580 </v>
   <v>       0.00271042      -0.01415137      -0.00288626 </v>
   <v>       0.00251506      -0.01638561       0.01041502 </v>
   <v>       0.02089981      -0.00247765       0.01831453 </v>
   <v>      -0.03727780       0.01048779       0.00038445 </v>
   <v>      -0.00107226      -0.00691884      -0.01193370 </v>
   <v>      -0.05598142       0.05710709      -0.01371492 </v>
   <v>      -0.00378510       0.00380600      -0.03516443 </v>
   <v>      -0.01113178      -0.01681026      -0.01102876 </v>
   <v>       0.04059817      -0.21464332       0.01632263 </v>
   <v>      -0.00565634      -0.01439577       0.00052672 </v>
   <v>       0.00470260       0.04776972       0.02065582 </v>
   <v>       0.01038437      -0.00122807       0.00401610 </v>
   <v>      -0.23642200       0.26897248       0.20894734 </v>
   <v>       0.09217742      -0.08496303      -0.30909046 </v>
  </varray>
  <varray name="stress" >
   <v>       6.99908276       0.34878447       0.23566479 </v>
   <v>       0.34878449       6.71826089      -0.15832571 </v>
   <v>       0.23566481      -0.15832575       7.75373456 </v>
  </varray>
  <energy>
   <i name="e_fr_energy">   -359.75505270 </i>
   <i name="e_wo_entrp">   -359.76141669 </i>
   <i name="e_0_energy">      0.01909197 </i>
  </energy>
  <time name="totalsc">   22.59   24.46</time>
 </calculation>
 <calculation>
  <scstep>
   <time name="dav">    1.22    1.23</time>
   <time name="total">    1.34    1.54</time>
   <energy>
    <i name="alphaZ">   1563.75401187 </i>
    <i name="ewald"> -20531.64425700 </i>
    <i name="hartreedc">  -7322.75030483 </i>
    <i name="XCdc">   -105.76834633 </i>
    <i name="pawpsdc">  35603.43411556 </i>
    <i name="pawaedc"> -34059.12108121 </i>
    <i name="eentropy">      0.01887871 </i>
    <i name="bandstr">  -2865.48761559 </i>
    <i name="atom">  27357.74267996 </i>
    <i name="e_fr_energy">   -359.82191886 </i>
    <i name="e_wo_entrp">   -359.84079757 </i>
    <i name="e_0_energy">   -359.82821176 </i>
   </energy>
  </scstep>
  <scstep>
   <time name="diag">    0.08    0.08</time>
   <time name="diis">    0.68    0.80</time>
   <time name="orth">    0.01    0.01</time>
   <time name="total">    0.84    1.00</time>
   <energy>
    <i name="e_fr_energy">   -359.81038185 </i>
    <i name="e_wo_entrp">   -359.83135493 </i>
    <i name="e_0_energy">   -359.81737288 </i>
   </energy>
  </scstep>
  <scstep>
   <time name="diag">    0.08    0.08</time>
   <time name="diis">    0.85    0.86</time>
   <time name="orth">    0.01    0.01</time>
   <time name="total">    1.03    1.08</time>
   <energy>
    <i name="e_fr_energy">   -359.79639110 </i>
    <i name="e_wo_entrp">   -359.81515465 </i>
    <i name="e_0_energy">   -359.80264561 </i>
   </energy>
  </scstep>
  <scstep>
   <time name="diag">    0.09    0.09</time>
   <time name="diis">    0.87    0.88</time>
   <time name="orth">    0.01    0.02</time>
   <time name="total">    1.03    1.12</time>
   <energy>
    <i name="e_fr_energy">   -359.78946820 </i>
    <i name="e_wo_entrp">   -359.80925002 </i>
    <i name="e_0_energy">   -359.79606214 </i>
   </energy>
  </scstep>
  <scstep>
   <time name="diag">    0.08    0.13</time>
   <time name="diis">    0.85    0.87</time>
   <time name="orth">    0.01    0.01</time>
   <time name="total">    1.04    1.16</time>
   <energy>
    <i name="e_fr_energy">   -359.78861537 </i>
    <i name="e_wo_entrp">   -359.80826430 </i>
    <i name="e_0_energy">   -359.79516501 </i>
   </energy>
  </scstep>
  <scstep>
   <time name="diag">    0.08    0.08</time>
   <time name="diis">    0.81    0.82</time>
   <time name="orth">    0.01    0.01</time>
   <time name="total">    0.97    1.02</time>
   <energy>
    <i name="e_fr_energy">   -359.78873610 </i>
    <i name="e_wo_entrp">   -359.80836540 </i>
    <i name="e_0_energy">   -359.79527920 </i>
   </energy>
  </scstep>
  <scstep>
   <time name="diag">    0.08    0.08</time>
   <time name="diis">    0.76    0.77</time>
   <time name="orth">    0.01    0.01</time>
   <time name="total">    0.92    0.97</time>
   <energy>
    <i name="e_fr_energy">   -359.78874158 </i>
    <i name="e_wo_entrp">   -359.80845518 </i>
    <i name="e_0_energy">   -359.79531278 </i>
   </energy>
  </scstep>
  <scstep>
   <time name="diag">    0.08    0.08</time>
   <time name="diis">    0.71    0.72</time>
   <time name="orth">    0.01    0.01</time>
   <time name="total">    0.87    0.92</time>
   <energy>
    <i name="e_fr_energy">   -359.78877324 </i>
    <i name="e_wo_entrp">   -359.80841410 </i>
    <i name="e_0_energy">   -359.79532019 </i>
   </energy>
  </scstep>
  <scstep>
   <time name="diag">    0.08    0.08</time>
   <time name="diis">    0.62    0.63</time>
   <time name="orth">    0.01    0.01</time>
   <time name="total">    0.78    0.83</time>
   <energy>
    <i name="e_fr_energy">   -359.78879042 </i>
    <i name="e_wo_entrp">   -359.80845229 </i>
    <i name="e_0_energy">   -359.79534438 </i>
   </energy>
  </scstep>
  <scstep>
   <time name="diag">    0.08    0.08</time>
   <time name="diis">    0.52    0.52</time>
   <time name="orth">    0.01    0.01</time>
   <time name="total">    0.64    0.69</time>
   <energy>
    <i name="alphaZ">   1563.75401187 </i>
    <i name="ewald"> -20531.64425700 </i>
    <i name="hartreedc">  -7340.49022976 </i>
    <i name="XCdc">   -104.99396694 </i>
    <i name="pawpsdc">  35428.04292508 </i>
    <i name="pawaedc"> -33883.79928424 </i>
    <i name="eentropy">      0.01967116 </i>
    <i name="bandstr">  -2848.42034950 </i>
    <i name="atom">  27357.74267996 </i>
    <i name="e_fr_energy">   -359.78879938 </i>
    <i name="e_wo_entrp">   -359.80847054 </i>
    <i name="e_0_energy">   -359.79535643 </i>
   </energy>
  </scstep>
  <structure>
   <crystal>
    <varray name="basis" >
     <v>       6.90434208       0.00138778      -0.00730660 </v>
     <v>       0.00218061      10.28402002      -0.02656214 </v>
     <v>      -0.01078364      -0.02635292      10.27650292 </v>
    </varray>
    <i name="volume">    729.67116963 </i>
    <varray name="rec_basis" >
     <v>       0.14483656      -0.00003032       0.00015191 </v>
     <v>      -0.00001928       0.09723889       0.00024934 </v>
     <v>       0.00010293       0.00025132       0.09731012 </v>
    </varray>
   </crystal>
   <varray name="positions" >
    <v>       0.98528220       0.33668124       0.35777830 </v>
    <v>       0.24353129       0.50795875       0.49719636 </v>
    <v>       0.24235380       0.52279887       0.82448246 </v>
    <v>       0.00351408       0.67088650       0.00078205 </v>
    <v>       0.21055433       0.82442995       0.18489214 </v>
    <v>       0.51052183       0.34120308       0.34805389 </v>
    <v>       0.75111596       0.50709199       0.50209789 </v>
    <v>       0.78559380       0.82254102       0.17247379 </v>
    <v>       0.28144895       0.14613526       0.82392588 </v>
    <v>       0.02204075       0.33721970       0.98177546 </v>
    <v>       0.23442566       0.49512172       0.17993235 </v>
    <v>       0.49461490       0.97848187       0.02003611 </v>
    <v>       0.48314564       0.34603943       0.99550726 </v>
    <v>       0.49569502       0.33690195       0.65731175 </v>
    <v>       0.49484242       0.67186609       0.00973599 </v>
    <v>       0.76035557       0.83323914       0.50809988 </v>
    <v>       0.75068954       0.83503771       0.82240349 </v>
    <v>       0.99109992       0.00462484       0.33426771 </v>
    <v>       0.24717620       0.16264193       0.48965071 </v>
    <v>       0.00866070       0.01214740       0.66398666 </v>
    <v>       0.98852842       0.65762754       0.33628113 </v>
    <v>       0.00777549       0.66092357       0.66899198 </v>
    <v>       0.24413769       0.82690105       0.81795588 </v>
    <v>       0.75356631       0.16248295       0.49302063 </v>
    <v>       0.50002191       0.00799857       0.64168385 </v>
    <v>       0.48691976       0.65934279       0.66164452 </v>
    <v>       0.01365672       0.98890421       0.00019014 </v>
    <v>       0.24153845       0.17560543       0.18403478 </v>
    <v>       0.00721997       0.33181024       0.66032641 </v>
    <v>       0.23779062       0.83193628       0.50220937 </v>
    <v>       0.75661831       0.18205661       0.16747831 </v>
    <v>       0.50556913       0.99234072       0.32856068 </v>
    <v>       0.73915790       0.15658238       0.83186931 </v>
    <v>       0.75453680       0.51228028       0.82870168 </v>
    <v>       0.50625518       0.66741179       0.32976029 </v>
    <v>       0.76004379       0.49274816       0.17290191 </v>
   </varray>
  </structure>
  <varray name="forces" >
   <v>       0.16201356      -0.23385693       0.36535110 </v>
   <v>       0.00077559       0.03254788       0.00692241 </v>
   <v>      -0.01566734      -0.00647878      -0.00567983 </v>
   <v>       0.21525584       0.24252405      -0.20331796 </v>
   <v>      -0.00859233      -0.00675377       0.02075937 </v>
   <v>      -0.21475545      -0.22829211       0.31535948 </v>
   <v>       0.01020741      -0.03020735      -0.06053924 </v>
   <v>      -0.01510147       0.02568550      -0.01300705 </v>
   <v>      -0.00248025       0.00243762      -0.00435034 </v>
   <v>       0.26844127      -0.15372096      -0.24160816 </v>
   <v>      -0.00081387      -0.03195042      -0.03133564 </v>
   <v>      -0.01274648      -0.01364054       0.00803295 </v>
   <v>      -0.31657388      -0.12187995      -0.21960287 </v>
   <v>      -0.00460522       0.00419089      -0.04784184 </v>
   <v>      -0.17454323       0.19419233      -0.11140167 </v>
   <v>       0.00236475      -0.01096982       0.01154265 </v>
   <v>       0.00485553      -0.01453417      -0.01416782 </v>
   <v>       0.01637225       0.01877045      -0.00437768 </v>
   <v>       0.00311843       0.01113038      -0.02348367 </v>
   <v>      -0.01639188      -0.00835120      -0.00376321 </v>
   <v>       0.23121363       0.30440043       0.29715347 </v>
   <v>       0.03185301      -0.00765460       0.01426598 </v>
   <v>      -0.00213353      -0.01033722      -0.01529941 </v>
   <v>       0.00036990      -0.01813163       0.00829595 </v>
   <v>       0.01938638       0.00412246       0.01551680 </v>
   <v>      -0.03812711      -0.00444177       0.00097877 </v>
   <v>       0.00069156      -0.01838360      -0.00613747 </v>
   <v>      -0.05949995       0.05198733       0.00062930 </v>
   <v>      -0.01011813       0.01464840      -0.04179375 </v>
   <v>      -0.01311754      -0.00155934       0.00783717 </v>
   <v>       0.03903070      -0.18271331       0.02562644 </v>
   <v>      -0.00409380      -0.01126687      -0.00017378 </v>
   <v>      -0.00014156       0.04184369       0.01765242 </v>
   <v>       0.01515157       0.00208072       0.01400870 </v>
   <v>      -0.19685574       0.22782713       0.16798738 </v>
   <v>       0.08525736      -0.06326493      -0.25003896 </v>
  </varray>
  <varray name="stress" >
   <v>       1.86453844       0.28967058       0.16595064 </v>
   <v>       0.28967057       1.53989135      -0.09585684 </v>
   <v>       0.16595065      -0.09585682       2.45783961 </v>
  </varray>
  <energy>
   <i name="e_fr_energy">   -359.78879938 </i>
   <i name="e_wo_entrp">   -359.79535643 </i>
   <i name="e_0_energy">      0.01967116 </i>
  </energy>
  <time name="totalsc">   11.17   12.19</time>
 </calculation>
 <calculation>
  <scstep>
   <time name="dav">    1.03    1.04</time>
   <time name="total">    1.18    1.40</time>
   <energy>
    <i name="alphaZ">   1545.55083282 </i>
    <i name="ewald"> -20428.34743130 </i>
    <i name="hartreedc">  -7334.61054168 </i>
    <i name="XCdc">   -108.62685060 </i>
    <i name="pawpsdc">  35428.11929877 </i>
    <i name="pawaedc"> -33883.99437652 </i>
    <i name="eentropy">      0.01879770 </i>
    <i name="bandstr">  -2935.96256923 </i>
    <i name="atom">  27357.74267996 </i>
    <i name="e_fr_energy">   -360.11016009 </i>
    <i name="e_wo_entrp">   -360.12895778 </i>
    <i name="e_0_energy">   -360.11642599 </i>
   </energy>
  </scstep>
  <scstep>
   <time name="diag">    0.10    0.10</time>
   <time name="diis">    0.77    0.78</time>
   <time name="orth">    0.01    0.01</time>
   <time name="total">    0.96    1.02</time>
   <energy>
    <i name="e_fr_energy">   -360.01334642 </i>
    <i name="e_wo_entrp">   -360.03750982 </i>
    <i name="e_0_energy">   -360.02140089 </i>
   </energy>
  </scstep>
  <scstep>
   <time name="diag">    0.08    0.08</time>
   <time name="diis">    0.88    0.88</time>
   <time name="orth">    0.02    0.02</time>
   <time name="total">    1.06    1.11</time>
   <energy>
    <i name="e_fr_energy">   -359.87777356 </i>
    <i name="e_wo_entrp">   -359.89603109 </i>
    <i name="e_0_energy">   -359.88385940 </i>
   </energy>
  </scstep>
  <scstep>
   <time name="diag">    0.09    0.09</time>
   <time name="diis">    0.83    0.84</time>
   <time name="orth">    0.01    0.01</time>
   <time name="total">    1.01    1.06</time>
   <energy>
    <i name="e_fr_energy">   -359.81756638 </i>
    <i name="e_wo_entrp">   -359.83908285 </i>
    <i name="e_0_energy">   -359.82473853 </i>
   </energy>
  </scstep>
  <scstep>
   <time name="diag">    0.08    0.08</time>
   <time name="diis">    0.79    0.80</time>
   <time name="orth">    0.01    0.01</time>
   <time name="total">    0.95    1.00</time>
   <energy>
    <i name="e_fr_energy">   -359.80954846 </i>
    <i name="e_wo_entrp">   -359.83052584 </i>
    <i name="e_0_energy">   -359.81654092 </i>
   </energy>
  </scstep>
  <scstep>
   <time name="diag">    0.08    0.08</time>
   <time name="diis">    0.82    0.82</time>
   <time name="orth">    0.01    0.01</time>
   <time name="total">    0.97    1.03</time>
   <energy>
    <i name="e_fr_energy">   -359.81087323 </i>
    <i name="e_wo_entrp">   -359.83188558 </i>
    <i name="e_0_energy">   -359.81787735 </i>
   </energy>
  </scstep>
  <scstep>
   <time name="diag">    0.15    0.15</time>
   <time name="diis">    0.87    0.88</time>
   <time name="orth">    0.01    0.01</time>
   <time name="total">    1.14    1.19</time>
   <energy>
    <i name="e_fr_energy">   -359.81112801 </i>
    <i name="e_wo_entrp">   -359.83232305 </i>
    <i name="e_0_energy">   -359.81819302 </i>
   </energy>
  </scstep>
  <scstep>
   <time name="diag">    0.08    0.08</time>
   <time name="diis">    0.98    0.99</time>
   <time name="orth">    0.01    0.01</time>
   <time name="total">    1.14    1.20</time>
   <energy>
    <i name="e_fr_energy">   -359.81149066 </i>
    <i name="e_wo_entrp">   -359.83250870 </i>
    <i name="e_0_energy">   -359.81849667 </i>
   </energy>
  </scstep>
  <scstep>
   <time name="diag">    0.08    0.08</time>
   <time name="diis">    0.82    0.82</time>
   <time name="orth">    0.01    0.01</time>
   <time name="total">    0.98    1.03</time>
   <energy>
    <i name="e_fr_energy">   -359.81175503 </i>
    <i name="e_wo_entrp">   -359.83282032 </i>
    <i name="e_0_energy">   -359.81877679 </i>
   </energy>
  </scstep>
  <scstep>
   <time name="diag">    0.08    0.09</time>
   <time name="diis">    0.78    0.79</time>
   <time name="orth">    0.01    0.01</time>
   <time name="total">    0.95    1.01</time>
   <energy>
    <i name="e_fr_energy">   -359.81195231 </i>
    <i name="e_wo_entrp">   -359.83304491 </i>
    <i name="e_0_energy">   -359.81898317 </i>
   </energy>
  </scstep>
  <scstep>
   <time name="diag">    0.09    0.09</time>
   <time name="diis">    0.69    0.70</time>
   <time name="orth">    0.01    0.01</time>
   <time name="total">    0.86    0.93</time>
   <energy>
    <i name="e_fr_energy">   -359.81199617 </i>
    <i name="e_wo_entrp">   -359.83305000 </i>
    <i name="e_0_energy">   -359.81901411 </i>
   </energy>
  </scstep>
  <scstep>
   <time name="diag">    0.08    0.08</time>
   <time name="diis">    0.64    0.65</time>
   <time name="orth">    0.01    0.01</time>
   <time name="total">    0.82    0.88</time>
   <energy>
    <i name="e_fr_energy">   -359.81200205 </i>
    <i name="e_wo_entrp">   -359.83306929 </i>
    <i name="e_0_energy">   -359.81902447 </i>
   </energy>
  </scstep>
  <scstep>
   <time name="diag">    0.10    0.10</time>
   <time name="diis">    0.57    0.57</time>
   <time name="orth">    0.01    0.01</time>
   <time name="total">    0.72    0.78</time>
   <energy>
    <i name="alphaZ">   1545.55083282 </i>
    <i name="ewald"> -20428.34743130 </i>
    <i name="hartreedc">  -7386.99457721 </i>
    <i name="XCdc">   -106.34109954 </i>
    <i name="pawpsdc">  34915.87728173 </i>
    <i name="pawaedc"> -33372.81724320 </i>
    <i name="eentropy">      0.02106544 </i>
    <i name="bandstr">  -2884.50350801 </i>
    <i name="atom">  27357.74267996 </i>
    <i name="e_fr_energy">   -359.81199930 </i>
    <i name="e_wo_entrp">   -359.83306475 </i>
    <i name="e_0_energy">   -359.81902112 </i>
   </energy>
  </scstep>
  <structure>
   <crystal>
    <varray name="basis" >
     <v>       6.93074699       0.00270780      -0.00644979 </v>
     <v>       0.00414316      10.32177773      -0.02756297 </v>
     <v>      -0.00950836      -0.02733966      10.32003796 </v>
    </varray>
    <i name="volume">    738.26508622 </i>
    <varray name="rec_basis" >
     <v>       0.14428474      -0.00005756       0.00013278 </v>
     <v>      -0.00003761       0.09688324       0.00025663 </v>
     <v>       0.00009007       0.00025872       0.09689964 </v>
    </varray>
   </crystal>
   <varray name="positions" >
    <v>       0.98645428       0.33554036       0.35951666 </v>
    <v>       0.24355014       0.50809285       0.49720643 </v>
    <v>       0.24229028       0.52268163       0.82453476 </v>
    <v>       0.00501237       0.67199654      -0.00020040 </v>
    <v>       0.21065121       0.82438184       0.18496746 </v>
    <v>       0.50894236       0.34013675       0.34950950 </v>
    <v>       0.75115780       0.50693314       0.50182496 </v>
    <v>       0.78529357       0.82269991       0.17236830 </v>
    <v>       0.28137087       0.14623494       0.82398244 </v>
    <v>       0.02387378       0.33651457       0.98067131 </v>
    <v>       0.23446362       0.49493811       0.17969672 </v>
    <v>       0.49453670       0.97843355       0.02004841 </v>
    <v>       0.48096646       0.34545650       0.99452549 </v>
    <v>       0.49563815       0.33688384       0.65711926 </v>
    <v>       0.49362719       0.67277729       0.00918181 </v>
    <v>       0.76037225       0.83315866       0.50811450 </v>
    <v>       0.75069415       0.83496191       0.82237501 </v>
    <v>       0.99122852       0.00472023       0.33429080 </v>
    <v>       0.24718279       0.16273459       0.48953302 </v>
    <v>       0.00855194       0.01212761       0.66394968 </v>
    <v>       0.99027919       0.65919320       0.33785428 </v>
    <v>       0.00794473       0.66093425       0.66903385 </v>
    <v>       0.24415473       0.82684127       0.81794355 </v>
    <v>       0.75358221       0.16241388       0.49306447 </v>
    <v>       0.50015346       0.00798829       0.64176130 </v>
    <v>       0.48668532       0.65938710       0.66164609 </v>
    <v>       0.01364991       0.98887487       0.00013964 </v>
    <v>       0.24118624       0.17584643       0.18397720 </v>
    <v>       0.00719593       0.33182593       0.66017787 </v>
    <v>       0.23772056       0.83186519       0.50216254 </v>
    <v>       0.75687401       0.18115054       0.16754511 </v>
    <v>       0.50553359       0.99227995       0.32856273 </v>
    <v>       0.73918755       0.15678428       0.83195713 </v>
    <v>       0.75460214       0.51227513       0.82871868 </v>
    <v>       0.50476945       0.66854984       0.33064498 </v>
    <v>       0.76062152       0.49238603       0.17159548 </v>
   </varray>
  </structure>
  <varray name="forces" >
   <v>       0.09746968      -0.12843636       0.23157580 </v>
   <v>      -0.00530301       0.03315166       0.02024040 </v>
   <v>      -0.03464666       0.05284518      -0.05911290 </v>
   <v>       0.14815640       0.18282492      -0.11815677 </v>
   <v>      -0.07699633       0.00534884       0.02840403 </v>
   <v>      -0.11277191      -0.15804248       0.23137278 </v>
   <v>       0.02008429      -0.01354881      -0.04633023 </v>
   <v>       0.07734263      -0.00449810       0.01894535 </v>
   <v>       0.02370199      -0.06236005      -0.06179552 </v>
   <v>       0.19656901      -0.11549002      -0.18030100 </v>
   <v>      -0.02110943       0.00236165       0.03671825 </v>
   <v>      -0.01431202      -0.01761837       0.02202144 </v>
   <v>      -0.22617973      -0.07362605      -0.18471173 </v>
   <v>       0.00897143       0.02818489      -0.05602101 </v>
   <v>      -0.12217462       0.13029040      -0.05173436 </v>
   <v>       0.00279338       0.01219984       0.03402672 </v>
   <v>       0.01862878      -0.00543631      -0.03638214 </v>
   <v>       0.00157058       0.01025240      -0.03043678 </v>
   <v>       0.00919416      -0.02141956      -0.00552150 </v>
   <v>      -0.01317480      -0.01755389       0.00989851 </v>
   <v>       0.10360818       0.11759519       0.09213360 </v>
   <v>       0.04662851      -0.03750193       0.02794544 </v>
   <v>      -0.01658402       0.00018373      -0.05391503 </v>
   <v>      -0.00568809      -0.02329236       0.00518229 </v>
   <v>       0.01507483       0.02682934       0.00467885 </v>
   <v>      -0.04181157      -0.04949739       0.00232045 </v>
   <v>       0.00381681      -0.05090041       0.01322455 </v>
   <v>      -0.06890161       0.03938239       0.04005746 </v>
   <v>      -0.02882013       0.04387233      -0.06016447 </v>
   <v>      -0.01855437       0.04531492       0.06402803 </v>
   <v>       0.03386591      -0.09603190       0.05186717 </v>
   <v>       0.00105635      -0.00113878      -0.00271952 </v>
   <v>      -0.01113230       0.02436485       0.00629400 </v>
   <v>       0.03128379       0.00999797       0.03887467 </v>
   <v>      -0.08619377       0.11147870       0.05412476 </v>
   <v>       0.06453767      -0.00008643      -0.08663159 </v>
  </varray>
  <varray name="stress" >
   <v>     -13.87436900       0.08232001      -0.04163808 </v>
   <v>       0.08232004     -14.21046994       0.07360439 </v>
   <v>      -0.04163807       0.07360434     -13.74160486 </v>
  </varray>
  <energy>
   <i name="e_fr_energy">   -359.81199930 </i>
   <i name="e_wo_entrp">   -359.81902112 </i>
   <i name="e_0_energy">      0.02106544 </i>
  </energy>
  <time name="totalsc">   14.36   15.40</time>
 </calculation>
 <calculation>
  <scstep>
   <time name="dav">    1.20    1.21</time>
   <time name="total">    1.33    1.53</time>
   <energy>
    <i name="alphaZ">   1550.83593175 </i>
    <i name="ewald"> -20458.53303348 </i>
    <i name="hartreedc">  -7388.59487502 </i>
    <i name="XCdc">   -105.28361787 </i>
    <i name="pawpsdc">  34915.12658903 </i>
    <i name="pawaedc"> -33372.11946369 </i>
    <i name="eentropy">      0.02123423 </i>
    <i name="bandstr">  -2859.03842428 </i>
    <i name="atom">  27357.74267996 </i>
    <i name="e_fr_energy">   -359.84297937 </i>
    <i name="e_wo_entrp">   -359.86421360 </i>
    <i name="e_0_energy">   -359.85005745 </i>
   </energy>
  </scstep>
  <scstep>
   <time name="diag">    0.08    0.08</time>
   <time name="diis">    0.76    0.77</time>
   <time name="orth">    0.01    0.01</time>
   <time name="total">    0.92    0.97</time>
   <energy>
    <i name="e_fr_energy">   -359.83369376 </i>
    <i name="e_wo_entrp">   -359.85305587 </i>
    <i name="e_0_energy">   -359.84014779 </i>
   </energy>
  </scstep>
  <scstep>
   <time name="diag">    0.08    0.08</time>
   <time name="diis">    0.87    0.88</time>
   <time name="orth">    0.01    0.01</time>
   <time name="total">    1.03    1.08</time>
   <energy>
    <i name="e_fr_energy">   -359.82246684 </i>
    <i name="e_wo_entrp">   -359.84391992 </i>
    <i name="e_0_energy">   -359.82961787 </i>
   </energy>
  </scstep>
  <scstep>
   <time name="diag">    0.08    0.08</time>
   <time name="diis">    0.80    0.81</time>
   <time name="orth">    0.03    0.03</time>
   <time name="total">    0.99    1.05</time>
   <energy>
    <i name="e_fr_energy">   -359.81738874 </i>
    <i name="e_wo_entrp">   -359.83796946 </i>
    <i name="e_0_energy">   -359.82424898 </i>
   </energy>
  </scstep>
  <scstep>
   <time name="diag">    0.08    0.08</time>
   <time name="diis">    0.82    0.83</time>
   <time name="orth">    0.01    0.01</time>
   <time name="total">    0.98    1.05</time>
   <energy>
    <i name="e_fr_energy">   -359.81677994 </i>
    <i name="e_wo_entrp">   -359.83751421 </i>
    <i name="e_0_energy">   -359.82369136 </i>
   </energy>
  </scstep>
  <scstep>
   <time name="diag">    0.13    0.13</time>
   <time name="diis">    0.80    0.81</time>
   <time name="orth">    0.01    0.01</time>
   <time name="total">    1.01    1.06</time>
   <energy>
    <i name="e_fr_energy">   -359.81694876 </i>
    <i name="e_wo_entrp">   -359.83768312 </i>
    <i name="e_0_energy">   -359.82386021 </i>
   </energy>
  </scstep>
  <scstep>
   <time name="diag">    0.08    0.08</time>
   <time name="diis">    0.76    0.83</time>
   <time name="orth">    0.01    0.01</time>
   <time name="total">    0.94    1.05</time>
   <energy>
    <i name="e_fr_energy">   -359.81701372 </i>
    <i name="e_wo_entrp">   -359.83769063 </i>
    <i name="e_0_energy">   -359.82390602 </i>
   </energy>
  </scstep>
  <scstep>
   <time name="diag">    0.08    0.09</time>
   <time name="diis">    0.77    0.78</time>
   <time name="orth">    0.01    0.01</time>
   <time name="total">    0.93    1.00</time>
   <energy>
    <i name="e_fr_energy">   -359.81706834 </i>
    <i name="e_wo_entrp">   -359.83779790 </i>
    <i name="e_0_energy">   -359.82397819 </i>
   </energy>
  </scstep>
  <scstep>
   <time name="diag">    0.08    0.08</time>
   <time name="diis">    0.55    0.55</time>
   <time name="orth">    0.01    0.01</time>
   <time name="total">    0.70    0.76</time>
   <energy>
    <i name="e_fr_energy">   -359.81711023 </i>
    <i name="e_wo_entrp">   -359.83782338 </i>
    <i name="e_0_energy">   -359.82401461 </i>
   </energy>
  </scstep>
  <scstep>
   <time name="diag">    0.08    0.08</time>
   <time name="diis">    0.48    0.48</time>
   <time name="orth">    0.01    0.01</time>
   <time name="total">    0.64    0.68</time>
   <energy>
    <i name="e_fr_energy">   -359.81714629 </i>
    <i name="e_wo_entrp">   -359.83785135 </i>
    <i name="e_0_energy">   -359.82404798 </i>
   </energy>
  </scstep>
  <scstep>
   <time name="diag">    0.08    0.08</time>
   <time name="diis">    0.43    0.43</time>
   <time name="orth">    0.01    0.01</time>
   <time name="total">    0.59    0.63</time>
   <energy>
    <i name="e_fr_energy">   -359.81716000 </i>
    <i name="e_wo_entrp">   -359.83787666 </i>
    <i name="e_0_energy">   -359.82406555 </i>
   </energy>
  </scstep>
  <scstep>
   <time name="diag">    0.08    0.08</time>
   <time name="diis">    0.39    0.39</time>
   <time name="orth">    0.01    0.01</time>
   <time name="total">    0.51    0.56</time>
   <energy>
    <i name="alphaZ">   1550.83593175 </i>
    <i name="ewald"> -20458.53303348 </i>
    <i name="hartreedc">  -7373.07200790 </i>
    <i name="XCdc">   -105.95996912 </i>
    <i name="pawpsdc">  35059.51944323 </i>
    <i name="pawaedc"> -33516.39566777 </i>
    <i name="eentropy">      0.02071234 </i>
    <i name="bandstr">  -2873.97525278 </i>
    <i name="atom">  27357.74267996 </i>
    <i name="e_fr_energy">   -359.81716377 </i>
    <i name="e_wo_entrp">   -359.83787611 </i>
    <i name="e_0_energy">   -359.82406788 </i>
   </energy>
  </scstep>
  <structure>
   <crystal>
    <varray name="basis" >
     <v>       6.92303799       0.00232241      -0.00669994 </v>
     <v>       0.00357019      10.31075424      -0.02727078 </v>
     <v>      -0.00988068      -0.02705158      10.30732776 </v>
    </varray>
    <i name="volume">    735.74915018 </i>
    <varray name="rec_basis" >
     <v>       0.14444541      -0.00004965       0.00013834 </v>
     <v>      -0.00003229       0.09698680       0.00025451 </v>
     <v>       0.00009381       0.00025657       0.09701912 </v>
    </varray>
   </crystal>
   <varray name="positions" >
    <v>       0.98611340       0.33587223       0.35901134 </v>
    <v>       0.24354467       0.50805384       0.49720350 </v>
    <v>       0.24230875       0.52271573       0.82451956 </v>
    <v>       0.00457664       0.67167372       0.00008523 </v>
    <v>       0.21062304       0.82439584       0.18494557 </v>
    <v>       0.50940173       0.34044684       0.34908631 </v>
    <v>       0.75114560       0.50697936       0.50190431 </v>
    <v>       0.78538090       0.82265368       0.17239896 </v>
    <v>       0.28139359       0.14620594       0.82396599 </v>
    <v>       0.02334054       0.33671978       0.98099237 </v>
    <v>       0.23445255       0.49499153       0.17976522 </v>
    <v>       0.49455944       0.97844760       0.02004483 </v>
    <v>       0.48160015       0.34562601       0.99481087 </v>
    <v>       0.49565467       0.33688911       0.65717522 </v>
    <v>       0.49398067       0.67251221       0.00934287 </v>
    <v>       0.76036739       0.83318207       0.50811025 </v>
    <v>       0.75069280       0.83498396       0.82238329 </v>
    <v>       0.99119113       0.00469248       0.33428409 </v>
    <v>       0.24718088       0.16270764       0.48956724 </v>
    <v>       0.00858357       0.01213336       0.66396043 </v>
    <v>       0.98977021       0.65873780       0.33739693 </v>
    <v>       0.00789551       0.66093114       0.66902168 </v>
    <v>       0.24414977       0.82685866       0.81794713 </v>
    <v>       0.75357758       0.16243397       0.49305173 </v>
    <v>       0.50011520       0.00799128       0.64173879 </v>
    <v>       0.48675351       0.65937420       0.66164563 </v>
    <v>       0.01365189       0.98888340       0.00015432 </v>
    <v>       0.24128870       0.17577631       0.18399393 </v>
    <v>       0.00720292       0.33182137       0.66022105 </v>
    <v>       0.23774093       0.83188587       0.50217615 </v>
    <v>       0.75679957       0.18141411       0.16752572 </v>
    <v>       0.50554392       0.99229763       0.32856213 </v>
    <v>       0.73917895       0.15672555       0.83193159 </v>
    <v>       0.75458314       0.51227663       0.82871374 </v>
    <v>       0.50520170       0.66821872       0.33038771 </v>
    <v>       0.76045339       0.49249142       0.17197531 </v>
   </varray>
  </structure>
  <varray name="forces" >
   <v>       0.11560096      -0.15879325       0.27067658 </v>
   <v>      -0.00389146       0.03300309       0.01556568 </v>
   <v>      -0.02917121       0.03540028      -0.04325012 </v>
   <v>       0.16758187       0.20032187      -0.14263733 </v>
   <v>      -0.05791400       0.00136795       0.02620044 </v>
   <v>      -0.14198287      -0.17821061       0.25570436 </v>
   <v>       0.01729787      -0.01829910      -0.05182293 </v>
   <v>       0.05105809       0.00311975       0.00977213 </v>
   <v>       0.01630327      -0.04364399      -0.04555973 </v>
   <v>       0.21837310      -0.12701310      -0.19876924 </v>
   <v>      -0.01586092      -0.00730036       0.01799367 </v>
   <v>      -0.01398356      -0.01645748       0.01791359 </v>
   <v>      -0.25316026      -0.08821870      -0.19474920 </v>
   <v>       0.00480589       0.02115895      -0.05341209 </v>
   <v>      -0.13712949       0.14877088      -0.06867661 </v>
   <v>       0.00255783       0.00537825       0.02746714 </v>
   <v>       0.01496498      -0.00767616      -0.02995024 </v>
   <v>       0.00595130       0.01262776      -0.02340744 </v>
   <v>       0.00763587      -0.01187354      -0.01082710 </v>
   <v>      -0.01419929      -0.01499147       0.00625422 </v>
   <v>       0.14065751       0.17211511       0.15194378 </v>
   <v>       0.04265885      -0.02899164       0.02421490 </v>
   <v>      -0.01255849      -0.00277010      -0.04310115 </v>
   <v>      -0.00391562      -0.02147529       0.00562574 </v>
   <v>       0.01647890       0.02063942       0.00796307 </v>
   <v>      -0.04100531      -0.03684246       0.00163960 </v>
   <v>       0.00275196      -0.04119926       0.00767208 </v>
   <v>      -0.06690125       0.04352491       0.02832727 </v>
   <v>      -0.02359523       0.03572564      -0.05488199 </v>
   <v>      -0.01714168       0.03131450       0.04723922 </v>
   <v>       0.03543278      -0.12028681       0.04432837 </v>
   <v>      -0.00036018      -0.00405259      -0.00174954 </v>
   <v>      -0.00747498       0.02974484       0.00957333 </v>
   <v>       0.02671522       0.00747149       0.03247925 </v>
   <v>      -0.11730984       0.14440866       0.08683631 </v>
   <v>       0.07072939      -0.01799743      -0.13259604 </v>
  </varray>
  <varray name="stress" >
   <v>      -9.57464445       0.14070838       0.02207925 </v>
   <v>       0.14070837      -9.91873691       0.02905248 </v>
   <v>       0.02207921       0.02905248      -9.31360763 </v>
  </varray>
  <energy>
   <i name="e_fr_energy">   -359.81716377 </i>
   <i name="e_wo_entrp">   -359.82406788 </i>
   <i name="e_0_energy">      0.02071234 </i>
  </energy>
  <time name="totalsc">   12.22   13.21</time>
 </calculation>
 <calculation>
  <scstep>
   <time name="dav">    0.95    0.96</time>
   <time name="total">    1.07    1.27</time>
   <energy>
    <i name="alphaZ">   1553.41784701 </i>
    <i name="ewald"> -20458.64995761 </i>
    <i name="hartreedc">  -7388.10445911 </i>
    <i name="XCdc">   -105.41543089 </i>
    <i name="pawpsdc">  35059.72655290 </i>
    <i name="pawaedc"> -33516.58289336 </i>
    <i name="eentropy">      0.02059425 </i>
    <i name="bandstr">  -2861.99951652 </i>
    <i name="atom">  27357.74267996 </i>
    <i name="e_fr_energy">   -359.84458337 </i>
    <i name="e_wo_entrp">   -359.86517762 </i>
    <i name="e_0_energy">   -359.85144812 </i>
   </energy>
  </scstep>
  <scstep>
   <time name="diag">    0.08    0.08</time>
   <time name="diis">    0.70    0.70</time>
   <time name="orth">    0.01    0.01</time>
   <time name="total">    0.86    0.90</time>
   <energy>
    <i name="e_fr_energy">   -359.84617950 </i>
    <i name="e_wo_entrp">   -359.86706087 </i>
    <i name="e_0_energy">   -359.85313995 </i>
   </energy>
  </scstep>
  <scstep>
   <time name="diag">    0.08    0.08</time>
   <time name="diis">    0.75    0.76</time>
   <time name="orth">    0.01    0.01</time>
   <time name="total">    0.91    0.96</time>
   <energy>
    <i name="e_fr_energy">   -359.84451783 </i>
    <i name="e_wo_entrp">   -359.86559053 </i>
    <i name="e_0_energy">   -359.85154206 </i>
   </energy>
  </scstep>
  <scstep>
   <time name="diag">    0.08    0.08</time>
   <time name="diis">    0.72    0.83</time>
   <time name="orth">    0.01    0.01</time>
   <time name="total">    0.96    1.13</time>
   <energy>
    <i name="e_fr_energy">   -359.84380869 </i>
    <i name="e_wo_entrp">   -359.86466514 </i>
    <i name="e_0_energy">   -359.85076084 </i>
   </energy>
  </scstep>
  <scstep>
   <time name="diag">    0.09    0.09</time>
   <time name="diis">    0.88    0.89</time>
   <time name="orth">    0.01    0.01</time>
   <time name="total">    1.06    1.10</time>
   <energy>
    <i name="e_fr_energy">   -359.84378374 </i>
    <i name="e_wo_entrp">   -359.86482397 </i>
    <i name="e_0_energy">   -359.85079715 </i>
   </energy>
  </scstep>
  <scstep>
   <time name="diag">    0.31    0.32</time>
   <time name="diis">    0.79    0.93</time>
   <time name="orth">    0.01    0.02</time>
   <time name="total">    1.35    1.54</time>
   <energy>
    <i name="e_fr_energy">   -359.84379372 </i>
    <i name="e_wo_entrp">   -359.86474849 </i>
    <i name="e_0_energy">   -359.85077865 </i>
   </energy>
  </scstep>
  <scstep>
   <time name="diag">    0.09    0.55</time>
   <time name="diis">    0.77    0.79</time>
   <time name="orth">    0.02    0.02</time>
   <time name="total">    1.11    1.67</time>
   <energy>
    <i name="e_fr_energy">   -359.84381785 </i>
    <i name="e_wo_entrp">   -359.86477131 </i>
    <i name="e_0_energy">   -359.85080234 </i>
   </energy>
  </scstep>
  <scstep>
   <time name="diag">    0.49    0.99</time>
   <time name="diis">    0.60    0.61</time>
   <time name="orth">    0.01    0.01</time>
   <time name="total">    1.39    2.13</time>
   <energy>
    <i name="e_fr_energy">   -359.84384057 </i>
    <i name="e_wo_entrp">   -359.86480989 </i>
    <i name="e_0_energy">   -359.85083035 </i>
   </energy>
  </scstep>
  <scstep>
   <time name="diag">    0.08    0.08</time>
   <time name="diis">    0.47    0.47</time>
   <time name="orth">    0.01    0.01</time>
   <time name="total">    0.63    0.68</time>
   <energy>
    <i name="e_fr_energy">   -359.84385142 </i>
    <i name="e_wo_entrp">   -359.86480340 </i>
    <i name="e_0_energy">   -359.85083542 </i>
   </energy>
  </scstep>
  <scstep>
   <time name="diag">    0.08    0.08</time>
   <time name="diis">    0.41    0.41</time>
   <time name="orth">    0.01    0.01</time>
   <time name="total">    0.53    0.58</time>
   <energy>
    <i name="alphaZ">   1553.41784701 </i>
    <i name="ewald"> -20458.64995761 </i>
    <i name="hartreedc">  -7381.30577426 </i>
    <i name="XCdc">   -105.72539741 </i>
    <i name="pawpsdc">  35138.08558813 </i>
    <i name="pawaedc"> -33594.77140378 </i>
    <i name="eentropy">      0.02096272 </i>
    <i name="bandstr">  -2868.65840279 </i>
    <i name="atom">  27357.74267996 </i>
    <i name="e_fr_energy">   -359.84385802 </i>
    <i name="e_wo_entrp">   -359.86482075 </i>
    <i name="e_0_energy">   -359.85084560 </i>
   </energy>
  </scstep>
  <structure>
   <crystal>
    <varray name="basis" >
     <v>       6.91907699       0.00282108      -0.00644165 </v>
     <v>       0.00431195      10.30386810      -0.02744097 </v>
     <v>      -0.00949659      -0.02721602      10.30296871 </v>
    </varray>
    <i name="volume">    734.52627124 </i>
    <varray name="rec_basis" >
     <v>       0.14452810      -0.00006013       0.00013306 </v>
     <v>      -0.00003933       0.09705163       0.00025633 </v>
     <v>       0.00009026       0.00025845       0.09706017 </v>
    </varray>
   </crystal>
   <varray name="positions" >
    <v>       0.98662936       0.33538226       0.35979430 </v>
    <v>       0.24354234       0.50812936       0.49722550 </v>
    <v>       0.24223843       0.52272928       0.82447947 </v>
    <v>       0.00527164       0.67220748      -0.00034383 </v>
    <v>       0.21054110       0.82438525       0.18499739 </v>
    <v>       0.50873325       0.33995212       0.34977756 </v>
    <v>       0.75118826       0.50691556       0.50176971 </v>
    <v>       0.78539784       0.82269850       0.17238399 </v>
    <v>       0.28140352       0.14617736       0.82392394 </v>
    <v>       0.02421576       0.33637984       0.98046131 </v>
    <v>       0.23443310       0.49493523       0.17972681 </v>
    <v>       0.49451352       0.97841481       0.02007015 </v>
    <v>       0.48057110       0.34536596       0.99431594 </v>
    <v>       0.49564880       0.33691050       0.65705948 </v>
    <v>       0.49341417       0.67293126       0.00911533 </v>
    <v>       0.76037646       0.83316809       0.50814810 </v>
    <v>       0.75072158       0.83495481       0.82233880 </v>
    <v>       0.99123519       0.00473263       0.33426105 </v>
    <v>       0.24719666       0.16271675       0.48952347 </v>
    <v>       0.00852935       0.01210971       0.66395860 </v>
    <v>       0.99048097       0.65935498       0.33799124 </v>
    <v>       0.00801794       0.66089801       0.66906245 </v>
    <v>       0.24413090       0.82683969       0.81789048 </v>
    <v>       0.75357448       0.16238957       0.49306992 </v>
    <v>       0.50017952       0.00801424       0.64176869 </v>
    <v>       0.48661743       0.65933997       0.66164790 </v>
    <v>       0.01365526       0.98882479       0.00015070 </v>
    <v>       0.24107445       0.17589249       0.18401430 </v>
    <v>       0.00715304       0.33186953       0.66011482 </v>
    <v>       0.23769130       0.83190654       0.50222276 </v>
    <v>       0.75693106       0.18103167       0.16759753 </v>
    <v>       0.50553410       0.99227694       0.32856047 </v>
    <v>       0.73917277       0.15681448       0.83196617 </v>
    <v>       0.75464935       0.51228466       0.82875845 </v>
    <v>       0.50460233       0.66869133       0.33072362 </v>
    <v>       0.76073266       0.49237532       0.17147443 </v>
   </varray>
  </structure>
  <varray name="forces" >
   <v>       0.09955969      -0.11625961       0.18849643 </v>
   <v>       0.00319732       0.02673047       0.02250885 </v>
   <v>      -0.02105177       0.02587384      -0.04702611 </v>
   <v>       0.12963548       0.15745795      -0.11011748 </v>
   <v>      -0.03916636       0.01327432       0.02093713 </v>
   <v>      -0.11231993      -0.15320470       0.19894309 </v>
   <v>       0.01179095      -0.00894213      -0.03446695 </v>
   <v>       0.04173162       0.00391986       0.01566753 </v>
   <v>       0.01762899      -0.05410625      -0.05599726 </v>
   <v>       0.17891609      -0.11803044      -0.16782094 </v>
   <v>      -0.01102042       0.00292786       0.02518715 </v>
   <v>      -0.00716309      -0.00844559       0.01451296 </v>
   <v>      -0.20545377      -0.07223415      -0.17303643 </v>
   <v>       0.01353286       0.02383027      -0.04041514 </v>
   <v>      -0.10761887       0.11968592      -0.04443876 </v>
   <v>      -0.00259257       0.00857768       0.03091734 </v>
   <v>       0.00996754      -0.00191923      -0.03134827 </v>
   <v>      -0.00025856       0.00944507      -0.02653612 </v>
   <v>       0.01825966      -0.02145592       0.00537947 </v>
   <v>      -0.01860039      -0.02077476       0.01739135 </v>
   <v>       0.09194005       0.09810202       0.08049589 </v>
   <v>       0.02064362      -0.02267335       0.01902449 </v>
   <v>      -0.00539256       0.01772728      -0.04636084 </v>
   <v>      -0.01538289      -0.02382338       0.01590943 </v>
   <v>       0.01819052       0.01356949       0.01497538 </v>
   <v>      -0.01901338      -0.03387127       0.00172847 </v>
   <v>      -0.00190657      -0.03127823       0.00751797 </v>
   <v>      -0.06352359       0.03354988       0.02650569 </v>
   <v>      -0.03249840       0.03742466      -0.04001354 </v>
   <v>      -0.01131398       0.05036649       0.06072753 </v>
   <v>       0.02847612      -0.09310423       0.03578299 </v>
   <v>      -0.00034296       0.00037665      -0.00573736 </v>
   <v>      -0.00194314       0.03280055       0.01586040 </v>
   <v>       0.02164928      -0.00333046       0.05365937 </v>
   <v>      -0.07736284       0.10470737       0.04135074 </v>
   <v>       0.04880625       0.00310608      -0.09016449 </v>
  </varray>
  <varray name="stress" >
   <v>      -7.27145394       0.04465090      -0.06781537 </v>
   <v>       0.04465092      -7.43394123       0.11008873 </v>
   <v>      -0.06781535       0.11008871      -7.06288969 </v>
  </varray>
  <energy>
   <i name="e_fr_energy">   -359.84385802 </i>
   <i name="e_wo_entrp">   -359.85084560 </i>
   <i name="e_0_energy">      0.02096272 </i>
  </energy>
  <time name="totalsc">   11.63   13.86</time>
 </calculation>
 <calculation>
  <scstep>
   <time name="dav">    1.09    1.10</time>
   <time name="total">    1.20    1.40</time>
   <energy>
    <i name="alphaZ">   1561.19848058 </i>
    <i name="ewald"> -20457.46460444 </i>
    <i name="hartreedc">  -7427.83907707 </i>
    <i name="XCdc">   -104.08362437 </i>
    <i name="pawpsdc">  35138.60548683 </i>
    <i name="pawaedc"> -33595.24946308 </i>
    <i name="eentropy">      0.02001639 </i>
    <i name="bandstr">  -2832.81629368 </i>
    <i name="atom">  27357.74267996 </i>
    <i name="e_fr_energy">   -359.88639887 </i>
    <i name="e_wo_entrp">   -359.90641526 </i>
    <i name="e_0_energy">   -359.89307100 </i>
   </energy>
  </scstep>
  <scstep>
   <time name="diag">    0.08    0.08</time>
   <time name="diis">    0.71    0.72</time>
   <time name="orth">    0.01    0.01</time>
   <time name="total">    0.88    0.92</time>
   <energy>
    <i name="e_fr_energy">   -359.90005349 </i>
    <i name="e_wo_entrp">   -359.92105412 </i>
    <i name="e_0_energy">   -359.90705370 </i>
   </energy>
  </scstep>
  <scstep>
   <time name="diag">    0.08    0.08</time>
   <time name="diis">    0.77    0.78</time>
   <time name="orth">    0.01    0.01</time>
   <time name="total">    0.99    1.04</time>
   <energy>
    <i name="e_fr_energy">   -359.88509230 </i>
    <i name="e_wo_entrp">   -359.90660354 </i>
    <i name="e_0_energy">   -359.89226271 </i>
   </energy>
  </scstep>
  <scstep>
   <time name="diag">    0.13    0.13</time>
   <time name="diis">    0.81    0.82</time>
   <time name="orth">    0.01    0.01</time>
   <time name="total">    1.02    1.08</time>
   <energy>
    <i name="e_fr_energy">   -359.87891016 </i>
    <i name="e_wo_entrp">   -359.89996475 </i>
    <i name="e_0_energy">   -359.88592836 </i>
   </energy>
  </scstep>
  <scstep>
   <time name="diag">    0.08    0.08</time>
   <time name="diis">    0.84    0.85</time>
   <time name="orth">    0.01    0.01</time>
   <time name="total">    1.00    1.05</time>
   <energy>
    <i name="e_fr_energy">   -359.87871537 </i>
    <i name="e_wo_entrp">   -359.90022438 </i>
    <i name="e_0_energy">   -359.88588504 </i>
   </energy>
  </scstep>
  <scstep>
   <time name="diag">    0.08    0.08</time>
   <time name="diis">    0.98    0.99</time>
   <time name="orth">    0.01    0.01</time>
   <time name="total">    1.14    1.18</time>
   <energy>
    <i name="e_fr_energy">   -359.87868350 </i>
    <i name="e_wo_entrp">   -359.89999100 </i>
    <i name="e_0_energy">   -359.88578600 </i>
   </energy>
  </scstep>
  <scstep>
   <time name="diag">    0.08    0.08</time>
   <time name="diis">    0.85    0.88</time>
   <time name="orth">    0.01    0.02</time>
   <time name="total">    1.01    1.09</time>
   <energy>
    <i name="e_fr_energy">   -359.87882243 </i>
    <i name="e_wo_entrp">   -359.90009869 </i>
    <i name="e_0_energy">   -359.88591452 </i>
   </energy>
  </scstep>
  <scstep>
[...]
       <r>    7.0545    1.0000 </r>
       <r>    7.0900    1.0000 </r>
       <r>    7.1273    1.0000 </r>
       <r>    7.1493    1.0000 </r>
       <r>    7.1952    1.0000 </r>
       <r>    7.2265    1.0001 </r>
       <r>    7.2535    1.0003 </r>
       <r>    7.2809    1.0008 </r>
       <r>    7.3013    1.0015 </r>
       <r>    7.3383    1.0041 </r>
       <r>    7.3882    1.0123 </r>
       <r>    7.4278    1.0233 </r>
       <r>    7.4754    1.0351 </r>
       <r>    7.4935    1.0347 </r>
       <r>    7.5225    1.0210 </r>
       <r>    7.5382    1.0037 </r>
       <r>    7.5705    0.9387 </r>
       <r>    7.6222    0.7412 </r>
       <r>    7.6651    0.5113 </r>
       <r>    7.7036    0.3005 </r>
       <r>    7.7274    0.1882 </r>
       <r>    7.7753    0.0329 </r>
       <r>    7.8245   -0.0295 </r>
       <r>    7.8728   -0.0328 </r>
       <r>    7.8962   -0.0264 </r>
       <r>    7.9289   -0.0166 </r>
       <r>    7.9839   -0.0055 </r>
       <r>    8.0153   -0.0025 </r>
       <r>    8.0441   -0.0011 </r>
       <r>    8.0964   -0.0002 </r>
       <r>    8.1459   -0.0000 </r>
       <r>    8.1847   -0.0000 </r>
       <r>    8.1961   -0.0000 </r>
       <r>    8.2571   -0.0000 </r>
       <r>    8.3042   -0.0000 </r>
       <r>    8.3618   -0.0000 </r>
       <r>    8.4323   -0.0000 </r>
       <r>    8.4804   -0.0000 </r>
       <r>    8.5142   -0.0000 </r>
       <r>    8.5812   -0.0000 </r>
       <r>    8.6107   -0.0000 </r>
       <r>    8.8472   -0.0000 </r>
       <r>    8.9527   -0.0000 </r>
       <r>    9.0480   -0.0000 </r>
       <r>    9.4205   -0.0000 </r>
       <r>    9.4878   -0.0000 </r>
       <r>    9.6339   -0.0000 </r>
       <r>    9.6866   -0.0000 </r>
       <r>    9.7317   -0.0000 </r>
      </set>
     </set>
    </set>
   </array>
  </eigenvalues>
  <separator name="orbital magnetization" >
   <v name="MAGDIPOLOUT">      0.00000000      0.00000000      0.00000000</v>
  </separator>
  <dos>
   <i name="efermi">      7.66707582 </i>
   <total>
    <array>
     <dimension dim="1">gridpoints</dimension>
     <dimension dim="2">spin</dimension>
     <field>energy</field>
     <field>total</field>
     <field>integrated</field>
     <set>
      <set comment="spin 1">
       <r>   -49.5333     0.0000     0.0000 </r>
       <r>   -49.3262     0.0000     0.0000 </r>
       <r>   -49.1191     0.0000     0.0000 </r>
       <r>   -48.9119     0.0000     0.0000 </r>
       <r>   -48.7048     0.0000     0.0000 </r>
       <r>   -48.4977     0.0000     0.0000 </r>
       <r>   -48.2905     0.0000     0.0000 </r>
       <r>   -48.0834    -0.0000    -0.0000 </r>
       <r>   -47.8763    -0.0000    -0.0000 </r>
       <r>   -47.6691    -0.0000    -0.0000 </r>
       <r>   -47.4620    -0.0000    -0.0000 </r>
       <r>   -47.2549    -0.0000    -0.0000 </r>
       <r>   -47.0477    -0.0306    -0.0063 </r>
       <r>   -46.8406    -0.1780    -0.0432 </r>
       <r>   -46.6334     7.9153     1.5963 </r>
       <r>   -46.4263    42.5012    10.3998 </r>
       <r>   -46.2192    37.9397    18.2585 </r>
       <r>   -46.0120    -1.1601    18.0181 </r>
       <r>   -45.8049    -0.0876    18.0000 </r>
       <r>   -45.5978    -0.0000    18.0000 </r>
       <r>   -45.3906    -0.0000    18.0000 </r>
       <r>   -45.1835     0.0000    18.0000 </r>
       <r>   -44.9764     0.0000    18.0000 </r>
       <r>   -44.7692     0.0000    18.0000 </r>
       <r>   -44.5621     0.0000    18.0000 </r>
       <r>   -44.3550     0.0000    18.0000 </r>
       <r>   -44.1478     0.0000    18.0000 </r>
       <r>   -43.9407     0.0000    18.0000 </r>
       <r>   -43.7336     0.0000    18.0000 </r>
       <r>   -43.5264     0.0000    18.0000 </r>
       <r>   -43.3193     0.0000    18.0000 </r>
       <r>   -43.1122     0.0000    18.0000 </r>
       <r>   -42.9050     0.0000    18.0000 </r>
       <r>   -42.6979     0.0000    18.0000 </r>
       <r>   -42.4907     0.0000    18.0000 </r>
       <r>   -42.2836     0.0000    18.0000 </r>
       <r>   -42.0765     0.0000    18.0000 </r>
       <r>   -41.8693    -0.0000    18.0000 </r>
       <r>   -41.6622    -0.0000    18.0000 </r>
       <r>   -41.4551    -0.0000    18.0000 </r>
       <r>   -41.2479    -0.0000    18.0000 </r>
       <r>   -41.0408    -0.0027    17.9994 </r>
       <r>   -40.8337    -0.6475    17.8653 </r>
       <r>   -40.6265     7.3865    19.3953 </r>
       <r>   -40.4194    55.7118    30.9352 </r>
       <r>   -40.2123    24.6289    36.0367 </r>
       <r>   -40.0051    -0.0755    36.0211 </r>
       <r>   -39.7980    -0.1016    36.0000 </r>
       <r>   -39.5909    -0.0001    36.0000 </r>
       <r>   -39.3837    -0.0000    36.0000 </r>
       <r>   -39.1766     0.0000    36.0000 </r>
       <r>   -38.9695     0.0000    36.0000 </r>
       <r>   -38.7623     0.0000    36.0000 </r>
       <r>   -38.5552     0.0000    36.0000 </r>
       <r>   -38.3480     0.0000    36.0000 </r>
       <r>   -38.1409     0.0000    36.0000 </r>
       <r>   -37.9338     0.0000    36.0000 </r>
       <r>   -37.7266     0.0000    36.0000 </r>
       <r>   -37.5195     0.0000    36.0000 </r>
       <r>   -37.3124     0.0000    36.0000 </r>
       <r>   -37.1052     0.0000    36.0000 </r>
       <r>   -36.8981     0.0000    36.0000 </r>
       <r>   -36.6910     0.0000    36.0000 </r>
       <r>   -36.4838     0.0000    36.0000 </r>
       <r>   -36.2767     0.0000    36.0000 </r>
       <r>   -36.0696     0.0000    36.0000 </r>
       <r>   -35.8624     0.0000    36.0000 </r>
       <r>   -35.6553     0.0000    36.0000 </r>
       <r>   -35.4482     0.0000    36.0000 </r>
       <r>   -35.2410     0.0000    36.0000 </r>
       <r>   -35.0339     0.0000    36.0000 </r>
       <r>   -34.8268     0.0000    36.0000 </r>
       <r>   -34.6196     0.0000    36.0000 </r>
       <r>   -34.4125     0.0000    36.0000 </r>
       <r>   -34.2053     0.0000    36.0000 </r>
       <r>   -33.9982     0.0000    36.0000 </r>
       <r>   -33.7911     0.0000    36.0000 </r>
       <r>   -33.5839     0.0000    36.0000 </r>
       <r>   -33.3768     0.0000    36.0000 </r>
       <r>   -33.1697     0.0000    36.0000 </r>
       <r>   -32.9625     0.0000    36.0000 </r>
       <r>   -32.7554     0.0000    36.0000 </r>
       <r>   -32.5483     0.0000    36.0000 </r>
       <r>   -32.3411     0.0000    36.0000 </r>
       <r>   -32.1340     0.0000    36.0000 </r>
       <r>   -31.9269     0.0000    36.0000 </r>
       <r>   -31.7197     0.0000    36.0000 </r>
       <r>   -31.5126     0.0000    36.0000 </r>
       <r>   -31.3055     0.0000    36.0000 </r>
       <r>   -31.0983     0.0000    36.0000 </r>
       <r>   -30.8912     0.0000    36.0000 </r>
       <r>   -30.6841     0.0000    36.0000 </r>
       <r>   -30.4769     0.0000    36.0000 </r>
       <r>   -30.2698     0.0000    36.0000 </r>
       <r>   -30.0626     0.0000    36.0000 </r>
       <r>   -29.8555     0.0000    36.0000 </r>
       <r>   -29.6484     0.0000    36.0000 </r>
       <r>   -29.4412     0.0000    36.0000 </r>
       <r>   -29.2341     0.0000    36.0000 </r>
       <r>   -29.0270     0.0000    36.0000 </r>
       <r>   -28.8198     0.0000    36.0000 </r>
       <r>   -28.6127     0.0000    36.0000 </r>
       <r>   -28.4056     0.0000    36.0000 </r>
       <r>   -28.1984     0.0000    36.0000 </r>
       <r>   -27.9913     0.0000    36.0000 </r>
       <r>   -27.7842     0.0000    36.0000 </r>
       <r>   -27.5770     0.0000    36.0000 </r>
       <r>   -27.3699     0.0000    36.0000 </r>
       <r>   -27.1628     0.0000    36.0000 </r>
       <r>   -26.9556     0.0000    36.0000 </r>
       <r>   -26.7485     0.0000    36.0000 </r>
       <r>   -26.5414     0.0000    36.0000 </r>
       <r>   -26.3342     0.0000    36.0000 </r>
       <r>   -26.1271     0.0000    36.0000 </r>
       <r>   -25.9199     0.0000    36.0000 </r>
       <r>   -25.7128     0.0000    36.0000 </r>
       <r>   -25.5057     0.0000    36.0000 </r>
       <r>   -25.2985     0.0000    36.0000 </r>
       <r>   -25.0914     0.0000    36.0000 </r>
       <r>   -24.8843     0.0000    36.0000 </r>
       <r>   -24.6771     0.0000    36.0000 </r>
       <r>   -24.4700     0.0000    36.0000 </r>
       <r>   -24.2629    -0.0000    36.0000 </r>
       <r>   -24.0557    -0.0000    36.0000 </r>
       <r>   -23.8486    -0.0000    36.0000 </r>
       <r>   -23.6415    -0.0000    36.0000 </r>
       <r>   -23.4343    -0.0018    35.9996 </r>
       <r>   -23.2272    -0.5710    35.8814 </r>
       <r>   -23.0201     6.3286    37.1922 </r>
       <r>   -22.8129    47.8966    47.1133 </r>
       <r>   -22.6058    55.4700    58.6031 </r>
       <r>   -22.3987   103.7203    80.0872 </r>
       <r>   -22.1915    47.5983    89.9465 </r>
       <r>   -21.9844     0.4947    90.0489 </r>
       <r>   -21.7772    -0.2359    90.0001 </r>
       <r>   -21.5701    -0.0004    90.0000 </r>
       <r>   -21.3630    -0.0000    90.0000 </r>
       <r>   -21.1558    -0.0000    90.0000 </r>
       <r>   -20.9487     0.0000    90.0000 </r>
       <r>   -20.7416     0.0000    90.0000 </r>
       <r>   -20.5344     0.0000    90.0000 </r>
       <r>   -20.3273    -0.0000    90.0000 </r>
       <r>   -20.1202    -0.0000    90.0000 </r>
       <r>   -19.9130    -0.0000    90.0000 </r>
       <r>   -19.7059    -0.0000    90.0000 </r>
       <r>   -19.4988    -0.0001    90.0000 </r>
       <r>   -19.2916    -0.1129    89.9766 </r>
       <r>   -19.0845    -0.2340    89.9281 </r>
       <r>   -18.8774    29.3892    96.0157 </r>
       <r>   -18.6702    60.0534   108.4548 </r>
       <r>   -18.4631    94.0296   127.9316 </r>
       <r>   -18.2560    65.9014   141.5821 </r>
       <r>   -18.0488    12.6297   144.1982 </r>
       <r>   -17.8417    -0.9463   144.0022 </r>
       <r>   -17.6345    -0.0105   144.0000 </r>
       <r>   -17.4274    -0.0000   144.0000 </r>
       <r>   -17.2203    -0.0000   144.0000 </r>
       <r>   -17.0131     0.0000   144.0000 </r>
       <r>   -16.8060     0.0000   144.0000 </r>
       <r>   -16.5989     0.0000   144.0000 </r>
       <r>   -16.3917     0.0000   144.0000 </r>
       <r>   -16.1846     0.0000   144.0000 </r>
       <r>   -15.9775     0.0000   144.0000 </r>
       <r>   -15.7703     0.0000   144.0000 </r>
       <r>   -15.5632     0.0000   144.0000 </r>
       <r>   -15.3561     0.0000   144.0000 </r>
       <r>   -15.1489     0.0000   144.0000 </r>
       <r>   -14.9418     0.0000   144.0000 </r>
       <r>   -14.7347     0.0000   144.0000 </r>
       <r>   -14.5275     0.0000   144.0000 </r>
       <r>   -14.3204     0.0000   144.0000 </r>
       <r>   -14.1133     0.0000   144.0000 </r>
       <r>   -13.9061     0.0000   144.0000 </r>
       <r>   -13.6990     0.0000   144.0000 </r>
       <r>   -13.4918     0.0000   144.0000 </r>
       <r>   -13.2847     0.0000   144.0000 </r>
       <r>   -13.0776     0.0000   144.0000 </r>
       <r>   -12.8704     0.0000   144.0000 </r>
       <r>   -12.6633     0.0000   144.0000 </r>
       <r>   -12.4562     0.0000   144.0000 </r>
       <r>   -12.2490     0.0000   144.0000 </r>
       <r>   -12.0419     0.0000   144.0000 </r>
       <r>   -11.8348     0.0000   144.0000 </r>
       <r>   -11.6276     0.0000   144.0000 </r>
       <r>   -11.4205     0.0000   144.0000 </r>
       <r>   -11.2134     0.0000   144.0000 </r>
       <r>   -11.0062     0.0000   144.0000 </r>
       <r>   -10.7991     0.0000   144.0000 </r>
       <r>   -10.5920     0.0000   144.0000 </r>
       <r>   -10.3848     0.0000   144.0000 </r>
       <r>   -10.1777     0.0000   144.0000 </r>
       <r>    -9.9705     0.0000   144.0000 </r>
       <r>    -9.7634     0.0000   144.0000 </r>
       <r>    -9.5563     0.0000   144.0000 </r>
       <r>    -9.3491     0.0000   144.0000 </r>
       <r>    -9.1420     0.0000   144.0000 </r>
       <r>    -8.9349     0.0000   144.0000 </r>
       <r>    -8.7277     0.0000   144.0000 </r>
       <r>    -8.5206     0.0000   144.0000 </r>
       <r>    -8.3135     0.0000   144.0000 </r>
       <r>    -8.1063     0.0000   144.0000 </r>
       <r>    -7.8992     0.0000   144.0000 </r>
       <r>    -7.6921     0.0000   144.0000 </r>
       <r>    -7.4849     0.0000   144.0000 </r>
       <r>    -7.2778     0.0000   144.0000 </r>
       <r>    -7.0707     0.0000   144.0000 </r>
       <r>    -6.8635     0.0000   144.0000 </r>
       <r>    -6.6564     0.0000   144.0000 </r>
       <r>    -6.4493     0.0000   144.0000 </r>
       <r>    -6.2421     0.0000   144.0000 </r>
       <r>    -6.0350     0.0000   144.0000 </r>
       <r>    -5.8278     0.0000   144.0000 </r>
       <r>    -5.6207     0.0000   144.0000 </r>
       <r>    -5.4136     0.0000   144.0000 </r>
       <r>    -5.2064     0.0000   144.0000 </r>
       <r>    -4.9993     0.0000   144.0000 </r>
       <r>    -4.7922     0.0000   144.0000 </r>
       <r>    -4.5850     0.0000   144.0000 </r>
       <r>    -4.3779     0.0000   144.0000 </r>
       <r>    -4.1708     0.0000   144.0000 </r>
       <r>    -3.9636     0.0000   144.0000 </r>
       <r>    -3.7565     0.0000   144.0000 </r>
       <r>    -3.5494     0.0000   144.0000 </r>
       <r>    -3.3422     0.0000   144.0000 </r>
       <r>    -3.1351     0.0000   144.0000 </r>
       <r>    -2.9280     0.0000   144.0000 </r>
       <r>    -2.7208     0.0000   144.0000 </r>
       <r>    -2.5137     0.0000   144.0000 </r>
       <r>    -2.3066     0.0000   144.0000 </r>
       <r>    -2.0994     0.0000   144.0000 </r>
       <r>    -1.8923     0.0000   144.0000 </r>
       <r>    -1.6851     0.0000   144.0000 </r>
       <r>    -1.4780     0.0000   144.0000 </r>
       <r>    -1.2709     0.0000   144.0000 </r>
       <r>    -1.0637     0.0000   144.0000 </r>
       <r>    -0.8566     0.0000   144.0000 </r>
       <r>    -0.6495     0.0000   144.0000 </r>
       <r>    -0.4423     0.0000   144.0000 </r>
       <r>    -0.2352    -0.0000   144.0000 </r>
       <r>    -0.0281    -0.0000   144.0000 </r>
       <r>     0.1791    -0.0000   144.0000 </r>
       <r>     0.3862    -0.0000   144.0000 </r>
       <r>     0.5933    -0.0003   143.9999 </r>
       <r>     0.8005    -0.0133   143.9972 </r>
       <r>     1.0076     0.1990   144.0384 </r>
       <r>     1.2147     1.0107   144.2478 </r>
       <r>     1.4219     1.6152   144.5823 </r>
       <r>     1.6290     1.7182   144.9382 </r>
       <r>     1.8361     3.5036   145.6639 </r>
       <r>     2.0433     4.3484   146.5646 </r>
       <r>     2.2504     1.2352   146.8205 </r>
       <r>     2.4576     5.7419   148.0098 </r>
       <r>     2.6647     1.9153   148.4066 </r>
       <r>     2.8718     4.8884   149.4191 </r>
       <r>     3.0790     6.4866   150.7627 </r>
       <r>     3.2861     7.3953   152.2946 </r>
       <r>     3.4932     8.7192   154.1006 </r>
       <r>     3.7004     7.2949   155.6116 </r>
       <r>     3.9075    10.2090   157.7263 </r>
       <r>     4.1146    16.5751   161.1596 </r>
       <r>     4.3218    22.9379   165.9108 </r>
       <r>     4.5289    24.2194   170.9275 </r>
       <r>     4.7360    28.0437   176.7363 </r>
       <r>     4.9432    34.1758   183.8153 </r>
       <r>     5.1503    39.0069   191.8950 </r>
       <r>     5.3574    37.7753   199.7196 </r>
       <r>     5.5646    37.9217   207.5745 </r>
       <r>     5.7717    33.6090   214.5361 </r>
       <r>     5.9788    34.4552   221.6730 </r>
       <r>     6.1860    19.7020   225.7540 </r>
       <r>     6.3931    39.4649   233.9285 </r>
       <r>     6.6003    58.4001   246.0252 </r>
       <r>     6.8074    58.8391   258.2129 </r>
       <r>     7.0145    51.3340   268.8459 </r>
       <r>     7.2217    55.9544   280.4360 </r>
       <r>     7.4288    59.1296   292.6838 </r>
       <r>     7.6359    52.8265   303.6261 </r>
       <r>     7.8431    41.6419   312.2516 </r>
       <r>     8.0502    46.7167   321.9282 </r>
       <r>     8.2573    47.6723   331.8028 </r>
       <r>     8.4645    36.6757   339.3996 </r>
       <r>     8.6716    32.1150   346.0518 </r>
       <r>     8.8787    22.1495   350.6397 </r>
       <r>     9.0859    19.3520   354.6482 </r>
       <r>     9.2930    16.4687   358.0594 </r>
       <r>     9.5001    22.8999   362.8028 </r>
       <r>     9.7073    20.4058   367.0296 </r>
       <r>     9.9144     5.0057   368.0664 </r>
       <r>    10.1215    -0.3147   368.0012 </r>
       <r>    10.3287    -0.0060   368.0000 </r>
       <r>    10.5358    -0.0000   368.0000 </r>
       <r>    10.7430    -0.0000   368.0000 </r>
       <r>    10.9501     0.0000   368.0000 </r>
       <r>    11.1572     0.0000   368.0000 </r>
       <r>    11.3644     0.0000   368.0000 </r>
       <r>    11.5715     0.0000   368.0000 </r>
       <r>    11.7786     0.0000   368.0000 </r>
       <r>    11.9858     0.0000   368.0000 </r>
       <r>    12.1929     0.0000   368.0000 </r>
       <r>    12.4000     0.0000   368.0000 </r>
       <r>    12.6072     0.0000   368.0000 </r>
      </set>
     </set>
    </array>
   </total>
  </dos>
 </calculation>
 <structure name="finalpos" >
  <crystal>
   <varray name="basis" >
    <v>       6.90359435       0.00000154      -0.00831883 </v>
    <v>       0.00012588      10.28995096      -0.01957576 </v>
    <v>      -0.01228563      -0.01935116      10.28266824 </v>
   </varray>
   <i name="volume">    730.45289260 </i>
   <varray name="rec_basis" >
    <v>       0.14485229      -0.00000144       0.00017307 </v>
    <v>       0.00000020       0.09718254       0.00018289 </v>
    <v>       0.00011719       0.00018501       0.09725151 </v>
   </varray>
  </crystal>
  <varray name="positions" >
   <v>       0.98857481       0.33440447       0.36122755 </v>
   <v>       0.24424463       0.50843163       0.49745148 </v>
   <v>       0.24325718       0.52341019       0.82315926 </v>
   <v>       0.00998049       0.67603658      -0.00111274 </v>
   <v>       0.21046317       0.82730985       0.18555317 </v>
   <v>       0.50613528       0.33679862       0.35318910 </v>
   <v>       0.75160146       0.50698839       0.49975264 </v>
   <v>       0.78533901       0.82351820       0.17281564 </v>
   <v>       0.27903738       0.14270647       0.81790045 </v>
   <v>       0.03263843       0.33192264       0.97824340 </v>
   <v>       0.23568758       0.49487880       0.17958662 </v>
   <v>       0.49516956       0.98091191       0.01945194 </v>
   <v>       0.47192901       0.34130129       0.98952321 </v>
   <v>       0.49762669       0.33837888       0.65704321 </v>
   <v>       0.48943573       0.67727591       0.00970033 </v>
   <v>       0.75967494       0.83157094       0.50833447 </v>
   <v>       0.75085622       0.83424221       0.82181574 </v>
   <v>       0.98982663       0.00491582       0.33457806 </v>
   <v>       0.24784951       0.16200127       0.49144582 </v>
   <v>       0.00531778       0.00992745       0.66468231 </v>
   <v>       0.99235733       0.66014749       0.33802245 </v>
   <v>       0.00652078       0.65900523       0.66923458 </v>
   <v>       0.24451226       0.82820782       0.81673379 </v>
   <v>       0.75324831       0.16178344       0.49448318 </v>
   <v>       0.50326383       0.00666637       0.64225226 </v>
   <v>       0.48881794       0.65786892       0.66207948 </v>
   <v>       0.01213041       0.98941560      -0.00015261 </v>
   <v>       0.23940765       0.17558495       0.18647652 </v>
   <v>       0.00527196       0.33400778       0.65971974 </v>
   <v>       0.23830158       0.83258806       0.50364300 </v>
   <v>       0.75646288       0.18056369       0.16673612 </v>
   <v>       0.50651632       0.99323072       0.32915698 </v>
   <v>       0.74084060       0.16007802       0.83411713 </v>
   <v>       0.75512209       0.50987284       0.83632348 </v>
   <v>       0.50320070       0.67083955       0.32960344 </v>
   <v>       0.75937887       0.49320904       0.16722983 </v>
  </varray>
 </structure>
</modeling>
