       N       E                     dE             d eps       ncg     rms          rms(c)
DAV:   1     0.203204277086E+04    0.20320E+04   -0.11687E+05  5688   0.107E+03
DAV:   2    -0.722984827080E+02   -0.21043E+04   -0.20327E+04  5832   0.401E+02
DAV:   3    -0.340552480206E+03   -0.26825E+03   -0.25479E+03  8760   0.986E+01
DAV:   4    -0.373220635283E+03   -0.32668E+02   -0.31114E+02  8584   0.317E+01
DAV:   5    -0.376457148863E+03   -0.32365E+01   -0.31683E+01  8312   0.100E+01    0.626E+01
RMM:   6    -0.366406325351E+03    0.10051E+02   -0.28901E+01  7417   0.109E+01    0.298E+01
RMM:   7    -0.369573387594E+03   -0.31671E+01   -0.31398E+01  7739   0.868E+00    0.138E+01
RMM:   8    -0.361724350950E+03    0.78490E+01   -0.80973E+00  7535   0.441E+00    0.436E+00
RMM:   9    -0.361504771023E+03    0.21958E+00   -0.32642E+00  7785   0.222E+00    0.301E+00
RMM:  10    -0.361453906527E+03    0.50864E-01   -0.65019E-01  7836   0.124E+00    0.177E+00
RMM:  11    -0.361412789749E+03    0.41117E-01   -0.18221E-01  7665   0.666E-01    0.920E-01
RMM:  12    -0.361408592090E+03    0.41977E-02   -0.73232E-02  7842   0.400E-01    0.490E-01
RMM:  13    -0.361406844211E+03    0.17479E-02   -0.22425E-02  7803   0.226E-01    0.285E-01
RMM:  14    -0.361406997444E+03   -0.15323E-03   -0.11190E-02  7912   0.131E-01    0.158E-01
RMM:  15    -0.361407052391E+03   -0.54947E-04   -0.52241E-03  7809   0.807E-02    0.853E-02
RMM:  16    -0.361407083429E+03   -0.31038E-04   -0.20229E-03  7521   0.440E-02    0.482E-02
RMM:  17    -0.361407098072E+03   -0.14643E-04   -0.89951E-04  6638   0.317E-02    0.238E-02
RMM:  18    -0.361407124957E+03   -0.26886E-04   -0.38681E-04  5769   0.204E-02    0.133E-02
RMM:  19    -0.361407137919E+03   -0.12961E-04   -0.20011E-04  5196   0.152E-02    0.842E-03
RMM:  20    -0.361407138709E+03   -0.78998E-06   -0.65326E-05  4259   0.116E-02
   1 F= -.36140714E+03 E0= -.36141418E+03  d E =-.361407E+03
       N       E                     dE             d eps       ncg     rms          rms(c)
DAV:   1    -0.361466352132E+03   -0.59214E-01   -0.20138E+00  6688   0.476E+00    0.168E+00
RMM:   2    -0.361453319117E+03    0.13033E-01   -0.24163E-01  7702   0.128E+00    0.657E-01
RMM:   3    -0.361439439886E+03    0.13879E-01   -0.48977E-02  7895   0.387E-01    0.456E-01
RMM:   4    -0.361433589939E+03    0.58499E-02   -0.14702E-02  7887   0.262E-01    0.226E-01
RMM:   5    -0.361432961613E+03    0.62833E-03   -0.37576E-03  7858   0.130E-01    0.165E-01
RMM:   6    -0.361433132178E+03   -0.17056E-03   -0.16350E-03  8322   0.629E-02    0.115E-01
RMM:   7    -0.361433229293E+03   -0.97115E-04   -0.64264E-04  7400   0.456E-02    0.627E-02
RMM:   8    -0.361433308102E+03   -0.78809E-04   -0.39922E-04  6901   0.303E-02    0.435E-02
RMM:   9    -0.361433372773E+03   -0.64671E-04   -0.17126E-04  5902   0.232E-02    0.301E-02
RMM:  10    -0.361433422427E+03   -0.49654E-04   -0.10798E-04  5207   0.182E-02    0.166E-02
RMM:  11    -0.361433440379E+03   -0.17951E-04   -0.48993E-05  4405   0.146E-02    0.784E-03
RMM:  12    -0.361433447631E+03   -0.72523E-05   -0.24201E-05  3895   0.135E-02
   2 F= -.36143345E+03 E0= -.36144031E+03  d E =-.263089E-01
       N       E                     dE             d eps       ncg     rms          rms(c)
DAV:   1    -0.361566334400E+03   -0.13289E+00   -0.68998E+00  6360   0.882E+00    0.314E+00
RMM:   2    -0.361521291454E+03    0.45043E-01   -0.82687E-01  7701   0.238E+00    0.122E+00
RMM:   3    -0.361472786766E+03    0.48505E-01   -0.16697E-01  7887   0.713E-01    0.844E-01
RMM:   4    -0.361452840089E+03    0.19947E-01   -0.50228E-02  7886   0.485E-01    0.418E-01
RMM:   5    -0.361450651523E+03    0.21886E-02   -0.12776E-02  7885   0.239E-01    0.307E-01
RMM:   6    -0.361451181711E+03   -0.53019E-03   -0.55067E-03  8468   0.116E-01    0.215E-01
RMM:   7    -0.361451467878E+03   -0.28617E-03   -0.22841E-03  8546   0.846E-02    0.118E-01
RMM:   8    -0.361451711332E+03   -0.24345E-03   -0.13920E-03  7972   0.532E-02    0.831E-02
RMM:   9    -0.361451899840E+03   -0.18851E-03   -0.51478E-04  7168   0.386E-02    0.560E-02
RMM:  10    -0.361452052611E+03   -0.15277E-03   -0.38007E-04  6922   0.295E-02    0.315E-02
RMM:  11    -0.361452099712E+03   -0.47101E-04   -0.16710E-04  5792   0.216E-02    0.172E-02
RMM:  12    -0.361452118811E+03   -0.19099E-04   -0.74702E-05  5243   0.162E-02    0.731E-03
RMM:  13    -0.361452124465E+03   -0.56533E-05   -0.29647E-05  4103   0.136E-02
   3 F= -.36145212E+03 E0= -.36145861E+03  d E =-.449858E-01
       N       E                     dE             d eps       ncg     rms          rms(c)
DAV:   1    -0.361471776920E+03   -0.19658E-01   -0.18629E+00  5456   0.378E+00    0.550E-01
RMM:   2    -0.361479244072E+03   -0.74672E-02   -0.92192E-02  7429   0.800E-01    0.369E-01
RMM:   3    -0.361473904310E+03    0.53398E-02   -0.11822E-02  7592   0.240E-01    0.189E-01
RMM:   4    -0.361473550735E+03    0.35357E-03   -0.28694E-03  7782   0.857E-02    0.116E-01
RMM:   5    -0.361473419058E+03    0.13168E-03   -0.10653E-03  7773   0.593E-02    0.730E-02
RMM:   6    -0.361473385415E+03    0.33644E-04   -0.47057E-04  7820   0.386E-02    0.436E-02
RMM:   7    -0.361473371287E+03    0.14127E-04   -0.17260E-04  6325   0.206E-02    0.280E-02
RMM:   8    -0.361473366823E+03    0.44638E-05   -0.70705E-05  5012   0.148E-02
   4 F= -.36147337E+03 E0= -.36147966E+03  d E =-.212424E-01
       N       E                     dE             d eps       ncg     rms          rms(c)
DAV:   1    -0.361488877978E+03   -0.15507E-01   -0.16761E+01  5152   0.113E+01    0.162E+00
RMM:   2    -0.361554680954E+03   -0.65803E-01   -0.82414E-01  7368   0.240E+00    0.107E+00
RMM:   3    -0.361510749407E+03    0.43932E-01   -0.10740E-01  7637   0.727E-01    0.573E-01
RMM:   4    -0.361507313164E+03    0.34362E-02   -0.24786E-02  7785   0.251E-01    0.356E-01
RMM:   5    -0.361506134204E+03    0.11790E-02   -0.95228E-03  7806   0.174E-01    0.224E-01
RMM:   6    -0.361505867922E+03    0.26628E-03   -0.42301E-03  7915   0.118E-01    0.135E-01
RMM:   7    -0.361505787445E+03    0.80477E-04   -0.16804E-03  8748   0.594E-02    0.870E-02
RMM:   8    -0.361505799964E+03   -0.12519E-04   -0.73989E-04  8050   0.359E-02    0.564E-02
RMM:   9    -0.361505813775E+03   -0.13811E-04   -0.30364E-04  6985   0.270E-02    0.312E-02
RMM:  10    -0.361505819857E+03   -0.60821E-05   -0.14646E-04  5858   0.193E-02    0.211E-02
RMM:  11    -0.361505819319E+03    0.53734E-06   -0.81713E-05  5139   0.159E-02
   5 F= -.36150582E+03 E0= -.36151141E+03  d E =-.536949E-01
       N       E                     dE             d eps       ncg     rms          rms(c)
DAV:   1    -0.361506195781E+03   -0.37592E-03   -0.64996E-01  5488   0.223E+00    0.320E-01
RMM:   2    -0.361508683341E+03   -0.24876E-02   -0.31611E-02  7393   0.469E-01    0.207E-01
RMM:   3    -0.361506963455E+03    0.17199E-02   -0.40272E-03  7570   0.138E-01    0.108E-01
RMM:   4    -0.361506851624E+03    0.11183E-03   -0.10278E-03  7796   0.505E-02    0.659E-02
RMM:   5    -0.361506808749E+03    0.42875E-04   -0.38697E-04  7636   0.348E-02    0.418E-02
RMM:   6    -0.361506799548E+03    0.92010E-05   -0.17581E-04  7067   0.230E-02    0.262E-02
RMM:   7    -0.361506792057E+03    0.74913E-05   -0.54891E-05  4790   0.134E-02
   6 F= -.36150679E+03 E0= -.36151222E+03  d E =-.546676E-01
       N       E                     dE             d eps       ncg     rms          rms(c)
DAV:   1    -0.361512888702E+03   -0.60892E-02   -0.49521E-01  5344   0.200E+00    0.324E-01
RMM:   2    -0.361514555756E+03   -0.16671E-02   -0.26390E-02  7497   0.426E-01    0.179E-01
RMM:   3    -0.361513351925E+03    0.12038E-02   -0.31671E-03  7645   0.112E-01    0.109E-01
RMM:   4    -0.361513172640E+03    0.17929E-03   -0.88767E-04  7624   0.525E-02    0.613E-02
RMM:   5    -0.361513136533E+03    0.36107E-04   -0.34593E-04  7740   0.353E-02    0.393E-02
RMM:   6    -0.361513128683E+03    0.78498E-05   -0.14310E-04  6193   0.195E-02    0.270E-02
RMM:   7    -0.361513121592E+03    0.70911E-05   -0.56997E-05  4647   0.133E-02
   7 F= -.36151312E+03 E0= -.36151846E+03  d E =-.632954E-02
       N       E                     dE             d eps       ncg     rms          rms(c)
DAV:   1    -0.361521997385E+03   -0.88687E-02   -0.44571E+00  5152   0.601E+00    0.972E-01
RMM:   2    -0.361537218301E+03   -0.15221E-01   -0.23895E-01  7504   0.128E+00    0.545E-01
RMM:   3    -0.361526309320E+03    0.10909E-01   -0.29200E-02  7733   0.340E-01    0.335E-01
RMM:   4    -0.361524664646E+03    0.16447E-02   -0.81338E-03  7649   0.160E-01    0.188E-01
RMM:   5    -0.361524339141E+03    0.32550E-03   -0.31589E-03  7853   0.107E-01    0.119E-01
RMM:   6    -0.361524295643E+03    0.43497E-04   -0.13523E-03  8068   0.582E-02    0.800E-02
RMM:   7    -0.361524266742E+03    0.28901E-04   -0.55573E-04  7491   0.337E-02    0.504E-02
RMM:   8    -0.361524273046E+03   -0.63038E-05   -0.23505E-04  6340   0.235E-02    0.292E-02
RMM:   9    -0.361524276138E+03   -0.30921E-05   -0.12918E-04  5598   0.190E-02    0.168E-02
RMM:  10    -0.361524276302E+03   -0.16386E-06   -0.62160E-05  5013   0.147E-02
   8 F= -.36152428E+03 E0= -.36152929E+03  d E =-.174842E-01
       N       E                     dE             d eps       ncg     rms          rms(c)
DAV:   1    -0.361525002491E+03   -0.72635E-03   -0.89425E-01  5216   0.269E+00    0.435E-01
RMM:   2    -0.361528072702E+03   -0.30702E-02   -0.47764E-02  7515   0.571E-01    0.243E-01
RMM:   3    -0.361525893562E+03    0.21791E-02   -0.58196E-03  7659   0.151E-01    0.147E-01
RMM:   4    -0.361525576402E+03    0.31716E-03   -0.16661E-03  7642   0.716E-02    0.825E-02
RMM:   5    -0.361525512332E+03    0.64071E-04   -0.64554E-04  7852   0.475E-02    0.525E-02
RMM:   6    -0.361525501407E+03    0.10925E-04   -0.27302E-04  7000   0.260E-02    0.358E-02
RMM:   7    -0.361525491706E+03    0.97008E-05   -0.10622E-04  5457   0.166E-02    0.226E-02
RMM:   8    -0.361525489993E+03    0.17130E-05   -0.60633E-05  4585   0.145E-02
   9 F= -.36152549E+03 E0= -.36153033E+03  d E =-.186979E-01
       N       E                     dE             d eps       ncg     rms          rms(c)
DAV:   1    -0.361536306038E+03   -0.10814E-01   -0.67590E-01  5824   0.258E+00    0.800E-01
RMM:   2    -0.361533792544E+03    0.25135E-02   -0.57580E-02  7424   0.640E-01    0.301E-01
RMM:   3    -0.361531696507E+03    0.20960E-02   -0.12248E-02  7875   0.202E-01    0.235E-01
RMM:   4    -0.361530176609E+03    0.15199E-02   -0.35686E-03  7863   0.127E-01    0.113E-01
RMM:   5    -0.361530047629E+03    0.12898E-03   -0.10478E-03  7814   0.637E-02    0.829E-02
RMM:   6    -0.361530084651E+03   -0.37022E-04   -0.45752E-04  7510   0.334E-02    0.561E-02
RMM:   7    -0.361530107979E+03   -0.23328E-04   -0.16917E-04  6441   0.248E-02    0.301E-02
RMM:   8    -0.361530131601E+03   -0.23622E-04   -0.11138E-04  5621   0.175E-02    0.202E-02
RMM:   9    -0.361530148366E+03   -0.16765E-04   -0.41239E-05  4190   0.133E-02    0.134E-02
RMM:  10    -0.361530161805E+03   -0.13439E-04   -0.24989E-05  3802   0.118E-02    0.708E-03
RMM:  11    -0.361530167538E+03   -0.57337E-05   -0.15231E-05  3395   0.114E-02
  10 F= -.36153017E+03 E0= -.36153481E+03  d E =-.467755E-02
       N       E                     dE             d eps       ncg     rms          rms(c)
DAV:   1    -0.361538503192E+03   -0.83414E-02   -0.71678E-01  5760   0.267E+00    0.821E-01
RMM:   2    -0.361535869882E+03    0.26333E-02   -0.60364E-02  7292   0.658E-01    0.307E-01
RMM:   3    -0.361533593363E+03    0.22765E-02   -0.12581E-02  7855   0.208E-01    0.236E-01
RMM:   4    -0.361532029224E+03    0.15641E-02   -0.36694E-03  7865   0.129E-01    0.114E-01
RMM:   5    -0.361531911211E+03    0.11801E-03   -0.10670E-03  7796   0.640E-02    0.846E-02
RMM:   6    -0.361531957432E+03   -0.46221E-04   -0.46287E-04  7547   0.340E-02    0.587E-02
RMM:   7    -0.361531989980E+03   -0.32548E-04   -0.17834E-04  6456   0.252E-02    0.323E-02
RMM:   8    -0.361532019128E+03   -0.29148E-04   -0.12307E-04  5820   0.183E-02    0.219E-02
RMM:   9    -0.361532039148E+03   -0.20020E-04   -0.46960E-05  4312   0.142E-02    0.145E-02
RMM:  10    -0.361532054703E+03   -0.15555E-04   -0.28904E-05  3886   0.124E-02    0.733E-03
RMM:  11    -0.361532060868E+03   -0.61647E-05   -0.18669E-05  3643   0.120E-02
  11 F= -.36153206E+03 E0= -.36153650E+03  d E =-.657087E-02
       N       E                     dE             d eps       ncg     rms          rms(c)
DAV:   1    -0.361532199996E+03   -0.14529E-03   -0.13923E-02  5776   0.373E-01    0.113E-01
RMM:   2    -0.361532147859E+03    0.52137E-04   -0.11499E-03  7024   0.927E-02    0.420E-02
RMM:   3    -0.361532104869E+03    0.42991E-04   -0.22556E-04  6953   0.289E-02    0.313E-02
RMM:   4    -0.361532078838E+03    0.26031E-04   -0.66082E-05  4686   0.185E-02    0.152E-02
RMM:   5    -0.361532078637E+03    0.20065E-06   -0.16771E-05  3048   0.126E-02
  12 F= -.36153208E+03 E0= -.36153650E+03  d E =-.658864E-02
       N       E                     dE             d eps       ncg     rms          rms(c)
DAV:   1    -0.361534204350E+03   -0.21255E-02   -0.21694E-01  5256   0.123E+00    0.878E-02
RMM:   2    -0.361534714477E+03   -0.51013E-03   -0.61737E-03  6578   0.220E-01    0.579E-02
RMM:   3    -0.361534625226E+03    0.89252E-04   -0.84169E-04  7286   0.679E-02    0.391E-02
RMM:   4    -0.361534626198E+03   -0.97241E-06   -0.23329E-04  6682   0.192E-02    0.275E-02
RMM:   5    -0.361534623404E+03    0.27946E-05   -0.70524E-05  5194   0.130E-02
  13 F= -.36153462E+03 E0= -.36153891E+03  d E =-.254477E-02
       N       E                     dE             d eps       ncg     rms          rms(c)
DAV:   1    -0.361536748714E+03   -0.21225E-02   -0.19513E+00  5264   0.368E+00    0.259E-01
RMM:   2    -0.361541320370E+03   -0.45717E-02   -0.55301E-02  6579   0.658E-01    0.174E-01
RMM:   3    -0.361540495497E+03    0.82487E-03   -0.75234E-03  7500   0.202E-01    0.116E-01
RMM:   4    -0.361540495905E+03   -0.40805E-06   -0.20368E-03  8538   0.552E-02    0.812E-02
RMM:   5    -0.361540455488E+03    0.40417E-04   -0.66926E-04  7645   0.414E-02    0.426E-02
RMM:   6    -0.361540458822E+03   -0.33340E-05   -0.28197E-04  7097   0.262E-02    0.186E-02
RMM:   7    -0.361540458125E+03    0.69688E-06   -0.98517E-05  5055   0.143E-02
  14 F= -.36154046E+03 E0= -.36154431E+03  d E =-.837949E-02
       N       E                     dE             d eps       ncg     rms          rms(c)
DAV:   1    -0.361529690298E+03    0.10769E-01   -0.78061E+00  5152   0.736E+00    0.517E-01
RMM:   2    -0.361547621541E+03   -0.17931E-01   -0.21980E-01  6496   0.132E+00    0.341E-01
RMM:   3    -0.361544536163E+03    0.30854E-02   -0.29837E-02  7523   0.409E-01    0.230E-01
RMM:   4    -0.361544509919E+03    0.26243E-04   -0.79484E-03  8737   0.109E-01    0.162E-01
RMM:   5    -0.361544346862E+03    0.16306E-03   -0.25852E-03  8016   0.819E-02    0.869E-02
RMM:   6    -0.361544359331E+03   -0.12469E-04   -0.11144E-03  8115   0.523E-02    0.374E-02
RMM:   7    -0.361544357111E+03    0.22203E-05   -0.43189E-04  7304   0.258E-02    0.209E-02
RMM:   8    -0.361544363430E+03   -0.63193E-05   -0.12710E-04  5116   0.163E-02    0.139E-02
RMM:   9    -0.361544371552E+03   -0.81225E-05   -0.96074E-05  4717   0.138E-02
  15 F= -.36154437E+03 E0= -.36154727E+03  d E =-.122929E-01
       N       E                     dE             d eps       ncg     rms          rms(c)
DAV:   1    -0.361550107237E+03   -0.57438E-02   -0.13500E+00  5440   0.346E+00    0.709E-01
RMM:   2    -0.361551924682E+03   -0.18174E-02   -0.83543E-02  7373   0.772E-01    0.336E-01
RMM:   3    -0.361548361159E+03    0.35635E-02   -0.12144E-02  7670   0.234E-01    0.224E-01
RMM:   4    -0.361547266560E+03    0.10946E-02   -0.36611E-03  7849   0.117E-01    0.118E-01
RMM:   5    -0.361547103935E+03    0.16262E-03   -0.12615E-03  7835   0.681E-02    0.828E-02
RMM:   6    -0.361547076202E+03    0.27734E-04   -0.53104E-04  7817   0.375E-02    0.573E-02
RMM:   7    -0.361547061294E+03    0.14907E-04   -0.22963E-04  6501   0.244E-02    0.319E-02
RMM:   8    -0.361547059222E+03    0.20724E-05   -0.11014E-04  5680   0.181E-02    0.184E-02
RMM:   9    -0.361547059048E+03    0.17362E-06   -0.62971E-05  4803   0.149E-02
  16 F= -.36154706E+03 E0= -.36154957E+03  d E =-.268750E-02
       N       E                     dE             d eps       ncg     rms          rms(c)
DAV:   1    -0.361548047617E+03   -0.98840E-03   -0.34336E-01  5544   0.174E+00    0.354E-01
RMM:   2    -0.361548547525E+03   -0.49991E-03   -0.21075E-02  7367   0.387E-01    0.167E-01
RMM:   3    -0.361547628046E+03    0.91948E-03   -0.30157E-03  7698   0.116E-01    0.109E-01
RMM:   4    -0.361547365494E+03    0.26255E-03   -0.91592E-04  7796   0.581E-02    0.576E-02
RMM:   5    -0.361547326425E+03    0.39070E-04   -0.32285E-04  7785   0.339E-02    0.411E-02
RMM:   6    -0.361547318501E+03    0.79234E-05   -0.13401E-04  6422   0.189E-02    0.293E-02
RMM:   7    -0.361547311754E+03    0.67479E-05   -0.56987E-05  4674   0.134E-02
  17 F= -.36154731E+03 E0= -.36154962E+03  d E =-.294020E-02
       N       E                     dE             d eps       ncg     rms          rms(c)
DAV:   1    -0.361549564680E+03   -0.22462E-02   -0.57649E-01  5184   0.225E+00    0.394E-01
RMM:   2    -0.361550407291E+03   -0.84261E-03   -0.31590E-02  7408   0.483E-01    0.178E-01
RMM:   3    -0.361549861607E+03    0.54568E-03   -0.42938E-03  7653   0.140E-01    0.136E-01
RMM:   4    -0.361549470179E+03    0.39143E-03   -0.12668E-03  7674   0.657E-02    0.725E-02
RMM:   5    -0.361549411721E+03    0.58458E-04   -0.47400E-04  7809   0.394E-02    0.474E-02
RMM:   6    -0.361549414687E+03   -0.29660E-05   -0.18694E-04  6792   0.223E-02    0.297E-02
RMM:   7    -0.361549417246E+03   -0.25589E-05   -0.73013E-05  5030   0.150E-02
  18 F= -.36154942E+03 E0= -.36155152E+03  d E =-.210549E-02
       N       E                     dE             d eps       ncg     rms          rms(c)
DAV:   1    -0.361550734339E+03   -0.13197E-02   -0.14539E+00  5152   0.358E+00    0.617E-01
RMM:   2    -0.361552797219E+03   -0.20629E-02   -0.78646E-02  7362   0.765E-01    0.273E-01
RMM:   3    -0.361551407987E+03    0.13892E-02   -0.10188E-02  7614   0.218E-01    0.207E-01
RMM:   4    -0.361550483591E+03    0.92440E-03   -0.30455E-03  7662   0.101E-01    0.110E-01
RMM:   5    -0.361550361997E+03    0.12159E-03   -0.11727E-03  7928   0.612E-02    0.736E-02
RMM:   6    -0.361550380117E+03   -0.18120E-04   -0.47032E-04  7806   0.347E-02    0.481E-02
RMM:   7    -0.361550390808E+03   -0.10691E-04   -0.19817E-04  6258   0.223E-02    0.284E-02
RMM:   8    -0.361550407710E+03   -0.16902E-04   -0.10126E-04  5218   0.177E-02    0.171E-02
RMM:   9    -0.361550420048E+03   -0.12337E-04   -0.53932E-05  4817   0.146E-02    0.112E-02
RMM:  10    -0.361550427160E+03   -0.71118E-05   -0.21023E-05  3743   0.119E-02
  19 F= -.36155043E+03 E0= -.36155221E+03  d E =-.311541E-02
       N       E                     dE             d eps       ncg     rms          rms(c)
DAV:   1    -0.361550505638E+03   -0.85590E-04   -0.34306E-02  5568   0.550E-01    0.982E-02
RMM:   2    -0.361550557770E+03   -0.52132E-04   -0.19136E-03  7189   0.120E-01    0.442E-02
RMM:   3    -0.361550518460E+03    0.39310E-04   -0.24749E-04  7178   0.367E-02    0.345E-02
RMM:   4    -0.361550491283E+03    0.27177E-04   -0.69199E-05  5863   0.173E-02    0.185E-02
RMM:   5    -0.361550484794E+03    0.64890E-05   -0.18479E-05  2964   0.117E-02
  20 F= -.36155048E+03 E0= -.36155231E+03  d E =-.317304E-02
       N       E                     dE             d eps       ncg     rms          rms(c)
DAV:   1    -0.361550749198E+03   -0.25791E-03   -0.76986E-02  5344   0.801E-01    0.630E-02
RMM:   2    -0.361550965951E+03   -0.21675E-03   -0.27975E-03  6740   0.157E-01    0.323E-02
RMM:   3    -0.361550948992E+03    0.16959E-04   -0.27384E-04  6945   0.444E-02    0.256E-02
RMM:   4    -0.361550943130E+03    0.58613E-05   -0.69695E-05  4952   0.136E-02
  21 F= -.36155094E+03 E0= -.36155275E+03  d E =-.458336E-03
       N       E                     dE             d eps       ncg     rms          rms(c)
DAV:   1    -0.361550111745E+03    0.83725E-03   -0.69162E-01  5152   0.240E+00    0.191E-01
RMM:   2    -0.361552056813E+03   -0.19451E-02   -0.25166E-02  7075   0.469E-01    0.104E-01
RMM:   3    -0.361552004339E+03    0.52474E-04   -0.28897E-03  7604   0.128E-01    0.813E-02
RMM:   4    -0.361551957043E+03    0.47295E-04   -0.65668E-04  8335   0.393E-02    0.540E-02
RMM:   5    -0.361551950566E+03    0.64770E-05   -0.27334E-04  7422   0.293E-02    0.309E-02
RMM:   6    -0.361551936727E+03    0.13839E-04   -0.10911E-04  6644   0.190E-02    0.150E-02
RMM:   7    -0.361551934394E+03    0.23326E-05   -0.27222E-05  3743   0.117E-02
  22 F= -.36155193E+03 E0= -.36155369E+03  d E =-.144960E-02
       N       E                     dE             d eps       ncg     rms          rms(c)
DAV:   1    -0.361544896424E+03    0.70403E-02   -0.27714E+00  5152   0.480E+00    0.382E-01
RMM:   2    -0.361552713614E+03   -0.78172E-02   -0.10097E-01  7039   0.939E-01    0.202E-01
RMM:   3    -0.361552469841E+03    0.24377E-03   -0.11174E-02  7637   0.256E-01    0.156E-01
RMM:   4    -0.361552318707E+03    0.15113E-03   -0.24974E-03  8525   0.757E-02    0.105E-01
RMM:   5    -0.361552298272E+03    0.20435E-04   -0.10353E-03  7966   0.568E-02    0.603E-02
RMM:   6    -0.361552250789E+03    0.47482E-04   -0.42564E-04  7935   0.371E-02    0.281E-02
RMM:   7    -0.361552248398E+03    0.23909E-05   -0.12572E-04  5144   0.171E-02    0.199E-02
RMM:   8    -0.361552250079E+03   -0.16809E-05   -0.82026E-05  4793   0.164E-02
  23 F= -.36155225E+03 E0= -.36155391E+03  d E =-.176528E-02
       N       E                     dE             d eps       ncg     rms          rms(c)
DAV:   1    -0.361551273458E+03    0.97494E-03   -0.45576E-01  5152   0.195E+00    0.155E-01
RMM:   2    -0.361552512724E+03   -0.12393E-02   -0.16371E-02  6806   0.380E-01    0.784E-02
RMM:   3    -0.361552435922E+03    0.76802E-04   -0.16518E-03  7575   0.105E-01    0.625E-02
RMM:   4    -0.361552404183E+03    0.31739E-04   -0.37361E-04  7940   0.297E-02    0.410E-02
RMM:   5    -0.361552400388E+03    0.37952E-05   -0.14401E-04  6786   0.216E-02    0.244E-02
RMM:   6    -0.361552394311E+03    0.60767E-05   -0.53163E-05  5110   0.152E-02
  24 F= -.36155239E+03 E0= -.36155409E+03  d E =-.190952E-02
       N       E                     dE             d eps       ncg     rms          rms(c)
DAV:   1    -0.361553830689E+03   -0.14303E-02   -0.44267E-01  5352   0.201E+00    0.415E-01
RMM:   2    -0.361554437050E+03   -0.60636E-03   -0.27283E-02  6989   0.442E-01    0.186E-01
RMM:   3    -0.361553288322E+03    0.11487E-02   -0.37500E-03  7670   0.141E-01    0.127E-01
RMM:   4    -0.361552938407E+03    0.34992E-03   -0.11532E-03  7774   0.670E-02    0.668E-02
RMM:   5    -0.361552886193E+03    0.52214E-04   -0.34837E-04  7700   0.384E-02    0.469E-02
RMM:   6    -0.361552899523E+03   -0.13330E-04   -0.15166E-04  6797   0.204E-02    0.315E-02
RMM:   7    -0.361552908141E+03   -0.86179E-05   -0.58183E-05  4926   0.146E-02
  25 F= -.36155291E+03 E0= -.36155457E+03  d E =-.513830E-03
       N       E                     dE             d eps       ncg     rms          rms(c)
DAV:   1    -0.361552985408E+03   -0.85885E-04   -0.41937E-02  5488   0.617E-01    0.124E-01
RMM:   2    -0.361553033782E+03   -0.48374E-04   -0.25380E-03  6972   0.135E-01    0.543E-02
RMM:   3    -0.361552937936E+03    0.95847E-04   -0.34706E-04  7352   0.429E-02    0.368E-02
RMM:   4    -0.361552914290E+03    0.23646E-04   -0.11379E-04  6276   0.211E-02    0.205E-02
RMM:   5    -0.361552914531E+03   -0.24134E-06   -0.32323E-05  3692   0.143E-02
  26 F= -.36155291E+03 E0= -.36155456E+03  d E =-.520220E-03
       N       E                     dE             d eps       ncg     rms          rms(c)
DAV:   1    -0.361552993661E+03   -0.79371E-04   -0.13411E-01  5184   0.105E+00    0.102E-01
RMM:   2    -0.361553331366E+03   -0.33771E-03   -0.51055E-03  7570   0.207E-01    0.569E-02
RMM:   3    -0.361553322614E+03    0.87521E-05   -0.62554E-04  7604   0.547E-02    0.430E-02
RMM:   4    -0.361553302685E+03    0.19929E-04   -0.15996E-04  6734   0.207E-02    0.261E-02
RMM:   5    -0.361553300348E+03    0.23371E-05   -0.60687E-05  4979   0.131E-02
  27 F= -.36155330E+03 E0= -.36155491E+03  d E =-.385817E-03
       N       E                     dE             d eps       ncg     rms          rms(c)
DAV:   1    -0.361551351229E+03    0.19515E-02   -0.10877E+00  5152   0.298E+00    0.279E-01
RMM:   2    -0.361554042581E+03   -0.26914E-02   -0.40771E-02  7462   0.585E-01    0.150E-01
RMM:   3    -0.361553897747E+03    0.14483E-03   -0.45554E-03  7695   0.152E-01    0.113E-01
RMM:   4    -0.361553736494E+03    0.16125E-03   -0.10950E-03  8124   0.544E-02    0.682E-02
RMM:   5    -0.361553722581E+03    0.13913E-04   -0.48534E-04  7760   0.390E-02    0.385E-02
RMM:   6    -0.361553703298E+03    0.19283E-04   -0.19061E-04  6959   0.231E-02    0.222E-02
RMM:   7    -0.361553699796E+03    0.35025E-05   -0.59570E-05  4509   0.143E-02
  28 F= -.36155370E+03 E0= -.36155524E+03  d E =-.785265E-03
       N       E                     dE             d eps       ncg     rms          rms(c)
DAV:   1    -0.361554089980E+03   -0.38668E-03   -0.26122E-02  5736   0.524E-01    0.145E-01
RMM:   2    -0.361554074378E+03    0.15601E-04   -0.22546E-03  7484   0.131E-01    0.590E-02
RMM:   3    -0.361553955180E+03    0.11920E-03   -0.39093E-04  7523   0.397E-02    0.415E-02
RMM:   4    -0.361553907226E+03    0.47954E-04   -0.12109E-04  6517   0.232E-02    0.210E-02
RMM:   5    -0.361553897897E+03    0.93291E-05   -0.27192E-05  3437   0.146E-02
  29 F= -.36155390E+03 E0= -.36155544E+03  d E =-.198101E-03
       N       E                     dE             d eps       ncg     rms          rms(c)
DAV:   1    -0.361554585426E+03   -0.67820E-03   -0.80986E-02  5632   0.925E-01    0.256E-01
RMM:   2    -0.361554516652E+03    0.68774E-04   -0.69987E-03  7571   0.230E-01    0.106E-01
RMM:   3    -0.361554145656E+03    0.37100E-03   -0.12477E-03  7728   0.696E-02    0.753E-02
RMM:   4    -0.361553996418E+03    0.14924E-03   -0.38949E-04  7576   0.424E-02    0.382E-02
RMM:   5    -0.361553976197E+03    0.20221E-04   -0.11123E-04  6656   0.231E-02    0.289E-02
RMM:   6    -0.361553972399E+03    0.37985E-05   -0.52275E-05  4612   0.126E-02
  30 F= -.36155397E+03 E0= -.36155551E+03  d E =-.272603E-03
       N       E                     dE             d eps       ncg     rms          rms(c)
DAV:   1    -0.361554073432E+03   -0.97235E-04   -0.11717E-02  5400   0.323E-01    0.539E-02
RMM:   2    -0.361554093190E+03   -0.19758E-04   -0.68885E-04  7616   0.708E-02    0.289E-02
RMM:   3    -0.361554084331E+03    0.88582E-05   -0.10416E-04  5766   0.208E-02    0.217E-02
RMM:   4    -0.361554076792E+03    0.75398E-05   -0.38668E-05  4105   0.137E-02
  31 F= -.36155408E+03 E0= -.36155562E+03  d E =-.104393E-03
       N       E                     dE             d eps       ncg     rms          rms(c)
DAV:   1    -0.361554173013E+03   -0.88681E-04   -0.10490E-01  5168   0.971E-01    0.143E-01
RMM:   2    -0.361554362252E+03   -0.18924E-03   -0.55161E-03  7529   0.204E-01    0.699E-02
RMM:   3    -0.361554287861E+03    0.74392E-04   -0.69391E-04  7610   0.559E-02    0.541E-02
RMM:   4    -0.361554235267E+03    0.52594E-04   -0.20747E-04  7142   0.253E-02    0.303E-02
RMM:   5    -0.361554229636E+03    0.56306E-05   -0.81664E-05  6266   0.168E-02
  32 F= -.36155423E+03 E0= -.36155578E+03  d E =-.257237E-03
       N       E                     dE             d eps       ncg     rms          rms(c)
DAV:   1    -0.361554229340E+03    0.59271E-05   -0.44607E-03  5456   0.201E-01    0.289E-02
RMM:   2    -0.361554243747E+03   -0.14407E-04   -0.26622E-04  7454   0.424E-02    0.187E-02
RMM:   3    -0.361554236246E+03    0.75010E-05   -0.34356E-05  3926   0.125E-02
  33 F= -.36155424E+03 E0= -.36155578E+03  d E =-.263847E-03
       N       E                     dE             d eps       ncg     rms          rms(c)
DAV:   1    -0.361554481552E+03   -0.23781E-03   -0.87049E-03  6768   0.320E-01    0.118E-01
RMM:   2    -0.361554411158E+03    0.70394E-04   -0.12271E-03  7659   0.901E-02    0.487E-02
RMM:   3    -0.361554327312E+03    0.83845E-04   -0.23999E-04  6928   0.261E-02    0.323E-02
RMM:   4    -0.361554302331E+03    0.24982E-04   -0.72061E-05  5163   0.198E-02    0.167E-02
RMM:   5    -0.361554300510E+03    0.18207E-05   -0.17075E-05  3020   0.133E-02
  34 F= -.36155430E+03 E0= -.36155584E+03  d E =-.642641E-04
       N       E                     dE             d eps       ncg     rms          rms(c)
DAV:   1    -0.361554487680E+03   -0.18535E-03   -0.90027E-03  6728   0.329E-01    0.115E-01
RMM:   2    -0.361554422977E+03    0.64703E-04   -0.11998E-03  7595   0.902E-02    0.489E-02
RMM:   3    -0.361554335220E+03    0.87757E-04   -0.22852E-04  6979   0.259E-02    0.316E-02
RMM:   4    -0.361554313911E+03    0.21309E-04   -0.73499E-05  5046   0.200E-02    0.168E-02
RMM:   5    -0.361554313911E+03   -0.21100E-09   -0.16226E-05  2952   0.132E-02
  35 F= -.36155431E+03 E0= -.36155584E+03  d E =-.776653E-04
       N       E                     dE             d eps       ncg     rms          rms(c)
DAV:   1    -0.361554397325E+03   -0.83414E-04   -0.84277E-03  5264   0.266E-01    0.434E-02
RMM:   2    -0.361554414048E+03   -0.16723E-04   -0.44285E-04  7628   0.569E-02    0.235E-02
RMM:   3    -0.361554411568E+03    0.24802E-05   -0.67627E-05  5143   0.166E-02
  36 F= -.36155441E+03 E0= -.36155592E+03  d E =-.976564E-04
       N       E                     dE             d eps       ncg     rms          rms(c)
DAV:   1    -0.361554492478E+03   -0.78430E-04   -0.75449E-02  5168   0.797E-01    0.121E-01
RMM:   2    -0.361554564607E+03   -0.72129E-04   -0.37954E-03  7637   0.167E-01    0.601E-02
RMM:   3    -0.361554525529E+03    0.39079E-04   -0.54520E-04  7596   0.448E-02    0.438E-02
RMM:   4    -0.361554493029E+03    0.32500E-04   -0.17942E-04  6854   0.223E-02    0.246E-02
RMM:   5    -0.361554484931E+03    0.80974E-05   -0.71525E-05  5334   0.140E-02
  37 F= -.36155448E+03 E0= -.36155594E+03  d E =-.171020E-03
       N       E                     dE             d eps       ncg     rms          rms(c)
DAV:   1    -0.361554490505E+03    0.25239E-05   -0.31095E-03  5376   0.162E-01    0.262E-02
RMM:   2    -0.361554493004E+03   -0.24996E-05   -0.16002E-04  6839   0.347E-02    0.130E-02
RMM:   3    -0.361554488213E+03    0.47913E-05   -0.13416E-05  2897   0.115E-02
  38 F= -.36155449E+03 E0= -.36155596E+03  d E =-.174302E-03
       N       E                     dE             d eps       ncg     rms          rms(c)
DAV:   1    -0.361554507651E+03   -0.14646E-04   -0.82132E-03  5296   0.269E-01    0.284E-02
RMM:   2    -0.361554533646E+03   -0.25995E-04   -0.35812E-04  6540   0.531E-02    0.130E-02
RMM:   3    -0.361554526904E+03    0.67423E-05   -0.23932E-05  3286   0.176E-02
  39 F= -.36155453E+03 E0= -.36155599E+03  d E =-.386906E-04
       N       E                     dE             d eps       ncg     rms          rms(c)
DAV:   1    -0.361554511782E+03    0.21864E-04   -0.35056E-02  5168   0.549E-01    0.609E-02
RMM:   2    -0.361554611542E+03   -0.99760E-04   -0.15318E-03  7380   0.110E-01    0.311E-02
RMM:   3    -0.361554594710E+03    0.16832E-04   -0.17002E-04  6887   0.301E-02    0.236E-02
RMM:   4    -0.361554585813E+03    0.88969E-05   -0.39312E-05  4247   0.128E-02
  40 F= -.36155459E+03 E0= -.36155605E+03  d E =-.975995E-04
       N       E                     dE             d eps       ncg     rms          rms(c)
DAV:   1    -0.361554315343E+03    0.27937E-03   -0.13944E-01  5152   0.110E+00    0.117E-01
RMM:   2    -0.361554716833E+03   -0.40149E-03   -0.59653E-03  7437   0.219E-01    0.604E-02
RMM:   3    -0.361554664228E+03    0.52606E-04   -0.63905E-04  7570   0.586E-02    0.460E-02
RMM:   4    -0.361554632144E+03    0.32084E-04   -0.16425E-04  6915   0.223E-02    0.260E-02
RMM:   5    -0.361554627480E+03    0.46643E-05   -0.69709E-05  5601   0.149E-02
  41 F= -.36155463E+03 E0= -.36155607E+03  d E =-.139266E-03
       N       E                     dE             d eps       ncg     rms          rms(c)
DAV:   1    -0.361554656128E+03   -0.23984E-04   -0.53363E-03  5704   0.221E-01    0.431E-02
RMM:   2    -0.361554668329E+03   -0.12201E-04   -0.36816E-04  7545   0.497E-02    0.226E-02
RMM:   3    -0.361554655444E+03    0.12885E-04   -0.58887E-05  5385   0.159E-02    0.151E-02
RMM:   4    -0.361554651042E+03    0.44023E-05   -0.15240E-05  2989   0.105E-02
  42 F= -.36155465E+03 E0= -.36155609E+03  d E =-.235622E-04
       N       E                     dE             d eps       ncg     rms          rms(c)
DAV:   1    -0.361554706958E+03   -0.51514E-04   -0.47831E-02  5392   0.661E-01    0.113E-01
RMM:   2    -0.361554802124E+03   -0.95166E-04   -0.27886E-03  6658   0.142E-01    0.521E-02
RMM:   3    -0.361554724470E+03    0.77654E-04   -0.34330E-04  7481   0.438E-02    0.376E-02
RMM:   4    -0.361554699538E+03    0.24932E-04   -0.10011E-04  6235   0.192E-02    0.205E-02
RMM:   5    -0.361554698525E+03    0.10127E-05   -0.28259E-05  3533   0.131E-02
  43 F= -.36155470E+03 E0= -.36155613E+03  d E =-.710458E-04
       N       E                     dE             d eps       ncg     rms          rms(c)
DAV:   1    -0.361554700517E+03   -0.97925E-06   -0.40617E-03  5376   0.194E-01    0.298E-02
RMM:   2    -0.361554713102E+03   -0.12584E-04   -0.24418E-04  6497   0.411E-02    0.160E-02
RMM:   3    -0.361554705457E+03    0.76447E-05   -0.21609E-05  3352   0.133E-02
  44 F= -.36155471E+03 E0= -.36155614E+03  d E =-.779776E-04
