 vasp.5.4.1 05Feb16 (build Jan 29 2020 16:04:39) complex                        
  
 executed on           IFC91_ompi date 2020.06.15  13:00:29
 running on  160 total cores
 distrk:  each k-point on   20 cores,    8 groups
 distr:  one band on NCORES_PER_BAND=   5 cores,    4 groups


--------------------------------------------------------------------------------------------------------


 INCAR:
 POTCAR:    PAW_PBE Zr_sv 04Jan2005               
 POTCAR:    PAW_PBE Nb_sv 25May2007               
 POTCAR:    PAW_PBE Ta 17Jan2003                  
 POTCAR:    PAW_PBE Hf 20Jan2003                  

 ----------------------------------------------------------------------------- 
|                                                                             |
|           W    W    AA    RRRRR   N    N  II  N    N   GGGG   !!!           |
|           W    W   A  A   R    R  NN   N  II  NN   N  G    G  !!!           |
|           W    W  A    A  R    R  N N  N  II  N N  N  G       !!!           |
|           W WW W  AAAAAA  RRRRR   N  N N  II  N  N N  G  GGG   !            |
|           WW  WW  A    A  R   R   N   NN  II  N   NN  G    G                |
|           W    W  A    A  R    R  N    N  II  N    N   GGGG   !!!           |
|                                                                             |
|      For optimal performance we recommend to set                            |
|        NCORE= 4 - approx SQRT( number of cores)                             |
|      NCORE specifies how many cores store one orbital (NPAR=cpu/NCORE).     |
|      This setting can  greatly improve the performance of VASP for DFT.     |
|      The default, NPAR=number of cores might be grossly inefficient         |
|      on modern multi-core architectures or massively parallel machines.     |
|      Do your own testing !!!!                                               |
|      Unfortunately you need to use the default for GW and RPA calculations. |
|      (for HF NCORE is supported but not extensively tested yet)             |
|                                                                             |
 ----------------------------------------------------------------------------- 


 ----------------------------------------------------------------------------- 
|                                                                             |
|           W    W    AA    RRRRR   N    N  II  N    N   GGGG   !!!           |
|           W    W   A  A   R    R  NN   N  II  NN   N  G    G  !!!           |
|           W    W  A    A  R    R  N N  N  II  N N  N  G       !!!           |
|           W WW W  AAAAAA  RRRRR   N  N N  II  N  N N  G  GGG   !            |
|           WW  WW  A    A  R   R   N   NN  II  N   NN  G    G                |
|           W    W  A    A  R    R  N    N  II  N    N   GGGG   !!!           |
|                                                                             |
|      You have enabled k-point parallelism (KPAR>1).                         |
|      This developmental code was originally  written by Paul Kent at ORNL,  |
|      and carefully double checked in Vienna.                                |
|      GW as well as linear response parallelism added by Martijn Marsman     |
|      and Georg Kresse.                                                      |
|      Carefully verify results versus KPAR=1.                                |
|      Report problems to Paul Kent and Vienna.                               |
|                                                                             |
 ----------------------------------------------------------------------------- 

 POTCAR:    PAW_PBE Zr_sv 04Jan2005               
   VRHFIN =Zr: 4s4p5s4d                                                         
   LEXCH  = PE                                                                  
   EATOM  =  1284.2219 eV,   94.3876 Ry                                         
                                                                                
   TITEL  = PAW_PBE Zr_sv 04Jan2005                                             
   LULTRA =        F    use ultrasoft PP ?                                      
   IUNSCR =        1    unscreen: 0-lin 1-nonlin 2-no                           
   RPACOR =    2.200    partial core radius                                     
   POMASS =   91.224; ZVAL   =   12.000    mass and valenz                      
   RCORE  =    2.500    outmost cutoff radius                                   
   RWIGS  =    3.070; RWIGS  =    1.625    wigner-seitz radius (au A)           
   ENMAX  =  229.898; ENMIN  =  172.424 eV                                      
   ICORE  =        3    local potential                                         
   LCOR   =        T    correct aug charges                                     
   LPAW   =        T    paw PP                                                  
   EAUG   =  461.257                                                            
   DEXC   =    0.000                                                            
   RMAX   =    2.561    core radius for proj-oper                               
   RAUG   =    1.300    factor for augmentation sphere                          
   RDEP   =    2.597    radius for radial grids                                 
   RDEPT  =    2.007    core radius for aug-charge                              
                                                                                
   Atomic configuration                                                         
   11 entries                                                                   
     n  l   j            E        occ.                                          
     1  0  0.50    -17820.0161   2.0000                                         
     2  0  0.50     -2467.0882   2.0000                                         
     2  1  1.50     -2199.6095   6.0000                                         
     3  0  0.50      -402.4863   2.0000                                         
     3  1  1.50      -315.3675   6.0000                                         
     3  2  2.50      -172.4472  10.0000                                         
     4  0  0.50       -52.4146   2.0000                                         
     5  0  0.50        -3.8421   1.0000                                         
     4  1  1.50       -30.5054   6.0000                                         
     4  2  2.50        -2.3341   3.0000                                         
     4  3  2.50        -1.3606   0.0000                                         
   Description                                                                  
     l       E           TYP  RCUT    TYP  RCUT                                 
     0    -52.4145962     23  2.200                                             
     0     -3.8421270     23  2.500                                             
     1    -30.5053914     23  2.200                                             
     1     20.4087390     23  2.200                                             
     2     -2.3340816     23  2.500                                             
     2     -0.6120942     23  2.500                                             
     3     -4.0817478     23  2.500                                             
  local pseudopotential read in
  partial core-charges read in
  partial kinetic energy density read in
  atomic valenz-charges read in
  non local Contribution for L=           0  read in
    real space projection operators read in
  non local Contribution for L=           0  read in
    real space projection operators read in
  non local Contribution for L=           1  read in
    real space projection operators read in
  non local Contribution for L=           1  read in
    real space projection operators read in
  non local Contribution for L=           2  read in
    real space projection operators read in
  non local Contribution for L=           2  read in
    real space projection operators read in
    PAW grid and wavefunctions read in
 
   number of l-projection  operators is LMAX  =           6
   number of lm-projection operators is LMMAX =          18
 
 POTCAR:    PAW_PBE Nb_sv 25May2007               
   VRHFIN =Nb: 4p5s4d                                                           
   LEXCH  = PE                                                                  
   EATOM  =  1555.1913 eV,  114.3033 Ry                                         
                                                                                
   TITEL  = PAW_PBE Nb_sv 25May2007                                             
   LULTRA =        F    use ultrasoft PP ?                                      
   IUNSCR =        1    unscreen: 0-lin 1-nonlin 2-no                           
   RPACOR =    1.800    partial core radius                                     
   POMASS =   92.910; ZVAL   =   13.000    mass and valenz                      
   RCORE  =    2.400    outmost cutoff radius                                   
   RWIGS  =    2.400; RWIGS  =    1.270    wigner-seitz radius (au A)           
   ENMAX  =  293.235; ENMIN  =  219.927 eV                                      
   ICORE  =        3    local potential                                         
   LCOR   =        T    correct aug charges                                     
   LPAW   =        T    paw PP                                                  
   EAUG   =  455.659                                                            
   DEXC   =    0.000                                                            
   RMAX   =    2.456    core radius for proj-oper                               
   RAUG   =    1.300    factor for augmentation sphere                          
   RDEP   =    2.451    radius for radial grids                                 
   RDEPT  =    1.956    core radius for aug-charge                              
                                                                                
   Atomic configuration                                                         
   11 entries                                                                   
     n  l   j            E        occ.                                          
     1  0  0.50    -18805.2457   2.0000                                         
     2  0  0.50     -2630.2869   2.0000                                         
     2  1  1.50     -2348.4046   6.0000                                         
     3  0  0.50      -438.8757   2.0000                                         
     3  1  1.50      -346.7588   6.0000                                         
     3  2  2.50      -196.2560  10.0000                                         
     4  0  0.50       -58.3859   2.0000                                         
     5  0  0.50        -3.9816   1.0000                                         
     4  1  1.50       -34.5141   6.0000                                         
     4  2  2.50        -3.0408   4.0000                                         
     4  3  2.50        -1.3606   0.0000                                         
   Description                                                                  
     l       E           TYP  RCUT    TYP  RCUT                                 
     0    -58.3859094     23  2.200                                             
     0     -3.9816262     23  2.200                                             
     1    -34.5140738     23  2.200                                             
     1     13.6058260     23  2.200                                             
     2     -3.0408010     23  2.200                                             
     2     -0.1283038     23  2.200                                             
     3     -1.3605826     23  2.400                                             
  local pseudopotential read in
  partial core-charges read in
  partial kinetic energy density read in
  atomic valenz-charges read in
  non local Contribution for L=           0  read in
    real space projection operators read in
  non local Contribution for L=           0  read in
    real space projection operators read in
  non local Contribution for L=           1  read in
    real space projection operators read in
  non local Contribution for L=           1  read in
    real space projection operators read in
  non local Contribution for L=           2  read in
    real space projection operators read in
  non local Contribution for L=           2  read in
    real space projection operators read in
    PAW grid and wavefunctions read in
 
   number of l-projection  operators is LMAX  =           6
   number of lm-projection operators is LMMAX =          18
 
 POTCAR:    PAW_PBE Ta 17Jan2003                  
   VRHFIN =Ta:  6s5d                                                            
   LEXCH  = PE                                                                  
   EATOM  =   130.6506 eV,    9.6025 Ry                                         
                                                                                
   TITEL  = PAW_PBE Ta 17Jan2003                                                
   LULTRA =        F    use ultrasoft PP ?                                      
   IUNSCR =        1    unscreen: 0-lin 1-nonlin 2-no                           
   RPACOR =    2.330    partial core radius                                     
   POMASS =  180.948; ZVAL   =    5.000    mass and valenz                      
   RCORE  =    2.900    outmost cutoff radius                                   
   RWIGS  =    2.840; RWIGS  =    1.503    wigner-seitz radius (au A)           
   ENMAX  =  223.667; ENMIN  =  167.750 eV                                      
   RCLOC  =    2.205    cutoff for local pot                                    
   LCOR   =        T    correct aug charges                                     
   LPAW   =        T    paw PP                                                  
   EAUG   =  332.075                                                            
   DEXC   =    0.000                                                            
   RMAX   =    2.970    core radius for proj-oper                               
   RAUG   =    1.300    factor for augmentation sphere                          
   RDEP   =    3.060    radius for radial grids                                 
   RDEPT  =    2.354    core radius for aug-charge                              
                                                                                
   Atomic configuration                                                         
   16 entries                                                                   
     n  l   j            E        occ.                                          
     1  0  0.50    -67341.2807   2.0000                                         
     2  0  0.50    -11566.9376   2.0000                                         
     2  1  1.50    -10134.1182   6.0000                                         
     3  0  0.50     -2648.5620   2.0000                                         
     3  1  1.50     -2222.6012   6.0000                                         
     3  2  2.50     -1726.3120  10.0000                                         
     4  0  0.50      -538.6961   2.0000                                         
     4  1  1.50      -399.0129   6.0000                                         
     4  2  2.50      -220.3959  10.0000                                         
     4  3  3.50       -23.0374  14.0000                                         
     5  0  0.50       -71.2901   2.0000                                         
     5  1  1.50       -37.8225   6.0000                                         
     5  2  2.50        -2.6455   4.0000                                         
     6  0  0.50        -4.9623   1.0000                                         
     6  1  1.50        -1.3606   0.0000                                         
     5  3  2.50        -1.3606   0.0000                                         
   Description                                                                  
     l       E           TYP  RCUT    TYP  RCUT                                 
     2     -2.6455043     23  2.500                                             
     2     -0.6258895     23  2.500                                             
     0     -4.9622780     23  2.500                                             
     0      4.7531321     23  2.500                                             
     1     -1.3605826     23  2.900                                             
     1     27.2116520     23  2.900                                             
  local pseudopotential read in
  partial core-charges read in
  partial kinetic energy density read in
  atomic valenz-charges read in
  non local Contribution for L=           2  read in
    real space projection operators read in
  non local Contribution for L=           2  read in
    real space projection operators read in
  non local Contribution for L=           0  read in
    real space projection operators read in
  non local Contribution for L=           0  read in
    real space projection operators read in
  non local Contribution for L=           1  read in
    real space projection operators read in
  non local Contribution for L=           1  read in
    real space projection operators read in
    PAW grid and wavefunctions read in
 
   number of l-projection  operators is LMAX  =           6
   number of lm-projection operators is LMMAX =          18
 
 POTCAR:    PAW_PBE Hf 20Jan2003                  
   VRHFIN =Hf: 6s5d                                                             
   LEXCH  = PE                                                                  
   EATOM  =    75.9011 eV,    5.5786 Ry                                         
                                                                                
   TITEL  = PAW_PBE Hf 20Jan2003                                                
   LULTRA =        F    use ultrasoft PP ?                                      
   IUNSCR =        1    unscreen: 0-lin 1-nonlin 2-no                           
   RPACOR =    2.500    partial core radius                                     
   POMASS =  178.490; ZVAL   =    4.000    mass and valenz                      
   RCORE  =    3.000    outmost cutoff radius                                   
   RWIGS  =    3.050; RWIGS  =    1.614    wigner-seitz radius (au A)           
   ENMAX  =  220.334; ENMIN  =  165.250 eV                                      
   RCLOC  =    2.212    cutoff for local pot                                    
   LCOR   =        T    correct aug charges                                     
   LPAW   =        T    paw PP                                                  
   EAUG   =  335.116                                                            
   DEXC   =    0.000                                                            
   RMAX   =    3.077    core radius for proj-oper                               
   RAUG   =    1.300    factor for augmentation sphere                          
   RDEP   =    3.047    radius for radial grids                                 
   RDEPT  =    2.344    core radius for aug-charge                              
                                                                                
   Atomic configuration                                                         
   16 entries                                                                   
     n  l   j            E        occ.                                          
     1  0  0.50    -65259.4397   2.0000                                         
     2  0  0.50    -11157.9882   2.0000                                         
     2  1  1.50     -9795.2113   6.0000                                         
     3  0  0.50     -2541.4058   2.0000                                         
     3  1  1.50     -2134.4770   6.0000                                         
     3  2  2.50     -1653.5418  10.0000                                         
     4  0  0.50      -510.9575   2.0000                                         
     4  1  1.50      -377.5023   6.0000                                         
     4  2  2.50      -205.2085  10.0000                                         
     4  3  3.50       -15.4905  14.0000                                         
     5  0  0.50       -65.6020   2.0000                                         
     5  1  1.50       -34.2798   6.0000                                         
     5  2  2.50        -1.9877   3.0000                                         
     6  0  0.50        -4.7357   1.0000                                         
     6  1  1.50        -1.3606   0.0000                                         
     5  3  2.50        -1.3606   0.0000                                         
   Description                                                                  
     l       E           TYP  RCUT    TYP  RCUT                                 
     2     -1.9876627     23  2.500                                             
     2      0.0744703     23  2.500                                             
     0     -4.7356889     23  2.600                                             
     0      3.2364747     23  2.600                                             
     1     -1.3605826     23  3.000                                             
     1     27.2116520     23  3.000                                             
  local pseudopotential read in
  partial core-charges read in
  partial kinetic energy density read in
  atomic valenz-charges read in
  non local Contribution for L=           2  read in
    real space projection operators read in
  non local Contribution for L=           2  read in
    real space projection operators read in
  non local Contribution for L=           0  read in
    real space projection operators read in
  non local Contribution for L=           0  read in
    real space projection operators read in
  non local Contribution for L=           1  read in
    real space projection operators read in
  non local Contribution for L=           1  read in
    real space projection operators read in
    PAW grid and wavefunctions read in
 
   number of l-projection  operators is LMAX  =           6
   number of lm-projection operators is LMMAX =          18
 
 Optimization of the real space projectors (new method)

 maximal supplied QI-value         = 15.12
 optimisation between [QCUT,QGAM] = [  8.77, 17.69] = [ 21.53, 87.61] Ry 
 Optimized for a Real-space Cutoff    1.74 Angstroem

   l    n(q)    QCUT    max X(q) W(low)/X(q) W(high)/X(q)  e(spline) 
   0      9     8.768    12.107    0.28E-04    0.53E-06    0.29E-07
   0      9     8.768     9.948    0.36E-04    0.50E-05    0.64E-07
   1      9     8.768     3.563    0.14E-04    0.16E-04    0.88E-07
   1      9     8.768     4.524    0.21E-03    0.33E-03    0.19E-06
   2      8     8.768    87.261    0.19E-03    0.25E-03    0.24E-06
   2      8     8.768    70.950    0.19E-03    0.24E-03    0.24E-06
 Optimization of the real space projectors (new method)

 maximal supplied QI-value         = 15.68
 optimisation between [QCUT,QGAM] = [  8.78, 17.72] = [ 21.60, 87.97] Ry 
 Optimized for a Real-space Cutoff    1.96 Angstroem

   l    n(q)    QCUT    max X(q) W(low)/X(q) W(high)/X(q)  e(spline) 
   0     10     8.783    10.201    0.29E-04    0.25E-05    0.69E-07
   0     10     8.783     8.174    0.45E-04    0.57E-05    0.14E-06
   1     10     8.783     3.488    0.76E-05    0.24E-04    0.95E-07
   1     10     8.783     4.917    0.78E-04    0.14E-03    0.46E-06
   2      9     8.783   153.744    0.22E-03    0.34E-04    0.15E-05
   2      9     8.783   126.342    0.22E-03    0.35E-04    0.15E-05
 Optimization of the real space projectors (new method)

 maximal supplied QI-value         = 12.85
 optimisation between [QCUT,QGAM] = [  8.87, 17.73] = [ 22.01, 88.06] Ry 
 Optimized for a Real-space Cutoff    1.90 Angstroem

   l    n(q)    QCUT    max X(q) W(low)/X(q) W(high)/X(q)  e(spline) 
   2      9     8.867    62.315    0.23E-03    0.62E-04    0.11E-05
   2      9     8.867    52.185    0.23E-03    0.62E-04    0.11E-05
   0     10     8.867   103.837    0.15E-04    0.23E-04    0.98E-07
   0     10     8.867    59.728    0.12E-04    0.21E-04    0.89E-07
   1     10     8.867    13.958    0.50E-04    0.22E-04    0.14E-06
   1     10     8.867     8.441    0.36E-04    0.19E-04    0.98E-07
 Optimization of the real space projectors (new method)

 maximal supplied QI-value         = 12.47
 optimisation between [QCUT,QGAM] = [  8.86, 17.71] = [ 21.96, 87.83] Ry 
 Optimized for a Real-space Cutoff    1.90 Angstroem

   l    n(q)    QCUT    max X(q) W(low)/X(q) W(high)/X(q)  e(spline) 
   2      9     8.855    48.111    0.22E-03    0.80E-04    0.10E-05
   2      9     8.855    40.545    0.21E-03    0.76E-04    0.95E-06
   0     10     8.855   121.658    0.27E-04    0.12E-04    0.11E-06
   0     10     8.855    71.177    0.22E-04    0.11E-04    0.99E-07
   1     10     8.855    14.183    0.65E-04    0.10E-03    0.98E-07
   1     10     8.855     8.257    0.43E-04    0.73E-04    0.72E-07
  PAW_PBE Zr_sv 04Jan2005               :
 energy of atom  1       EATOM=-1284.2219
 kinetic energy error for atom=    0.0483 (will be added to EATOM!!)
  PAW_PBE Nb_sv 25May2007               :
 energy of atom  2       EATOM=-1555.1913
 kinetic energy error for atom=    0.0655 (will be added to EATOM!!)
  PAW_PBE Ta 17Jan2003                  :
 energy of atom  3       EATOM= -130.6506
 kinetic energy error for atom=    0.0121 (will be added to EATOM!!)
  PAW_PBE Hf 20Jan2003                  :
 energy of atom  4       EATOM=  -75.9011
 kinetic energy error for atom=    0.0071 (will be added to EATOM!!)
 
 
 POSCAR: generated by pypospack                  
  positions in direct lattice
  No initial velocities read in
 exchange correlation table for  LEXCH =        8
   RHO(1)=    0.500       N(1)  =     2000
   RHO(2)=  100.500       N(2)  =     4000
 


--------------------------------------------------------------------------------------------------------


 ion  position               nearest neighbor table
   1  0.768  0.833  0.839-  25 3.00  10 3.00  15 3.01  20 3.01   8 3.02  34 3.05  29 3.07  35 3.08
                             5 3.18   2 3.36  33 3.41  26 3.42  22 3.51   5 3.71
   2  0.758  0.835  0.168-  13 2.96  20 2.96  14 2.96  25 3.04  11 3.10   4 3.10  10 3.16   8 3.17
                             6 3.29  18 3.29  22 3.33   1 3.36  31 3.36  31 3.52
   3  0.492  0.338  0.001-  23 2.96  28 2.97  33 2.99   9 3.02  16 3.03   6 3.03  18 3.06  26 3.07
                             8 3.25   7 3.37  20 3.40  30 3.42  17 3.44   7 3.51
   4  0.008  0.661  0.353-  12 2.88  21 2.89  23 2.96  22 2.97   6 2.99  24 3.00  31 3.05   2 3.10
                            15 3.13  36 3.35  11 3.36
   5  0.230  0.842  0.843-  10 2.93   8 2.97  25 2.99  35 3.01  29 3.01  20 3.01  15 3.07  34 3.11
                             1 3.18  28 3.19  31 3.34  16 3.44  21 3.61   1 3.71
   6  0.744  0.512  0.172-  10 2.92  11 2.92  30 2.95   8 2.97   4 2.99   3 3.03  36 3.07   7 3.13
                             2 3.29  23 3.34  24 3.45  23 3.54  26 3.63
   7  0.002  0.331  0.997-  16 2.95  26 3.01  18 3.07   9 3.07  25 3.09  28 3.09  33 3.10  23 3.10
                             6 3.13  10 3.20   3 3.37  32 3.44   3 3.51  36 3.53
   8  0.490  0.658  0.987-  16 2.86  23 2.92   6 2.97   5 2.97  26 3.02   1 3.02  31 3.09   2 3.17
                             3 3.25  10 3.28  34 3.29  20 3.53
   9  0.258  0.157  0.174-  25 2.86  13 2.88  20 2.92  14 2.95  30 2.98   3 3.02  36 3.07   7 3.07
                            27 3.25  31 3.29  18 3.34  28 3.49  23 3.57
  10  0.013  0.646  0.995-  16 2.72  23 2.86   6 2.92   5 2.93  26 2.94   1 3.00  31 3.07   2 3.16
                             7 3.20   8 3.28
  11  0.496  0.664  0.347-  12 2.83  21 2.83  23 2.88  22 2.88   6 2.92  24 2.93  31 3.03   2 3.10
                            34 3.23   4 3.36
  12  0.264  0.494  0.501-  17 2.75  11 2.83  30 2.86   4 2.88  32 2.91  36 2.93  34 2.94  15 2.97
                            24 3.26  23 3.32
  13  0.509  0.000  0.336-  22 2.79  19 2.80  21 2.81  27 2.82  18 2.82   9 2.88   2 2.96  31 2.99
                            29 3.28
  14  0.995  0.003  0.345-  22 2.85  21 2.86  18 2.93  27 2.95   9 2.95  19 2.96   2 2.96  31 3.04
                            35 3.14  36 3.34
  15  0.999  0.660  0.659-  16 2.83  26 2.84  24 2.91  12 2.97   1 3.01  22 3.05   5 3.07  21 3.11
                             4 3.13  32 3.37  34 3.42
  16  0.234  0.504  0.826-  10 2.72  15 2.83   8 2.86  32 2.91  17 2.94   7 2.95  34 2.98   3 3.03
                            26 3.28   5 3.44
  17  0.486  0.339  0.663-  12 2.75  24 2.80  27 2.87  33 2.90  26 2.92  19 2.94  16 2.94  28 2.94
                            32 3.28  34 3.40   3 3.44
  18  0.743  0.159  0.172-  25 2.79  13 2.82  20 2.83  14 2.93  30 2.97  36 3.04   3 3.06   7 3.07
                             2 3.29   9 3.34
  19  0.726  0.165  0.501-  13 2.80  30 2.86  29 2.88  35 2.93  17 2.94  14 2.96  36 2.99  32 3.03
                            27 3.09  33 3.27  22 3.31
  20  0.509  0.005  0.003-  18 2.83  28 2.83  33 2.88   9 2.92   2 2.96   5 3.01   1 3.01  31 3.02
                            25 3.32   3 3.40  29 3.52   8 3.53  25 3.57
  21  0.261  0.842  0.489-  29 2.79  13 2.81  11 2.83  14 2.86   4 2.89  34 2.96  35 2.97  15 3.11
                            31 3.26  27 3.28  22 3.31  22 3.57   5 3.61
  22  0.742  0.840  0.495-  13 2.79  29 2.83  14 2.85  11 2.88  34 2.96   4 2.97  35 2.98  15 3.05
                            19 3.31  21 3.31   2 3.33   1 3.51  24 3.54  21 3.57
  23  0.259  0.508  0.175-  10 2.86  11 2.88   8 2.92  30 2.93   3 2.96   4 2.96  36 3.06   7 3.10
                            12 3.32  31 3.33   6 3.34   6 3.54   9 3.57
  24  0.737  0.492  0.510-  17 2.80  30 2.88  15 2.91  11 2.93  32 2.93  34 2.94  36 2.97   4 3.00
                            26 3.13  12 3.26   6 3.45  22 3.54
  25  0.991  0.027  0.001-  18 2.79   9 2.86  28 2.88  33 2.95   5 2.99   1 3.00   2 3.04   7 3.09
                            31 3.15  20 3.32  35 3.56  20 3.57
  26  0.757  0.498  0.817-  15 2.84  17 2.92  32 2.93  10 2.94  34 2.97   7 3.01   8 3.02   3 3.07
                            24 3.13  16 3.28  33 3.37   1 3.42   6 3.63
  27  0.276  0.164  0.493-  13 2.82  30 2.83  29 2.87  17 2.87  35 2.92  14 2.95  36 2.98  32 3.02
                            19 3.09   9 3.25  21 3.28  28 3.45
  28  0.270  0.154  0.832-  20 2.83  25 2.88  29 2.89  17 2.94  35 2.96   3 2.97  32 3.07   7 3.09
                            33 3.13   5 3.19  27 3.45   9 3.49
  29  0.494  0.989  0.658-  21 2.79  22 2.83  27 2.87  19 2.88  28 2.89  33 2.93   5 3.01   1 3.07
                            34 3.22  13 3.28  35 3.36  20 3.52  35 3.53
  30  0.504  0.336  0.336-  27 2.83  19 2.86  12 2.86  24 2.88  23 2.93   6 2.95  18 2.97   9 2.98
                            36 3.40   3 3.42  36 3.48
  31  0.247  0.834  0.170-  13 2.99  20 3.02  11 3.03  14 3.04   4 3.05  10 3.07   8 3.09  25 3.15
                            21 3.26   9 3.29  23 3.33   5 3.34   2 3.36   2 3.52
  32  0.010  0.329  0.660-  16 2.91  12 2.91  24 2.93  26 2.93  27 3.02  19 3.03  33 3.05  28 3.07
                            36 3.22  35 3.24  17 3.28  15 3.37   7 3.44
  33  0.725  0.167  0.822-  20 2.88  17 2.90  29 2.93  25 2.95   3 2.99  32 3.05  35 3.06   7 3.10
                            28 3.13  19 3.27  26 3.37   1 3.41
  34  0.496  0.672  0.664-  12 2.94  24 2.94  22 2.96  21 2.96  26 2.97  16 2.98   1 3.05   5 3.11
                            29 3.22  11 3.23   8 3.29  17 3.40  15 3.42
  35  0.006  0.010  0.652-  27 2.92  19 2.93  28 2.96  21 2.97  22 2.98   5 3.01  33 3.06   1 3.08
                            14 3.14  32 3.24  29 3.36  29 3.53  25 3.56
  36  0.998  0.332  0.344-  12 2.93  24 2.97  27 2.98  19 2.99  18 3.04  23 3.06   9 3.07   6 3.07
                            32 3.22  14 3.34   4 3.35  30 3.40  30 3.48   7 3.53
 
  LATTYP: Found a triclinic cell.
 ALAT       =    12.3034224698
 B/A-ratio  =     1.1688356374
 C/A-ratio  =     0.5592236109
 COS(alpha) =     0.0006844482
 COS(beta)  =     0.5622459515
 COS(gamma) =     0.5836288751
  
  Lattice vectors:
  
 A1 = (  -6.8984187003,  10.1875107819,   0.0254553459)
 A2 = (  -0.0044196427,  10.1586135020, -10.1787263680)
 A3 = (  -6.8803460531,   0.0129097463,   0.0092183969)


Analysis of symmetry for initial positions (statically):
=====================================================================
 Subroutine PRICEL returns:
 Original cell was already a primitive cell.
 

 Routine SETGRP: Setting up the symmetry group for a 
 triclinic supercell.


 Subroutine GETGRP returns: Found  1 space group operations
 (whereof  1 operations were pure point group operations)
 out of a pool of  2 trial point group operations.


The static configuration has the point symmetry C_1 .


Analysis of symmetry for dynamics (positions and initial velocities):
=====================================================================
 Subroutine PRICEL returns:
 Original cell was already a primitive cell.
 

 Routine SETGRP: Setting up the symmetry group for a 
 triclinic supercell.


 Subroutine GETGRP returns: Found  1 space group operations
 (whereof  1 operations were pure point group operations)
 out of a pool of  2 trial point group operations.


The dynamic configuration has the point symmetry C_1 .


 Subroutine INISYM returns: Found  1 space group operations
 (whereof  1 operations are pure point group operations),
 and found     1 'primitive' translations

 
 
 KPOINTS: k-points                                

Automatic generation of k-mesh.
Space group operators:
 irot       det(A)        alpha          n_x          n_y          n_z        tau_x        tau_y        tau_z
    1     1.000000     0.000000     1.000000     0.000000     0.000000     0.000000     0.000000     0.000000
 
 Subroutine IBZKPT returns following result:
 ===========================================
 
 Found     14 irreducible k-points:
 
 Following reciprocal coordinates:
            Coordinates               Weight
  0.000000  0.000000  0.000000      1.000000
  0.333333 -0.000000  0.000000      2.000000
  0.000000  0.333333  0.000000      2.000000
  0.333333  0.333333  0.000000      2.000000
 -0.333333  0.333333 -0.000000      2.000000
  0.000000 -0.000000  0.333333      2.000000
  0.333333  0.000000  0.333333      2.000000
 -0.333333  0.000000  0.333333      2.000000
  0.000000  0.333333  0.333333      2.000000
  0.333333  0.333333  0.333333      2.000000
 -0.333333  0.333333  0.333333      2.000000
  0.000000 -0.333333  0.333333      2.000000
  0.333333 -0.333333  0.333333      2.000000
 -0.333333 -0.333333  0.333333      2.000000
 
 Following cartesian coordinates:
            Coordinates               Weight
  0.000000  0.000000  0.000000      1.000000
  0.241671  0.000429  0.000323      2.000000
  0.000306  0.163425 -0.000256      2.000000
  0.241977  0.163853  0.000067      2.000000
 -0.241364  0.162996 -0.000579      2.000000
  0.000218 -0.000260  0.163098      2.000000
  0.241889  0.000169  0.163421      2.000000
 -0.241453 -0.000689  0.162775      2.000000
  0.000524  0.163165  0.162842      2.000000
  0.242195  0.163593  0.163165      2.000000
 -0.241146  0.162736  0.162519      2.000000
 -0.000088 -0.163684  0.163354      2.000000
  0.241583 -0.163256  0.163677      2.000000
 -0.241759 -0.164113  0.163031      2.000000
 


--------------------------------------------------------------------------------------------------------




 Dimension of arrays:
   k-points           NKPTS =     14   k-points in BZ     NKDIM =     14   number of bands    NBANDS=    192
   number of dos      NEDOS =    301   number of ions     NIONS =     36
   non local maximal  LDIM  =      6   non local SUM 2l+1 LMDIM =     18
   total plane-waves  NPLWV = 144000
   max r-space proj   IRMAX =   6418   max aug-charges    IRDMAX=  13933
   dimension x,y,z NGX =    40 NGY =   60 NGZ =   60
   dimension x,y,z NGXF=    80 NGYF=  120 NGZF=  120
   support grid    NGXF=    80 NGYF=  120 NGZF=  120
   ions per type =               9  10  11   6
 NGX,Y,Z   is equivalent  to a cutoff of   9.66,  9.80,  9.78 a.u.
 NGXF,Y,Z  is equivalent  to a cutoff of  19.33, 19.61, 19.57 a.u.


 I would recommend the setting:
   dimension x,y,z NGX =    39 NGY =   57 NGZ =   58
 SYSTEM =  automatically generated by mexm         
 POSCAR =  generated by pypospack                  

 Startparameter for this run:
   NWRITE =      2    write-flag & timer
   PREC   = accura    normal or accurate (medium, high low for compatibility)
   ISTART =      0    job   : 0-new  1-cont  2-samecut
   ICHARG =      2    charge: 1-file 2-atom 10-const
   ISPIN  =      1    spin polarized calculation?
   LNONCOLLINEAR =      F non collinear calculations
   LSORBIT =      F    spin-orbit coupling
   INIWAV =      1    electr: 0-lowe 1-rand  2-diag
   LASPH  =      F    aspherical Exc in radial PAW
   METAGGA=      F    non-selfconsistent MetaGGA calc.

 Electronic Relaxation 1
   ENCUT  =  300.0 eV  22.05 Ry    4.70 a.u.   9.72 14.37 14.40*2*pi/ulx,y,z
   ENINI  =  300.0     initial cutoff
   ENAUG  =  461.3 eV  augmentation charge cutoff
   NELM   =     70;   NELMIN=  2; NELMDL= -5     # of ELM steps 
   EDIFF  = 0.1E-04   stopping-criterion for ELM
   LREAL  =      T    real-space projection
   NLSPLINE    = F    spline interpolate recip. space projectors
   LCOMPAT=      F    compatible to vasp.4.4
   GGA_COMPAT  = T    GGA compatible to vasp.4.4-vasp.4.6
   LMAXPAW     = -100 max onsite density
   LMAXMIX     =    2 max onsite mixed and CHGCAR
   VOSKOWN=      0    Vosko Wilk Nusair interpolation
   ROPT   =   -0.00025  -0.00025  -0.00025  -0.00025
 Ionic relaxation
   EDIFFG = -.1E-01   stopping-criterion for IOM
   NSW    =    300    number of steps for IOM
   NBLOCK =      1;   KBLOCK =    300    inner block; outer block 
   IBRION =      2    ionic relax: 0-MD 1-quasi-New 2-CG
   NFREE  =      1    steps in history (QN), initial steepest desc. (CG)
   ISIF   =      3    stress and relaxation
   IWAVPR =     11    prediction:  0-non 1-charg 2-wave 3-comb
   ISYM   =      1    0-nonsym 1-usesym 2-fastsym
   LCORR  =      T    Harris-Foulkes like correction to forces

   POTIM  = 0.1500    time-step for ionic-motion
   TEIN   =    0.0    initial temperature
   TEBEG  =    0.0;   TEEND  =   0.0 temperature during run
   SMASS  =  -3.00    Nose mass-parameter (am)
   estimated Nose-frequenzy (Omega)   =  0.10E-29 period in steps =****** mass=  -0.108E-26a.u.
   SCALEE = 1.0000    scale energy and forces
   NPACO  =    256;   APACO  = 16.0  distance and # of slots for P.C.
   PSTRESS=    0.0 pullay stress

  Mass of Ions in am
   POMASS =  91.22 92.91180.95178.49
  Ionic Valenz
   ZVAL   =  12.00 13.00  5.00  4.00
  Atomic Wigner-Seitz radii
   RWIGS  =  -1.00 -1.00 -1.00 -1.00
  virtual crystal weights 
   VCA    =   1.00  1.00  1.00  1.00
   NELECT =     317.0000    total number of electrons
   NUPDOWN=      -1.0000    fix difference up-down

 DOS related values:
   EMIN   =  10.00;   EMAX   =-10.00  energy-range for DOS
   EFERMI =   0.00
   ISMEAR =     1;   SIGMA  =   0.15  broadening in eV -4-tet -1-fermi 0-gaus

 Electronic relaxation 2 (details)
   IALGO  =     68    algorithm
   LDIAG  =      T    sub-space diagonalisation (order eigenvalues)
   LSUBROT=      F    optimize rotation matrix (better conditioning)
   TURBO    =      0    0=normal 1=particle mesh
   IRESTART =      0    0=no restart 2=restart with 2 vectors
   NREBOOT  =      0    no. of reboots
   NMIN     =      0    reboot dimension
   EREF     =   0.00    reference energy to select bands
   IMIX   =      4    mixing-type and parameters
     AMIX     =   0.40;   BMIX     =  1.00
     AMIX_MAG =   1.60;   BMIX_MAG =  1.00
     AMIN     =   0.10
     WC   =   100.;   INIMIX=   1;  MIXPRE=   1;  MAXMIX= -45

 Intra band minimization:
   WEIMIN = 0.0010     energy-eigenvalue tresh-hold
   EBREAK =  0.13E-07  absolut break condition
   DEPER  =   0.30     relativ break condition  

   TIME   =   0.40     timestep for ELM

  volume/ion in A,a.u.               =      19.82       133.78
  Fermi-wavevector in a.u.,A,eV,Ry     =   1.249083  2.360424 21.227918  1.560208
  Thomas-Fermi vector in A             =   2.383140
 
 Write flags
   LWAVE  =      F    write WAVECAR
   LCHARG =      F    write CHGCAR
   LVTOT  =      F    write LOCPOT, total local potential
   LVHAR  =      F    write LOCPOT, Hartree potential only
   LELF   =      F    write electronic localiz. function (ELF)
   LORBIT =      0    0 simple, 1 ext, 2 COOP (PROOUT)


 Dipole corrections
   LMONO  =      F    monopole corrections only (constant potential shift)
   LDIPOL =      F    correct potential (dipole corrections)
   IDIPOL =      0    1-x, 2-y, 3-z, 4-all directions 
   EPSILON=  1.0000000 bulk dielectric constant

 Exchange correlation treatment:
   GGA     =    --    GGA type
   LEXCH   =     8    internal setting for exchange type
   VOSKOWN=      0    Vosko Wilk Nusair interpolation
   LHFCALC =     F    Hartree Fock is set to
   LHFONE  =     F    Hartree Fock one center treatment
   AEXX    =    0.0000 exact exchange contribution

 Linear response parameters
   LEPSILON=     F    determine dielectric tensor
   LRPA    =     F    only Hartree local field effects (RPA)
   LNABLA  =     F    use nabla operator in PAW spheres
   LVEL    =     F    velocity operator in full k-point grid
   LINTERFAST=   F  fast interpolation
   KINTER  =     0    interpolate to denser k-point grid
   CSHIFT  =0.1000    complex shift for real part using Kramers Kronig
   OMEGAMAX=  -1.0    maximum frequency
   DEG_THRESHOLD= 0.2000000E-02 threshold for treating states as degnerate
   RTIME   =    0.100 relaxation time in fs

 Orbital magnetization related:
   ORBITALMAG=     F  switch on orbital magnetization
   LCHIMAG   =     F  perturbation theory with respect to B field
   DQ        =  0.001000  dq finite difference perturbation B field



--------------------------------------------------------------------------------------------------------


 conjugate gradient relaxation of ions
 charge density and potential will be updated during run
 non-spin polarized calculation
 RMM-DIIS sequential band-by-band and
  variant of blocked Davidson during initial phase
 perform sub-space diagonalisation
    before iterative eigenvector-optimisation
 modified Broyden-mixing scheme, WC =      100.0
 initial mixing is a Kerker type mixing with AMIX =  0.4000 and BMIX =      1.0000
 Hartree-type preconditioning will be used
 using additional bands           33
 real space projection scheme for non local part
 use partial core corrections
 calculate Harris-corrections to forces 
   (improved forces if not selfconsistent)
 use gradient corrections 
 use of overlap-Matrix (Vanderbilt PP)
 Methfessel and Paxton  Order N= 1 SIGMA  =   0.15


--------------------------------------------------------------------------------------------------------


  energy-cutoff  :      300.00
  volume of cell :      713.69
      direct lattice vectors                 reciprocal lattice vectors
     6.880346053 -0.012909746 -0.009218397     0.145342271  0.000257854  0.000194237
    -0.018072647 10.174601036  0.016236949     0.000184207  0.098284525 -0.000153881
    -0.013653004  0.015987534 10.194963317     0.000131127 -0.000156299  0.098088071

  length of vectors
     6.880364340 10.174630042 10.194984995     0.145342629  0.098284818  0.098088284


 
 k-points in units of 2pi/SCALE and weight: k-points                                
   0.00000000  0.00000000  0.00000000       0.037
   0.24167077  0.00042875  0.00032297       0.074
   0.00030629  0.16342456 -0.00025587       0.074
   0.24197706  0.16385331  0.00006710       0.074
  -0.24136447  0.16299581 -0.00057884       0.074
   0.00021803 -0.00025989  0.16309790       0.074
   0.24188880  0.00016886  0.16342087       0.074
  -0.24145273 -0.00068864  0.16277493       0.074
   0.00052433  0.16316467  0.16284203       0.074
   0.24219510  0.16359342  0.16316500       0.074
  -0.24114644  0.16273592  0.16251906       0.074
  -0.00008826 -0.16368445  0.16335377       0.074
   0.24158251 -0.16325570  0.16367674       0.074
  -0.24175903 -0.16411320  0.16303080       0.074
 
 k-points in reciprocal lattice and weights: k-points                                
   0.00000000  0.00000000  0.00000000       0.037
   0.33333333 -0.00000000  0.00000000       0.074
   0.00000000  0.33333333  0.00000000       0.074
   0.33333333  0.33333333  0.00000000       0.074
  -0.33333333  0.33333333 -0.00000000       0.074
   0.00000000 -0.00000000  0.33333333       0.074
   0.33333333  0.00000000  0.33333333       0.074
  -0.33333333  0.00000000  0.33333333       0.074
   0.00000000  0.33333333  0.33333333       0.074
   0.33333333  0.33333333  0.33333333       0.074
  -0.33333333  0.33333333  0.33333333       0.074
   0.00000000 -0.33333333  0.33333333       0.074
   0.33333333 -0.33333333  0.33333333       0.074
  -0.33333333 -0.33333333  0.33333333       0.074
 
 position of ions in fractional coordinates (direct lattice) 
   0.76830300  0.83315000  0.83852200
   0.75840100  0.83540900  0.16817200
   0.49239600  0.33835000  0.00063500
   0.00777300  0.66118400  0.35262800
   0.22979500  0.84182900  0.84264900
   0.74404700  0.51205000  0.17243300
   0.00225400  0.33087600  0.99743600
   0.48977900  0.65794500  0.98664000
   0.25751500  0.15700700  0.17420900
   0.01284800  0.64575700  0.99489800
   0.49612000  0.66443000  0.34736000
   0.26396000  0.49380900  0.50077400
   0.50926900  0.00012300  0.33627700
   0.99521400  0.00328200  0.34460600
   0.99948300  0.65976600  0.65939900
   0.23441800  0.50427000  0.82611800
   0.48588200  0.33877600  0.66332100
   0.74287200  0.15878400  0.17209800
   0.72568600  0.16507300  0.50121900
   0.50920100  0.00466500  0.00263900
   0.26089000  0.84187800  0.48916800
   0.74207300  0.84023400  0.49466900
   0.25914300  0.50754600  0.17508400
   0.73714500  0.49232200  0.51038400
   0.99106400  0.02732800  0.00118400
   0.75722900  0.49752000  0.81704800
   0.27648600  0.16376800  0.49292600
   0.27029600  0.15365000  0.83161300
   0.49396500  0.98901700  0.65814600
   0.50357800  0.33555700  0.33604200
   0.24744800  0.83421600  0.16953700
   0.00979000  0.32868600  0.65963300
   0.72511900  0.16695500  0.82235000
   0.49622000  0.67248700  0.66424700
   0.00622500  0.01036400  0.65214700
   0.99810900  0.33194700  0.34378800
 
 position of ions in cartesian coordinates  (Angst):
   5.25968494  8.48045615  8.55514632
   5.20066722  8.49285117  1.72108062
   3.38173133  3.43622971  0.00742847
   0.03671715  6.73282072  3.60569348
   1.55435035  8.57577950  8.60232604
   5.10769251  5.20305578  1.75940332
  -0.00408950  3.38244874 10.17417507
   3.34448760  6.70377890 10.06492665
   1.76657631  1.59694430  1.77622980
   0.06314480  6.58605994 10.15331530
   3.39672677  6.75945881  3.54753734
   1.80037464  5.02890805  5.11095722
   3.49935354  0.00005318  3.42363903
   6.84265250  0.02605448  3.50412454
   6.85586242  6.71049492  6.72404757
   1.59248447  5.14092738  8.42826955
   3.32785740  3.45124289  6.76355490
   5.10599713  1.60872498  1.75026288
   4.98314435  1.67819675  5.10589994
   3.50335875  0.04093305  0.02228624
   1.77311990  8.57022534  4.99831436
   5.08378007  8.54737429  5.04993442
   1.77143039  5.16353175  1.79082707
   5.05594685  5.00782336  5.20454467
   6.81835323  0.26527604  0.00337854
   5.18985090  5.06535446  8.33087216
   1.89262972  1.67058537  5.02547282
   1.84559914  1.57313344  8.47826714
   3.37179031 10.06699856  6.72127938
   3.45413852  3.41303002  3.42674210
   1.68513669  8.48733097  1.73968754
   0.05241239  3.35466843  6.73018085
   4.97482478  1.70248676  8.37985449
   3.39294273  6.84650052  6.77831858
   0.03373908  0.11579542  6.64872564
   6.85664242  3.37003928  3.50109489
 


--------------------------------------------------------------------------------------------------------


 k-point  1 :   0.0000 0.0000 0.0000  plane waves:    8467
 k-point  2 :   0.3333-0.0000 0.0000  plane waves:    8421
 k-point  3 :   0.0000 0.3333 0.0000  plane waves:    8419
 k-point  4 :   0.3333 0.3333 0.0000  plane waves:    8408
 k-point  5 :  -0.3333 0.3333-0.0000  plane waves:    8415
 k-point  6 :   0.0000-0.0000 0.3333  plane waves:    8417
 k-point  7 :   0.3333 0.0000 0.3333  plane waves:    8421
 k-point  8 :  -0.3333 0.0000 0.3333  plane waves:    8417
 k-point  9 :   0.0000 0.3333 0.3333  plane waves:    8411
 k-point 10 :   0.3333 0.3333 0.3333  plane waves:    8423
 k-point 11 :  -0.3333 0.3333 0.3333  plane waves:    8414
 k-point 12 :   0.0000-0.3333 0.3333  plane waves:    8406
 k-point 13 :   0.3333-0.3333 0.3333  plane waves:    8424
 k-point 14 :  -0.3333-0.3333 0.3333  plane waves:    8425

 maximum and minimum number of plane-waves per node :      1722     1654

 maximum number of plane-waves:      8467
 maximum index in each direction: 
   IXMAX=   10   IYMAX=   14   IZMAX=   14
   IXMIN=  -10   IYMIN=  -14   IZMIN=  -14

 WARNING: aliasing errors must be expected set NGX to  42 to avoid them
 NGY is ok and might be reduce to  58
 NGZ is ok and might be reduce to  58
 aliasing errors are usually negligible using standard VASP settings
 and one can safely disregard these warnings

 real space projection operators:
  total allocation   :      27713.25 KBytes
  max/ min on nodes  :       5588.86       5498.16


 parallel 3D FFT for wavefunctions:
    minimum data exchange during FFTs selected (reduces bandwidth)
 parallel 3D FFT for charge:
    minimum data exchange during FFTs selected (reduces bandwidth)


 total amount of memory used by VASP on root node    68761. kBytes
========================================================================

   base      :      30000. kBytes
   nonlr-proj:      10680. kBytes
   fftplans  :       2814. kBytes
   grid      :       5360. kBytes
   one-center:        124. kBytes
   wavefun   :      19783. kBytes
 
     INWAV:  cpu time    0.0000: real time    0.0000
 Broyden mixing: mesh for mixing (old mesh)
   NGX = 19   NGY = 29   NGZ = 29
  (NGX  = 80   NGY  =120   NGZ  =120)
  gives a total of  15979 points

 initial charge density was supplied:
 charge density of overlapping atoms calculated
 number of electron     317.0000000 magnetization 
 keeping initial charge density in first step


--------------------------------------------------------------------------------------------------------


 Maximum index for non-local projection operator         1249
 Maximum index for augmentation-charges          686 (set IRDMAX)


--------------------------------------------------------------------------------------------------------


 First call to EWALD:  gamma=   0.198
 Maximum number of real-space cells 3x 2x 2
 Maximum number of reciprocal cells 2x 3x 3

 FEWALD executed in parallel
    FEWALD:  cpu time    0.0502: real time    0.0503


----------------------------------------- Iteration    1(   1)  ---------------------------------------


    POTLOK:  cpu time    0.0511: real time    0.0719
    SETDIJ:  cpu time    0.0133: real time    0.0134
     EDDAV:  cpu time    1.0811: real time    1.2650
       DOS:  cpu time    0.0014: real time    0.0014
    --------------------------------------------
      LOOP:  cpu time    1.1504: real time    1.5967

 eigenvalue-minimisations  :  5840
 total energy-change (2. order) : 0.2161932E+04  (-0.1213731E+05)
 number of electron     317.0000000 magnetization 
 augmentation part      317.0000000 magnetization 

 Free energy of the ion-electron system (eV)
  ---------------------------------------------------
  alpha Z        PSCENC =      1713.75080900
  Ewald energy   TEWEN  =    -22681.98733397
  -Hartree energ DENC   =     -7218.39976454
  -exchange      EXHF   =         0.00000000
  -V(xc)+E(xc)   XCENC  =       -33.22049316
  PAW double counting   =     24197.84332497   -22668.75910785
  entropy T*S    EENTRO =        -0.00391404
  eigenvalues    EBANDS =      -148.49905041
  atomic energy  EATOM  =     29001.20790863
  Solvation  Ediel_sol  =         0.00000000
  ---------------------------------------------------
  free energy    TOTEN  =      2161.93237862 eV

  energy without entropy =     2161.93629266  energy(sigma->0) =     2161.93368330


--------------------------------------------------------------------------------------------------------




----------------------------------------- Iteration    1(   2)  ---------------------------------------


     EDDAV:  cpu time    1.2483: real time    1.2565
       DOS:  cpu time    0.0014: real time    0.0014
    --------------------------------------------
      LOOP:  cpu time    1.2505: real time    1.3819

 eigenvalue-minimisations  :  6088
 total energy-change (2. order) :-0.2227602E+04  (-0.2149359E+04)
 number of electron     317.0000000 magnetization 
 augmentation part      317.0000000 magnetization 

 Free energy of the ion-electron system (eV)
  ---------------------------------------------------
  alpha Z        PSCENC =      1713.75080900
  Ewald energy   TEWEN  =    -22681.98733397
  -Hartree energ DENC   =     -7218.39976454
  -exchange      EXHF   =         0.00000000
  -V(xc)+E(xc)   XCENC  =       -33.22049316
  PAW double counting   =     24197.84332497   -22668.75910785
  entropy T*S    EENTRO =         0.00208441
  eigenvalues    EBANDS =     -2376.10731484
  atomic energy  EATOM  =     29001.20790863
  Solvation  Ediel_sol  =         0.00000000
  ---------------------------------------------------
  free energy    TOTEN  =       -65.66988735 eV

  energy without entropy =      -65.67197177  energy(sigma->0) =      -65.67058216


--------------------------------------------------------------------------------------------------------




----------------------------------------- Iteration    1(   3)  ---------------------------------------


     EDDAV:  cpu time    1.7475: real time    1.7815
       DOS:  cpu time    0.0011: real time    0.0014
    --------------------------------------------
      LOOP:  cpu time    1.7492: real time    1.8048

 eigenvalue-minimisations  :  9192
 total energy-change (2. order) :-0.2790626E+03  (-0.2648396E+03)
 number of electron     317.0000000 magnetization 
 augmentation part      317.0000000 magnetization 

 Free energy of the ion-electron system (eV)
  ---------------------------------------------------
  alpha Z        PSCENC =      1713.75080900
  Ewald energy   TEWEN  =    -22681.98733397
  -Hartree energ DENC   =     -7218.39976454
  -exchange      EXHF   =         0.00000000
  -V(xc)+E(xc)   XCENC  =       -33.22049316
  PAW double counting   =     24197.84332497   -22668.75910785
  entropy T*S    EENTRO =         0.00110611
  eigenvalues    EBANDS =     -2655.16889028
  atomic energy  EATOM  =     29001.20790863
  Solvation  Ediel_sol  =         0.00000000
  ---------------------------------------------------
  free energy    TOTEN  =      -344.73244110 eV

  energy without entropy =     -344.73354720  energy(sigma->0) =     -344.73280980


--------------------------------------------------------------------------------------------------------




----------------------------------------- Iteration    1(   4)  ---------------------------------------


     EDDAV:  cpu time    1.6477: real time    1.6995
       DOS:  cpu time    0.0013: real time    0.0013
    --------------------------------------------
      LOOP:  cpu time    1.6494: real time    1.7263

 eigenvalue-minimisations  :  8976
 total energy-change (2. order) :-0.3254091E+02  (-0.3104934E+02)
 number of electron     317.0000000 magnetization 
 augmentation part      317.0000000 magnetization 

 Free energy of the ion-electron system (eV)
  ---------------------------------------------------
  alpha Z        PSCENC =      1713.75080900
  Ewald energy   TEWEN  =    -22681.98733397
  -Hartree energ DENC   =     -7218.39976454
  -exchange      EXHF   =         0.00000000
  -V(xc)+E(xc)   XCENC  =       -33.22049316
  PAW double counting   =     24197.84332497   -22668.75910785
  entropy T*S    EENTRO =         0.01035559
  eigenvalues    EBANDS =     -2687.71905359
  atomic energy  EATOM  =     29001.20790863
  Solvation  Ediel_sol  =         0.00000000
  ---------------------------------------------------
  free energy    TOTEN  =      -377.27335492 eV

  energy without entropy =     -377.28371051  energy(sigma->0) =     -377.27680678


--------------------------------------------------------------------------------------------------------




----------------------------------------- Iteration    1(   5)  ---------------------------------------


     EDDAV:  cpu time    1.4301: real time    1.4355
       DOS:  cpu time    0.0012: real time    0.0012
    CHARGE:  cpu time    0.0327: real time    0.0328
    MIXING:  cpu time    0.0014: real time    0.0014
    --------------------------------------------
      LOOP:  cpu time    1.4658: real time    1.4908

 eigenvalue-minimisations  :  8496
 total energy-change (2. order) :-0.3225702E+01  (-0.3174565E+01)
 number of electron     317.0000001 magnetization 
 augmentation part       18.8094838 magnetization 

 Broyden mixing:
  rms(total) = 0.65515E+01    rms(broyden)= 0.65510E+01
  rms(prec ) = 0.68175E+01
  weight for this iteration     100.00

 Free energy of the ion-electron system (eV)
  ---------------------------------------------------
  alpha Z        PSCENC =      1713.75080900
  Ewald energy   TEWEN  =    -22681.98733397
  -Hartree energ DENC   =     -7218.39976454
  -exchange      EXHF   =         0.00000000
  -V(xc)+E(xc)   XCENC  =       -33.22049316
  PAW double counting   =     24197.84332497   -22668.75910785
  entropy T*S    EENTRO =         0.01239641
  eigenvalues    EBANDS =     -2690.94679616
  atomic energy  EATOM  =     29001.20790863
  Solvation  Ediel_sol  =         0.00000000
  ---------------------------------------------------
  free energy    TOTEN  =      -380.49905667 eV

  energy without entropy =     -380.51145309  energy(sigma->0) =     -380.50318881


--------------------------------------------------------------------------------------------------------




----------------------------------------- Iteration    1(   6)  ---------------------------------------


    POTLOK:  cpu time    0.0302: real time    0.0302
    SETDIJ:  cpu time    0.0035: real time    0.0036
    EDDIAG:  cpu time    0.0844: real time    0.0847
  RMM-DIIS:  cpu time    0.7748: real time    0.7783
    ORTHCH:  cpu time    0.0138: real time    0.0138
       DOS:  cpu time    0.0013: real time    0.0013
    CHARGE:  cpu time    0.0316: real time    0.0317
    MIXING:  cpu time    0.0017: real time    0.0026
    --------------------------------------------
      LOOP:  cpu time    0.9420: real time    0.9689

 eigenvalue-minimisations  :  7375
 total energy-change (2. order) : 0.1088865E+02  (-0.2393996E+01)
 number of electron     317.0000001 magnetization 
 augmentation part       19.5549088 magnetization 

 Broyden mixing:
  rms(total) = 0.30908E+01    rms(broyden)= 0.30907E+01
  rms(prec ) = 0.33111E+01
  weight for this iteration     100.00

 eigenvalues of (default mixing * dielectric matrix)
  average eigenvalue GAMMA=   1.8198
  1.8198

 Free energy of the ion-electron system (eV)
  ---------------------------------------------------
  alpha Z        PSCENC =      1713.75080900
  Ewald energy   TEWEN  =    -22681.98733397
  -Hartree energ DENC   =     -7020.42536510
  -exchange      EXHF   =         0.00000000
  -V(xc)+E(xc)   XCENC  =       -38.67203507
  PAW double counting   =     29975.66798157   -28454.45294890
  entropy T*S    EENTRO =         0.01007130
  eigenvalues    EBANDS =     -2864.70949003
  atomic energy  EATOM  =     29001.20790863
  Solvation  Ediel_sol  =         0.00000000
  ---------------------------------------------------
  free energy    TOTEN  =      -369.61040257 eV

  energy without entropy =     -369.62047387  energy(sigma->0) =     -369.61375967


--------------------------------------------------------------------------------------------------------




----------------------------------------- Iteration    1(   7)  ---------------------------------------


    POTLOK:  cpu time    0.0292: real time    0.0293
    SETDIJ:  cpu time    0.0036: real time    0.0036
    EDDIAG:  cpu time    0.0824: real time    0.0826
  RMM-DIIS:  cpu time    0.8159: real time    0.8183
    ORTHCH:  cpu time    0.0136: real time    0.0137
       DOS:  cpu time    0.0012: real time    0.0012
    CHARGE:  cpu time    0.0320: real time    0.0321
    MIXING:  cpu time    0.0012: real time    0.0013
    --------------------------------------------
      LOOP:  cpu time    0.9797: real time    1.0026

 eigenvalue-minimisations  :  7747
 total energy-change (2. order) : 0.5918251E-01  (-0.2327202E+01)
 number of electron     317.0000001 magnetization 
 augmentation part       20.0472225 magnetization 

 Broyden mixing:
  rms(total) = 0.96959E+00    rms(broyden)= 0.96927E+00
  rms(prec ) = 0.26696E+01
  weight for this iteration     100.00

 eigenvalues of (default mixing * dielectric matrix)
  average eigenvalue GAMMA=   1.2051
  1.8178  0.5924

 Free energy of the ion-electron system (eV)
  ---------------------------------------------------
  alpha Z        PSCENC =      1713.75080900
  Ewald energy   TEWEN  =    -22681.98733397
  -Hartree energ DENC   =     -6940.17695672
  -exchange      EXHF   =         0.00000000
  -V(xc)+E(xc)   XCENC  =       -38.71711868
  PAW double counting   =     35763.60644090   -34233.75016179
  entropy T*S    EENTRO =        -0.00288728
  eigenvalues    EBANDS =     -2953.48192015
  atomic energy  EATOM  =     29001.20790863
  Solvation  Ediel_sol  =         0.00000000
  ---------------------------------------------------
  free energy    TOTEN  =      -369.55122006 eV

  energy without entropy =     -369.54833278  energy(sigma->0) =     -369.55025763


--------------------------------------------------------------------------------------------------------




----------------------------------------- Iteration    1(   8)  ---------------------------------------


    POTLOK:  cpu time    0.0289: real time    0.0290
    SETDIJ:  cpu time    0.0041: real time    0.0041
    EDDIAG:  cpu time    0.0849: real time    0.0851
  RMM-DIIS:  cpu time    0.9403: real time    0.9432
    ORTHCH:  cpu time    0.0169: real time    0.0169
       DOS:  cpu time    0.0010: real time    0.0010
    CHARGE:  cpu time    0.0334: real time    0.0335
    MIXING:  cpu time    0.0016: real time    0.0016
    --------------------------------------------
      LOOP:  cpu time    1.1116: real time    1.1389

 eigenvalue-minimisations  :  8179
 total energy-change (2. order) : 0.3813124E+01  (-0.4749967E+00)
 number of electron     317.0000001 magnetization 
 augmentation part       19.8002818 magnetization 

 Broyden mixing:
  rms(total) = 0.44153E+00    rms(broyden)= 0.44111E+00
  rms(prec ) = 0.75762E+00
  weight for this iteration     100.00

 eigenvalues of (default mixing * dielectric matrix)
  average eigenvalue GAMMA=   1.1348
  1.7849  1.2209  0.3984

 Free energy of the ion-electron system (eV)
  ---------------------------------------------------
  alpha Z        PSCENC =      1713.75080900
  Ewald energy   TEWEN  =    -22681.98733397
  -Hartree energ DENC   =     -6919.19254463
  -exchange      EXHF   =         0.00000000
  -V(xc)+E(xc)   XCENC  =       -38.78541341
  PAW double counting   =     36421.21056665   -34889.08833385
  entropy T*S    EENTRO =         0.01308197
  eigenvalues    EBANDS =     -2972.86683678
  atomic energy  EATOM  =     29001.20790863
  Solvation  Ediel_sol  =         0.00000000
  ---------------------------------------------------
  free energy    TOTEN  =      -365.73809639 eV

  energy without entropy =     -365.75117836  energy(sigma->0) =     -365.74245705


--------------------------------------------------------------------------------------------------------




----------------------------------------- Iteration    1(   9)  ---------------------------------------


    POTLOK:  cpu time    0.0306: real time    0.0307
    SETDIJ:  cpu time    0.0038: real time    0.0039
    EDDIAG:  cpu time    0.1444: real time    0.1456
  RMM-DIIS:  cpu time    0.9308: real time    0.9336
    ORTHCH:  cpu time    0.0149: real time    0.0149
       DOS:  cpu time    0.0067: real time    0.0067
    CHARGE:  cpu time    0.0518: real time    0.0519
    MIXING:  cpu time    0.0013: real time    0.0013
    --------------------------------------------
      LOOP:  cpu time    1.1850: real time    1.2145

 eigenvalue-minimisations  :  8041
 total energy-change (2. order) : 0.1655243E+00  (-0.2001944E+00)
 number of electron     317.0000001 magnetization 
 augmentation part       19.6484893 magnetization 

 Broyden mixing:
  rms(total) = 0.31568E+00    rms(broyden)= 0.31556E+00
  rms(prec ) = 0.43922E+00
  weight for this iteration     100.00

 eigenvalues of (default mixing * dielectric matrix)
  average eigenvalue GAMMA=   1.1550
  1.8910  1.8910  0.4664  0.3714

 Free energy of the ion-electron system (eV)
  ---------------------------------------------------
  alpha Z        PSCENC =      1713.75080900
  Ewald energy   TEWEN  =    -22681.98733397
  -Hartree energ DENC   =     -6923.55197912
  -exchange      EXHF   =         0.00000000
  -V(xc)+E(xc)   XCENC  =       -38.35835927
  PAW double counting   =     36595.27466943   -35058.39043654
  entropy T*S    EENTRO =         0.00937250
  eigenvalues    EBANDS =     -2973.52722279
  atomic energy  EATOM  =     29001.20790863
  Solvation  Ediel_sol  =         0.00000000
  ---------------------------------------------------
  free energy    TOTEN  =      -365.57257213 eV

  energy without entropy =     -365.58194464  energy(sigma->0) =     -365.57569630


--------------------------------------------------------------------------------------------------------




----------------------------------------- Iteration    1(  10)  ---------------------------------------


    POTLOK:  cpu time    0.0306: real time    0.0308
    SETDIJ:  cpu time    0.0050: real time    0.0050
    EDDIAG:  cpu time    0.1207: real time    0.1218
  RMM-DIIS:  cpu time    0.9193: real time    0.9223
    ORTHCH:  cpu time    0.0140: real time    0.0140
       DOS:  cpu time    0.0010: real time    0.0010
    CHARGE:  cpu time    0.0321: real time    0.0322
    MIXING:  cpu time    0.0015: real time    0.0015
    --------------------------------------------
      LOOP:  cpu time    1.1248: real time    1.1489

 eigenvalue-minimisations  :  8009
 total energy-change (2. order) : 0.5328086E-01  (-0.4250983E-01)
 number of electron     317.0000001 magnetization 
 augmentation part       19.5206418 magnetization 

 Broyden mixing:
  rms(total) = 0.14793E+00    rms(broyden)= 0.14784E+00
  rms(prec ) = 0.29459E+00
  weight for this iteration     100.00

 eigenvalues of (default mixing * dielectric matrix)
  average eigenvalue GAMMA=   1.1027
  2.0469  1.9251  0.6980  0.4929  0.3508

 Free energy of the ion-electron system (eV)
  ---------------------------------------------------
  alpha Z        PSCENC =      1713.75080900
  Ewald energy   TEWEN  =    -22681.98733397
  -Hartree energ DENC   =     -6939.03584106
  -exchange      EXHF   =         0.00000000
  -V(xc)+E(xc)   XCENC  =       -37.25213683
  PAW double counting   =     36831.08877432   -35284.99869397
  entropy T*S    EENTRO =         0.01225753
  eigenvalues    EBANDS =     -2968.30503492
  atomic energy  EATOM  =     29001.20790863
  Solvation  Ediel_sol  =         0.00000000
  ---------------------------------------------------
  free energy    TOTEN  =      -365.51929127 eV

  energy without entropy =     -365.53154880  energy(sigma->0) =     -365.52337711


--------------------------------------------------------------------------------------------------------




----------------------------------------- Iteration    1(  11)  ---------------------------------------


    POTLOK:  cpu time    0.0302: real time    0.0334
    SETDIJ:  cpu time    0.0036: real time    0.0036
    EDDIAG:  cpu time    0.1693: real time    0.1707
  RMM-DIIS:  cpu time    0.9130: real time    0.9157
    ORTHCH:  cpu time    0.0137: real time    0.0137
       DOS:  cpu time    0.0116: real time    0.0116
    CHARGE:  cpu time    0.0385: real time    0.0386
    MIXING:  cpu time    0.0014: real time    0.0014
    --------------------------------------------
      LOOP:  cpu time    1.1818: real time    1.2117

 eigenvalue-minimisations  :  8015
 total energy-change (2. order) : 0.4029181E-01  (-0.1332262E-01)
 number of electron     317.0000001 magnetization 
 augmentation part       19.4831063 magnetization 

 Broyden mixing:
  rms(total) = 0.71339E-01    rms(broyden)= 0.71268E-01
  rms(prec ) = 0.13471E+00
  weight for this iteration     100.00

 eigenvalues of (default mixing * dielectric matrix)
  average eigenvalue GAMMA=   1.0591
  2.2452  1.7709  1.0719  0.5027  0.3518  0.4123

 Free energy of the ion-electron system (eV)
  ---------------------------------------------------
  alpha Z        PSCENC =      1713.75080900
  Ewald energy   TEWEN  =    -22681.98733397
  -Hartree energ DENC   =     -6946.03545845
  -exchange      EXHF   =         0.00000000
  -V(xc)+E(xc)   XCENC  =       -36.76655451
  PAW double counting   =     36998.12312812   -35447.96117552
  entropy T*S    EENTRO =         0.00989623
  eigenvalues    EBANDS =     -2965.82021898
  atomic energy  EATOM  =     29001.20790863
  Solvation  Ediel_sol  =         0.00000000
  ---------------------------------------------------
  free energy    TOTEN  =      -365.47899946 eV

  energy without entropy =     -365.48889569  energy(sigma->0) =     -365.48229821


--------------------------------------------------------------------------------------------------------




----------------------------------------- Iteration    1(  12)  ---------------------------------------


    POTLOK:  cpu time    0.0336: real time    0.0337
    SETDIJ:  cpu time    0.0062: real time    0.0063
    EDDIAG:  cpu time    0.1006: real time    0.1814
  RMM-DIIS:  cpu time    0.7902: real time    0.9233
    ORTHCH:  cpu time    0.0140: real time    0.0143
       DOS:  cpu time    0.0047: real time    0.0048
    CHARGE:  cpu time    0.0356: real time    0.0360
    MIXING:  cpu time    0.0014: real time    0.0014
    --------------------------------------------
      LOOP:  cpu time    0.9873: real time    1.2474

 eigenvalue-minimisations  :  8119
 total energy-change (2. order) : 0.3337618E-02  (-0.5313533E-02)
 number of electron     317.0000001 magnetization 
 augmentation part       19.4786902 magnetization 

 Broyden mixing:
  rms(total) = 0.42352E-01    rms(broyden)= 0.42333E-01
  rms(prec ) = 0.68304E-01
  weight for this iteration     100.00

 eigenvalues of (default mixing * dielectric matrix)
  average eigenvalue GAMMA=   1.0314
  2.3110  1.7371  1.3391  0.5896  0.5220  0.3907  0.3300

 Free energy of the ion-electron system (eV)
  ---------------------------------------------------
  alpha Z        PSCENC =      1713.75080900
  Ewald energy   TEWEN  =    -22681.98733397
  -Hartree energ DENC   =     -6948.05581854
  -exchange      EXHF   =         0.00000000
  -V(xc)+E(xc)   XCENC  =       -36.62303489
  PAW double counting   =     37124.30428813   -35572.31660561
  entropy T*S    EENTRO =         0.01091171
  eigenvalues    EBANDS =     -2965.76678629
  atomic energy  EATOM  =     29001.20790863
  Solvation  Ediel_sol  =         0.00000000
  ---------------------------------------------------
  free energy    TOTEN  =      -365.47566184 eV

  energy without entropy =     -365.48657355  energy(sigma->0) =     -365.47929908


--------------------------------------------------------------------------------------------------------




----------------------------------------- Iteration    1(  13)  ---------------------------------------


    POTLOK:  cpu time    0.0274: real time    0.0635
    SETDIJ:  cpu time    0.0158: real time    0.0171
    EDDIAG:  cpu time    0.0851: real time    0.1339
  RMM-DIIS:  cpu time    0.8215: real time    0.8408
    ORTHCH:  cpu time    0.0136: real time    0.0136
       DOS:  cpu time    0.0017: real time    0.0017
    CHARGE:  cpu time    0.0316: real time    0.0317
    MIXING:  cpu time    0.0015: real time    0.0015
    --------------------------------------------
      LOOP:  cpu time    0.9989: real time    1.1365

 eigenvalue-minimisations  :  8052
 total energy-change (2. order) : 0.2004932E-02  (-0.1488813E-02)
 number of electron     317.0000001 magnetization 
 augmentation part       19.4795335 magnetization 

 Broyden mixing:
  rms(total) = 0.25615E-01    rms(broyden)= 0.25606E-01
  rms(prec ) = 0.34197E-01
  weight for this iteration     100.00

 eigenvalues of (default mixing * dielectric matrix)
  average eigenvalue GAMMA=   1.0617
  2.4027  1.8879  1.5819  0.9236  0.5298  0.4711  0.3612  0.3352

 Free energy of the ion-electron system (eV)
  ---------------------------------------------------
  alpha Z        PSCENC =      1713.75080900
  Ewald energy   TEWEN  =    -22681.98733397
  -Hartree energ DENC   =     -6947.70749111
  -exchange      EXHF   =         0.00000000
  -V(xc)+E(xc)   XCENC  =       -36.63255599
  PAW double counting   =     37195.26516370   -35642.36369536
  entropy T*S    EENTRO =         0.01073821
  eigenvalues    EBANDS =     -2967.01720002
  atomic energy  EATOM  =     29001.20790863
  Solvation  Ediel_sol  =         0.00000000
  ---------------------------------------------------
  free energy    TOTEN  =      -365.47365691 eV

  energy without entropy =     -365.48439512  energy(sigma->0) =     -365.47723632


--------------------------------------------------------------------------------------------------------




----------------------------------------- Iteration    1(  14)  ---------------------------------------


    POTLOK:  cpu time    0.0287: real time    0.0288
    SETDIJ:  cpu time    0.0128: real time    0.0128
    EDDIAG:  cpu time    0.1176: real time    0.1179
  RMM-DIIS:  cpu time    0.8772: real time    0.8799
    ORTHCH:  cpu time    0.0137: real time    0.0137
       DOS:  cpu time    0.0011: real time    0.0011
    CHARGE:  cpu time    0.0316: real time    0.0317
    MIXING:  cpu time    0.0015: real time    0.0016
    --------------------------------------------
      LOOP:  cpu time    1.0848: real time    1.1225

 eigenvalue-minimisations  :  8275
 total energy-change (2. order) :-0.6990954E-04  (-0.6053441E-03)
 number of electron     317.0000001 magnetization 
 augmentation part       19.4774598 magnetization 

 Broyden mixing:
  rms(total) = 0.14217E-01    rms(broyden)= 0.14214E-01
  rms(prec ) = 0.21936E-01
  weight for this iteration     100.00

 eigenvalues of (default mixing * dielectric matrix)
  average eigenvalue GAMMA=   1.0731
  2.6263  2.0697  1.5026  1.1940  0.5601  0.5601  0.4520  0.3623  0.3305

 Free energy of the ion-electron system (eV)
  ---------------------------------------------------
  alpha Z        PSCENC =      1713.75080900
  Ewald energy   TEWEN  =    -22681.98733397
  -Hartree energ DENC   =     -6947.72192135
  -exchange      EXHF   =         0.00000000
  -V(xc)+E(xc)   XCENC  =       -36.64082238
  PAW double counting   =     37232.27503753   -35678.67508714
  entropy T*S    EENTRO =         0.01084130
  eigenvalues    EBANDS =     -2967.69315844
  atomic energy  EATOM  =     29001.20790863
  Solvation  Ediel_sol  =         0.00000000
  ---------------------------------------------------
  free energy    TOTEN  =      -365.47372682 eV

  energy without entropy =     -365.48456812  energy(sigma->0) =     -365.47734059


--------------------------------------------------------------------------------------------------------




----------------------------------------- Iteration    1(  15)  ---------------------------------------


    POTLOK:  cpu time    0.0292: real time    0.0293
    SETDIJ:  cpu time    0.0035: real time    0.0035
    EDDIAG:  cpu time    0.0841: real time    0.0844
  RMM-DIIS:  cpu time    0.8614: real time    0.8639
    ORTHCH:  cpu time    0.0137: real time    0.0137
       DOS:  cpu time    0.0012: real time    0.0012
    CHARGE:  cpu time    0.0316: real time    0.0316
    MIXING:  cpu time    0.0016: real time    0.0016
    --------------------------------------------
      LOOP:  cpu time    1.0268: real time    1.0514

 eigenvalue-minimisations  :  8274
 total energy-change (2. order) :-0.4339364E-04  (-0.2498646E-03)
 number of electron     317.0000001 magnetization 
 augmentation part       19.4755409 magnetization 

 Broyden mixing:
  rms(total) = 0.58818E-02    rms(broyden)= 0.58775E-02
  rms(prec ) = 0.12936E-01
  weight for this iteration     100.00

 eigenvalues of (default mixing * dielectric matrix)
  average eigenvalue GAMMA=   1.0439
  2.6562  2.0636  1.5442  1.2722  0.7109  0.6083  0.4476  0.4476  0.3311  0.3573

 Free energy of the ion-electron system (eV)
  ---------------------------------------------------
  alpha Z        PSCENC =      1713.75080900
  Ewald energy   TEWEN  =    -22681.98733397
  -Hartree energ DENC   =     -6948.55749849
  -exchange      EXHF   =         0.00000000
  -V(xc)+E(xc)   XCENC  =       -36.61551329
  PAW double counting   =     37252.16584939   -35698.01544583
  entropy T*S    EENTRO =         0.01075871
  eigenvalues    EBANDS =     -2967.43330436
  atomic energy  EATOM  =     29001.20790863
  Solvation  Ediel_sol  =         0.00000000
  ---------------------------------------------------
  free energy    TOTEN  =      -365.47377021 eV

  energy without entropy =     -365.48452892  energy(sigma->0) =     -365.47735645


--------------------------------------------------------------------------------------------------------




----------------------------------------- Iteration    1(  16)  ---------------------------------------


    POTLOK:  cpu time    0.0290: real time    0.0291
    SETDIJ:  cpu time    0.0103: real time    0.0104
    EDDIAG:  cpu time    0.0917: real time    0.0919
  RMM-DIIS:  cpu time    0.7772: real time    0.7797
    ORTHCH:  cpu time    0.0137: real time    0.0138
       DOS:  cpu time    0.0016: real time    0.0016
    CHARGE:  cpu time    0.0314: real time    0.0316
    MIXING:  cpu time    0.0017: real time    0.0017
    --------------------------------------------
      LOOP:  cpu time    0.9572: real time    1.0076

 eigenvalue-minimisations  :  7425
 total energy-change (2. order) :-0.6993967E-05  (-0.1081021E-03)
 number of electron     317.0000001 magnetization 
 augmentation part       19.4744843 magnetization 

 Broyden mixing:
  rms(total) = 0.33545E-02    rms(broyden)= 0.33524E-02
  rms(prec ) = 0.67793E-02
  weight for this iteration     100.00

 eigenvalues of (default mixing * dielectric matrix)
  average eigenvalue GAMMA=   1.0196
  2.6774  2.0596  1.5157  1.4445  0.8610  0.6224  0.4859  0.4859  0.3303  0.3662
  0.3662

 Free energy of the ion-electron system (eV)
  ---------------------------------------------------
  alpha Z        PSCENC =      1713.75080900
  Ewald energy   TEWEN  =    -22681.98733397
  -Hartree energ DENC   =     -6948.68610124
  -exchange      EXHF   =         0.00000000
  -V(xc)+E(xc)   XCENC  =       -36.61106250
[...]
    114       6.0885      2.00000
    115       6.1345      2.00000
    116       6.1833      2.00000
    117       6.2429      2.00000
    118       6.4059      2.00000
    119       6.4762      2.00000
    120       6.5413      2.00000
    121       6.5509      2.00000
    122       6.5791      2.00000
    123       6.6163      2.00000
    124       6.6349      2.00000
    125       6.6711      2.00000
    126       6.7043      2.00000
    127       6.7257      2.00000
    128       6.7521      2.00000
    129       6.7998      2.00000
    130       6.8342      2.00000
    131       6.8578      2.00000
    132       6.8796      2.00000
    133       6.9331      2.00000
    134       6.9696      2.00000
    135       7.0110      2.00000
    136       7.0469      2.00000
    137       7.0676      2.00000
    138       7.1100      2.00000
    139       7.1452      2.00000
    140       7.2270      2.00000
    141       7.2637      2.00000
    142       7.3023      2.00000
    143       7.3512      2.00000
    144       7.3779      2.00000
    145       7.4296      2.00001
    146       7.4636      2.00003
    147       7.5104      2.00019
    148       7.5484      2.00073
    149       7.5709      2.00152
    150       7.6223      2.00657
    151       7.6393      2.01003
    152       7.6870      2.02747
    153       7.7213      2.04704
    154       7.7475      2.06243
    155       7.7906      2.06762
    156       7.8173      2.03816
    157       7.8502      1.94022
    158       7.8882      1.71454
    159       7.9084      1.54327
    160       7.9437      1.18053
    161       7.9513      1.09535
    162       7.9820      0.75236
    163       8.0272      0.31802
    164       8.0676      0.06748
    165       8.1293     -0.06781
    166       8.1573     -0.06862
    167       8.1930     -0.05033
    168       8.2360     -0.02576
    169       8.2642     -0.01451
    170       8.3011     -0.00595
    171       8.3519     -0.00137
    172       8.3682     -0.00081
    173       8.4421     -0.00005
    174       8.4512     -0.00004
    175       8.4974     -0.00000
    176       8.5361     -0.00000
    177       8.5999     -0.00000
    178       8.6205     -0.00000
    179       8.8010     -0.00000
    180       8.8684     -0.00000
    181       9.0399     -0.00000
    182       9.1299     -0.00000
    183       9.2510     -0.00000
    184       9.8069     -0.00000
    185       9.8792     -0.00000
    186       9.9084     -0.00000
    187      10.0015     -0.00000
    188      10.0600     -0.00000
    189      10.0969     -0.00000
    190      10.1398     -0.00000
    191      10.2566     -0.00000
    192      10.3355     -0.00000


--------------------------------------------------------------------------------------------------------


 soft charge-density along one line, spin component           1
         0         1         2         3         4         5         6         7         8         9
 total charge-density along one line
 
 pseudopotential strength for first ion, spin component:           1
 13.411 -26.108   0.001  -0.000  -0.001  -0.001  -0.001  -0.003
-26.108  13.847   0.001   0.001   0.005   0.001  -0.000  -0.001
  0.001   0.001  -6.387   0.003  -0.002   5.076  -0.004   0.003
 -0.000   0.001   0.003  -6.389   0.001  -0.004   5.079   0.001
 -0.001   0.005  -0.002   0.001  -6.390   0.003   0.001   5.079
 -0.001   0.001   5.076  -0.004   0.003   8.377   0.002  -0.002
 -0.001  -0.000  -0.004   5.079   0.001   0.002   8.375  -0.000
 -0.003  -0.001   0.003   0.001   5.079  -0.002  -0.000   8.375
 -0.003  -0.002   0.001   0.000   0.001  -0.002  -0.000  -0.001
  0.003   0.002   0.000   0.000   0.000  -0.001  -0.000  -0.000
 -0.000  -0.000  -0.001   0.000  -0.000   0.000  -0.000   0.001
  0.000  -0.001   0.000   0.002   0.001  -0.000  -0.002  -0.000
 -0.002  -0.001  -0.000   0.000   0.001   0.000   0.000  -0.001
 -0.003  -0.002   0.002   0.000   0.001  -0.002  -0.000  -0.001
  0.004   0.003   0.000   0.000   0.000  -0.001  -0.000  -0.000
 -0.000  -0.001  -0.001   0.000  -0.000   0.000  -0.000   0.001
  0.000  -0.001   0.000   0.002   0.001  -0.000  -0.002  -0.001
 -0.002  -0.001  -0.000   0.000   0.001   0.000  -0.000  -0.001
 total augmentation occupancy for first ion, spin component:           1
  1.999  -0.025  -0.000  -0.000  -0.000  -0.001   0.000   0.000   0.003   0.005  -0.004  -0.006   0.005  -0.002  -0.005   0.004
 -0.025   1.418  -0.007  -0.000  -0.004   0.004   0.004   0.009   0.010   0.046  -0.038  -0.024   0.026  -0.003  -0.031   0.022
 -0.000  -0.007   2.003   0.001  -0.001  -0.027  -0.002   0.002  -0.000   0.000  -0.000  -0.004   0.004  -0.002  -0.003  -0.001
 -0.000  -0.000   0.001   2.003   0.000  -0.002  -0.025  -0.001  -0.001  -0.025   0.011   0.010   0.004   0.001   0.014  -0.008
 -0.000  -0.004  -0.001   0.000   2.002   0.002  -0.001  -0.023  -0.020  -0.001  -0.006   0.014   0.015   0.013   0.001   0.007
 -0.001   0.004  -0.027  -0.002   0.002   0.043   0.003  -0.002   0.012   0.018   0.009   0.005  -0.003  -0.007  -0.009  -0.005
  0.000   0.004  -0.002  -0.025  -0.001   0.003   0.040   0.001  -0.001   0.030  -0.005  -0.012  -0.010   0.001  -0.016   0.003
  0.000   0.009   0.002  -0.001  -0.023  -0.002   0.001   0.039   0.009  -0.001  -0.009  -0.014   0.004  -0.005   0.001   0.005
  0.003   0.010  -0.000  -0.001  -0.020   0.012  -0.001   0.009   4.255   0.062  -0.184   0.081  -0.021  -2.218  -0.036   0.083
  0.005   0.046   0.000  -0.025  -0.001   0.018   0.030  -0.001   0.062   4.088   0.039  -0.238  -0.109  -0.036  -2.120  -0.020
 -0.004  -0.038  -0.000   0.011  -0.006   0.009  -0.005  -0.009  -0.184   0.039   4.094  -0.076  -0.020   0.083  -0.020  -2.195
 -0.006  -0.024  -0.004   0.010   0.014   0.005  -0.012  -0.014   0.081  -0.238  -0.076   4.172  -0.061  -0.049   0.121   0.032
  0.005   0.026   0.004   0.004   0.015  -0.003  -0.010   0.004  -0.021  -0.109  -0.020  -0.061   4.181   0.010   0.067  -0.004
 -0.002  -0.003  -0.002   0.001   0.013  -0.007   0.001  -0.005  -2.218  -0.036   0.083  -0.049   0.010   1.171   0.020  -0.037
 -0.005  -0.031  -0.003   0.014   0.001  -0.009  -0.016   0.001  -0.036  -2.120  -0.020   0.121   0.067   0.020   1.114   0.011
  0.004   0.022  -0.001  -0.008   0.007  -0.005   0.003   0.005   0.083  -0.020  -2.195   0.032  -0.004  -0.037   0.011   1.186
  0.005   0.005   0.002  -0.006  -0.008  -0.002   0.005   0.006  -0.049   0.121   0.032  -2.176   0.026   0.028  -0.062  -0.013
 -0.004  -0.012  -0.002  -0.001  -0.012   0.001   0.005  -0.001   0.010   0.067  -0.004   0.027  -2.247  -0.004  -0.040   0.009


------------------------ aborting loop because EDIFF is reached ----------------------------------------


    CHARGE:  cpu time    0.0300: real time    0.0300
    FORLOC:  cpu time    0.0133: real time    0.0133
    FORNL :  cpu time    0.4256: real time    0.4270
    STRESS:  cpu time    0.9670: real time    0.9742
    FORCOR:  cpu time    0.0425: real time    0.0426
    FORHAR:  cpu time    0.0181: real time    0.0181
    MIXING:  cpu time    0.0012: real time    0.0013
    OFIELD:  cpu time    0.0000: real time    0.0000

  FORCE on cell =-STRESS in cart. coord.  units (eV):
  Direction    XX          YY          ZZ          XY          YZ          ZX
  --------------------------------------------------------------------------------------
  Alpha Z  1714.45573  1714.45573  1714.45573
  Ewald   -6988.15512 -7845.50405 -7854.51564  -455.15335  -291.70083  -180.91591
  Hartree  2850.04273  2053.80099  2041.39339  -400.87435  -233.83805  -171.86069
  E(xc)   -1393.04140 -1393.20619 -1393.26462    -0.23208    -0.42713     0.01548
  Local   -1580.84968    70.39096    92.20282   856.01711   525.31192   350.76389
  n-local  -335.97123  -338.07532  -335.47160    -1.88149     1.63099    -2.50643
  augment   245.75316   246.01882   245.59110     0.25049    -0.26256     0.62052
  Kinetic  5487.99110  5492.36562  5489.79778     1.85821    -0.71254     3.87438
  Fock        0.00000     0.00000     0.00000     0.00000     0.00000     0.00000
  -------------------------------------------------------------------------------------
  Total       0.22528     0.24655     0.18896    -0.01547     0.00181    -0.00875
  in kB       0.50595     0.55371     0.42438    -0.03475     0.00407    -0.01964
  external pressure =        0.49 kB  Pullay stress =        0.00 kB


 VOLUME and BASIS-vectors are now :
 -----------------------------------------------------------------------------
  energy-cutoff  :      300.00
  volume of cell :      713.40
      direct lattice vectors                 reciprocal lattice vectors
     6.874829500 -0.015572876 -0.016493607     0.145459700  0.000314209  0.000348194
    -0.022016776 10.179337077  0.011813746     0.000222265  0.098238834 -0.000110852
    -0.024427468  0.011558371 10.194247844     0.000235086 -0.000113337  0.098095227

  length of vectors
     6.874866923 10.179367742 10.194283663     0.145460456  0.098239148  0.098095574


 FORCES acting on ions
    electron-ion (+dipol)            ewald-force                    non-local-force                 convergence-correction
 -----------------------------------------------------------------------------------------------
   0.924E+02 -.286E+03 0.180E+03   -.919E+02 0.286E+03 -.180E+03   -.451E+00 -.451E+00 -.100E+00   0.112E-02 0.876E-02 0.309E-02
   -.136E+02 -.676E+02 0.103E+03   0.135E+02 0.682E+02 -.103E+03   0.815E-01 -.581E+00 -.107E+00   0.173E-02 0.204E-01 -.869E-02
   -.259E+02 0.165E+03 0.112E+03   0.256E+02 -.165E+03 -.113E+03   0.284E+00 -.375E+00 0.107E+00   0.204E-02 -.115E-01 -.731E-02
   -.924E+01 -.152E+02 -.573E+02   0.960E+01 0.147E+02 0.581E+02   -.364E+00 0.484E+00 -.722E+00   -.297E-03 0.148E-01 -.109E-02
   -.848E+02 -.348E+03 0.133E+03   0.845E+02 0.348E+03 -.133E+03   0.272E+00 -.620E+00 -.358E+00   -.878E-03 0.650E-02 0.390E-02
   -.230E+02 0.152E+03 -.104E+03   0.225E+02 -.152E+03 0.104E+03   0.503E+00 -.128E+00 -.469E+00   0.269E-02 -.512E-02 -.105E-01
   0.316E+02 0.205E+03 0.131E+03   -.314E+02 -.205E+03 -.132E+03   -.233E+00 0.997E-01 0.422E+00   -.240E-02 -.957E-02 -.896E-02
   -.193E+02 -.113E+03 0.398E+02   0.186E+02 0.112E+03 -.403E+02   0.716E+00 0.956E+00 0.519E+00   -.247E-02 0.118E-01 -.117E-01
   0.552E+02 -.202E+02 0.661E+02   -.547E+02 0.194E+02 -.658E+02   -.461E+00 0.826E+00 -.361E+00   -.762E-03 -.150E-01 0.211E-02
   0.168E+02 -.960E+02 -.668E+02   -.161E+02 0.947E+02 0.666E+02   -.752E+00 0.124E+01 0.238E+00   0.436E-02 0.101E-01 -.128E-01
   0.177E+02 -.508E+02 -.114E+03   -.182E+02 0.505E+02 0.115E+03   0.535E+00 0.365E+00 -.104E+01   -.280E-02 0.167E-01 -.483E-03
   0.590E+02 0.150E+03 0.229E+02   -.580E+02 -.150E+03 -.231E+02   -.990E+00 0.441E+00 0.122E+00   -.327E-02 -.959E-02 0.143E-01
   0.167E+03 0.751E+02 -.155E+03   -.167E+03 -.750E+02 0.156E+03   -.329E+00 -.808E-01 -.985E+00   0.231E-02 0.884E-02 -.452E-02
   -.162E+03 0.483E+01 -.190E+03   0.162E+03 -.490E+01 0.191E+03   0.233E+00 0.639E-01 -.132E+01   -.469E-02 0.899E-02 -.184E-02
   0.132E+03 -.122E+03 0.120E+03   -.132E+03 0.121E+03 -.120E+03   0.210E+00 0.108E+01 0.292E+00   0.159E-02 0.717E-02 0.130E-01
   -.386E+02 0.171E+03 0.142E+03   0.380E+02 -.171E+03 -.142E+03   0.628E+00 -.639E+00 0.426E+00   0.137E-02 0.501E-03 0.134E-02
   -.938E+02 0.220E+03 -.664E+02   0.935E+02 -.219E+03 0.660E+02   0.262E+00 -.621E+00 0.455E+00   0.551E-02 -.110E-01 0.514E-02
   -.502E+02 -.808E+02 0.146E+03   0.497E+02 0.797E+02 -.146E+03   0.507E+00 0.112E+01 0.202E+00   0.166E-02 -.143E-01 0.538E-02
   -.127E+03 -.693E+02 -.310E+03   0.126E+03 0.689E+02 0.310E+03   0.123E+01 0.468E+00 0.556E-01   0.676E-02 -.640E-02 0.448E-02
   0.293E+02 -.163E+02 0.112E+03   -.292E+02 0.170E+02 -.112E+03   -.102E+00 -.635E+00 -.183E+00   0.850E-03 -.427E-03 0.209E-03
   -.289E+01 -.560E+02 -.104E+03   0.358E+01 0.566E+02 0.103E+03   -.689E+00 -.656E+00 0.391E+00   0.251E-03 0.821E-02 0.207E-02
   0.537E+01 -.123E+02 -.128E+03   -.602E+01 0.129E+02 0.128E+03   0.654E+00 -.600E+00 0.269E+00   -.116E-04 0.859E-02 0.223E-02
   0.155E+02 0.525E+02 -.485E+02   -.152E+02 -.522E+02 0.489E+02   -.310E+00 -.244E+00 -.443E+00   -.851E-03 -.794E-03 -.494E-02
   -.296E+02 0.393E+02 -.284E+02   0.290E+02 -.394E+02 0.285E+02   0.566E+00 0.164E+00 -.507E-01   0.603E-03 -.479E-02 0.476E-02
   -.251E+02 -.138E+02 0.112E+03   0.247E+02 0.145E+02 -.113E+03   0.341E+00 -.668E+00 0.198E+00   -.755E-03 -.114E-02 0.240E-04
   0.192E+02 0.606E+02 0.695E+02   -.188E+02 -.604E+02 -.701E+02   -.342E+00 -.180E+00 0.521E+00   0.126E-02 -.266E-03 0.233E-03
   0.635E+02 0.576E+01 -.969E+02   -.627E+02 -.598E+01 0.964E+02   -.847E+00 0.223E+00 0.463E+00   -.403E-03 -.436E-02 0.827E-04
   0.345E+02 0.723E+02 0.630E+02   -.336E+02 -.730E+02 -.629E+02   -.851E+00 0.742E+00 -.143E+00   -.911E-03 -.342E-02 -.101E-02
   0.180E+02 -.118E+02 -.565E+02   -.182E+02 0.117E+02 0.556E+02   0.199E+00 0.546E-01 0.903E+00   0.101E-02 0.198E-02 -.128E-03
   0.184E+02 -.766E+01 -.248E+02   -.184E+02 0.774E+01 0.252E+02   -.401E-02 -.701E-01 -.475E+00   0.202E-02 -.951E-02 0.164E-02
   0.131E+01 -.310E+02 0.259E+02   -.110E+01 0.314E+02 -.257E+02   -.208E+00 -.494E+00 -.189E+00   -.507E-03 0.572E-02 -.270E-02
   0.324E+02 0.926E+02 -.382E+01   -.321E+02 -.924E+02 0.346E+01   -.242E+00 -.191E+00 0.358E+00   -.934E-03 -.415E-02 0.912E-03
   -.327E+02 0.505E+02 0.404E+02   0.319E+02 -.510E+02 -.404E+02   0.761E+00 0.525E+00 0.298E-01   0.827E-03 -.261E-02 -.762E-03
   -.391E+02 -.580E+02 0.174E+02   0.392E+02 0.577E+02 -.177E+02   -.266E-01 0.285E+00 0.355E+00   -.341E-03 0.253E-02 0.383E-02
   -.170E+02 -.429E+02 -.429E+02   0.172E+02 0.433E+02 0.421E+02   -.256E+00 -.417E+00 0.771E+00   -.997E-03 0.187E-02 -.117E-03
   -.155E+02 0.125E+01 -.401E+02   0.155E+02 -.918E+00 0.408E+02   0.944E-02 -.324E+00 -.732E+00   -.141E-02 -.756E-02 0.158E-02
 -----------------------------------------------------------------------------------------------
   -.547E+00 -.118E+01 0.589E+00   -.355E-14 -.465E-12 -.185E-12   0.535E+00 0.116E+01 -.582E+00   0.133E-01 0.221E-01 -.717E-02
 
 
 POSITION                                       TOTAL-FORCE (eV/Angst)
 -----------------------------------------------------------------------------------
      5.24395      8.48147      8.54397        -0.001295      0.000005      0.001788
      5.19677      8.49708      1.71501         0.007320      0.002300      0.002403
      3.36400      3.44406      0.00247        -0.005792      0.004072     -0.004617
      0.04279      6.72996      3.60066         0.003557     -0.001816     -0.000144
      1.53795      8.58129      8.59475        -0.000901      0.001232      0.001144
      5.10192      5.20509      1.74465         0.001769      0.002644     -0.006001
     -0.01150      3.37897     10.17221         0.000776      0.000079      0.000531
      3.32683      6.70757     10.05801        -0.001427      0.006970     -0.002999
      1.77355      1.59508      1.78565         0.004566      0.002448      0.004606
      0.04845      6.58510     10.14935        -0.001485      0.001186      0.000595
      3.38866      6.75919      3.53801         0.005896     -0.000529     -0.005717
      1.79895      5.01691      5.10646        -0.003283     -0.003695      0.000681
      3.50431      0.00736      3.43521         0.002682     -0.001727     -0.003614
      6.83731      0.01850      3.50149         0.003846      0.000701      0.002486
      6.84230      6.70669      6.71683        -0.003745     -0.001170      0.002739
      1.57170      5.13633      8.42155        -0.009189      0.002093     -0.001739
      3.31788      3.44429      6.74975        -0.001746     -0.000788     -0.001863
      5.09508      1.60914      1.72318        -0.001362      0.002073     -0.001040
      5.00645      1.66891      5.07984         0.006026     -0.004193     -0.002443
      3.49980      0.02973      0.01895         0.002907     -0.003269     -0.001061
      1.76746      8.57596      4.99819        -0.002416     -0.003552      0.004396
      5.06744      8.51592      5.04901         0.003704     -0.005636      0.006341
      1.76887      5.16976      1.78821        -0.001502      0.004158      0.003609
      5.04029      5.03879      5.20020        -0.001419     -0.000291     -0.001009
      6.82296      0.26525     -0.00301         0.002501      0.001473     -0.004613
      5.16984      5.04807      8.32094        -0.003314     -0.006694      0.003650
      1.85516      1.66749      5.02023        -0.005140     -0.000967      0.000482
      1.83553      1.56895      8.45754        -0.000967      0.000824     -0.000115
      3.36628     10.07120      6.70601         0.003594     -0.001598      0.002456
      3.46288      3.40343      3.42654         0.005871      0.001908     -0.006487
      1.68322      8.49515      1.73717         0.001269      0.000159      0.006036
      0.03428      3.35380      6.72229        -0.000367     -0.001801     -0.003694
      4.95239      1.70650      8.39989        -0.006199      0.004817      0.004098
      3.36518      6.84122      6.78254         0.000390     -0.000071      0.002520
      0.00518      0.10482      6.64709        -0.004519      0.000908      0.000450
      6.83342      3.37599      3.48597        -0.000607     -0.002253     -0.003852
 -----------------------------------------------------------------------------------
    total drift:                                0.001963     -0.000704     -0.000286


--------------------------------------------------------------------------------------------------------



  FREE ENERGIE OF THE ION-ELECTRON SYSTEM (eV)
  ---------------------------------------------------
  free  energy   TOTEN  =      -365.48995793 eV

  energy  without entropy=     -365.50016676  energy(sigma->0) =     -365.49336088
 
 d Force = 0.3438448E-04[ 0.299E-04, 0.389E-04]  d Energy = 0.1002056E-03-0.658E-04
 d Force =-0.1562559E+00[-0.156E+00,-0.156E+00]  d Ewald  =-0.1566347E+01 0.141E+01


--------------------------------------------------------------------------------------------------------


    POTLOK:  cpu time    0.0358: real time    0.0359


--------------------------------------------------------------------------------------------------------


 Conjugate gradient step on ions:
 trial-energy change:   -0.000100  1 .order   -0.000083   -0.000096   -0.000070
  (g-gl).g = 0.122E-03      g.g   = 0.128E-03  gl.gl    = 0.770E-04
 g(Force)  = 0.193E-04   g(Stress)= 0.108E-03 ortho     = 0.559E-05
 gamma     =   1.58338
 trial     =   0.70068
 opt step  =   2.55569  (harmonic =   2.55569) maximal distance =0.00133195
 next E    =  -365.490032   (d E  =  -0.00017)


--------------------------------------------------------------------------------------------------------


  
 reached required accuracy - stopping structural energy minimisation
     LOOP+:  cpu time    6.1720: real time    6.6206
    4ORBIT:  cpu time    0.0000: real time    0.0000

 total amount of memory used by VASP on root node    68761. kBytes
========================================================================

   base      :      30000. kBytes
   nonlr-proj:      10680. kBytes
   fftplans  :       2814. kBytes
   grid      :       5360. kBytes
   one-center:        124. kBytes
   wavefun   :      19783. kBytes
 
  
  
 General timing and accounting informations for this job:
 ========================================================
  
                  Total CPU time used (sec):      158.421
                            User time (sec):      157.634
                          System time (sec):        0.788
                         Elapsed time (sec):      175.028
  
                   Maximum memory used (kb):      272188.
                   Average memory used (kb):           0.
  
                          Minor page faults:       128791
                          Major page faults:           36
                 Voluntary context switches:         6692
