<?xml version="1.0" encoding="ISO-8859-1"?>
<modeling>
 <generator>
  <i name="program" type="string">vasp </i>
  <i name="version" type="string">5.4.1  </i>
  <i name="subversion" type="string">05Feb16 (build Jan 29 2020 16:04:39) complex                          parallel </i>
  <i name="platform" type="string">IFC91_ompi </i>
  <i name="date" type="string">2020 06 15 </i>
  <i name="time" type="string">13:00:29 </i>
 </generator>
 <incar>
  <i type="string" name="SYSTEM"> automatically generated by mexm</i>
  <i type="int" name="ISTART">     0</i>
  <i type="string" name="PREC">accurate               ! avoid wrap aro</i>
  <i type="string" name="ALGO"> Fast                   ! blocked Davids</i>
  <i type="int" name="ISPIN">     1</i>
  <i type="int" name="ICHARG">     2</i>
  <i type="int" name="NELM">    70</i>
  <i type="int" name="IBRION">     2</i>
  <i name="EDIFF">      0.00001000</i>
  <i name="EDIFFG">     -0.01000000</i>
  <i type="int" name="NSW">   300</i>
  <i type="int" name="ISIF">     3</i>
  <i type="int" name="ISYM">     1</i>
  <i name="ENCUT">    300.00000000</i>
  <i name="POTIM">      0.15000000</i>
  <i type="string" name="LREAL"> Auto                  ! unpublished met</i>
  <i type="int" name="ISMEAR">     1</i>
  <i name="SIGMA">      0.15000000</i>
  <i type="logical" name="LWAVE"> F  </i>
  <i type="logical" name="LCHARG"> F  </i>
  <i type="logical" name="LVTOT"> F  </i>
  <v type="int" name="KPOINT_BSE">    -1     0     0     0</v>
  <i type="int" name="NELM">    70</i>
 </incar>
 <kpoints>
  <generation param="Gamma">
   <v type="int" name="divisions">       3        3        3 </v>
   <v name="usershift">      0.00000000       0.00000000       0.00000000 </v>
   <v name="genvec1">      0.33333333       0.00000000       0.00000000 </v>
   <v name="genvec2">     -0.00000000       0.33333333       0.00000000 </v>
   <v name="genvec3">      0.00000000      -0.00000000       0.33333333 </v>
   <v name="shift">      0.00000000       0.00000000       0.00000000 </v>
  </generation>
  <varray name="kpointlist" >
   <v>       0.00000000       0.00000000       0.00000000 </v>
   <v>       0.33333333      -0.00000000       0.00000000 </v>
   <v>       0.00000000       0.33333333       0.00000000 </v>
   <v>       0.33333333       0.33333333       0.00000000 </v>
   <v>      -0.33333333       0.33333333      -0.00000000 </v>
   <v>       0.00000000      -0.00000000       0.33333333 </v>
   <v>       0.33333333       0.00000000       0.33333333 </v>
   <v>      -0.33333333       0.00000000       0.33333333 </v>
   <v>       0.00000000       0.33333333       0.33333333 </v>
   <v>       0.33333333       0.33333333       0.33333333 </v>
   <v>      -0.33333333       0.33333333       0.33333333 </v>
   <v>       0.00000000      -0.33333333       0.33333333 </v>
   <v>       0.33333333      -0.33333333       0.33333333 </v>
   <v>      -0.33333333      -0.33333333       0.33333333 </v>
  </varray>
  <varray name="weights" >
   <v>       0.03703704 </v>
   <v>       0.07407407 </v>
   <v>       0.07407407 </v>
   <v>       0.07407407 </v>
   <v>       0.07407407 </v>
   <v>       0.07407407 </v>
   <v>       0.07407407 </v>
   <v>       0.07407407 </v>
   <v>       0.07407407 </v>
   <v>       0.07407407 </v>
   <v>       0.07407407 </v>
   <v>       0.07407407 </v>
   <v>       0.07407407 </v>
   <v>       0.07407407 </v>
  </varray>
 </kpoints>
 <parameters>
  <separator name="general" >
   <i type="string" name="SYSTEM">automatically generated by mexm</i>
   <i type="logical" name="LCOMPAT"> F  </i>
  </separator>
  <separator name="electronic" >
   <i type="string" name="PREC">accura</i>
   <i name="ENMAX">    300.00000000</i>
   <i name="ENAUG">    461.25700000</i>
   <i name="EDIFF">      0.00001000</i>
   <i type="int" name="IALGO">    68</i>
   <i type="int" name="IWAVPR">    11</i>
   <i type="int" name="NBANDS">   192</i>
   <i name="NELECT">    317.00000000</i>
   <i type="int" name="TURBO">     0</i>
   <i type="int" name="IRESTART">     0</i>
   <i type="int" name="NREBOOT">     0</i>
   <i type="int" name="NMIN">     0</i>
   <i name="EREF">      0.00000000</i>
   <separator name="electronic smearing" >
    <i type="int" name="ISMEAR">     1</i>
    <i name="SIGMA">      0.15000000</i>
    <i name="KSPACING">      0.50000000</i>
    <i type="logical" name="KGAMMA"> T  </i>
   </separator>
   <separator name="electronic projectors" >
    <i type="logical" name="LREAL"> T  </i>
    <v name="ROPT">     -0.00025000     -0.00025000     -0.00025000     -0.00025000</v>
    <i type="int" name="LMAXPAW">  -100</i>
    <i type="int" name="LMAXMIX">     2</i>
    <i type="logical" name="NLSPLINE"> F  </i>
   </separator>
   <separator name="electronic startup" >
    <i type="int" name="ISTART">     0</i>
    <i type="int" name="ICHARG">     2</i>
    <i type="int" name="INIWAV">     1</i>
   </separator>
   <separator name="electronic spin" >
    <i type="int" name="ISPIN">     1</i>
    <i type="logical" name="LNONCOLLINEAR"> F  </i>
    <v name="MAGMOM">      1.00000000      1.00000000      1.00000000      1.00000000      1.00000000      1.00000000      1.00000000      1.00000000      1.00000000      1.00000000      1.00000000      1.00000000      1.00000000      1.00000000      1.00000000      1.00000000      1.00000000      1.00000000      1.00000000      1.00000000
      1.00000000      1.00000000      1.00000000      1.00000000      1.00000000      1.00000000      1.00000000      1.00000000      1.00000000      1.00000000      1.00000000      1.00000000      1.00000000      1.00000000      1.00000000      1.00000000</v>
    <i name="NUPDOWN">     -1.00000000</i>
    <i type="logical" name="LSORBIT"> F  </i>
    <v name="SAXIS">      0.00000000      0.00000000      1.00000000</v>
    <i type="logical" name="LSPIRAL"> F  </i>
    <v name="QSPIRAL">      0.00000000      0.00000000      0.00000000</v>
    <i type="logical" name="LZEROZ"> F  </i>
   </separator>
   <separator name="electronic exchange-correlation" >
    <i type="logical" name="LASPH"> F  </i>
    <i type="logical" name="LMETAGGA"> F  </i>
   </separator>
   <separator name="electronic convergence" >
    <i type="int" name="NELM">    70</i>
    <i type="int" name="NELMDL">    -5</i>
    <i type="int" name="NELMIN">     2</i>
    <i name="ENINI">    300.00000000</i>
    <separator name="electronic convergence detail" >
     <i type="logical" name="LDIAG"> T  </i>
     <i type="logical" name="LSUBROT"> F  </i>
     <i name="WEIMIN">      0.00100000</i>
     <i name="EBREAK">      0.00000001</i>
     <i name="DEPER">      0.30000000</i>
     <i type="int" name="NRMM">     4</i>
     <i name="TIME">      0.40000000</i>
    </separator>
   </separator>
   <separator name="electronic mixer" >
    <i name="AMIX">      0.40000000</i>
    <i name="BMIX">      1.00000000</i>
    <i name="AMIN">      0.10000000</i>
    <i name="AMIX_MAG">      1.60000000</i>
    <i name="BMIX_MAG">      1.00000000</i>
    <separator name="electronic mixer details" >
     <i type="int" name="IMIX">     4</i>
     <i type="logical" name="MIXFIRST"> F  </i>
     <i type="int" name="MAXMIX">   -45</i>
     <i name="WC">    100.00000000</i>
     <i type="int" name="INIMIX">     1</i>
     <i type="int" name="MIXPRE">     1</i>
     <i type="int" name="MREMOVE">     5</i>
    </separator>
   </separator>
   <separator name="electronic dipolcorrection" >
    <i type="logical" name="LDIPOL"> F  </i>
    <i type="logical" name="LMONO"> F  </i>
    <i type="int" name="IDIPOL">     0</i>
    <i name="EPSILON">      1.00000000</i>
    <v name="DIPOL">   -100.00000000   -100.00000000   -100.00000000</v>
    <i name="EFIELD">      0.00000000</i>
   </separator>
  </separator>
  <separator name="grids" >
   <i type="int" name="NGX">    40</i>
   <i type="int" name="NGY">    60</i>
   <i type="int" name="NGZ">    60</i>
   <i type="int" name="NGXF">    80</i>
   <i type="int" name="NGYF">   120</i>
   <i type="int" name="NGZF">   120</i>
   <i type="logical" name="ADDGRID"> F  </i>
  </separator>
  <separator name="ionic" >
   <i type="int" name="NSW">   300</i>
   <i type="int" name="IBRION">     2</i>
   <i type="int" name="ISIF">     3</i>
   <i name="PSTRESS">      0.00000000</i>
   <i name="EDIFFG">     -0.01000000</i>
   <i type="int" name="NFREE">     1</i>
   <i name="POTIM">      0.15000000</i>
   <i name="SMASS">     -3.00000000</i>
   <i name="SCALEE">      1.00000000</i>
  </separator>
  <separator name="ionic md" >
   <i name="TEBEG">      0.00010000</i>
   <i name="TEEND">      0.00010000</i>
   <i type="int" name="NBLOCK">     1</i>
   <i type="int" name="KBLOCK">   300</i>
   <i type="int" name="NPACO">   256</i>
   <i name="APACO">     16.00000000</i>
  </separator>
  <separator name="symmetry" >
   <i type="int" name="ISYM">     1</i>
   <i name="SYMPREC">      0.00001000</i>
  </separator>
  <separator name="dos" >
   <i type="logical" name="LORBIT"> F  </i>
   <v name="RWIGS">     -1.00000000     -1.00000000     -1.00000000     -1.00000000</v>
   <i type="int" name="NEDOS">   301</i>
   <i name="EMIN">     10.00000000</i>
   <i name="EMAX">    -10.00000000</i>
   <i name="EFERMI">      0.00000000</i>
  </separator>
  <separator name="writing" >
   <i type="int" name="NWRITE">     2</i>
   <i type="logical" name="LWAVE"> F  </i>
   <i type="logical" name="LCHARG"> F  </i>
   <i type="logical" name="LPARD"> F  </i>
   <i type="logical" name="LVTOT"> F  </i>
   <i type="logical" name="LVHAR"> F  </i>
   <i type="logical" name="LELF"> F  </i>
   <i type="logical" name="LOPTICS"> F  </i>
   <v name="STM">      0.00000000      0.00000000      0.00000000      0.00000000      0.00000000      0.00000000      0.00000000</v>
  </separator>
  <separator name="performance" >
   <i type="int" name="NPAR">     4</i>
   <i type="int" name="NSIM">     4</i>
   <i type="int" name="NBLK">    -1</i>
   <i type="logical" name="LPLANE"> T  </i>
   <i type="logical" name="LSCALAPACK"> T  </i>
   <i type="logical" name="LSCAAWARE"> F  </i>
   <i type="logical" name="LSCALU"> F  </i>
   <i type="logical" name="LASYNC"> F  </i>
   <i type="logical" name="LORBITALREAL"> F  </i>
  </separator>
  <separator name="miscellaneous" >
   <i type="int" name="IDIOT">     3</i>
   <i type="logical" name="LMUSIC"> F  </i>
   <v name="POMASS">     91.22400000     92.91000000    180.94800000    178.49000000</v>
   <v name="DARWINR">      0.00000000      0.00000000      0.00000000      0.00000000</v>
   <v name="DARWINV">      1.00000000      1.00000000      1.00000000      1.00000000</v>
   <i type="logical" name="LCORR"> T  </i>
  </separator>
  <i type="logical" name="GGA_COMPAT"> T  </i>
  <i type="logical" name="LBERRY"> F  </i>
  <i type="int" name="ICORELEVEL">     0</i>
  <i type="logical" name="LDAU"> F  </i>
  <i type="int" name="I_CONSTRAINED_M">     0</i>
  <separator name="electronic exchange-correlation" >
   <i type="string" name="GGA">--</i>
   <i type="int" name="VOSKOWN">     0</i>
   <i type="logical" name="LHFCALC"> F  </i>
   <i type="string" name="PRECFOCK"></i>
   <i type="logical" name="LSYMGRAD"> F  </i>
   <i type="logical" name="LHFONE"> F  </i>
   <i type="logical" name="LRHFCALC"> F  </i>
   <i type="logical" name="LTHOMAS"> F  </i>
   <i type="logical" name="LMODELHF"> F  </i>
   <i name="ENCUT4O">     -1.00000000</i>
   <i type="int" name="EXXOEP">     0</i>
   <i type="int" name="FOURORBIT">     0</i>
   <i name="AEXX">      0.00000000</i>
   <i name="HFALPHA">      0.00000000</i>
   <i name="MCALPHA">      0.00000000</i>
   <i name="ALDAX">      1.00000000</i>
   <i name="AGGAX">      1.00000000</i>
   <i name="ALDAC">      1.00000000</i>
   <i name="AGGAC">      1.00000000</i>
   <i type="int" name="NKREDX">     1</i>
   <i type="int" name="NKREDY">     1</i>
   <i type="int" name="NKREDZ">     1</i>
   <i type="logical" name="SHIFTRED"> F  </i>
   <i type="logical" name="ODDONLY"> F  </i>
   <i type="logical" name="EVENONLY"> F  </i>
   <i type="int" name="LMAXFOCK">     0</i>
   <i type="int" name="NMAXFOCKAE">     0</i>
   <i type="logical" name="LFOCKAEDFT"> F  </i>
   <i name="HFSCREEN">      0.00000000</i>
   <i name="HFSCREENC">      0.00000000</i>
   <i type="int" name="NBANDSGWLOW">     0</i>
  </separator>
  <separator name="vdW DFT" >
   <i type="logical" name="LUSE_VDW"> F  </i>
   <i name="Zab_VDW">     -0.84910000</i>
   <i name="PARAM1">      0.12340000</i>
   <i name="PARAM2">      1.00000000</i>
   <i name="PARAM3">      0.00000000</i>
  </separator>
  <separator name="model GW" >
   <i type="int" name="MODEL_GW">     0</i>
   <i name="MODEL_EPS0">     11.89484474</i>
   <i name="MODEL_ALPHA">      1.00000000</i>
  </separator>
  <separator name="linear response parameters" >
   <i type="logical" name="LEPSILON"> F  </i>
   <i type="logical" name="LRPA"> F  </i>
   <i type="logical" name="LNABLA"> F  </i>
   <i type="logical" name="LVEL"> F  </i>
   <i type="int" name="KINTER">     0</i>
   <i name="CSHIFT">      0.10000000</i>
   <i name="OMEGAMAX">     -1.00000000</i>
   <i name="DEG_THRESHOLD">      0.00200000</i>
  </separator>
  <separator name="orbital magnetization" >
   <i type="logical" name="NUCIND"> F  </i>
   <v name="MAGPOS">      0.00000000      0.00000000      0.00000000</v>
   <i type="logical" name="LNICSALL"> T  </i>
   <i type="logical" name="ORBITALMAG"> F  </i>
   <i type="logical" name="LMAGBLOCH"> F  </i>
   <i type="logical" name="LCHIMAG"> F  </i>
   <i type="logical" name="LGAUGE"> T  </i>
   <i type="int" name="MAGATOM">     0</i>
   <v name="MAGDIPOL">      0.00000000      0.00000000      0.00000000</v>
   <v name="AVECCONST">      0.00000000      0.00000000      0.00000000</v>
  </separator>
  <separator name="response functions" >
   <i type="logical" name="LADDER"> F  </i>
   <i type="logical" name="LFXC"> F  </i>
   <i type="logical" name="LHARTREE"> T  </i>
   <i type="int" name="IBSE">     0</i>
   <v type="int" name="KPOINT">    -1     0     0     0</v>
   <i type="logical" name="LTCTE"> F  </i>
   <i type="logical" name="LTETE"> F  </i>
   <i type="logical" name="LTRIPLET"> F  </i>
   <i type="logical" name="LFXCEPS"> F  </i>
   <i type="logical" name="LFXHEG"> F  </i>
   <i type="int" name="NATURALO">     0</i>
   <i type="logical" name="L2ORDER"> F  </i>
   <i type="logical" name="LUSEW"> F  </i>
   <i name="ENCUTGW">     -2.00000000</i>
   <i name="ENCUTGWSOFT">     -2.00000000</i>
   <i name="ENCUTLF">     -1.00000000</i>
   <i type="int" name="LMAXMP2">    -1</i>
   <i name="SCISSOR">      0.00000000</i>
   <i type="int" name="NOMEGA">     0</i>
   <i type="int" name="NOMEGAR">     0</i>
   <i type="int" name="NBANDSGW">    -1</i>
   <i type="int" name="NBANDSO">    -1</i>
   <i type="int" name="NBANDSV">    -1</i>
   <i type="int" name="NELM">    70</i>
   <i type="int" name="NELMHF">     1</i>
   <i type="int" name="DIM">     3</i>
   <i type="int" name="ANTIRES">     0</i>
   <i name="OMEGAMAX">    -30.00000000</i>
   <i name="OMEGAMIN">    -30.00000000</i>
   <i name="OMEGATL">   -200.00000000</i>
   <i type="int" name="OMEGAGRID">     0</i>
   <i name="CSHIFT">     -0.10000000</i>
   <i type="logical" name="SELFENERGY"> F  </i>
   <i type="logical" name="LSPECTRAL"> F  </i>
   <i type="logical" name="LSPECTRALGW"> F  </i>
   <i type="logical" name="LSINGLES"> F  </i>
   <i type="logical" name="LFERMIGW"> F  </i>
   <i type="logical" name="ODDONLYGW"> F  </i>
   <i type="logical" name="EVENONLYGW"> F  </i>
   <i type="int" name="NKREDLFX">     1</i>
   <i type="int" name="NKREDLFY">     1</i>
   <i type="int" name="NKREDLFZ">     1</i>
   <i type="int" name="MAXMEM">  1800</i>
   <i type="int" name="TELESCOPE">     0</i>
   <i type="int" name="TAUPAR">     1</i>
   <i type="int" name="OMEGAPAR">    -1</i>
   <i name="LAMBDA">      1.00000000</i>
  </separator>
  <separator name="External order field" >
   <i name="OFIELD_KAPPA">      0.00000000</i>
   <v name="OFIELD_K">      0.00000000      0.00000000      0.00000000</v>
   <i name="OFIELD_Q6_NEAR">      0.00000000</i>
   <i name="OFIELD_Q6_FAR">      0.00000000</i>
   <i name="OFIELD_A">      0.00000000</i>
  </separator>
 </parameters>
 <atominfo>
  <atoms>      36 </atoms>
  <types>       4 </types>
  <array name="atoms" >
   <dimension dim="1">ion</dimension>
   <field type="string">element</field>
   <field type="int">atomtype</field>
   <set>
    <rc><c>Zr</c><c>   1</c></rc>
    <rc><c>Zr</c><c>   1</c></rc>
    <rc><c>Zr</c><c>   1</c></rc>
    <rc><c>Zr</c><c>   1</c></rc>
    <rc><c>Zr</c><c>   1</c></rc>
    <rc><c>Zr</c><c>   1</c></rc>
    <rc><c>Zr</c><c>   1</c></rc>
    <rc><c>Zr</c><c>   1</c></rc>
    <rc><c>Zr</c><c>   1</c></rc>
    <rc><c>Nb</c><c>   2</c></rc>
    <rc><c>Nb</c><c>   2</c></rc>
    <rc><c>Nb</c><c>   2</c></rc>
    <rc><c>Nb</c><c>   2</c></rc>
    <rc><c>Nb</c><c>   2</c></rc>
    <rc><c>Nb</c><c>   2</c></rc>
    <rc><c>Nb</c><c>   2</c></rc>
    <rc><c>Nb</c><c>   2</c></rc>
    <rc><c>Nb</c><c>   2</c></rc>
    <rc><c>Nb</c><c>   2</c></rc>
    <rc><c>Ta</c><c>   3</c></rc>
    <rc><c>Ta</c><c>   3</c></rc>
    <rc><c>Ta</c><c>   3</c></rc>
    <rc><c>Ta</c><c>   3</c></rc>
    <rc><c>Ta</c><c>   3</c></rc>
    <rc><c>Ta</c><c>   3</c></rc>
    <rc><c>Ta</c><c>   3</c></rc>
    <rc><c>Ta</c><c>   3</c></rc>
    <rc><c>Ta</c><c>   3</c></rc>
    <rc><c>Ta</c><c>   3</c></rc>
    <rc><c>Ta</c><c>   3</c></rc>
    <rc><c>Hf</c><c>   4</c></rc>
    <rc><c>Hf</c><c>   4</c></rc>
    <rc><c>Hf</c><c>   4</c></rc>
    <rc><c>Hf</c><c>   4</c></rc>
    <rc><c>Hf</c><c>   4</c></rc>
    <rc><c>Hf</c><c>   4</c></rc>
   </set>
  </array>
  <array name="atomtypes" >
   <dimension dim="1">type</dimension>
   <field type="int">atomspertype</field>
   <field type="string">element</field>
   <field>mass</field>
   <field>valence</field>
   <field type="string">pseudopotential</field>
   <set>
    <rc><c>   9</c><c>Zr</c><c>     91.22400000</c><c>     12.00000000</c><c>  PAW_PBE Zr_sv 04Jan2005               </c></rc>
    <rc><c>  10</c><c>Nb</c><c>     92.91000000</c><c>     13.00000000</c><c>  PAW_PBE Nb_sv 25May2007               </c></rc>
    <rc><c>  11</c><c>Ta</c><c>    180.94800000</c><c>      5.00000000</c><c>  PAW_PBE Ta 17Jan2003                  </c></rc>
    <rc><c>   6</c><c>Hf</c><c>    178.49000000</c><c>      4.00000000</c><c>  PAW_PBE Hf 20Jan2003                  </c></rc>
   </set>
  </array>
 </atominfo>
 <structure name="initialpos" >
  <crystal>
   <varray name="basis" >
    <v>       6.88034605      -0.01290975      -0.00921840 </v>
    <v>      -0.01807265      10.17460104       0.01623695 </v>
    <v>      -0.01365300       0.01598753      10.19496332 </v>
   </varray>
   <i name="volume">    713.69068441 </i>
   <varray name="rec_basis" >
    <v>       0.14534227       0.00025785       0.00019424 </v>
    <v>       0.00018421       0.09828452      -0.00015388 </v>
    <v>       0.00013113      -0.00015630       0.09808807 </v>
   </varray>
  </crystal>
  <varray name="positions" >
   <v>       0.76830300       0.83315000       0.83852200 </v>
   <v>       0.75840100       0.83540900       0.16817200 </v>
   <v>       0.49239600       0.33835000       0.00063500 </v>
   <v>       0.00777300       0.66118400       0.35262800 </v>
   <v>       0.22979500       0.84182900       0.84264900 </v>
   <v>       0.74404700       0.51205000       0.17243300 </v>
   <v>       0.00225400       0.33087600       0.99743600 </v>
   <v>       0.48977900       0.65794500       0.98664000 </v>
   <v>       0.25751500       0.15700700       0.17420900 </v>
   <v>       0.01284800       0.64575700       0.99489800 </v>
   <v>       0.49612000       0.66443000       0.34736000 </v>
   <v>       0.26396000       0.49380900       0.50077400 </v>
   <v>       0.50926900       0.00012300       0.33627700 </v>
   <v>       0.99521400       0.00328200       0.34460600 </v>
   <v>       0.99948300       0.65976600       0.65939900 </v>
   <v>       0.23441800       0.50427000       0.82611800 </v>
   <v>       0.48588200       0.33877600       0.66332100 </v>
   <v>       0.74287200       0.15878400       0.17209800 </v>
   <v>       0.72568600       0.16507300       0.50121900 </v>
   <v>       0.50920100       0.00466500       0.00263900 </v>
   <v>       0.26089000       0.84187800       0.48916800 </v>
   <v>       0.74207300       0.84023400       0.49466900 </v>
   <v>       0.25914300       0.50754600       0.17508400 </v>
   <v>       0.73714500       0.49232200       0.51038400 </v>
   <v>       0.99106400       0.02732800       0.00118400 </v>
   <v>       0.75722900       0.49752000       0.81704800 </v>
   <v>       0.27648600       0.16376800       0.49292600 </v>
   <v>       0.27029600       0.15365000       0.83161300 </v>
   <v>       0.49396500       0.98901700       0.65814600 </v>
   <v>       0.50357800       0.33555700       0.33604200 </v>
   <v>       0.24744800       0.83421600       0.16953700 </v>
   <v>       0.00979000       0.32868600       0.65963300 </v>
   <v>       0.72511900       0.16695500       0.82235000 </v>
   <v>       0.49622000       0.67248700       0.66424700 </v>
   <v>       0.00622500       0.01036400       0.65214700 </v>
   <v>       0.99810900       0.33194700       0.34378800 </v>
  </varray>
 </structure>
 <calculation>
  <scstep>
   <time name="dav">    1.08    1.26</time>
   <time name="total">    1.15    1.60</time>
   <energy>
    <i name="alphaZ">   1713.75080900 </i>
    <i name="ewald"> -22681.98733397 </i>
    <i name="hartreedc">  -7218.39976454 </i>
    <i name="XCdc">    -33.22049316 </i>
    <i name="pawpsdc">  24197.84332497 </i>
    <i name="pawaedc"> -22668.75910785 </i>
    <i name="eentropy">     -0.00391404 </i>
    <i name="bandstr">   -148.49905041 </i>
    <i name="atom">  29001.20790863 </i>
    <i name="e_fr_energy">   2161.93237862 </i>
    <i name="e_wo_entrp">   2161.93629266 </i>
    <i name="e_0_energy">   2161.93368330 </i>
   </energy>
  </scstep>
  <scstep>
   <time name="dav">    1.25    1.26</time>
   <time name="total">    1.25    1.38</time>
   <energy>
    <i name="e_fr_energy">    -65.66988735 </i>
    <i name="e_wo_entrp">    -65.67197177 </i>
    <i name="e_0_energy">    -65.67058216 </i>
   </energy>
  </scstep>
  <scstep>
   <time name="dav">    1.75    1.78</time>
   <time name="total">    1.75    1.80</time>
   <energy>
    <i name="e_fr_energy">   -344.73244110 </i>
    <i name="e_wo_entrp">   -344.73354720 </i>
    <i name="e_0_energy">   -344.73280980 </i>
   </energy>
  </scstep>
  <scstep>
   <time name="dav">    1.65    1.70</time>
   <time name="total">    1.65    1.73</time>
   <energy>
    <i name="e_fr_energy">   -377.27335492 </i>
    <i name="e_wo_entrp">   -377.28371051 </i>
    <i name="e_0_energy">   -377.27680678 </i>
   </energy>
  </scstep>
  <scstep>
   <time name="dav">    1.43    1.44</time>
   <time name="total">    1.47    1.49</time>
   <energy>
    <i name="e_fr_energy">   -380.49905667 </i>
    <i name="e_wo_entrp">   -380.51145309 </i>
    <i name="e_0_energy">   -380.50318881 </i>
   </energy>
  </scstep>
  <scstep>
   <time name="diag">    0.08    0.08</time>
   <time name="diis">    0.77    0.78</time>
   <time name="orth">    0.01    0.01</time>
   <time name="total">    0.94    0.97</time>
   <energy>
    <i name="e_fr_energy">   -369.61040257 </i>
    <i name="e_wo_entrp">   -369.62047387 </i>
    <i name="e_0_energy">   -369.61375967 </i>
   </energy>
  </scstep>
  <scstep>
   <time name="diag">    0.08    0.08</time>
   <time name="diis">    0.82    0.82</time>
   <time name="orth">    0.01    0.01</time>
   <time name="total">    0.98    1.00</time>
   <energy>
    <i name="e_fr_energy">   -369.55122006 </i>
    <i name="e_wo_entrp">   -369.54833278 </i>
    <i name="e_0_energy">   -369.55025763 </i>
   </energy>
  </scstep>
  <scstep>
   <time name="diag">    0.08    0.09</time>
   <time name="diis">    0.94    0.94</time>
   <time name="orth">    0.02    0.02</time>
   <time name="total">    1.11    1.14</time>
   <energy>
    <i name="e_fr_energy">   -365.73809639 </i>
    <i name="e_wo_entrp">   -365.75117836 </i>
    <i name="e_0_energy">   -365.74245705 </i>
   </energy>
  </scstep>
  <scstep>
   <time name="diag">    0.14    0.15</time>
   <time name="diis">    0.93    0.93</time>
   <time name="orth">    0.01    0.01</time>
   <time name="total">    1.19    1.21</time>
   <energy>
    <i name="e_fr_energy">   -365.57257213 </i>
    <i name="e_wo_entrp">   -365.58194464 </i>
    <i name="e_0_energy">   -365.57569630 </i>
   </energy>
  </scstep>
  <scstep>
   <time name="diag">    0.12    0.12</time>
   <time name="diis">    0.92    0.92</time>
   <time name="orth">    0.01    0.01</time>
   <time name="total">    1.12    1.15</time>
   <energy>
    <i name="e_fr_energy">   -365.51929127 </i>
    <i name="e_wo_entrp">   -365.53154880 </i>
    <i name="e_0_energy">   -365.52337711 </i>
   </energy>
  </scstep>
  <scstep>
   <time name="diag">    0.17    0.17</time>
   <time name="diis">    0.91    0.92</time>
   <time name="orth">    0.01    0.01</time>
   <time name="total">    1.18    1.21</time>
   <energy>
    <i name="e_fr_energy">   -365.47899946 </i>
    <i name="e_wo_entrp">   -365.48889569 </i>
    <i name="e_0_energy">   -365.48229821 </i>
   </energy>
  </scstep>
  <scstep>
   <time name="diag">    0.10    0.18</time>
   <time name="diis">    0.79    0.92</time>
   <time name="orth">    0.01    0.01</time>
   <time name="total">    0.99    1.25</time>
   <energy>
    <i name="e_fr_energy">   -365.47566184 </i>
    <i name="e_wo_entrp">   -365.48657355 </i>
    <i name="e_0_energy">   -365.47929908 </i>
   </energy>
  </scstep>
  <scstep>
   <time name="diag">    0.09    0.13</time>
   <time name="diis">    0.82    0.84</time>
   <time name="orth">    0.01    0.01</time>
   <time name="total">    1.00    1.14</time>
   <energy>
    <i name="e_fr_energy">   -365.47365691 </i>
    <i name="e_wo_entrp">   -365.48439512 </i>
    <i name="e_0_energy">   -365.47723632 </i>
   </energy>
  </scstep>
  <scstep>
   <time name="diag">    0.12    0.12</time>
   <time name="diis">    0.88    0.88</time>
   <time name="orth">    0.01    0.01</time>
   <time name="total">    1.08    1.12</time>
   <energy>
    <i name="e_fr_energy">   -365.47372682 </i>
    <i name="e_wo_entrp">   -365.48456812 </i>
    <i name="e_0_energy">   -365.47734059 </i>
   </energy>
  </scstep>
  <scstep>
   <time name="diag">    0.08    0.08</time>
   <time name="diis">    0.86    0.86</time>
   <time name="orth">    0.01    0.01</time>
   <time name="total">    1.03    1.05</time>
   <energy>
    <i name="e_fr_energy">   -365.47377021 </i>
    <i name="e_wo_entrp">   -365.48452892 </i>
    <i name="e_0_energy">   -365.47735645 </i>
   </energy>
  </scstep>
  <scstep>
   <time name="diag">    0.09    0.09</time>
   <time name="diis">    0.78    0.78</time>
   <time name="orth">    0.01    0.01</time>
   <time name="total">    0.96    1.01</time>
   <energy>
    <i name="e_fr_energy">   -365.47377721 </i>
    <i name="e_wo_entrp">   -365.48460923 </i>
    <i name="e_0_energy">   -365.47738788 </i>
   </energy>
  </scstep>
  <scstep>
   <time name="diag">    0.09    0.09</time>
   <time name="diis">    0.67    0.68</time>
   <time name="orth">    0.01    0.01</time>
   <time name="total">    0.84    0.87</time>
   <energy>
    <i name="e_fr_energy">   -365.47377970 </i>
    <i name="e_wo_entrp">   -365.48457384 </i>
    <i name="e_0_energy">   -365.47737775 </i>
   </energy>
  </scstep>
  <scstep>
   <time name="diag">    0.10    0.10</time>
   <time name="diis">    0.64    0.64</time>
   <time name="orth">    0.01    0.01</time>
   <time name="total">    0.85    0.88</time>
   <energy>
    <i name="e_fr_energy">   -365.47378505 </i>
    <i name="e_wo_entrp">   -365.48459604 </i>
    <i name="e_0_energy">   -365.47738871 </i>
   </energy>
  </scstep>
  <scstep>
   <time name="diag">    0.13    0.13</time>
   <time name="diis">    0.56    0.57</time>
   <time name="orth">    0.01    0.01</time>
   <time name="total">    0.76    0.79</time>
   <energy>
    <i name="alphaZ">   1713.75080900 </i>
    <i name="ewald"> -22681.98733397 </i>
    <i name="hartreedc">  -6948.77923192 </i>
    <i name="XCdc">    -36.61140909 </i>
    <i name="pawpsdc">  37266.69731195 </i>
    <i name="pawaedc"> -35712.27830793 </i>
    <i name="eentropy">      0.01080791 </i>
    <i name="bandstr">  -2967.48434118 </i>
    <i name="atom">  29001.20790863 </i>
    <i name="e_fr_energy">   -365.47378660 </i>
    <i name="e_wo_entrp">   -365.48459451 </i>
    <i name="e_0_energy">   -365.47738924 </i>
   </energy>
  </scstep>
  <structure>
   <crystal>
    <varray name="basis" >
     <v>       6.88034605      -0.01290975      -0.00921840 </v>
     <v>      -0.01807265      10.17460104       0.01623695 </v>
     <v>      -0.01365300       0.01598753      10.19496332 </v>
    </varray>
    <i name="volume">    713.69068441 </i>
    <varray name="rec_basis" >
     <v>       0.14534227       0.00025785       0.00019424 </v>
     <v>       0.00018421       0.09828452      -0.00015388 </v>
     <v>       0.00013113      -0.00015630       0.09808807 </v>
    </varray>
   </crystal>
   <varray name="positions" >
    <v>       0.76830300       0.83315000       0.83852200 </v>
    <v>       0.75840100       0.83540900       0.16817200 </v>
    <v>       0.49239600       0.33835000       0.00063500 </v>
    <v>       0.00777300       0.66118400       0.35262800 </v>
    <v>       0.22979500       0.84182900       0.84264900 </v>
    <v>       0.74404700       0.51205000       0.17243300 </v>
    <v>       0.00225400       0.33087600       0.99743600 </v>
    <v>       0.48977900       0.65794500       0.98664000 </v>
    <v>       0.25751500       0.15700700       0.17420900 </v>
    <v>       0.01284800       0.64575700       0.99489800 </v>
    <v>       0.49612000       0.66443000       0.34736000 </v>
    <v>       0.26396000       0.49380900       0.50077400 </v>
    <v>       0.50926900       0.00012300       0.33627700 </v>
    <v>       0.99521400       0.00328200       0.34460600 </v>
    <v>       0.99948300       0.65976600       0.65939900 </v>
    <v>       0.23441800       0.50427000       0.82611800 </v>
    <v>       0.48588200       0.33877600       0.66332100 </v>
    <v>       0.74287200       0.15878400       0.17209800 </v>
    <v>       0.72568600       0.16507300       0.50121900 </v>
    <v>       0.50920100       0.00466500       0.00263900 </v>
    <v>       0.26089000       0.84187800       0.48916800 </v>
    <v>       0.74207300       0.84023400       0.49466900 </v>
    <v>       0.25914300       0.50754600       0.17508400 </v>
    <v>       0.73714500       0.49232200       0.51038400 </v>
    <v>       0.99106400       0.02732800       0.00118400 </v>
    <v>       0.75722900       0.49752000       0.81704800 </v>
    <v>       0.27648600       0.16376800       0.49292600 </v>
    <v>       0.27029600       0.15365000       0.83161300 </v>
    <v>       0.49396500       0.98901700       0.65814600 </v>
    <v>       0.50357800       0.33555700       0.33604200 </v>
    <v>       0.24744800       0.83421600       0.16953700 </v>
    <v>       0.00979000       0.32868600       0.65963300 </v>
    <v>       0.72511900       0.16695500       0.82235000 </v>
    <v>       0.49622000       0.67248700       0.66424700 </v>
    <v>       0.00622500       0.01036400       0.65214700 </v>
    <v>       0.99810900       0.33194700       0.34378800 </v>
   </varray>
  </structure>
  <varray name="forces" >
   <v>       0.00053138       0.02052893      -0.01601524 </v>
   <v>      -0.00489038       0.01434046       0.01160707 </v>
   <v>      -0.00565000       0.00562868       0.00266155 </v>
   <v>       0.00265762      -0.00285192       0.00285964 </v>
   <v>      -0.00435282       0.01489506      -0.01699024 </v>
   <v>       0.00809731      -0.00417839       0.00721708 </v>
   <v>      -0.00117110       0.00804542       0.00613619 </v>
   <v>      -0.00841096       0.00208487      -0.00224037 </v>
   <v>       0.00688014      -0.00657081       0.03075886 </v>
   <v>       0.00465694      -0.01557699       0.00159108 </v>
   <v>       0.00562880      -0.00470483      -0.01415710 </v>
   <v>       0.00971524      -0.02414493      -0.00193708 </v>
   <v>       0.04173883       0.02712639       0.05040217 </v>
   <v>       0.00880039       0.00017665       0.00083888 </v>
   <v>       0.00000251      -0.00210881       0.00496563 </v>
   <v>      -0.00762021      -0.01097576      -0.00995661 </v>
   <v>      -0.01085272       0.01636206       0.00362348 </v>
   <v>      -0.01106754      -0.00028120      -0.10067204 </v>
   <v>       0.17418906       0.00513777      -0.04951978 </v>
   <v>       0.02682279      -0.00550465       0.00321222 </v>
   <v>       0.00107211       0.02403345       0.00766505 </v>
   <v>      -0.00435353      -0.13004275       0.00340251 </v>
   <v>       0.00344903       0.00270829       0.01278640 </v>
   <v>      -0.01770704       0.11932268       0.00997392 </v>
   <v>      -0.00413403      -0.00089481       0.00763456 </v>
   <v>       0.00421147      -0.03675249      -0.01885646 </v>
   <v>      -0.12995466       0.00136460      -0.00246122 </v>
   <v>       0.00742254       0.00052453      -0.03167413 </v>
   <v>      -0.00832374      -0.01355401       0.00951580 </v>
   <v>       0.01303540       0.00055516      -0.00455404 </v>
   <v>      -0.00184935       0.01391322       0.01210051 </v>
   <v>      -0.00431837       0.00351045      -0.01226806 </v>
   <v>      -0.01703279       0.00102521       0.10807964 </v>
   <v>      -0.00882766      -0.00798540       0.00705392 </v>
   <v>      -0.04012710      -0.00185681      -0.02907250 </v>
   <v>      -0.02826757      -0.01329931       0.00628870 </v>
  </varray>
  <varray name="stress" >
   <v>       0.14980559      -0.06710731      -0.50279965 </v>
   <v>      -0.06710730       0.42064055      -0.06523250 </v>
   <v>      -0.50279967      -0.06523249      -0.04158620 </v>
  </varray>
  <energy>
   <i name="e_fr_energy">   -365.47378660 </i>
   <i name="e_wo_entrp">   -365.47738924 </i>
   <i name="e_0_energy">      0.01080791 </i>
  </energy>
  <time name="totalsc">   23.07   24.63</time>
 </calculation>
 <calculation>
  <scstep>
   <time name="dav">    1.20    1.20</time>
   <time name="total">    1.32    1.46</time>
   <energy>
    <i name="alphaZ">   1713.58852940 </i>
    <i name="ewald"> -22681.79776933 </i>
    <i name="hartreedc">  -6948.06421436 </i>
    <i name="XCdc">    -36.64480807 </i>
    <i name="pawpsdc">  37267.00690499 </i>
    <i name="pawaedc"> -35712.57862876 </i>
    <i name="eentropy">      0.01079443 </i>
    <i name="bandstr">  -2968.20398960 </i>
    <i name="atom">  29001.20790863 </i>
    <i name="e_fr_energy">   -365.47527267 </i>
    <i name="e_wo_entrp">   -365.48606710 </i>
    <i name="e_0_energy">   -365.47887081 </i>
   </energy>
  </scstep>
  <scstep>
   <time name="diag">    0.09    0.13</time>
   <time name="diis">    0.72    0.87</time>
   <time name="orth">    0.01    0.02</time>
   <time name="total">    1.02    1.26</time>
   <energy>
    <i name="e_fr_energy">   -365.47557577 </i>
    <i name="e_wo_entrp">   -365.48639999 </i>
    <i name="e_0_energy">   -365.47918384 </i>
   </energy>
  </scstep>
  <scstep>
   <time name="diag">    0.09    0.16</time>
   <time name="diis">    0.75    0.76</time>
   <time name="orth">    0.01    0.01</time>
   <time name="total">    0.93    1.04</time>
   <energy>
    <i name="e_fr_energy">   -365.47555745 </i>
    <i name="e_wo_entrp">   -365.48634049 </i>
    <i name="e_0_energy">   -365.47915180 </i>
   </energy>
  </scstep>
  <scstep>
   <time name="diag">    0.08    0.09</time>
   <time name="diis">    0.66    0.66</time>
   <time name="orth">    0.01    0.01</time>
   <time name="total">    0.83    0.86</time>
   <energy>
    <i name="e_fr_energy">   -365.47554983 </i>
    <i name="e_wo_entrp">   -365.48633363 </i>
    <i name="e_0_energy">   -365.47914443 </i>
   </energy>
  </scstep>
  <scstep>
   <time name="diag">    0.09    0.09</time>
   <time name="diis">    0.46    0.46</time>
   <time name="orth">    0.01    0.01</time>
   <time name="total">    0.59    0.62</time>
   <energy>
    <i name="alphaZ">   1713.58852940 </i>
    <i name="ewald"> -22681.79776933 </i>
    <i name="hartreedc">  -6948.51379507 </i>
    <i name="XCdc">    -36.62405443 </i>
    <i name="pawpsdc">  37262.52625971 </i>
    <i name="pawaedc"> -35708.08016570 </i>
    <i name="eentropy">      0.01077941 </i>
    <i name="bandstr">  -2967.79323842 </i>
    <i name="atom">  29001.20790863 </i>
    <i name="e_fr_energy">   -365.47554581 </i>
    <i name="e_wo_entrp">   -365.48632522 </i>
    <i name="e_0_energy">   -365.47913895 </i>
   </energy>
  </scstep>
  <structure>
   <crystal>
    <varray name="basis" >
     <v>       6.88053162      -0.01299330      -0.00983770 </v>
     <v>      -0.01819687      10.17536750       0.01611960 </v>
     <v>      -0.01457154       0.01586981      10.19488843 </v>
    </varray>
    <i name="volume">    713.75827206 </i>
    <varray name="rec_basis" >
     <v>       0.14533839       0.00025958       0.00020733 </v>
     <v>       0.00018537       0.09827712      -0.00015272 </v>
     <v>       0.00013995      -0.00015514       0.09808881 </v>
    </varray>
   </crystal>
   <varray name="positions" >
    <v>       0.76830415       0.83317924       0.83849922 </v>
    <v>       0.75839080       0.83542936       0.16818844 </v>
    <v>       0.49238414       0.33835799       0.00063875 </v>
    <v>       0.00777859       0.66117994       0.35263207 </v>
    <v>       0.22978585       0.84185021       0.84262484 </v>
    <v>       0.74406404       0.51204406       0.17244327 </v>
    <v>       0.00225158       0.33088743       0.99744469 </v>
    <v>       0.48976131       0.65794795       0.98663680 </v>
    <v>       0.25752953       0.15699760       0.17425269 </v>
    <v>       0.01285774       0.64573485       0.99490030 </v>
    <v>       0.49613178       0.66442335       0.34733992 </v>
    <v>       0.26398034       0.49377469       0.50077132 </v>
    <v>       0.50935704       0.00016159       0.33634857 </v>
    <v>       0.99523251       0.00328227       0.34460721 </v>
    <v>       0.99948301       0.65976299       0.65940605 </v>
    <v>       0.23440190       0.50425439       0.82610388 </v>
    <v>       0.48585924       0.33879924       0.66332609 </v>
    <v>       0.74284844       0.15878379       0.17195506 </v>
    <v>       0.72605229       0.16508088       0.50114902 </v>
    <v>       0.50925741       0.00465723       0.00264362 </v>
    <v>       0.26089237       0.84191217       0.48917883 </v>
    <v>       0.74206337       0.84004900       0.49467412 </v>
    <v>       0.25915030       0.50754983       0.17510215 </v>
    <v>       0.73710823       0.49249166       0.51039786 </v>
    <v>       0.99105532       0.02732670       0.00119483 </v>
    <v>       0.75723767       0.49746777       0.81702132 </v>
    <v>       0.27621264       0.16376960       0.49292226 </v>
    <v>       0.27031153       0.15365084       0.83156805 </v>
    <v>       0.49394747       0.98899768       0.65815952 </v>
    <v>       0.50360541       0.33555783       0.33603556 </v>
    <v>       0.24744420       0.83423576       0.16955414 </v>
    <v>       0.00978089       0.32869101       0.65961557 </v>
    <v>       0.72508348       0.16695617       0.82250340 </v>
    <v>       0.49620142       0.67247560       0.66425702 </v>
    <v>       0.00614050       0.01036132       0.65210566 </v>
    <v>       0.99804951       0.33192799       0.34379690 </v>
   </varray>
  </structure>
  <varray name="forces" >
   <v>       0.00096190       0.01921322      -0.01438283 </v>
   <v>      -0.00365965       0.01235264       0.01135854 </v>
   <v>      -0.00767967       0.00620374       0.00373766 </v>
   <v>       0.00524460      -0.00333794       0.00210337 </v>
   <v>      -0.00456183       0.01401731      -0.01527390 </v>
   <v>       0.00673628      -0.00306603       0.00520838 </v>
   <v>       0.00050451       0.00674940       0.00590788 </v>
   <v>      -0.00781098       0.00241985      -0.00084591 </v>
   <v>       0.00935085      -0.00614834       0.02996449 </v>
   <v>       0.00451579      -0.01398075       0.00145165 </v>
   <v>       0.00445243      -0.00429338      -0.01334277 </v>
   <v>       0.01061945      -0.02299898      -0.00155077 </v>
   <v>       0.03882845       0.02760814       0.04916928 </v>
   <v>       0.00715813      -0.00089812       0.00179169 </v>
   <v>       0.00028215      -0.00181564       0.00374729 </v>
   <v>      -0.00779861      -0.01033736      -0.00875796 </v>
   <v>      -0.00858646       0.01214861       0.00033562 </v>
   <v>      -0.01062123       0.00137005      -0.09159023 </v>
   <v>       0.15615077       0.00287004      -0.04826979 </v>
   <v>       0.02163610      -0.00631661       0.00269998 </v>
   <v>       0.00279835       0.02135584       0.00749504 </v>
   <v>      -0.00583025      -0.11816491       0.00502096 </v>
   <v>       0.00327173       0.00275210       0.01213833 </v>
   <v>      -0.01687507       0.10983069       0.00850976 </v>
   <v>      -0.00057602      -0.00038380       0.00670593 </v>
   <v>       0.00319712      -0.03504484      -0.01693248 </v>
   <v>      -0.11535536       0.00087470      -0.00340140 </v>
   <v>       0.00606629       0.00035667      -0.03084461 </v>
   <v>      -0.00443293      -0.00898056       0.00309838 </v>
   <v>       0.01366919      -0.00391417       0.00020731 </v>
   <v>      -0.00011778       0.01324808       0.01114165 </v>
   <v>      -0.00585149       0.00313290      -0.01143267 </v>
   <v>      -0.01684269       0.00213767       0.09721784 </v>
   <v>      -0.01251639      -0.00665259       0.00838713 </v>
   <v>      -0.03923350      -0.00391378      -0.02525399 </v>
   <v>      -0.02709419      -0.00839385       0.00448114 </v>
  </varray>
  <varray name="stress" >
   <v>      -0.01217072      -0.07082772      -0.48674037 </v>
   <v>      -0.07082768       0.29829845      -0.07142399 </v>
   <v>      -0.48674036      -0.07142397      -0.16364049 </v>
  </varray>
  <energy>
   <i name="e_fr_energy">   -365.47554581 </i>
   <i name="e_wo_entrp">   -365.47913895 </i>
   <i name="e_0_energy">      0.01077941 </i>
  </energy>
  <time name="totalsc">    6.46    7.11</time>
 </calculation>
 <calculation>
  <scstep>
   <time name="dav">    1.14    1.15</time>
   <time name="total">    1.23    1.37</time>
   <energy>
    <i name="alphaZ">   1713.10202152 </i>
    <i name="ewald"> -22681.19745127 </i>
    <i name="hartreedc">  -6946.38137806 </i>
    <i name="XCdc">    -36.72231094 </i>
    <i name="pawpsdc">  37262.32569243 </i>
    <i name="pawaedc"> -35707.87714026 </i>
    <i name="eentropy">      0.01072191 </i>
    <i name="bandstr">  -2969.94563267 </i>
    <i name="atom">  29001.20790863 </i>
    <i name="e_fr_energy">   -365.47756871 </i>
    <i name="e_wo_entrp">   -365.48829062 </i>
    <i name="e_0_energy">   -365.48114268 </i>
   </energy>
  </scstep>
  <scstep>
   <time name="diag">    0.08    0.08</time>
   <time name="diis">    0.83    0.85</time>
   <time name="orth">    0.01    0.01</time>
   <time name="total">    1.00    1.04</time>
   <energy>
    <i name="e_fr_energy">   -365.48002785 </i>
    <i name="e_wo_entrp">   -365.49082725 </i>
    <i name="e_0_energy">   -365.48362765 </i>
   </energy>
  </scstep>
  <scstep>
   <time name="diag">    0.12    0.12</time>
   <time name="diis">    0.82    0.83</time>
   <time name="orth">    0.01    0.01</time>
   <time name="total">    1.03    1.05</time>
   <energy>
    <i name="e_fr_energy">   -365.47987449 </i>
    <i name="e_wo_entrp">   -365.49055973 </i>
    <i name="e_0_energy">   -365.48343624 </i>
   </energy>
  </scstep>
  <scstep>
   <time name="diag">    0.08    0.08</time>
   <time name="diis">    0.84    0.85</time>
   <time name="orth">    0.01    0.01</time>
   <time name="total">    1.01    1.05</time>
   <energy>
    <i name="e_fr_energy">   -365.47980600 </i>
    <i name="e_wo_entrp">   -365.49049089 </i>
    <i name="e_0_energy">   -365.48336763 </i>
   </energy>
  </scstep>
  <scstep>
   <time name="diag">    0.08    0.08</time>
   <time name="diis">    0.78    0.78</time>
   <time name="orth">    0.01    0.01</time>
   <time name="total">    0.95    0.97</time>
   <energy>
    <i name="e_fr_energy">   -365.47978581 </i>
    <i name="e_wo_entrp">   -365.49045612 </i>
    <i name="e_0_energy">   -365.48334258 </i>
   </energy>
  </scstep>
  <scstep>
   <time name="diag">    0.08    0.08</time>
   <time name="diis">    0.75    0.76</time>
   <time name="orth">    0.01    0.01</time>
   <time name="total">    0.92    0.95</time>
   <energy>
    <i name="e_fr_energy">   -365.47977285 </i>
    <i name="e_wo_entrp">   -365.49046629 </i>
    <i name="e_0_energy">   -365.48333733 </i>
   </energy>
  </scstep>
  <scstep>
   <time name="diag">    0.08    0.08</time>
   <time name="diis">    0.46    0.47</time>
   <time name="orth">    0.01    0.01</time>
   <time name="total">    0.59    0.62</time>
   <energy>
    <i name="alphaZ">   1713.10202152 </i>
    <i name="ewald"> -22681.19745127 </i>
    <i name="hartreedc">  -6947.67773265 </i>
    <i name="XCdc">    -36.66027905 </i>
    <i name="pawpsdc">  37248.88620157 </i>
    <i name="pawaedc"> -35694.43082625 </i>
    <i name="eentropy">      0.01065720 </i>
    <i name="bandstr">  -2968.72026985 </i>
    <i name="atom">  29001.20790863 </i>
    <i name="e_fr_energy">   -365.47977016 </i>
    <i name="e_wo_entrp">   -365.49042735 </i>
    <i name="e_0_energy">   -365.48332256 </i>
   </energy>
  </scstep>
  <structure>
   <crystal>
    <varray name="basis" >
     <v>       6.88108832      -0.01324395      -0.01169560 </v>
     <v>      -0.01856953      10.17766690       0.01576754 </v>
     <v>      -0.01732713       0.01551662      10.19466379 </v>
    </varray>
    <i name="volume">    713.96097396 </i>
    <varray name="rec_basis" >
     <v>       0.14532678       0.00026477       0.00024660 </v>
     <v>       0.00018886       0.09825492      -0.00014923 </v>
     <v>       0.00016643      -0.00015166       0.09809105 </v>
    </varray>
   </crystal>
   <varray name="positions" >
    <v>       0.76830759       0.83326695       0.83843088 </v>
    <v>       0.75836021       0.83549043       0.16823774 </v>
    <v>       0.49234858       0.33838194       0.00065002 </v>
    <v>       0.00779535       0.66116778       0.35264429 </v>
    <v>       0.22975840       0.84191385       0.84255235 </v>
    <v>       0.74411515       0.51202625       0.17247408 </v>
    <v>       0.00224434       0.33092171       0.99747076 </v>
    <v>       0.48970824       0.65795679       0.98662719 </v>
    <v>       0.25757315       0.15696942       0.17438378 </v>
    <v>       0.01288697       0.64566841       0.99490721 </v>
    <v>       0.49616712       0.66440342       0.34727970 </v>
    <v>       0.26404136       0.49367175       0.50076330 </v>
    <v>       0.50962119       0.00027734       0.33656330 </v>
    <v>       0.99528806       0.00328309       0.34461083 </v>
    <v>       0.99948305       0.65975396       0.65942722 </v>
    <v>       0.23435360       0.50420756       0.82606150 </v>
    <v>       0.48579097       0.33886894       0.66334134 </v>
    <v>       0.74277769       0.15878317       0.17152625 </v>
    <v>       0.72715110       0.16510454       0.50093915 </v>
    <v>       0.50942664       0.00463394       0.00265750 </v>
    <v>       0.26089947       0.84201468       0.48921132 </v>
    <v>       0.74203446       0.83949405       0.49468946 </v>
    <v>       0.25917221       0.50756133       0.17515661 </v>
    <v>       0.73699792       0.49300061       0.51043942 </v>
    <v>       0.99102929       0.02732280       0.00122733 </v>
    <v>       0.75726366       0.49731111       0.81694129 </v>
    <v>       0.27539257       0.16377439       0.49291098 </v>
    <v>       0.27035809       0.15365334       0.83143319 </v>
    <v>       0.49389487       0.98893971       0.65820009 </v>
    <v>       0.50368763       0.33556034       0.33601624 </v>
    <v>       0.24743279       0.83429503       0.16960557 </v>
    <v>       0.00975357       0.32870604       0.65956327 </v>
    <v>       0.72497698       0.16695969       0.82296358 </v>
    <v>       0.49614569       0.67244141       0.66428706 </v>
    <v>       0.00588700       0.01035326       0.65198161 </v>
    <v>       0.99787104       0.33187098       0.34382360 </v>
   </varray>
  </structure>
  <varray name="forces" >
   <v>       0.00214482       0.01427997      -0.00969165 </v>
   <v>      -0.00159885       0.00850165       0.01054047 </v>
   <v>      -0.01548634       0.01067042       0.00616847 </v>
   <v>       0.01502128      -0.00523106       0.00089335 </v>
   <v>      -0.00438560       0.01087145      -0.00939510 </v>
   <v>       0.00255138      -0.00004295      -0.00130436 </v>
   <v>       0.00689664       0.00509760       0.00299145 </v>
   <v>      -0.00559115       0.00209804       0.00048985 </v>
   <v>       0.01712643      -0.00567490       0.02572054 </v>
   <v>       0.00461751      -0.00965390      -0.00120608 </v>
   <v>       0.00012824      -0.00217391      -0.00926425 </v>
   <v>       0.01367409      -0.02061479      -0.00075599 </v>
   <v>       0.03161379       0.03042002       0.04553738 </v>
   <v>       0.00223779      -0.00503601       0.00474548 </v>
   <v>       0.00227465      -0.00249680       0.00063053 </v>
   <v>      -0.00677387      -0.00760505      -0.00547954 </v>
   <v>      -0.00111120       0.00132526      -0.01063460 </v>
   <v>      -0.01063339       0.00338138      -0.06396480 </v>
   <v>       0.09718132      -0.00319112      -0.04309351 </v>
   <v>       0.00810408      -0.00987115       0.00275028 </v>
   <v>       0.00732998       0.01358291       0.00673322 </v>
   <v>      -0.00924936      -0.08385031       0.01015135 </v>
   <v>       0.00376594       0.00450068       0.00844906 </v>
   <v>      -0.01414641       0.08342334       0.00570848 </v>
   <v>       0.00809418      -0.00025143       0.00530275 </v>
   <v>      -0.00065166      -0.02908800      -0.01194931 </v>
   <v>      -0.07295861      -0.00102365      -0.00685765 </v>
   <v>       0.00317768       0.00011352      -0.02709566 </v>
   <v>       0.00819944       0.00281465      -0.01601693 </v>
   <v>       0.01837450      -0.01721453       0.01347378 </v>
   <v>       0.00587472       0.01170923       0.00674118 </v>
   <v>      -0.01185596       0.00479513      -0.00709537 </v>
   <v>      -0.01618372       0.00526591       0.06721758 </v>
   <v>      -0.02298049      -0.00361459       0.01455985 </v>
   <v>      -0.03873293      -0.01126433      -0.01330264 </v>
   <v>      -0.02604893       0.00504730      -0.00169763 </v>
  </varray>
  <varray name="stress" >
   <v>      -0.58042917      -0.04201494      -0.22291417 </v>
   <v>      -0.04201487      -0.25092919      -0.06385370 </v>
   <v>      -0.22291413      -0.06385374      -0.56055568 </v>
  </varray>
  <energy>
   <i name="e_fr_energy">   -365.47977016 </i>
   <i name="e_wo_entrp">   -365.48332256 </i>
   <i name="e_0_energy">      0.01065720 </i>
  </energy>
  <time name="totalsc">    8.52    8.92</time>
 </calculation>
 <calculation>
  <scstep>
   <time name="dav">    1.10    1.11</time>
   <time name="total">    1.28    1.41</time>
   <energy>
    <i name="alphaZ">   1712.13049337 </i>
    <i name="ewald"> -22679.85461138 </i>
    <i name="hartreedc">  -6943.52137938 </i>
    <i name="XCdc">    -36.85634240 </i>
    <i name="pawpsdc">  37249.03899944 </i>
    <i name="pawaedc"> -35694.59414164 </i>
    <i name="eentropy">      0.01047766 </i>
    <i name="bandstr">  -2973.03641390 </i>
    <i name="atom">  29001.20790863 </i>
    <i name="e_fr_energy">   -365.47500962 </i>
    <i name="e_wo_entrp">   -365.48548728 </i>
    <i name="e_0_energy">   -365.47850217 </i>
   </energy>
  </scstep>
  <scstep>
   <time name="diag">    0.18    0.18</time>
   <time name="diis">    0.84    0.84</time>
   <time name="orth">    0.01    0.01</time>
   <time name="total">    1.09    1.12</time>
   <energy>
    <i name="e_fr_energy">   -365.48466459 </i>
    <i name="e_wo_entrp">   -365.49534954 </i>
    <i name="e_0_energy">   -365.48822624 </i>
   </energy>
  </scstep>
  <scstep>
   <time name="diag">    0.08    0.08</time>
   <time name="diis">    0.82    0.82</time>
   <time name="orth">    0.01    0.01</time>
   <time name="total">    0.98    1.01</time>
   <energy>
    <i name="e_fr_energy">   -365.48402380 </i>
    <i name="e_wo_entrp">   -365.49442424 </i>
    <i name="e_0_energy">   -365.48749062 </i>
   </energy>
  </scstep>
  <scstep>
   <time name="diag">    0.08    0.08</time>
   <time name="diis">    0.91    0.91</time>
   <time name="orth">    0.01    0.01</time>
   <time name="total">    1.07    1.10</time>
   <energy>
    <i name="e_fr_energy">   -365.48377067 </i>
    <i name="e_wo_entrp">   -365.49421097 </i>
    <i name="e_0_energy">   -365.48725077 </i>
   </energy>
  </scstep>
  <scstep>
   <time name="diag">    0.11    0.12</time>
   <time name="diis">    0.90    0.93</time>
   <time name="orth">    0.01    0.01</time>
   <time name="total">    1.09    1.25</time>
   <energy>
    <i name="e_fr_energy">   -365.48369523 </i>
    <i name="e_wo_entrp">   -365.49409503 </i>
    <i name="e_0_energy">   -365.48716183 </i>
   </energy>
  </scstep>
  <scstep>
   <time name="diag">    0.09    0.09</time>
   <time name="diis">    0.82    0.83</time>
   <time name="orth">    0.01    0.01</time>
   <time name="total">    1.00    1.03</time>
   <energy>
    <i name="e_fr_energy">   -365.48364849 </i>
    <i name="e_wo_entrp">   -365.49408944 </i>
    <i name="e_0_energy">   -365.48712881 </i>
   </energy>
  </scstep>
  <scstep>
   <time name="diag">    0.09    0.09</time>
   <time name="diis">    0.69    0.69</time>
   <time name="orth">    0.02    0.02</time>
   <time name="total">    0.86    0.89</time>
   <energy>
    <i name="e_fr_energy">   -365.48364612 </i>
    <i name="e_wo_entrp">   -365.49401778 </i>
    <i name="e_0_energy">   -365.48710334 </i>
   </energy>
  </scstep>
  <scstep>
   <time name="diag">    0.08    0.08</time>
   <time name="diis">    0.59    0.59</time>
   <time name="orth">    0.01    0.01</time>
   <time name="total">    0.72    0.75</time>
   <energy>
    <i name="alphaZ">   1712.13049337 </i>
    <i name="ewald"> -22679.85461138 </i>
    <i name="hartreedc">  -6946.07775179 </i>
    <i name="XCdc">    -36.73377667 </i>
    <i name="pawpsdc">  37223.20185852 </i>
    <i name="pawaedc"> -35668.78046756 </i>
    <i name="eentropy">      0.01040255 </i>
    <i name="bandstr">  -2970.58770281 </i>
    <i name="atom">  29001.20790863 </i>
    <i name="e_fr_energy">   -365.48364714 </i>
    <i name="e_wo_entrp">   -365.49404969 </i>
    <i name="e_0_energy">   -365.48711466 </i>
   </energy>
  </scstep>
  <structure>
   <crystal>
    <varray name="basis" >
     <v>       6.88220172      -0.01374525      -0.01541139 </v>
     <v>      -0.01931486      10.18226571       0.01506343 </v>
     <v>      -0.02283832       0.01481025      10.19421449 </v>
    </varray>
    <i name="volume">    714.36610265 </i>
    <varray name="rec_basis" >
     <v>       0.14530362       0.00027515       0.00032513 </v>
     <v>       0.00019583       0.09821055      -0.00014224 </v>
     <v>       0.00021938      -0.00014470       0.09809556 </v>
    </varray>
   </crystal>
   <varray name="positions" >
    <v>       0.76831442       0.83344232       0.83829420 </v>
    <v>       0.75829907       0.83561256       0.16833635 </v>
    <v>       0.49227746       0.33842984       0.00067253 </v>
    <v>       0.00782889       0.66114345       0.35266872 </v>
    <v>       0.22970345       0.84204108       0.84240737 </v>
    <v>       0.74421740       0.51199064       0.17253573 </v>
    <v>       0.00222988       0.33099025       0.99752291 </v>
    <v>       0.48960209       0.65797447       0.98660796 </v>
    <v>       0.25766049       0.15691307       0.17464596 </v>
    <v>       0.01294541       0.64553556       0.99492104 </v>
    <v>       0.49623774       0.66436355       0.34715925 </v>
    <v>       0.26416336       0.49346593       0.50074725 </v>
    <v>       0.51014962       0.00050881       0.33699286 </v>
    <v>       0.99539914       0.00328473       0.34461810 </v>
    <v>       0.99948314       0.65973590       0.65946954 </v>
    <v>       0.23425697       0.50411392       0.82597672 </v>
    <v>       0.48565447       0.33900832       0.66337183 </v>
    <v>       0.74263585       0.15878190       0.17066858 </v>
    <v>       0.72934837       0.16515187       0.50051979 </v>
    <v>       0.50976508       0.00458737       0.00268533 </v>
    <v>       0.26091372       0.84221966       0.48927631 </v>
    <v>       0.74197660       0.83838439       0.49472009 </v>
    <v>       0.25921607       0.50758433       0.17526554 </v>
    <v>       0.73677742       0.49401826       0.51052255 </v>
    <v>       0.99097727       0.02731500       0.00129231 </v>
    <v>       0.75731556       0.49699785       0.81678122 </v>
    <v>       0.27375256       0.16378394       0.49288811 </v>
    <v>       0.27045109       0.15365835       0.83116350 </v>
    <v>       0.49378972       0.98882381       0.65828120 </v>
    <v>       0.50385205       0.33556535       0.33597763 </v>
    <v>       0.24741003       0.83441355       0.16970843 </v>
    <v>       0.00969890       0.32873607       0.65945866 </v>
    <v>       0.72476437       0.16696676       0.82388393 </v>
    <v>       0.49603425       0.67237304       0.66434712 </v>
    <v>       0.00537995       0.01033714       0.65173342 </v>
    <v>       0.99751414       0.33175696       0.34387694 </v>
   </varray>
  </structure>
  <varray name="forces" >
   <v>       0.00594452       0.00590046      -0.00019245 </v>
   <v>       0.00263112      -0.00098161       0.00855079 </v>
   <v>      -0.03022136       0.01829126       0.01143517 </v>
   <v>       0.03411272      -0.00933909      -0.00538082 </v>
   <v>      -0.00540266       0.00522094       0.00230444 </v>
   <v>      -0.00537989       0.00696388      -0.01441288 </v>
   <v>       0.01945707       0.00138086      -0.00239173 </v>
   <v>      -0.00066524       0.00155497       0.00543433 </v>
   <v>       0.03295831      -0.00375618       0.01704032 </v>
   <v>       0.00378279      -0.00036641      -0.00466635 </v>
   <v>      -0.00888675       0.00206436      -0.00236971 </v>
   <v>       0.01847165      -0.01588970       0.00031149 </v>
   <v>       0.01685994       0.03510858       0.03990597 </v>
   <v>      -0.00659651      -0.01157970       0.01307615 </v>
   <v>       0.00628204      -0.00291856      -0.00476546 </v>
   <v>      -0.00488116      -0.00229771       0.00185112 </v>
   <v>       0.01340218      -0.02172919      -0.03107009 </v>
   <v>      -0.01106643       0.00817839      -0.01141613 </v>
   <v>      -0.01417490      -0.01471618      -0.03462756 </v>
   <v>      -0.01900986      -0.01759763       0.00108342 </v>
   <v>       0.01686843      -0.00282161       0.00707869 </v>
   <v>      -0.01635989      -0.01768469       0.02154246 </v>
   <v>       0.00384868       0.00837602       0.00137084 </v>
   <v>      -0.00818026       0.03083275      -0.00047716 </v>
   <v>       0.02550144      -0.00089388       0.00044008 </v>
   <v>      -0.00858547      -0.01735632      -0.00142921 </v>
   <v>       0.00841524      -0.00453070      -0.01167549 </v>
   <v>      -0.00290956       0.00062181      -0.02321243 </v>
   <v>       0.03101501       0.02591909      -0.05289669 </v>
   <v>       0.02546328      -0.04159826       0.04035046 </v>
   <v>       0.01706529       0.00566155      -0.00157047 </v>
   <v>      -0.02328914       0.00747485       0.00118596 </v>
   <v>      -0.01448465       0.01272026       0.00540728 </v>
   <v>      -0.04409033       0.00198851       0.02618944 </v>
   <v>      -0.03622338      -0.02596324       0.01084318 </v>
   <v>      -0.02167226       0.03376211      -0.01284693 </v>
  </varray>
  <varray name="stress" >
   <v>      -1.68535253       0.00085328       0.18186338 </v>
   <v>       0.00085332      -1.22542725      -0.06455232 </v>
   <v>       0.18186338      -0.06455243      -1.33460108 </v>
  </varray>
  <energy>
   <i name="e_fr_energy">   -365.48364714 </i>
   <i name="e_wo_entrp">   -365.48711466 </i>
   <i name="e_0_energy">      0.01040255 </i>
  </energy>
  <time name="totalsc">    9.79   10.39</time>
 </calculation>
 <calculation>
  <scstep>
   <time name="dav">    1.25    1.25</time>
   <time name="total">    1.37    1.51</time>
   <energy>
    <i name="alphaZ">   1715.56830966 </i>
    <i name="ewald"> -22694.74995904 </i>
    <i name="hartreedc">  -6950.91654063 </i>
    <i name="XCdc">    -36.06635508 </i>
    <i name="pawpsdc">  37223.27967103 </i>
    <i name="pawaedc"> -35668.88494218 </i>
    <i name="eentropy">      0.01027269 </i>
    <i name="bandstr">  -2954.94142257 </i>
    <i name="atom">  29001.20790863 </i>
    <i name="e_fr_energy">   -365.49305749 </i>
    <i name="e_wo_entrp">   -365.50333019 </i>
    <i name="e_0_energy">   -365.49648173 </i>
   </energy>
  </scstep>
  <scstep>
   <time name="diag">    0.09    0.09</time>
   <time name="diis">    0.87    0.87</time>
   <time name="orth">    0.01    0.01</time>
   <time name="total">    1.04    1.06</time>
   <energy>
    <i name="e_fr_energy">   -365.48875394 </i>
    <i name="e_wo_entrp">   -365.49888646 </i>
    <i name="e_0_energy">   -365.49213145 </i>
   </energy>
  </scstep>
  <scstep>
   <time name="diag">    0.09    0.09</time>
   <time name="diis">    0.85    0.85</time>
   <time name="orth">    0.01    0.01</time>
   <time name="total">    1.01    1.04</time>
   <energy>
    <i name="e_fr_energy">   -365.48655825 </i>
    <i name="e_wo_entrp">   -365.49636232 </i>
    <i name="e_0_energy">   -365.48982628 </i>
   </energy>
  </scstep>
  <scstep>
   <time name="diag">    0.08    0.08</time>
   <time name="diis">    0.85    0.86</time>
   <time name="orth">    0.01    0.01</time>
   <time name="total">    1.02    1.05</time>
   <energy>
    <i name="e_fr_energy">   -365.48514732 </i>
    <i name="e_wo_entrp">   -365.49532675 </i>
    <i name="e_0_energy">   -365.48854046 </i>
   </energy>
  </scstep>
  <scstep>
   <time name="diag">    0.08    0.08</time>
   <time name="diis">    0.83    0.84</time>
   <time name="orth">    0.02    0.02</time>
   <time name="total">    1.00    1.03</time>
   <energy>
    <i name="e_fr_energy">   -365.48496517 </i>
    <i name="e_wo_entrp">   -365.49493493 </i>
    <i name="e_0_energy">   -365.48828842 </i>
   </energy>
  </scstep>
  <scstep>
   <time name="diag">    0.08    0.08</time>
   <time name="diis">    0.83    0.84</time>
   <time name="orth">    0.02    0.02</time>
   <time name="total">    1.01    1.04</time>
   <energy>
    <i name="e_fr_energy">   -365.48500101 </i>
    <i name="e_wo_entrp">   -365.49502149 </i>
    <i name="e_0_energy">   -365.48834117 </i>
   </energy>
  </scstep>
  <scstep>
   <time name="diag">    0.08    0.08</time>
   <time name="diis">    0.75    0.76</time>
   <time name="orth">    0.01    0.01</time>
   <time name="total">    0.92    0.94</time>
   <energy>
    <i name="e_fr_energy">   -365.48503608 </i>
    <i name="e_wo_entrp">   -365.49504056 </i>
    <i name="e_0_energy">   -365.48837090 </i>
   </energy>
  </scstep>
  <scstep>
   <time name="diag">    0.09    0.09</time>
   <time name="diis">    0.62    0.62</time>
   <time name="orth">    0.01    0.01</time>
   <time name="total">    0.81    0.85</time>
   <energy>
    <i name="e_fr_energy">   -365.48505835 </i>
    <i name="e_wo_entrp">   -365.49508183 </i>
    <i name="e_0_energy">   -365.48839951 </i>
   </energy>
  </scstep>
  <scstep>
   <time name="diag">    0.09    0.09</time>
   <time name="diis">    0.48    0.48</time>
   <time name="orth">    0.01    0.01</time>
   <time name="total">    0.66    0.68</time>
   <energy>
    <i name="e_fr_energy">   -365.48507414 </i>
    <i name="e_wo_entrp">   -365.49508147 </i>
    <i name="e_0_energy">   -365.48840992 </i>
   </energy>
  </scstep>
  <scstep>
   <time name="diag">    0.09    0.09</time>
   <time name="diis">    0.46    0.46</time>
   <time name="orth">    0.01    0.01</time>
   <time name="total">    0.62    0.65</time>
   <energy>
    <i name="e_fr_energy">   -365.48509075 </i>
    <i name="e_wo_entrp">   -365.49510715 </i>
    <i name="e_0_energy">   -365.48842955 </i>
   </energy>
  </scstep>
  <scstep>
   <time name="diag">    0.08    0.08</time>
   <time name="diis">    0.40    0.40</time>
   <time name="orth">    0.01    0.01</time>
   <time name="total">    0.58    0.61</time>
   <energy>
    <i name="e_fr_energy">   -365.48510158 </i>
    <i name="e_wo_entrp">   -365.49511354 </i>
    <i name="e_0_energy">   -365.48843890 </i>
   </energy>
  </scstep>
  <scstep>
   <time name="diag">    0.08    0.08</time>
   <time name="diis">    0.42    0.42</time>
   <time name="orth">    0.01    0.01</time>
   <time name="total">    0.55    0.58</time>
   <energy>
    <i name="alphaZ">   1715.56830966 </i>
    <i name="ewald"> -22694.74995904 </i>
    <i name="hartreedc">  -6941.65806419 </i>
    <i name="XCdc">    -36.47711763 </i>
    <i name="pawpsdc">  37316.72974780 </i>
    <i name="pawaedc"> -35762.25870856 </i>
    <i name="eentropy">      0.01001026 </i>
    <i name="bandstr">  -2963.85723118 </i>
    <i name="atom">  29001.20790863 </i>
    <i name="e_fr_energy">   -365.48510426 </i>
    <i name="e_wo_entrp">   -365.49511452 </i>
    <i name="e_0_energy">   -365.48844101 </i>
   </energy>
  </scstep>
  <structure>
   <crystal>
    <varray name="basis" >
     <v>       6.87662561      -0.01384413      -0.01559357 </v>
     <v>      -0.01945749      10.17701957       0.01456615 </v>
     <v>      -0.02310639       0.01431482      10.18728531 </v>
    </varray>
    <i name="volume">    712.93458902 </i>
    <varray name="rec_basis" >
     <v>       0.14542147       0.00027756       0.00032945 </v>
     <v>       0.00019751       0.09826117      -0.00013763 </v>
     <v>       0.00022231      -0.00014007       0.09816228 </v>
    </varray>
   </crystal>
   <varray name="positions" >
    <v>       0.76835098       0.83350458       0.83826325 </v>
    <v>       0.75830118       0.83563560       0.16839216 </v>
    <v>       0.49208416       0.33851291       0.00072258 </v>
    <v>       0.00803699       0.66110121       0.35265309 </v>
    <v>       0.22965956       0.84208990       0.84238442 </v>
    <v>       0.74420820       0.51201053       0.17249198 </v>
    <v>       0.00234125       0.33101106       0.99752509 </v>
    <v>       0.48957481       0.65798453       0.98662529 </v>
    <v>       0.25787407       0.15688584       0.17477196 </v>
    <v>       0.01298053       0.64550482       0.99490558 </v>
    <v>       0.49620099       0.66436290       0.34712313 </v>
    <v>       0.26429890       0.49335738       0.50074521 </v>
    <v>       0.51036663       0.00069958       0.33724640 </v>
    <v>       0.99538488       0.00323888       0.34467171 </v>
    <v>       0.99952006       0.65972038       0.65946002 </v>
    <v>       0.23420687       0.50408404       0.82596531 </v>
    <v>       0.48570259       0.33895291       0.66325530 </v>
    <v>       0.74253915       0.15881413       0.17043353 </v>
    <v>       0.72974961       0.16510386       0.50028962 </v>
    <v>       0.50972773       0.00450690       0.00269574 </v>
    <v>       0.26101627       0.84225379       0.48931898 </v>
    <v>       0.74186755       0.83806869       0.49481243 </v>
    <v>       0.25924856       0.50762277       0.17529504 </v>
    <v>       0.73668092       0.49436566       0.51053877 </v>
    <v>       0.99111594       0.02730992       0.00130865 </v>
    <v>       0.75727622       0.49685952       0.81674019 </v>
    <v>       0.27343961       0.16376813       0.49283662 </v>
    <v>       0.27045416       0.15366204       0.83101161 </v>
    <v>       0.49394872       0.98890192       0.65808896 </v>
    <v>       0.50403837       0.33540087       0.33612998 </v>
    <v>       0.24750555       0.83446241       0.16972504 </v>
    <v>       0.00954976       0.32877226       0.65944001 </v>
    <v>       0.72463249       0.16701881       0.82410857 </v>
    <v>       0.49575040       0.67236536       0.66446409 </v>
    <v>       0.00505445       0.01022989       0.65172147 </v>
    <v>       0.99730789       0.33186605       0.34383723 </v>
   </varray>
  </structure>
  <varray name="forces" >
   <v>       0.00063417      -0.00040472       0.00104494 </v>
   <v>       0.00563058      -0.00536971       0.00528691 </v>
   <v>      -0.02748634       0.01531931       0.00765763 </v>
   <v>       0.03028296      -0.00785687      -0.01059358 </v>
   <v>      -0.00216889       0.00259194       0.00318503 </v>
   <v>      -0.00161540       0.00592919      -0.01656316 </v>
   <v>       0.01667682      -0.00151969      -0.00079654 </v>
   <v>       0.00534540       0.01024836       0.00497905 </v>
   <v>       0.02494332       0.00166480       0.01203927 </v>
   <v>      -0.00454987       0.01067448      -0.00164488 </v>
   <v>      -0.00420633       0.00297048      -0.00880827 </v>
   <v>       0.00964473      -0.01126219       0.00125173 </v>
   <v>       0.00827483       0.02272017       0.01510565 </v>
   <v>      -0.00139312      -0.01070271       0.00427117 </v>
   <v>       0.00850431       0.00443084      -0.00145484 </v>
   <v>      -0.00239353      -0.00584946       0.00321384 </v>
   <v>       0.01449977      -0.02279811      -0.02429424 </v>
   <v>      -0.00636478       0.01514711       0.00137986 </v>
   <v>      -0.01223386      -0.01301451      -0.02430433 </v>
   <v>      -0.02135259      -0.02499246      -0.00077058 </v>
   <v>       0.00689013      -0.00803304       0.01023439 </v>
   <v>      -0.00577607      -0.01035346       0.02279927 </v>
   <v>      -0.00000495       0.00525887       0.00053899 </v>
   <v>      -0.00070016       0.01985353      -0.00193678 </v>
   <v>       0.02927011      -0.00560194       0.00116496 </v>
   <v>      -0.01542708      -0.01579465       0.00589668 </v>
   <v>       0.00030350      -0.00235122      -0.00495313 </v>
   <v>      -0.00788483       0.00660399      -0.02198111 </v>
   <v>       0.03222486       0.02246193      -0.03250555 </v>
   <v>       0.02879369      -0.03276144       0.02475290 </v>
   <v>       0.01505644       0.00543242      -0.00222881 </v>
   <v>      -0.02357947       0.00223156       0.00077417 </v>
   <v>      -0.00829203       0.01709275       0.00128332 </v>
   <v>      -0.04069790       0.00222599       0.03012744 </v>
   <v>      -0.03360420      -0.02567813       0.01655352 </v>
   <v>      -0.01724418       0.03148658      -0.02070491 </v>
  </varray>
  <varray name="stress" >
   <v>       1.22292237      -0.02045388       0.08718390 </v>
   <v>      -0.02045387       1.55895108      -0.05402852 </v>
   <v>       0.08718390      -0.05402855       1.54404994 </v>
  </varray>
  <energy>
   <i name="e_fr_energy">   -365.48510426 </i>
   <i name="e_wo_entrp">   -365.48844101 </i>
   <i name="e_0_energy">      0.01001026 </i>
  </energy>
  <time name="totalsc">   12.51   13.06</time>
 </calculation>
 <calculation>
  <scstep>
   <time name="dav">    1.31    1.32</time>
   <time name="total">    1.40    1.53</time>
   <energy>
    <i name="alphaZ">   1715.52740130 </i>
    <i name="ewald"> -22694.57291483 </i>
    <i name="hartreedc">  -6941.61073786 </i>
    <i name="XCdc">    -36.48461367 </i>
    <i name="pawpsdc">  37316.72342124 </i>
    <i name="pawaedc"> -35762.24555699 </i>
    <i name="eentropy">      0.01001307 </i>
    <i name="bandstr">  -2964.04003085 </i>
    <i name="atom">  29001.20790863 </i>
    <i name="e_fr_energy">   -365.48510996 </i>
    <i name="e_wo_entrp">   -365.49512302 </i>
    <i name="e_0_energy">   -365.48844764 </i>
   </energy>
  </scstep>
  <scstep>
   <time name="diag">    0.08    0.08</time>
   <time name="diis">    0.33    0.33</time>
   <time name="orth">    0.01    0.01</time>
   <time name="total">    0.46    0.48</time>
   <energy>
    <i name="alphaZ">   1715.52740130 </i>
    <i name="ewald"> -22694.57291483 </i>
    <i name="hartreedc">  -6941.76550401 </i>
    <i name="XCdc">    -36.47823576 </i>
    <i name="pawpsdc">  37316.05852506 </i>
    <i name="pawaedc"> -35761.54744560 </i>
    <i name="eentropy">      0.01001448 </i>
    <i name="bandstr">  -2963.92486012 </i>
    <i name="atom">  29001.20790863 </i>
    <i name="e_fr_energy">   -365.48511085 </i>
    <i name="e_wo_entrp">   -365.49512533 </i>
    <i name="e_0_energy">   -365.48844901 </i>
   </energy>
  </scstep>
  <structure>
   <crystal>
    <varray name="basis" >
     <v>       6.87669187      -0.01384295      -0.01559141 </v>
     <v>      -0.01945580      10.17708191       0.01457206 </v>
     <v>      -0.02310321       0.01432071      10.18736765 </v>
    </varray>
    <i name="volume">    712.95158961 </i>
    <varray name="rec_basis" >
     <v>       0.14542006       0.00027753       0.00032940 </v>
     <v>       0.00019749       0.09826057      -0.00013768 </v>
     <v>       0.00022228      -0.00014013       0.09816149 </v>
    </varray>
   </crystal>
   <varray name="positions" >
    <v>       0.76835055       0.83350384       0.83826362 </v>
    <v>       0.75830115       0.83563532       0.16839149 </v>
    <v>       0.49208646       0.33851192       0.00072199 </v>
    <v>       0.00803451       0.66110171       0.35265327 </v>
    <v>       0.22966008       0.84208932       0.84238469 </v>
    <v>       0.74420831       0.51201030       0.17249250 </v>
    <v>       0.00233992       0.33101081       0.99752506 </v>
    <v>       0.48957514       0.65798441       0.98662508 </v>
    <v>       0.25787153       0.15688617       0.17477046 </v>
    <v>       0.01298011       0.64550519       0.99490576 </v>
    <v>       0.49620143       0.66436291       0.34712356 </v>
    <v>       0.26429729       0.49335867       0.50074524 </v>
    <v>       0.51036405       0.00069731       0.33724339 </v>
    <v>       0.99538505       0.00323943       0.34467107 </v>
    <v>       0.99951962       0.65972056       0.65946013 </v>
    <v>       0.23420746       0.50408440       0.82596545 </v>
    <v>       0.48570202       0.33895357       0.66325669 </v>
    <v>       0.74254030       0.15881374       0.17043633 </v>
    <v>       0.72974484       0.16510443       0.50029236 </v>
    <v>       0.50972817       0.00450786       0.00269562 </v>
    <v>       0.26101505       0.84225338       0.48931847 </v>
    <v>       0.74186885       0.83807244       0.49481133 </v>
    <v>       0.25924817       0.50762231       0.17529469 </v>
    <v>       0.73668207       0.49436153       0.51053857 </v>
    <v>       0.99111429       0.02730998       0.00130845 </v>
    <v>       0.75727669       0.49686117       0.81674068 </v>
    <v>       0.27344333       0.16376832       0.49283723 </v>
    <v>       0.27045412       0.15366200       0.83101342 </v>
    <v>       0.49394683       0.98890099       0.65809125 </v>
    <v>       0.50403615       0.33540282       0.33612817 </v>
    <v>       0.24750442       0.83446183       0.16972484 </v>
    <v>       0.00955154       0.32877183       0.65944023 </v>
    <v>       0.72463406       0.16701819       0.82410590 </v>
    <v>       0.49575377       0.67236545       0.66446269 </v>
    <v>       0.00505832       0.01023116       0.65172161 </v>
    <v>       0.99731035       0.33186475       0.34383770 </v>
   </varray>
  </structure>
  <varray name="forces" >
   <v>       0.00060463       0.00007810       0.00117975 </v>
   <v>       0.00546132      -0.00489824       0.00538161 </v>
   <v>      -0.02792739       0.01555560       0.00772473 </v>
   <v>       0.03052436      -0.00772175      -0.01035475 </v>
   <v>      -0.00234264       0.00311669       0.00319135 </v>
   <v>      -0.00192130       0.00601504      -0.01641075 </v>
   <v>       0.01683041      -0.00150777      -0.00090646 </v>
   <v>       0.00521245       0.01013491       0.00492135 </v>
   <v>       0.02519226       0.00160742       0.01201572 </v>
   <v>      -0.00430377       0.01011452      -0.00187928 </v>
   <v>      -0.00451641       0.00315805      -0.00885572 </v>
   <v>       0.01024715      -0.01226275       0.00125554 </v>
   <v>       0.00930855       0.02390599       0.01712994 </v>
   <v>      -0.00160741      -0.01125072       0.00498175 </v>
   <v>       0.00847592       0.00425196      -0.00158388 </v>
   <v>      -0.00298350      -0.00604688       0.00301522 </v>
   <v>       0.01491348      -0.02358691      -0.02509903 </v>
   <v>      -0.00701269       0.01496754      -0.00067666 </v>
   <v>      -0.01029830      -0.01332617      -0.02571941 </v>
   <v>      -0.02167642      -0.02480740      -0.00102610 </v>
   <v>       0.00697766      -0.00787883       0.01063955 </v>
   <v>      -0.00608029      -0.01064629       0.02322486 </v>
   <v>       0.00009023       0.00517690       0.00080305 </v>
   <v>      -0.00084953       0.02018199      -0.00196751 </v>
   <v>       0.02935443      -0.00543102       0.00087704 </v>
   <v>      -0.01547037      -0.01599436       0.00567893 </v>
   <v>      -0.00003870      -0.00214851      -0.00474508 </v>
   <v>      -0.00813083       0.00643542      -0.02194634 </v>
   <v>       0.03224298       0.02277165      -0.03279882 </v>
   <v>       0.02857368      -0.03295550       0.02533589 </v>
   <v>       0.01501959       0.00572831      -0.00236832 </v>
   <v>      -0.02391204       0.00204427       0.00080770 </v>
   <v>      -0.00829497       0.01680784       0.00162504 </v>
   <v>      -0.04060678       0.00238001       0.03003015 </v>
   <v>      -0.03374826      -0.02555115       0.01674660 </v>
   <v>      -0.01730749       0.03158204      -0.02022768 </v>
  </varray>
  <varray name="stress" >
   <v>       1.22823847      -0.02488859       0.08632052 </v>
   <v>      -0.02488863       1.53817275      -0.05553139 </v>
   <v>       0.08632045      -0.05553139       1.53185256 </v>
  </varray>
  <energy>
   <i name="e_fr_energy">   -365.48511085 </i>
   <i name="e_wo_entrp">   -365.48844901 </i>
   <i name="e_0_energy">      0.01001448 </i>
  </energy>
  <time name="totalsc">    3.57    3.81</time>
 </calculation>
 <calculation>
  <scstep>
   <time name="dav">    1.02    1.03</time>
   <time name="total">    1.12    1.24</time>
   <energy>
    <i name="alphaZ">   1715.23639648 </i>
    <i name="ewald"> -22692.70670660 </i>
    <i name="hartreedc">  -6941.90210311 </i>
    <i name="XCdc">    -36.53130154 </i>
    <i name="pawpsdc">  37316.26161522 </i>
    <i name="pawaedc"> -35761.73926875 </i>
    <i name="eentropy">      0.00988063 </i>
    <i name="bandstr">  -2965.32214009 </i>
    <i name="atom">  29001.20790863 </i>
    <i name="e_fr_energy">   -365.48571914 </i>
    <i name="e_wo_entrp">   -365.49559977 </i>
    <i name="e_0_energy">   -365.48901268 </i>
   </energy>
  </scstep>
  <scstep>
   <time name="diag">    0.08    0.08</time>
   <time name="diis">    0.75    0.76</time>
   <time name="orth">    0.01    0.01</time>
   <time name="total">    0.92    0.94</time>
   <energy>
    <i name="e_fr_energy">   -365.48667262 </i>
    <i name="e_wo_entrp">   -365.49658745 </i>
    <i name="e_0_energy">   -365.48997756 </i>
[...]
       <r>    7.3779    1.0000 </r>
       <r>    7.4296    1.0000 </r>
       <r>    7.4636    1.0000 </r>
       <r>    7.5104    1.0001 </r>
       <r>    7.5484    1.0004 </r>
       <r>    7.5709    1.0008 </r>
       <r>    7.6223    1.0033 </r>
       <r>    7.6393    1.0050 </r>
       <r>    7.6870    1.0137 </r>
       <r>    7.7213    1.0235 </r>
       <r>    7.7475    1.0312 </r>
       <r>    7.7906    1.0338 </r>
       <r>    7.8173    1.0191 </r>
       <r>    7.8502    0.9701 </r>
       <r>    7.8882    0.8573 </r>
       <r>    7.9084    0.7716 </r>
       <r>    7.9437    0.5903 </r>
       <r>    7.9513    0.5477 </r>
       <r>    7.9820    0.3762 </r>
       <r>    8.0272    0.1590 </r>
       <r>    8.0676    0.0337 </r>
       <r>    8.1293   -0.0339 </r>
       <r>    8.1573   -0.0343 </r>
       <r>    8.1930   -0.0252 </r>
       <r>    8.2360   -0.0129 </r>
       <r>    8.2642   -0.0073 </r>
       <r>    8.3011   -0.0030 </r>
       <r>    8.3519   -0.0007 </r>
       <r>    8.3682   -0.0004 </r>
       <r>    8.4421   -0.0000 </r>
       <r>    8.4512   -0.0000 </r>
       <r>    8.4974   -0.0000 </r>
       <r>    8.5361   -0.0000 </r>
       <r>    8.5999   -0.0000 </r>
       <r>    8.6205   -0.0000 </r>
       <r>    8.8010   -0.0000 </r>
       <r>    8.8684   -0.0000 </r>
       <r>    9.0399   -0.0000 </r>
       <r>    9.1299   -0.0000 </r>
       <r>    9.2510   -0.0000 </r>
       <r>    9.8069   -0.0000 </r>
       <r>    9.8792   -0.0000 </r>
       <r>    9.9084   -0.0000 </r>
       <r>   10.0015   -0.0000 </r>
       <r>   10.0600   -0.0000 </r>
       <r>   10.0969   -0.0000 </r>
       <r>   10.1398   -0.0000 </r>
       <r>   10.2566   -0.0000 </r>
       <r>   10.3355   -0.0000 </r>
      </set>
     </set>
    </set>
   </array>
  </eigenvalues>
  <separator name="orbital magnetization" >
   <v name="MAGDIPOLOUT">      0.00000000      0.00000000      0.00000000</v>
  </separator>
  <dos>
   <i name="efermi">      7.95977384 </i>
   <total>
    <array>
     <dimension dim="1">gridpoints</dimension>
     <dimension dim="2">spin</dimension>
     <field>energy</field>
     <field>total</field>
     <field>integrated</field>
     <set>
      <set comment="spin 1">
       <r>   -49.1751     0.0000     0.0000 </r>
       <r>   -48.9672     0.0000     0.0000 </r>
       <r>   -48.7592     0.0000     0.0000 </r>
       <r>   -48.5513     0.0000     0.0000 </r>
       <r>   -48.3433     0.0000     0.0000 </r>
       <r>   -48.1353     0.0000     0.0000 </r>
       <r>   -47.9274     0.0000     0.0000 </r>
       <r>   -47.7194    -0.0000    -0.0000 </r>
       <r>   -47.5115    -0.0000    -0.0000 </r>
       <r>   -47.3035    -0.0000    -0.0000 </r>
       <r>   -47.0956    -0.0000    -0.0000 </r>
       <r>   -46.8876    -0.0000    -0.0000 </r>
       <r>   -46.6797    -0.0448    -0.0093 </r>
       <r>   -46.4717    -1.1580    -0.2501 </r>
       <r>   -46.2638    25.8023     5.1155 </r>
       <r>   -46.0558    63.6880    18.3597 </r>
       <r>   -45.8479     8.6381    20.1560 </r>
       <r>   -45.6399    -0.7475    20.0005 </r>
       <r>   -45.4320    -0.0024    20.0000 </r>
       <r>   -45.2240    -0.0000    20.0000 </r>
       <r>   -45.0161    -0.0000    20.0000 </r>
       <r>   -44.8081     0.0000    20.0000 </r>
       <r>   -44.6002     0.0000    20.0000 </r>
       <r>   -44.3922     0.0000    20.0000 </r>
       <r>   -44.1842     0.0000    20.0000 </r>
       <r>   -43.9763     0.0000    20.0000 </r>
       <r>   -43.7683     0.0000    20.0000 </r>
       <r>   -43.5604     0.0000    20.0000 </r>
       <r>   -43.3524     0.0000    20.0000 </r>
       <r>   -43.1445     0.0000    20.0000 </r>
       <r>   -42.9365     0.0000    20.0000 </r>
       <r>   -42.7286     0.0000    20.0000 </r>
       <r>   -42.5206     0.0000    20.0000 </r>
       <r>   -42.3127     0.0000    20.0000 </r>
       <r>   -42.1047     0.0000    20.0000 </r>
       <r>   -41.8968     0.0000    20.0000 </r>
       <r>   -41.6888     0.0000    20.0000 </r>
       <r>   -41.4809    -0.0000    20.0000 </r>
       <r>   -41.2729    -0.0000    20.0000 </r>
       <r>   -41.0650    -0.0000    20.0000 </r>
       <r>   -40.8570    -0.0000    20.0000 </r>
       <r>   -40.6490    -0.0119    19.9975 </r>
       <r>   -40.4411    -1.1134    19.7660 </r>
       <r>   -40.2331    16.6172    23.2216 </r>
       <r>   -40.0252    59.5650    35.6083 </r>
       <r>   -39.8172    12.4363    38.1944 </r>
       <r>   -39.6093    -0.9285    38.0014 </r>
       <r>   -39.4013    -0.0066    38.0000 </r>
       <r>   -39.1934    -0.0000    38.0000 </r>
       <r>   -38.9854    -0.0000    38.0000 </r>
       <r>   -38.7775     0.0000    38.0000 </r>
       <r>   -38.5695     0.0000    38.0000 </r>
       <r>   -38.3616     0.0000    38.0000 </r>
       <r>   -38.1536     0.0000    38.0000 </r>
       <r>   -37.9457     0.0000    38.0000 </r>
       <r>   -37.7377     0.0000    38.0000 </r>
       <r>   -37.5298     0.0000    38.0000 </r>
       <r>   -37.3218     0.0000    38.0000 </r>
       <r>   -37.1138     0.0000    38.0000 </r>
       <r>   -36.9059     0.0000    38.0000 </r>
       <r>   -36.6979     0.0000    38.0000 </r>
       <r>   -36.4900     0.0000    38.0000 </r>
       <r>   -36.2820     0.0000    38.0000 </r>
       <r>   -36.0741     0.0000    38.0000 </r>
       <r>   -35.8661     0.0000    38.0000 </r>
       <r>   -35.6582     0.0000    38.0000 </r>
       <r>   -35.4502     0.0000    38.0000 </r>
       <r>   -35.2423     0.0000    38.0000 </r>
       <r>   -35.0343     0.0000    38.0000 </r>
       <r>   -34.8264     0.0000    38.0000 </r>
       <r>   -34.6184     0.0000    38.0000 </r>
       <r>   -34.4105     0.0000    38.0000 </r>
       <r>   -34.2025     0.0000    38.0000 </r>
       <r>   -33.9946     0.0000    38.0000 </r>
       <r>   -33.7866     0.0000    38.0000 </r>
       <r>   -33.5786     0.0000    38.0000 </r>
       <r>   -33.3707     0.0000    38.0000 </r>
       <r>   -33.1627     0.0000    38.0000 </r>
       <r>   -32.9548     0.0000    38.0000 </r>
       <r>   -32.7468     0.0000    38.0000 </r>
       <r>   -32.5389     0.0000    38.0000 </r>
       <r>   -32.3309     0.0000    38.0000 </r>
       <r>   -32.1230     0.0000    38.0000 </r>
       <r>   -31.9150     0.0000    38.0000 </r>
       <r>   -31.7071     0.0000    38.0000 </r>
       <r>   -31.4991     0.0000    38.0000 </r>
       <r>   -31.2912     0.0000    38.0000 </r>
       <r>   -31.0832     0.0000    38.0000 </r>
       <r>   -30.8753     0.0000    38.0000 </r>
       <r>   -30.6673     0.0000    38.0000 </r>
       <r>   -30.4594     0.0000    38.0000 </r>
       <r>   -30.2514     0.0000    38.0000 </r>
       <r>   -30.0434     0.0000    38.0000 </r>
       <r>   -29.8355     0.0000    38.0000 </r>
       <r>   -29.6275     0.0000    38.0000 </r>
       <r>   -29.4196     0.0000    38.0000 </r>
       <r>   -29.2116     0.0000    38.0000 </r>
       <r>   -29.0037     0.0000    38.0000 </r>
       <r>   -28.7957     0.0000    38.0000 </r>
       <r>   -28.5878     0.0000    38.0000 </r>
       <r>   -28.3798     0.0000    38.0000 </r>
       <r>   -28.1719     0.0000    38.0000 </r>
       <r>   -27.9639     0.0000    38.0000 </r>
       <r>   -27.7560     0.0000    38.0000 </r>
       <r>   -27.5480     0.0000    38.0000 </r>
       <r>   -27.3401     0.0000    38.0000 </r>
       <r>   -27.1321     0.0000    38.0000 </r>
       <r>   -26.9242     0.0000    38.0000 </r>
       <r>   -26.7162     0.0000    38.0000 </r>
       <r>   -26.5082     0.0000    38.0000 </r>
       <r>   -26.3003     0.0000    38.0000 </r>
       <r>   -26.0923     0.0000    38.0000 </r>
       <r>   -25.8844     0.0000    38.0000 </r>
       <r>   -25.6764     0.0000    38.0000 </r>
       <r>   -25.4685     0.0000    38.0000 </r>
       <r>   -25.2605     0.0000    38.0000 </r>
       <r>   -25.0526     0.0000    38.0000 </r>
       <r>   -24.8446     0.0000    38.0000 </r>
       <r>   -24.6367     0.0000    38.0000 </r>
       <r>   -24.4287     0.0000    38.0000 </r>
       <r>   -24.2208     0.0000    38.0000 </r>
       <r>   -24.0128    -0.0000    38.0000 </r>
       <r>   -23.8049    -0.0000    38.0000 </r>
       <r>   -23.5969    -0.0000    38.0000 </r>
       <r>   -23.3890    -0.0000    38.0000 </r>
       <r>   -23.1810    -0.0018    37.9996 </r>
       <r>   -22.9730    -0.4601    37.9039 </r>
       <r>   -22.7651     4.4971    38.8391 </r>
       <r>   -22.5571    48.4241    48.9091 </r>
       <r>   -22.3492    77.5940    65.0450 </r>
       <r>   -22.1412    95.6883    84.9436 </r>
       <r>   -21.9333    51.5709    95.6679 </r>
       <r>   -21.7253    12.0112    98.1657 </r>
       <r>   -21.5174    -0.7834    98.0028 </r>
       <r>   -21.3094    -0.0134    98.0000 </r>
       <r>   -21.1015    -0.0000    98.0000 </r>
       <r>   -20.8935    -0.0000    98.0000 </r>
       <r>   -20.6856     0.0000    98.0000 </r>
       <r>   -20.4776     0.0000    98.0000 </r>
       <r>   -20.2697     0.0000    98.0000 </r>
       <r>   -20.0617    -0.0000    98.0000 </r>
       <r>   -19.8538    -0.0000    98.0000 </r>
       <r>   -19.6458    -0.0000    98.0000 </r>
       <r>   -19.4378    -0.0000    98.0000 </r>
       <r>   -19.2299    -0.0000    98.0000 </r>
       <r>   -19.0219    -0.0338    97.9930 </r>
       <r>   -18.8140    -0.5423    97.8802 </r>
       <r>   -18.6060    13.9216   100.7752 </r>
       <r>   -18.3981    50.6458   111.3072 </r>
       <r>   -18.1901    91.5824   130.3520 </r>
       <r>   -17.9822    79.7824   146.9430 </r>
       <r>   -17.7742    24.9394   152.1292 </r>
       <r>   -17.5663    -0.5406   152.0168 </r>
       <r>   -17.3583    -0.0808   152.0000 </r>
       <r>   -17.1504    -0.0001   152.0000 </r>
       <r>   -16.9424    -0.0000   152.0000 </r>
       <r>   -16.7345     0.0000   152.0000 </r>
       <r>   -16.5265     0.0000   152.0000 </r>
       <r>   -16.3186     0.0000   152.0000 </r>
       <r>   -16.1106     0.0000   152.0000 </r>
       <r>   -15.9026     0.0000   152.0000 </r>
       <r>   -15.6947     0.0000   152.0000 </r>
       <r>   -15.4867     0.0000   152.0000 </r>
       <r>   -15.2788     0.0000   152.0000 </r>
       <r>   -15.0708     0.0000   152.0000 </r>
       <r>   -14.8629     0.0000   152.0000 </r>
       <r>   -14.6549     0.0000   152.0000 </r>
       <r>   -14.4470     0.0000   152.0000 </r>
       <r>   -14.2390     0.0000   152.0000 </r>
       <r>   -14.0311     0.0000   152.0000 </r>
       <r>   -13.8231     0.0000   152.0000 </r>
       <r>   -13.6152     0.0000   152.0000 </r>
       <r>   -13.4072     0.0000   152.0000 </r>
       <r>   -13.1993     0.0000   152.0000 </r>
       <r>   -12.9913     0.0000   152.0000 </r>
       <r>   -12.7834     0.0000   152.0000 </r>
       <r>   -12.5754     0.0000   152.0000 </r>
       <r>   -12.3674     0.0000   152.0000 </r>
       <r>   -12.1595     0.0000   152.0000 </r>
       <r>   -11.9515     0.0000   152.0000 </r>
       <r>   -11.7436     0.0000   152.0000 </r>
       <r>   -11.5356     0.0000   152.0000 </r>
       <r>   -11.3277     0.0000   152.0000 </r>
       <r>   -11.1197     0.0000   152.0000 </r>
       <r>   -10.9118     0.0000   152.0000 </r>
       <r>   -10.7038     0.0000   152.0000 </r>
       <r>   -10.4959     0.0000   152.0000 </r>
       <r>   -10.2879     0.0000   152.0000 </r>
       <r>   -10.0800     0.0000   152.0000 </r>
       <r>    -9.8720     0.0000   152.0000 </r>
       <r>    -9.6641     0.0000   152.0000 </r>
       <r>    -9.4561     0.0000   152.0000 </r>
       <r>    -9.2482     0.0000   152.0000 </r>
       <r>    -9.0402     0.0000   152.0000 </r>
       <r>    -8.8322     0.0000   152.0000 </r>
       <r>    -8.6243     0.0000   152.0000 </r>
       <r>    -8.4163     0.0000   152.0000 </r>
       <r>    -8.2084     0.0000   152.0000 </r>
       <r>    -8.0004     0.0000   152.0000 </r>
       <r>    -7.7925     0.0000   152.0000 </r>
       <r>    -7.5845     0.0000   152.0000 </r>
       <r>    -7.3766     0.0000   152.0000 </r>
       <r>    -7.1686     0.0000   152.0000 </r>
       <r>    -6.9607     0.0000   152.0000 </r>
       <r>    -6.7527     0.0000   152.0000 </r>
       <r>    -6.5448     0.0000   152.0000 </r>
       <r>    -6.3368     0.0000   152.0000 </r>
       <r>    -6.1289     0.0000   152.0000 </r>
       <r>    -5.9209     0.0000   152.0000 </r>
       <r>    -5.7130     0.0000   152.0000 </r>
       <r>    -5.5050     0.0000   152.0000 </r>
       <r>    -5.2970     0.0000   152.0000 </r>
       <r>    -5.0891     0.0000   152.0000 </r>
       <r>    -4.8811     0.0000   152.0000 </r>
       <r>    -4.6732     0.0000   152.0000 </r>
       <r>    -4.4652     0.0000   152.0000 </r>
       <r>    -4.2573     0.0000   152.0000 </r>
       <r>    -4.0493     0.0000   152.0000 </r>
       <r>    -3.8414     0.0000   152.0000 </r>
       <r>    -3.6334     0.0000   152.0000 </r>
       <r>    -3.4255     0.0000   152.0000 </r>
       <r>    -3.2175     0.0000   152.0000 </r>
       <r>    -3.0096     0.0000   152.0000 </r>
       <r>    -2.8016     0.0000   152.0000 </r>
       <r>    -2.5937     0.0000   152.0000 </r>
       <r>    -2.3857     0.0000   152.0000 </r>
       <r>    -2.1778     0.0000   152.0000 </r>
       <r>    -1.9698     0.0000   152.0000 </r>
       <r>    -1.7618     0.0000   152.0000 </r>
       <r>    -1.5539     0.0000   152.0000 </r>
       <r>    -1.3459     0.0000   152.0000 </r>
       <r>    -1.1380     0.0000   152.0000 </r>
       <r>    -0.9300     0.0000   152.0000 </r>
       <r>    -0.7221     0.0000   152.0000 </r>
       <r>    -0.5141     0.0000   152.0000 </r>
       <r>    -0.3062     0.0000   152.0000 </r>
       <r>    -0.0982    -0.0000   152.0000 </r>
       <r>     0.1097    -0.0000   152.0000 </r>
       <r>     0.3177    -0.0000   152.0000 </r>
       <r>     0.5256    -0.0000   152.0000 </r>
       <r>     0.7336    -0.0000   152.0000 </r>
       <r>     0.9415    -0.0035   151.9993 </r>
       <r>     1.1495     0.0289   152.0053 </r>
       <r>     1.3574     0.4340   152.0955 </r>
       <r>     1.5654     1.4123   152.3892 </r>
       <r>     1.7734     1.6874   152.7401 </r>
       <r>     1.9813     2.3538   153.2296 </r>
       <r>     2.1893     3.8263   154.0253 </r>
       <r>     2.3972     2.7508   154.5973 </r>
       <r>     2.6052     2.5447   155.1265 </r>
       <r>     2.8131     4.7159   156.1072 </r>
       <r>     3.0211     3.7321   156.8833 </r>
       <r>     3.2290     5.4230   158.0110 </r>
       <r>     3.4370     7.7306   159.6186 </r>
       <r>     3.6449     8.1742   161.3185 </r>
       <r>     3.8529     7.9015   162.9616 </r>
       <r>     4.0608     9.3888   164.9141 </r>
       <r>     4.2688    13.9288   167.8106 </r>
       <r>     4.4767    19.1388   171.7906 </r>
       <r>     4.6847    21.8282   176.3298 </r>
       <r>     4.8926    29.4782   182.4599 </r>
       <r>     5.1006    32.1324   189.1419 </r>
       <r>     5.3086    38.6285   197.1748 </r>
       <r>     5.5165    38.9750   205.2798 </r>
       <r>     5.7245    41.5479   213.9198 </r>
       <r>     5.9324    33.8639   220.9619 </r>
       <r>     6.1404    35.2294   228.2880 </r>
       <r>     6.3483    19.5343   232.3502 </r>
       <r>     6.5563    27.1828   238.0029 </r>
       <r>     6.7642    64.7328   251.4643 </r>
       <r>     6.9722    62.3750   264.4354 </r>
       <r>     7.1801    55.4323   275.9627 </r>
       <r>     7.3881    48.9529   286.1426 </r>
       <r>     7.5960    53.3924   297.2457 </r>
       <r>     7.8040    56.8117   309.0598 </r>
       <r>     8.0119    50.2731   319.5143 </r>
       <r>     8.2199    49.0072   329.7055 </r>
       <r>     8.4278    48.8994   339.8742 </r>
       <r>     8.6358    38.1371   347.8049 </r>
       <r>     8.8438    28.8457   353.8035 </r>
       <r>     9.0517    20.9126   358.1523 </r>
       <r>     9.2597    17.4884   361.7891 </r>
       <r>     9.4676    11.2107   364.1204 </r>
       <r>     9.6756    18.9041   368.0516 </r>
       <r>     9.8835    29.6335   374.2139 </r>
       <r>    10.0915    26.8245   379.7922 </r>
       <r>    10.2994    16.6917   383.2633 </r>
       <r>    10.5074     3.7885   384.0511 </r>
       <r>    10.7153    -0.2412   384.0009 </r>
       <r>    10.9233    -0.0045   384.0000 </r>
       <r>    11.1312    -0.0000   384.0000 </r>
       <r>    11.3392    -0.0000   384.0000 </r>
       <r>    11.5471     0.0000   384.0000 </r>
       <r>    11.7551     0.0000   384.0000 </r>
       <r>    11.9630     0.0000   384.0000 </r>
       <r>    12.1710     0.0000   384.0000 </r>
       <r>    12.3789     0.0000   384.0000 </r>
       <r>    12.5869     0.0000   384.0000 </r>
       <r>    12.7949     0.0000   384.0000 </r>
       <r>    13.0028     0.0000   384.0000 </r>
       <r>    13.2108     0.0000   384.0000 </r>
      </set>
     </set>
    </array>
   </total>
  </dos>
 </calculation>
 <structure name="finalpos" >
  <crystal>
   <varray name="basis" >
    <v>       6.87482950      -0.01557288      -0.01649361 </v>
    <v>      -0.02201678      10.17933708       0.01181375 </v>
    <v>      -0.02442747       0.01155837      10.19424784 </v>
   </varray>
   <i name="volume">    713.39724032 </i>
   <varray name="rec_basis" >
    <v>       0.14545970       0.00031421       0.00034819 </v>
    <v>       0.00022226       0.09823883      -0.00011085 </v>
    <v>       0.00023509      -0.00011334       0.09809523 </v>
   </varray>
  </crystal>
  <varray name="positions" >
   <v>       0.76842337       0.83342843       0.83839442 </v>
   <v>       0.75918745       0.83570796       0.16849296 </v>
   <v>       0.49040902       0.33908829       0.00064272 </v>
   <v>       0.00959202       0.66075334       0.35245533 </v>
   <v>       0.22939876       0.84240453       0.84249308 </v>
   <v>       0.74436683       0.51228294       0.17175116 </v>
   <v>       0.00293093       0.33081577       0.99745983 </v>
   <v>       0.48952896       0.65856806       0.98666509 </v>
   <v>       0.25910355       0.15689518       0.17539951 </v>
   <v>       0.01265066       0.64579830       0.99486738 </v>
   <v>       0.49626922       0.66437605       0.34709287 </v>
   <v>       0.26502983       0.49268936       0.50077369 </v>
   <v>       0.51093482       0.00112093       0.33780023 </v>
   <v>       0.99577782       0.00294854       0.34508504 </v>
   <v>       0.99972542       0.65963319       0.65973786 </v>
   <v>       0.23316572       0.50400289       0.82590087 </v>
   <v>       0.48604968       0.33835267       0.66250820 </v>
   <v>       0.74223497       0.15902133       0.17005066 </v>
   <v>       0.73053032       0.16450171       0.49929586 </v>
   <v>       0.50909537       0.00369606       0.00267825 </v>
   <v>       0.26152892       0.84233144       0.48974216 </v>
   <v>       0.74154268       0.83716022       0.49550945 </v>
   <v>       0.25954624       0.50806637       0.17524508 </v>
   <v>       0.73655248       0.49554911       0.51072869 </v>
   <v>       0.99254841       0.02757504       0.00127859 </v>
   <v>       0.75648626       0.49614294       0.81688806 </v>
   <v>       0.27212361       0.16366836       0.49270756 </v>
   <v>       0.27043306       0.15360218       0.82989807 </v>
   <v>       0.49515757       0.98938781       0.65747762 </v>
   <v>       0.50597173       0.33473883       0.33655597 </v>
   <v>       0.24811481       0.83473501       0.16984127 </v>
   <v>       0.00838053       0.32873619       0.65905285 </v>
   <v>       0.72383361       0.16781459       0.82496011 </v>
   <v>       0.49400889       0.67206955       0.66535084 </v>
   <v>       0.00310024       0.00956157       0.65203683 </v>
   <v>       0.99626223       0.33278528       0.34318083 </v>
  </varray>
 </structure>
</modeling>
