<?xml version="1.0" encoding="ISO-8859-1"?>
<modeling>
 <generator>
  <i name="program" type="string">vasp </i>
  <i name="version" type="string">5.4.1  </i>
  <i name="subversion" type="string">05Feb16 (build Jan 29 2020 16:04:39) complex                          parallel </i>
  <i name="platform" type="string">IFC91_ompi </i>
  <i name="date" type="string">2020 06 15 </i>
  <i name="time" type="string">12:41:59 </i>
 </generator>
 <incar>
  <i type="string" name="SYSTEM"> automatically generated by mexm</i>
  <i type="int" name="ISTART">     0</i>
  <i type="string" name="PREC">accurate               ! avoid wrap aro</i>
  <i type="string" name="ALGO"> Fast                   ! blocked Davids</i>
  <i type="int" name="ISPIN">     1</i>
  <i type="int" name="ICHARG">     2</i>
  <i type="int" name="NELM">    70</i>
  <i type="int" name="IBRION">     2</i>
  <i name="EDIFF">      0.00001000</i>
  <i name="EDIFFG">     -0.01000000</i>
  <i type="int" name="NSW">   300</i>
  <i type="int" name="ISIF">     3</i>
  <i type="int" name="ISYM">     1</i>
  <i name="ENCUT">    300.00000000</i>
  <i name="POTIM">      0.15000000</i>
  <i type="string" name="LREAL"> Auto                  ! unpublished met</i>
  <i type="int" name="ISMEAR">     1</i>
  <i name="SIGMA">      0.15000000</i>
  <i type="logical" name="LWAVE"> F  </i>
  <i type="logical" name="LCHARG"> F  </i>
  <i type="logical" name="LVTOT"> F  </i>
  <v type="int" name="KPOINT_BSE">    -1     0     0     0</v>
  <i type="int" name="NELM">    70</i>
 </incar>
 <kpoints>
  <generation param="Gamma">
   <v type="int" name="divisions">       3        3        3 </v>
   <v name="usershift">      0.00000000       0.00000000       0.00000000 </v>
   <v name="genvec1">      0.33333333       0.00000000       0.00000000 </v>
   <v name="genvec2">     -0.00000000       0.33333333       0.00000000 </v>
   <v name="genvec3">      0.00000000      -0.00000000       0.33333333 </v>
   <v name="shift">      0.00000000       0.00000000       0.00000000 </v>
  </generation>
  <varray name="kpointlist" >
   <v>       0.00000000       0.00000000       0.00000000 </v>
   <v>       0.33333333      -0.00000000       0.00000000 </v>
   <v>      -0.00000000       0.33333333      -0.00000000 </v>
   <v>       0.33333333       0.33333333       0.00000000 </v>
   <v>      -0.33333333       0.33333333       0.00000000 </v>
   <v>      -0.00000000       0.00000000       0.33333333 </v>
   <v>       0.33333333      -0.00000000       0.33333333 </v>
   <v>      -0.33333333      -0.00000000       0.33333333 </v>
   <v>       0.00000000       0.33333333       0.33333333 </v>
   <v>       0.33333333       0.33333333       0.33333333 </v>
   <v>      -0.33333333       0.33333333       0.33333333 </v>
   <v>       0.00000000      -0.33333333       0.33333333 </v>
   <v>       0.33333333      -0.33333333       0.33333333 </v>
   <v>      -0.33333333      -0.33333333       0.33333333 </v>
  </varray>
  <varray name="weights" >
   <v>       0.03703704 </v>
   <v>       0.07407407 </v>
   <v>       0.07407407 </v>
   <v>       0.07407407 </v>
   <v>       0.07407407 </v>
   <v>       0.07407407 </v>
   <v>       0.07407407 </v>
   <v>       0.07407407 </v>
   <v>       0.07407407 </v>
   <v>       0.07407407 </v>
   <v>       0.07407407 </v>
   <v>       0.07407407 </v>
   <v>       0.07407407 </v>
   <v>       0.07407407 </v>
  </varray>
 </kpoints>
 <parameters>
  <separator name="general" >
   <i type="string" name="SYSTEM">automatically generated by mexm</i>
   <i type="logical" name="LCOMPAT"> F  </i>
  </separator>
  <separator name="electronic" >
   <i type="string" name="PREC">accura</i>
   <i name="ENMAX">    300.00000000</i>
   <i name="ENAUG">    461.25700000</i>
   <i name="EDIFF">      0.00001000</i>
   <i type="int" name="IALGO">    68</i>
   <i type="int" name="IWAVPR">    11</i>
   <i type="int" name="NBANDS">   176</i>
   <i name="NELECT">    294.00000000</i>
   <i type="int" name="TURBO">     0</i>
   <i type="int" name="IRESTART">     0</i>
   <i type="int" name="NREBOOT">     0</i>
   <i type="int" name="NMIN">     0</i>
   <i name="EREF">      0.00000000</i>
   <separator name="electronic smearing" >
    <i type="int" name="ISMEAR">     1</i>
    <i name="SIGMA">      0.15000000</i>
    <i name="KSPACING">      0.50000000</i>
    <i type="logical" name="KGAMMA"> T  </i>
   </separator>
   <separator name="electronic projectors" >
    <i type="logical" name="LREAL"> T  </i>
    <v name="ROPT">     -0.00025000     -0.00025000     -0.00025000     -0.00025000</v>
    <i type="int" name="LMAXPAW">  -100</i>
    <i type="int" name="LMAXMIX">     2</i>
    <i type="logical" name="NLSPLINE"> F  </i>
   </separator>
   <separator name="electronic startup" >
    <i type="int" name="ISTART">     0</i>
    <i type="int" name="ICHARG">     2</i>
    <i type="int" name="INIWAV">     1</i>
   </separator>
   <separator name="electronic spin" >
    <i type="int" name="ISPIN">     1</i>
    <i type="logical" name="LNONCOLLINEAR"> F  </i>
    <v name="MAGMOM">      1.00000000      1.00000000      1.00000000      1.00000000      1.00000000      1.00000000      1.00000000      1.00000000      1.00000000      1.00000000      1.00000000      1.00000000      1.00000000      1.00000000      1.00000000      1.00000000      1.00000000      1.00000000      1.00000000      1.00000000
      1.00000000      1.00000000      1.00000000      1.00000000      1.00000000      1.00000000      1.00000000      1.00000000      1.00000000      1.00000000      1.00000000      1.00000000      1.00000000      1.00000000      1.00000000      1.00000000</v>
    <i name="NUPDOWN">     -1.00000000</i>
    <i type="logical" name="LSORBIT"> F  </i>
    <v name="SAXIS">      0.00000000      0.00000000      1.00000000</v>
    <i type="logical" name="LSPIRAL"> F  </i>
    <v name="QSPIRAL">      0.00000000      0.00000000      0.00000000</v>
    <i type="logical" name="LZEROZ"> F  </i>
   </separator>
   <separator name="electronic exchange-correlation" >
    <i type="logical" name="LASPH"> F  </i>
    <i type="logical" name="LMETAGGA"> F  </i>
   </separator>
   <separator name="electronic convergence" >
    <i type="int" name="NELM">    70</i>
    <i type="int" name="NELMDL">    -5</i>
    <i type="int" name="NELMIN">     2</i>
    <i name="ENINI">    300.00000000</i>
    <separator name="electronic convergence detail" >
     <i type="logical" name="LDIAG"> T  </i>
     <i type="logical" name="LSUBROT"> F  </i>
     <i name="WEIMIN">      0.00100000</i>
     <i name="EBREAK">      0.00000001</i>
     <i name="DEPER">      0.30000000</i>
     <i type="int" name="NRMM">     4</i>
     <i name="TIME">      0.40000000</i>
    </separator>
   </separator>
   <separator name="electronic mixer" >
    <i name="AMIX">      0.40000000</i>
    <i name="BMIX">      1.00000000</i>
    <i name="AMIN">      0.10000000</i>
    <i name="AMIX_MAG">      1.60000000</i>
    <i name="BMIX_MAG">      1.00000000</i>
    <separator name="electronic mixer details" >
     <i type="int" name="IMIX">     4</i>
     <i type="logical" name="MIXFIRST"> F  </i>
     <i type="int" name="MAXMIX">   -45</i>
     <i name="WC">    100.00000000</i>
     <i type="int" name="INIMIX">     1</i>
     <i type="int" name="MIXPRE">     1</i>
     <i type="int" name="MREMOVE">     5</i>
    </separator>
   </separator>
   <separator name="electronic dipolcorrection" >
    <i type="logical" name="LDIPOL"> F  </i>
    <i type="logical" name="LMONO"> F  </i>
    <i type="int" name="IDIPOL">     0</i>
    <i name="EPSILON">      1.00000000</i>
    <v name="DIPOL">   -100.00000000   -100.00000000   -100.00000000</v>
    <i name="EFIELD">      0.00000000</i>
   </separator>
  </separator>
  <separator name="grids" >
   <i type="int" name="NGX">    40</i>
   <i type="int" name="NGY">    60</i>
   <i type="int" name="NGZ">    60</i>
   <i type="int" name="NGXF">    80</i>
   <i type="int" name="NGYF">   120</i>
   <i type="int" name="NGZF">   120</i>
   <i type="logical" name="ADDGRID"> F  </i>
  </separator>
  <separator name="ionic" >
   <i type="int" name="NSW">   300</i>
   <i type="int" name="IBRION">     2</i>
   <i type="int" name="ISIF">     3</i>
   <i name="PSTRESS">      0.00000000</i>
   <i name="EDIFFG">     -0.01000000</i>
   <i type="int" name="NFREE">     1</i>
   <i name="POTIM">      0.15000000</i>
   <i name="SMASS">     -3.00000000</i>
   <i name="SCALEE">      1.00000000</i>
  </separator>
  <separator name="ionic md" >
   <i name="TEBEG">      0.00010000</i>
   <i name="TEEND">      0.00010000</i>
   <i type="int" name="NBLOCK">     1</i>
   <i type="int" name="KBLOCK">   300</i>
   <i type="int" name="NPACO">   256</i>
   <i name="APACO">     16.00000000</i>
  </separator>
  <separator name="symmetry" >
   <i type="int" name="ISYM">     1</i>
   <i name="SYMPREC">      0.00001000</i>
  </separator>
  <separator name="dos" >
   <i type="logical" name="LORBIT"> F  </i>
   <v name="RWIGS">     -1.00000000     -1.00000000     -1.00000000     -1.00000000</v>
   <i type="int" name="NEDOS">   301</i>
   <i name="EMIN">     10.00000000</i>
   <i name="EMAX">    -10.00000000</i>
   <i name="EFERMI">      0.00000000</i>
  </separator>
  <separator name="writing" >
   <i type="int" name="NWRITE">     2</i>
   <i type="logical" name="LWAVE"> F  </i>
   <i type="logical" name="LCHARG"> F  </i>
   <i type="logical" name="LPARD"> F  </i>
   <i type="logical" name="LVTOT"> F  </i>
   <i type="logical" name="LVHAR"> F  </i>
   <i type="logical" name="LELF"> F  </i>
   <i type="logical" name="LOPTICS"> F  </i>
   <v name="STM">      0.00000000      0.00000000      0.00000000      0.00000000      0.00000000      0.00000000      0.00000000</v>
  </separator>
  <separator name="performance" >
   <i type="int" name="NPAR">     4</i>
   <i type="int" name="NSIM">     4</i>
   <i type="int" name="NBLK">    -1</i>
   <i type="logical" name="LPLANE"> T  </i>
   <i type="logical" name="LSCALAPACK"> T  </i>
   <i type="logical" name="LSCAAWARE"> F  </i>
   <i type="logical" name="LSCALU"> F  </i>
   <i type="logical" name="LASYNC"> F  </i>
   <i type="logical" name="LORBITALREAL"> F  </i>
  </separator>
  <separator name="miscellaneous" >
   <i type="int" name="IDIOT">     3</i>
   <i type="logical" name="LMUSIC"> F  </i>
   <v name="POMASS">     91.22400000    178.49000000    180.94800000     92.91000000</v>
   <v name="DARWINR">      0.00000000      0.00000000      0.00000000      0.00000000</v>
   <v name="DARWINV">      1.00000000      1.00000000      1.00000000      1.00000000</v>
   <i type="logical" name="LCORR"> T  </i>
  </separator>
  <i type="logical" name="GGA_COMPAT"> T  </i>
  <i type="logical" name="LBERRY"> F  </i>
  <i type="int" name="ICORELEVEL">     0</i>
  <i type="logical" name="LDAU"> F  </i>
  <i type="int" name="I_CONSTRAINED_M">     0</i>
  <separator name="electronic exchange-correlation" >
   <i type="string" name="GGA">--</i>
   <i type="int" name="VOSKOWN">     0</i>
   <i type="logical" name="LHFCALC"> F  </i>
   <i type="string" name="PRECFOCK"></i>
   <i type="logical" name="LSYMGRAD"> F  </i>
   <i type="logical" name="LHFONE"> F  </i>
   <i type="logical" name="LRHFCALC"> F  </i>
   <i type="logical" name="LTHOMAS"> F  </i>
   <i type="logical" name="LMODELHF"> F  </i>
   <i name="ENCUT4O">     -1.00000000</i>
   <i type="int" name="EXXOEP">     0</i>
   <i type="int" name="FOURORBIT">     0</i>
   <i name="AEXX">      0.00000000</i>
   <i name="HFALPHA">      0.00000000</i>
   <i name="MCALPHA">      0.00000000</i>
   <i name="ALDAX">      1.00000000</i>
   <i name="AGGAX">      1.00000000</i>
   <i name="ALDAC">      1.00000000</i>
   <i name="AGGAC">      1.00000000</i>
   <i type="int" name="NKREDX">     1</i>
   <i type="int" name="NKREDY">     1</i>
   <i type="int" name="NKREDZ">     1</i>
   <i type="logical" name="SHIFTRED"> F  </i>
   <i type="logical" name="ODDONLY"> F  </i>
   <i type="logical" name="EVENONLY"> F  </i>
   <i type="int" name="LMAXFOCK">     0</i>
   <i type="int" name="NMAXFOCKAE">     0</i>
   <i type="logical" name="LFOCKAEDFT"> F  </i>
   <i name="HFSCREEN">      0.00000000</i>
   <i name="HFSCREENC">      0.00000000</i>
   <i type="int" name="NBANDSGWLOW">     0</i>
  </separator>
  <separator name="vdW DFT" >
   <i type="logical" name="LUSE_VDW"> F  </i>
   <i name="Zab_VDW">     -0.84910000</i>
   <i name="PARAM1">      0.12340000</i>
   <i name="PARAM2">      1.00000000</i>
   <i name="PARAM3">      0.00000000</i>
  </separator>
  <separator name="model GW" >
   <i type="int" name="MODEL_GW">     0</i>
   <i name="MODEL_EPS0">     12.52356493</i>
   <i name="MODEL_ALPHA">      1.00000000</i>
  </separator>
  <separator name="linear response parameters" >
   <i type="logical" name="LEPSILON"> F  </i>
   <i type="logical" name="LRPA"> F  </i>
   <i type="logical" name="LNABLA"> F  </i>
   <i type="logical" name="LVEL"> F  </i>
   <i type="int" name="KINTER">     0</i>
   <i name="CSHIFT">      0.10000000</i>
   <i name="OMEGAMAX">     -1.00000000</i>
   <i name="DEG_THRESHOLD">      0.00200000</i>
  </separator>
  <separator name="orbital magnetization" >
   <i type="logical" name="NUCIND"> F  </i>
   <v name="MAGPOS">      0.00000000      0.00000000      0.00000000</v>
   <i type="logical" name="LNICSALL"> T  </i>
   <i type="logical" name="ORBITALMAG"> F  </i>
   <i type="logical" name="LMAGBLOCH"> F  </i>
   <i type="logical" name="LCHIMAG"> F  </i>
   <i type="logical" name="LGAUGE"> T  </i>
   <i type="int" name="MAGATOM">     0</i>
   <v name="MAGDIPOL">      0.00000000      0.00000000      0.00000000</v>
   <v name="AVECCONST">      0.00000000      0.00000000      0.00000000</v>
  </separator>
  <separator name="response functions" >
   <i type="logical" name="LADDER"> F  </i>
   <i type="logical" name="LFXC"> F  </i>
   <i type="logical" name="LHARTREE"> T  </i>
   <i type="int" name="IBSE">     0</i>
   <v type="int" name="KPOINT">    -1     0     0     0</v>
   <i type="logical" name="LTCTE"> F  </i>
   <i type="logical" name="LTETE"> F  </i>
   <i type="logical" name="LTRIPLET"> F  </i>
   <i type="logical" name="LFXCEPS"> F  </i>
   <i type="logical" name="LFXHEG"> F  </i>
   <i type="int" name="NATURALO">     0</i>
   <i type="logical" name="L2ORDER"> F  </i>
   <i type="logical" name="LUSEW"> F  </i>
   <i name="ENCUTGW">     -2.00000000</i>
   <i name="ENCUTGWSOFT">     -2.00000000</i>
   <i name="ENCUTLF">     -1.00000000</i>
   <i type="int" name="LMAXMP2">    -1</i>
   <i name="SCISSOR">      0.00000000</i>
   <i type="int" name="NOMEGA">     0</i>
   <i type="int" name="NOMEGAR">     0</i>
   <i type="int" name="NBANDSGW">    -1</i>
   <i type="int" name="NBANDSO">    -1</i>
   <i type="int" name="NBANDSV">    -1</i>
   <i type="int" name="NELM">    70</i>
   <i type="int" name="NELMHF">     1</i>
   <i type="int" name="DIM">     3</i>
   <i type="int" name="ANTIRES">     0</i>
   <i name="OMEGAMAX">    -30.00000000</i>
   <i name="OMEGAMIN">    -30.00000000</i>
   <i name="OMEGATL">   -200.00000000</i>
   <i type="int" name="OMEGAGRID">     0</i>
   <i name="CSHIFT">     -0.10000000</i>
   <i type="logical" name="SELFENERGY"> F  </i>
   <i type="logical" name="LSPECTRAL"> F  </i>
   <i type="logical" name="LSPECTRALGW"> F  </i>
   <i type="logical" name="LSINGLES"> F  </i>
   <i type="logical" name="LFERMIGW"> F  </i>
   <i type="logical" name="ODDONLYGW"> F  </i>
   <i type="logical" name="EVENONLYGW"> F  </i>
   <i type="int" name="NKREDLFX">     1</i>
   <i type="int" name="NKREDLFY">     1</i>
   <i type="int" name="NKREDLFZ">     1</i>
   <i type="int" name="MAXMEM">  1800</i>
   <i type="int" name="TELESCOPE">     0</i>
   <i type="int" name="TAUPAR">     1</i>
   <i type="int" name="OMEGAPAR">    -1</i>
   <i name="LAMBDA">      1.00000000</i>
  </separator>
  <separator name="External order field" >
   <i name="OFIELD_KAPPA">      0.00000000</i>
   <v name="OFIELD_K">      0.00000000      0.00000000      0.00000000</v>
   <i name="OFIELD_Q6_NEAR">      0.00000000</i>
   <i name="OFIELD_Q6_FAR">      0.00000000</i>
   <i name="OFIELD_A">      0.00000000</i>
  </separator>
 </parameters>
 <atominfo>
  <atoms>      36 </atoms>
  <types>       4 </types>
  <array name="atoms" >
   <dimension dim="1">ion</dimension>
   <field type="string">element</field>
   <field type="int">atomtype</field>
   <set>
    <rc><c>Zr</c><c>   1</c></rc>
    <rc><c>Zr</c><c>   1</c></rc>
    <rc><c>Zr</c><c>   1</c></rc>
    <rc><c>Zr</c><c>   1</c></rc>
    <rc><c>Zr</c><c>   1</c></rc>
    <rc><c>Zr</c><c>   1</c></rc>
    <rc><c>Zr</c><c>   1</c></rc>
    <rc><c>Zr</c><c>   1</c></rc>
    <rc><c>Zr</c><c>   1</c></rc>
    <rc><c>Zr</c><c>   1</c></rc>
    <rc><c>Zr</c><c>   1</c></rc>
    <rc><c>Zr</c><c>   1</c></rc>
    <rc><c>Hf</c><c>   2</c></rc>
    <rc><c>Hf</c><c>   2</c></rc>
    <rc><c>Hf</c><c>   2</c></rc>
    <rc><c>Hf</c><c>   2</c></rc>
    <rc><c>Hf</c><c>   2</c></rc>
    <rc><c>Hf</c><c>   2</c></rc>
    <rc><c>Hf</c><c>   2</c></rc>
    <rc><c>Hf</c><c>   2</c></rc>
    <rc><c>Hf</c><c>   2</c></rc>
    <rc><c>Hf</c><c>   2</c></rc>
    <rc><c>Ta</c><c>   3</c></rc>
    <rc><c>Ta</c><c>   3</c></rc>
    <rc><c>Ta</c><c>   3</c></rc>
    <rc><c>Ta</c><c>   3</c></rc>
    <rc><c>Ta</c><c>   3</c></rc>
    <rc><c>Ta</c><c>   3</c></rc>
    <rc><c>Ta</c><c>   3</c></rc>
    <rc><c>Ta</c><c>   3</c></rc>
    <rc><c>Ta</c><c>   3</c></rc>
    <rc><c>Nb</c><c>   4</c></rc>
    <rc><c>Nb</c><c>   4</c></rc>
    <rc><c>Nb</c><c>   4</c></rc>
    <rc><c>Nb</c><c>   4</c></rc>
    <rc><c>Nb</c><c>   4</c></rc>
   </set>
  </array>
  <array name="atomtypes" >
   <dimension dim="1">type</dimension>
   <field type="int">atomspertype</field>
   <field type="string">element</field>
   <field>mass</field>
   <field>valence</field>
   <field type="string">pseudopotential</field>
   <set>
    <rc><c>  12</c><c>Zr</c><c>     91.22400000</c><c>     12.00000000</c><c>  PAW_PBE Zr_sv 04Jan2005               </c></rc>
    <rc><c>  10</c><c>Hf</c><c>    178.49000000</c><c>      4.00000000</c><c>  PAW_PBE Hf 20Jan2003                  </c></rc>
    <rc><c>   9</c><c>Ta</c><c>    180.94800000</c><c>      5.00000000</c><c>  PAW_PBE Ta 17Jan2003                  </c></rc>
    <rc><c>   5</c><c>Nb</c><c>     92.91000000</c><c>     13.00000000</c><c>  PAW_PBE Nb_sv 25May2007               </c></rc>
   </set>
  </array>
 </atominfo>
 <structure name="initialpos" >
  <crystal>
   <varray name="basis" >
    <v>       7.08492662       0.01909525       0.06310212 </v>
    <v>       0.02877257      10.28776584      -0.00031426 </v>
    <v>       0.09233362      -0.00060359      10.31004862 </v>
   </varray>
   <i name="volume">    751.41389605 </i>
   <varray name="rec_basis" >
    <v>       0.14115705      -0.00039482      -0.00126418 </v>
    <v>      -0.00026205       0.09720357       0.00000804 </v>
    <v>      -0.00086395       0.00000538       0.09700049 </v>
   </varray>
  </crystal>
  <varray name="positions" >
   <v>       0.72032500       0.16088900       0.82982700 </v>
   <v>       0.51347800       0.33658300       0.33992400 </v>
   <v>       0.01684400       0.32327900       0.67425900 </v>
   <v>       0.25632700       0.48862700       0.15765500 </v>
   <v>       0.96988800       0.33876300       0.32589300 </v>
   <v>       0.49792600       0.66708200       0.33456300 </v>
   <v>       0.21421900       0.15964300       0.47613800 </v>
   <v>       0.78167600       0.51603400       0.52441600 </v>
   <v>       0.77110700       0.83437100       0.51161900 </v>
   <v>       0.25957600       0.49429800       0.84361700 </v>
   <v>       0.26150800       0.16350200       0.16449600 </v>
   <v>       0.75690800       0.82336300       0.82950700 </v>
   <v>       0.49131000       0.68096700       0.01068800 </v>
   <v>       0.47630500       0.99838300       0.65064700 </v>
   <v>       0.29065600       0.17180500       0.85374300 </v>
   <v>       0.99810700       0.99981200       0.99831200 </v>
   <v>       0.02392300       0.00157400       0.68133200 </v>
   <v>       0.99545300       0.66622100       0.31759300 </v>
   <v>       0.49024800       0.33087800       0.64350800 </v>
   <v>       0.97597500       0.32100900       0.99864000 </v>
   <v>       0.75710800       0.51100400       0.83565100 </v>
   <v>       0.46483000       0.67277700       0.65641800 </v>
   <v>       0.00888900       0.67735600       0.01300200 </v>
   <v>       0.75653900       0.83578400       0.16147200 </v>
   <v>       0.97207800       0.99583400       0.31977000 </v>
   <v>       0.23803500       0.84505000       0.17577100 </v>
   <v>       0.77050300       0.15434200       0.50102500 </v>
   <v>       0.22220000       0.50422700       0.50007900 </v>
   <v>       0.04377900       0.67593000       0.67155800 </v>
   <v>       0.74718700       0.50656000       0.14984100 </v>
   <v>       0.22486200       0.83666900       0.48265900 </v>
   <v>       0.51426700       0.99479800       0.33660400 </v>
   <v>       0.73090800       0.16090000       0.16444600 </v>
   <v>       0.24673000       0.83165900       0.84286500 </v>
   <v>       0.53753400       0.33720400       0.01108600 </v>
   <v>       0.50277600       0.98282600       0.01136900 </v>
  </varray>
 </structure>
 <calculation>
  <scstep>
   <time name="dav">    1.09    1.11</time>
   <time name="total">    1.20    1.63</time>
   <energy>
    <i name="alphaZ">   1457.65455235 </i>
    <i name="ewald"> -19370.06558857 </i>
    <i name="hartreedc">  -6515.13099432 </i>
    <i name="XCdc">   -248.46196920 </i>
    <i name="pawpsdc">  21156.73898611 </i>
    <i name="pawaedc"> -19580.99100645 </i>
    <i name="eentropy">     -0.00193929 </i>
    <i name="bandstr">   -178.62697031 </i>
    <i name="atom">  25120.39883093 </i>
    <i name="e_fr_energy">   1841.51390123 </i>
    <i name="e_wo_entrp">   1841.51584052 </i>
    <i name="e_0_energy">   1841.51454766 </i>
   </energy>
  </scstep>
  <scstep>
   <time name="dav">    1.05    1.06</time>
   <time name="total">    1.06    1.29</time>
   <energy>
    <i name="e_fr_energy">    -61.89101499 </i>
    <i name="e_wo_entrp">    -61.88456494 </i>
    <i name="e_0_energy">    -61.88886497 </i>
   </energy>
  </scstep>
  <scstep>
   <time name="dav">    1.45    1.46</time>
   <time name="total">    1.45    1.50</time>
   <energy>
    <i name="e_fr_energy">   -331.87532628 </i>
    <i name="e_wo_entrp">   -331.88137485 </i>
    <i name="e_0_energy">   -331.87734247 </i>
   </energy>
  </scstep>
  <scstep>
   <time name="dav">    1.32    1.41</time>
   <time name="total">    1.32    1.45</time>
   <energy>
    <i name="e_fr_energy">   -367.10938284 </i>
    <i name="e_wo_entrp">   -367.11881634 </i>
    <i name="e_0_energy">   -367.11252734 </i>
   </energy>
  </scstep>
  <scstep>
   <time name="dav">    1.33    1.34</time>
   <time name="total">    1.37    1.42</time>
   <energy>
    <i name="e_fr_energy">   -370.64437160 </i>
    <i name="e_wo_entrp">   -370.65750398 </i>
    <i name="e_0_energy">   -370.64874906 </i>
   </energy>
  </scstep>
  <scstep>
   <time name="diag">    0.08    0.08</time>
   <time name="diis">    0.73    0.73</time>
   <time name="orth">    0.01    0.01</time>
   <time name="total">    0.88    0.94</time>
   <energy>
    <i name="e_fr_energy">   -360.29194830 </i>
    <i name="e_wo_entrp">   -360.29722494 </i>
    <i name="e_0_energy">   -360.29370718 </i>
   </energy>
  </scstep>
  <scstep>
   <time name="diag">    0.07    0.08</time>
   <time name="diis">    0.74    0.74</time>
   <time name="orth">    0.01    0.01</time>
   <time name="total">    0.89    0.94</time>
   <energy>
    <i name="e_fr_energy">   -360.96880395 </i>
    <i name="e_wo_entrp">   -360.97916255 </i>
    <i name="e_0_energy">   -360.97225682 </i>
   </energy>
  </scstep>
  <scstep>
   <time name="diag">    0.08    0.08</time>
   <time name="diis">    0.76    0.76</time>
   <time name="orth">    0.01    0.01</time>
   <time name="total">    0.91    0.97</time>
   <energy>
    <i name="e_fr_energy">   -356.11000049 </i>
    <i name="e_wo_entrp">   -356.13506882 </i>
    <i name="e_0_energy">   -356.11835660 </i>
   </energy>
  </scstep>
  <scstep>
   <time name="diag">    0.08    0.08</time>
   <time name="diis">    0.84    0.85</time>
   <time name="orth">    0.01    0.01</time>
   <time name="total">    1.00    1.06</time>
   <energy>
    <i name="e_fr_energy">   -355.87533617 </i>
    <i name="e_wo_entrp">   -355.89031336 </i>
    <i name="e_0_energy">   -355.88032856 </i>
   </energy>
  </scstep>
  <scstep>
   <time name="diag">    0.13    0.14</time>
   <time name="diis">    0.80    0.80</time>
   <time name="orth">    0.01    0.01</time>
   <time name="total">    1.02    1.13</time>
   <energy>
    <i name="e_fr_energy">   -355.83563257 </i>
    <i name="e_wo_entrp">   -355.85542054 </i>
    <i name="e_0_energy">   -355.84222856 </i>
   </energy>
  </scstep>
  <scstep>
   <time name="diag">    0.09    0.09</time>
   <time name="diis">    0.80    0.80</time>
   <time name="orth">    0.01    0.01</time>
   <time name="total">    0.97    1.01</time>
   <energy>
    <i name="e_fr_energy">   -355.81945800 </i>
    <i name="e_wo_entrp">   -355.83913233 </i>
    <i name="e_0_energy">   -355.82601611 </i>
   </energy>
  </scstep>
  <scstep>
   <time name="diag">    0.08    0.08</time>
   <time name="diis">    0.76    0.76</time>
   <time name="orth">    0.01    0.01</time>
   <time name="total">    0.92    0.97</time>
   <energy>
    <i name="e_fr_energy">   -355.81687182 </i>
    <i name="e_wo_entrp">   -355.83676788 </i>
    <i name="e_0_energy">   -355.82350384 </i>
   </energy>
  </scstep>
  <scstep>
   <time name="diag">    0.08    0.08</time>
   <time name="diis">    0.81    0.82</time>
   <time name="orth">    0.01    0.01</time>
   <time name="total">    0.97    1.02</time>
   <energy>
    <i name="e_fr_energy">   -355.81595223 </i>
    <i name="e_wo_entrp">   -355.83595924 </i>
    <i name="e_0_energy">   -355.82262123 </i>
   </energy>
  </scstep>
  <scstep>
   <time name="diag">    0.09    0.09</time>
   <time name="diis">    0.76    0.77</time>
   <time name="orth">    0.01    0.01</time>
   <time name="total">    0.94    1.01</time>
   <energy>
    <i name="e_fr_energy">   -355.81682608 </i>
    <i name="e_wo_entrp">   -355.83675588 </i>
    <i name="e_0_energy">   -355.82346935 </i>
   </energy>
  </scstep>
  <scstep>
   <time name="diag">    0.08    0.08</time>
   <time name="diis">    0.83    0.84</time>
   <time name="orth">    0.01    0.01</time>
   <time name="total">    1.00    1.05</time>
   <energy>
    <i name="e_fr_energy">   -355.81729439 </i>
    <i name="e_wo_entrp">   -355.83723138 </i>
    <i name="e_0_energy">   -355.82394005 </i>
   </energy>
  </scstep>
  <scstep>
   <time name="diag">    0.08    0.08</time>
   <time name="diis">    0.66    0.66</time>
   <time name="orth">    0.01    0.01</time>
   <time name="total">    0.82    0.86</time>
   <energy>
    <i name="e_fr_energy">   -355.81749076 </i>
    <i name="e_wo_entrp">   -355.83740840 </i>
    <i name="e_0_energy">   -355.82412998 </i>
   </energy>
  </scstep>
  <scstep>
   <time name="diag">    0.16    0.16</time>
   <time name="diis">    0.61    0.62</time>
   <time name="orth">    0.01    0.01</time>
   <time name="total">    0.85    0.90</time>
   <energy>
    <i name="e_fr_energy">   -355.81758828 </i>
    <i name="e_wo_entrp">   -355.83758155 </i>
    <i name="e_0_energy">   -355.82425270 </i>
   </energy>
  </scstep>
  <scstep>
   <time name="diag">    0.08    0.08</time>
   <time name="diis">    0.59    0.60</time>
   <time name="orth">    0.01    0.01</time>
   <time name="total">    0.76    0.81</time>
   <energy>
    <i name="e_fr_energy">   -355.81764074 </i>
    <i name="e_wo_entrp">   -355.83765675 </i>
    <i name="e_0_energy">   -355.82431274 </i>
   </energy>
  </scstep>
  <scstep>
   <time name="diag">    0.11    0.11</time>
   <time name="diis">    0.51    0.52</time>
   <time name="orth">    0.01    0.01</time>
   <time name="total">    0.70    0.74</time>
   <energy>
    <i name="e_fr_energy">   -355.81766611 </i>
    <i name="e_wo_entrp">   -355.83768638 </i>
    <i name="e_0_energy">   -355.82433953 </i>
   </energy>
  </scstep>
  <scstep>
   <time name="diag">    0.08    0.08</time>
   <time name="diis">    0.45    0.52</time>
   <time name="orth">    0.01    0.01</time>
   <time name="total">    0.64    0.76</time>
   <energy>
    <i name="e_fr_energy">   -355.81768134 </i>
    <i name="e_wo_entrp">   -355.83770026 </i>
    <i name="e_0_energy">   -355.82435432 </i>
   </energy>
  </scstep>
  <scstep>
   <time name="diag">    0.10    0.10</time>
   <time name="diis">    0.47    0.48</time>
   <time name="orth">    0.01    0.01</time>
   <time name="total">    0.68    0.74</time>
   <energy>
    <i name="alphaZ">   1457.65455235 </i>
    <i name="ewald"> -19370.06558857 </i>
    <i name="hartreedc">  -6264.46843247 </i>
    <i name="XCdc">   -249.16589872 </i>
    <i name="pawpsdc">  33768.66358272 </i>
    <i name="pawaedc"> -32177.26049947 </i>
    <i name="eentropy">      0.02002269 </i>
    <i name="bandstr">  -2641.59425692 </i>
    <i name="atom">  25120.39883093 </i>
    <i name="e_fr_energy">   -355.81768746 </i>
    <i name="e_wo_entrp">   -355.83771015 </i>
    <i name="e_0_energy">   -355.82436169 </i>
   </energy>
  </scstep>
  <structure>
   <crystal>
    <varray name="basis" >
     <v>       7.08492662       0.01909525       0.06310212 </v>
     <v>       0.02877257      10.28776584      -0.00031426 </v>
     <v>       0.09233362      -0.00060359      10.31004862 </v>
    </varray>
    <i name="volume">    751.41389605 </i>
    <varray name="rec_basis" >
     <v>       0.14115705      -0.00039482      -0.00126418 </v>
     <v>      -0.00026205       0.09720357       0.00000804 </v>
     <v>      -0.00086395       0.00000538       0.09700049 </v>
    </varray>
   </crystal>
   <varray name="positions" >
    <v>       0.72032500       0.16088900       0.82982700 </v>
    <v>       0.51347800       0.33658300       0.33992400 </v>
    <v>       0.01684400       0.32327900       0.67425900 </v>
    <v>       0.25632700       0.48862700       0.15765500 </v>
    <v>       0.96988800       0.33876300       0.32589300 </v>
    <v>       0.49792600       0.66708200       0.33456300 </v>
    <v>       0.21421900       0.15964300       0.47613800 </v>
    <v>       0.78167600       0.51603400       0.52441600 </v>
    <v>       0.77110700       0.83437100       0.51161900 </v>
    <v>       0.25957600       0.49429800       0.84361700 </v>
    <v>       0.26150800       0.16350200       0.16449600 </v>
    <v>       0.75690800       0.82336300       0.82950700 </v>
    <v>       0.49131000       0.68096700       0.01068800 </v>
    <v>       0.47630500       0.99838300       0.65064700 </v>
    <v>       0.29065600       0.17180500       0.85374300 </v>
    <v>       0.99810700       0.99981200       0.99831200 </v>
    <v>       0.02392300       0.00157400       0.68133200 </v>
    <v>       0.99545300       0.66622100       0.31759300 </v>
    <v>       0.49024800       0.33087800       0.64350800 </v>
    <v>       0.97597500       0.32100900       0.99864000 </v>
    <v>       0.75710800       0.51100400       0.83565100 </v>
    <v>       0.46483000       0.67277700       0.65641800 </v>
    <v>       0.00888900       0.67735600       0.01300200 </v>
    <v>       0.75653900       0.83578400       0.16147200 </v>
    <v>       0.97207800       0.99583400       0.31977000 </v>
    <v>       0.23803500       0.84505000       0.17577100 </v>
    <v>       0.77050300       0.15434200       0.50102500 </v>
    <v>       0.22220000       0.50422700       0.50007900 </v>
    <v>       0.04377900       0.67593000       0.67155800 </v>
    <v>       0.74718700       0.50656000       0.14984100 </v>
    <v>       0.22486200       0.83666900       0.48265900 </v>
    <v>       0.51426700       0.99479800       0.33660400 </v>
    <v>       0.73090800       0.16090000       0.16444600 </v>
    <v>       0.24673000       0.83165900       0.84286500 </v>
    <v>       0.53753400       0.33720400       0.01108600 </v>
    <v>       0.50277600       0.98282600       0.01136900 </v>
   </varray>
  </structure>
  <varray name="forces" >
   <v>       0.00050436       0.03450553      -0.00535943 </v>
   <v>       0.03734881       0.06454491       0.01673937 </v>
   <v>      -0.00032689      -0.02746926       0.01647170 </v>
   <v>       0.00260133       0.00019176       0.01903303 </v>
   <v>      -0.02962923      -0.02006016      -0.00571018 </v>
   <v>       0.01022209      -0.02410033       0.01198093 </v>
   <v>       0.32885636      -0.14890716      -0.07035677 </v>
   <v>      -0.01796530      -0.00785877      -0.03126254 </v>
   <v>      -0.20998603       0.10080008      -0.21254434 </v>
   <v>       0.00725735       0.00849436      -0.01567996 </v>
   <v>       0.13857066      -0.19862827       0.18520335 </v>
   <v>      -0.00939471      -0.02401410       0.01105737 </v>
   <v>      -0.00648962      -0.01129073      -0.04114273 </v>
   <v>      -0.04719855      -0.01327653      -0.05996589 </v>
   <v>       0.00377841      -0.01512158      -0.00302877 </v>
   <v>      -0.00897693       0.00131411       0.03066378 </v>
   <v>       0.02182757      -0.01300971      -0.02409930 </v>
   <v>       0.02305373       0.00988495       0.01722903 </v>
   <v>       0.00141392       0.05136359       0.03173426 </v>
   <v>      -0.01908140      -0.01440127      -0.02867977 </v>
   <v>       0.00536211      -0.00294840      -0.00989578 </v>
   <v>      -0.03916919      -0.05200720       0.03307529 </v>
   <v>       0.01429325       0.00199739      -0.01959314 </v>
   <v>      -0.41009921       0.29546876       0.40160504 </v>
   <v>       0.21038221       0.00600892      -0.07014943 </v>
   <v>       0.34094108       0.18210168       0.11933446 </v>
   <v>      -0.34677254      -0.17050546      -0.27696765 </v>
   <v>       0.03059702      -0.01441709      -0.03174577 </v>
   <v>      -0.00012391       0.00301801       0.01194728 </v>
   <v>      -0.02069481      -0.01333109       0.00683079 </v>
   <v>       0.32199429       0.21313492      -0.10433583 </v>
   <v>      -0.16433839       0.09919054      -0.19290173 </v>
   <v>      -0.17655351      -0.29895472       0.35129640 </v>
   <v>       0.01978485       0.02164398       0.01613449 </v>
   <v>       0.01271240       0.02135455      -0.00593542 </v>
   <v>      -0.02470160      -0.04471621      -0.07098213 </v>
  </varray>
  <varray name="stress" >
   <v>      -9.77316996      -0.12846232       0.40659135 </v>
   <v>      -0.12846227      -5.89044417      -0.00664608 </v>
   <v>       0.40659134      -0.00664608      -6.88194331 </v>
  </varray>
  <energy>
   <i name="e_fr_energy">   -355.81768746 </i>
   <i name="e_wo_entrp">   -355.82436169 </i>
   <i name="e_0_energy">      0.02002269 </i>
  </energy>
  <time name="totalsc">   21.96   23.97</time>
 </calculation>
 <calculation>
  <scstep>
   <time name="dav">    1.03    1.04</time>
   <time name="total">    1.11    1.29</time>
   <energy>
    <i name="alphaZ">   1463.86870058 </i>
    <i name="ewald"> -19393.37285554 </i>
    <i name="hartreedc">  -6277.45302980 </i>
    <i name="XCdc">   -247.92456631 </i>
    <i name="pawpsdc">  33768.62022226 </i>
    <i name="pawaedc"> -32177.21477884 </i>
    <i name="eentropy">      0.02038855 </i>
    <i name="bandstr">  -2612.82676514 </i>
    <i name="atom">  25120.39883093 </i>
    <i name="e_fr_energy">   -355.88385329 </i>
    <i name="e_wo_entrp">   -355.90424185 </i>
    <i name="e_0_energy">   -355.89064948 </i>
   </energy>
  </scstep>
  <scstep>
   <time name="diag">    0.08    0.08</time>
   <time name="diis">    0.72    0.72</time>
   <time name="orth">    0.01    0.01</time>
   <time name="total">    0.87    0.91</time>
   <energy>
    <i name="e_fr_energy">   -355.86202819 </i>
    <i name="e_wo_entrp">   -355.88225766 </i>
    <i name="e_0_energy">   -355.86877135 </i>
   </energy>
  </scstep>
  <scstep>
   <time name="diag">    0.08    0.08</time>
   <time name="diis">    0.84    0.85</time>
   <time name="orth">    0.01    0.01</time>
   <time name="total">    1.00    1.04</time>
   <energy>
    <i name="e_fr_energy">   -355.85683318 </i>
    <i name="e_wo_entrp">   -355.87682632 </i>
    <i name="e_0_energy">   -355.86349756 </i>
   </energy>
  </scstep>
  <scstep>
   <time name="diag">    0.08    0.08</time>
   <time name="diis">    0.77    0.77</time>
   <time name="orth">    0.01    0.01</time>
   <time name="total">    0.92    0.97</time>
   <energy>
    <i name="e_fr_energy">   -355.85160510 </i>
    <i name="e_wo_entrp">   -355.87174298 </i>
    <i name="e_0_energy">   -355.85831773 </i>
   </energy>
  </scstep>
  <scstep>
   <time name="diag">    0.08    0.08</time>
   <time name="diis">    0.76    0.77</time>
   <time name="orth">    0.01    0.01</time>
   <time name="total">    0.92    0.96</time>
   <energy>
    <i name="e_fr_energy">   -355.85142793 </i>
    <i name="e_wo_entrp">   -355.87155342 </i>
    <i name="e_0_energy">   -355.85813643 </i>
   </energy>
  </scstep>
  <scstep>
   <time name="diag">    0.08    0.08</time>
   <time name="diis">    0.80    0.81</time>
   <time name="orth">    0.01    0.01</time>
   <time name="total">    0.97    1.01</time>
   <energy>
    <i name="e_fr_energy">   -355.85160543 </i>
    <i name="e_wo_entrp">   -355.87177977 </i>
    <i name="e_0_energy">   -355.85833021 </i>
   </energy>
  </scstep>
  <scstep>
   <time name="diag">    0.08    0.08</time>
   <time name="diis">    0.73    0.73</time>
   <time name="orth">    0.01    0.01</time>
   <time name="total">    0.88    0.93</time>
   <energy>
    <i name="e_fr_energy">   -355.85169975 </i>
    <i name="e_wo_entrp">   -355.87184471 </i>
    <i name="e_0_energy">   -355.85841474 </i>
   </energy>
  </scstep>
  <scstep>
   <time name="diag">    0.08    0.08</time>
   <time name="diis">    0.77    0.78</time>
   <time name="orth">    0.01    0.01</time>
   <time name="total">    0.93    0.97</time>
   <energy>
    <i name="e_fr_energy">   -355.85176248 </i>
    <i name="e_wo_entrp">   -355.87191323 </i>
    <i name="e_0_energy">   -355.85847939 </i>
   </energy>
  </scstep>
  <scstep>
   <time name="diag">    0.11    0.12</time>
   <time name="diis">    0.64    0.64</time>
   <time name="orth">    0.01    0.01</time>
   <time name="total">    0.83    0.88</time>
   <energy>
    <i name="e_fr_energy">   -355.85181291 </i>
    <i name="e_wo_entrp">   -355.87194829 </i>
    <i name="e_0_energy">   -355.85852470 </i>
   </energy>
  </scstep>
  <scstep>
   <time name="diag">    0.17    0.17</time>
   <time name="diis">    0.57    0.58</time>
   <time name="orth">    0.01    0.01</time>
   <time name="total">    0.84    0.89</time>
   <energy>
    <i name="e_fr_energy">   -355.85185206 </i>
    <i name="e_wo_entrp">   -355.87200895 </i>
    <i name="e_0_energy">   -355.85857102 </i>
   </energy>
  </scstep>
  <scstep>
   <time name="diag">    0.08    0.08</time>
   <time name="diis">    0.48    0.48</time>
   <time name="orth">    0.01    0.01</time>
   <time name="total">    0.64    0.69</time>
   <energy>
    <i name="e_fr_energy">   -355.85187074 </i>
    <i name="e_wo_entrp">   -355.87200621 </i>
    <i name="e_0_energy">   -355.85858256 </i>
   </energy>
  </scstep>
  <scstep>
   <time name="diag">    0.08    0.09</time>
   <time name="diis">    0.41    0.42</time>
   <time name="orth">    0.01    0.01</time>
   <time name="total">    0.53    0.61</time>
   <energy>
    <i name="alphaZ">   1463.86870058 </i>
    <i name="ewald"> -19393.37285554 </i>
    <i name="hartreedc">  -6260.86094045 </i>
    <i name="XCdc">   -248.66483526 </i>
    <i name="pawpsdc">  33960.58802871 </i>
    <i name="pawaedc"> -32368.83212591 </i>
    <i name="eentropy">      0.02014791 </i>
    <i name="bandstr">  -2628.99683045 </i>
    <i name="atom">  25120.39883093 </i>
    <i name="e_fr_energy">   -355.85187949 </i>
    <i name="e_wo_entrp">   -355.87202739 </i>
    <i name="e_0_energy">   -355.85859546 </i>
   </energy>
  </scstep>
  <structure>
   <crystal>
    <varray name="basis" >
     <v>       7.07187562       0.01890236       0.06356336 </v>
     <v>       0.02847035      10.27633931      -0.00032454 </v>
     <v>       0.09295387      -0.00061807      10.29667772 </v>
    </varray>
    <i name="volume">    748.22413092 </i>
    <varray name="rec_basis" >
     <v>       0.14141772      -0.00039183      -0.00127668 </v>
     <v>      -0.00026018       0.09731164       0.00000819 </v>
     <v>      -0.00087301       0.00000549       0.09712659 </v>
    </varray>
   </crystal>
   <varray name="positions" >
    <v>       0.72032593       0.16093754       0.82981947 </v>
    <v>       0.51355363       0.33667366       0.33994704 </v>
    <v>       0.01684319       0.32324036       0.67428213 </v>
    <v>       0.25633197       0.48862726       0.15768169 </v>
    <v>       0.96982769       0.33873489       0.32588535 </v>
    <v>       0.49794680       0.66704806       0.33457969 </v>
    <v>       0.21489297       0.15943226       0.47603510 </v>
    <v>       0.78163991       0.51602301       0.52437234 </v>
    <v>       0.77068132       0.83451358       0.51132325 </v>
    <v>       0.25959106       0.49430992       0.84359490 </v>
    <v>       0.26178884       0.16322206       0.16475425 </v>
    <v>       0.75688874       0.82332925       0.82952264 </v>
    <v>       0.49129756       0.68095114       0.01063032 </v>
    <v>       0.47620975       0.99836449       0.65056340 </v>
    <v>       0.29066386       0.17178371       0.85373870 </v>
    <v>       0.99808809       0.99981389       0.99835516 </v>
    <v>       0.02396811       0.00155561       0.68129789 </v>
    <v>       0.99549973       0.66623482       0.31761690 </v>
    <v>       0.49025001       0.33095026       0.64355254 </v>
    <v>       0.97593662       0.32098881       0.99859997 </v>
    <v>       0.75711915       0.51099983       0.83563704 </v>
    <v>       0.46474967       0.67270399       0.65646492 </v>
    <v>       0.00891855       0.67735875       0.01297432 </v>
    <v>       0.75569216       0.83620127       0.16204095 </v>
    <v>       0.97250905       0.99584165       0.31966889 </v>
    <v>       0.23872830       0.84530490       0.17593428 </v>
    <v>       0.76980061       0.15410341       0.50064050 </v>
    <v>       0.22226317       0.50420660       0.50003405 </v>
    <v>       0.04377851       0.67593425       0.67157477 </v>
    <v>       0.74714467       0.50654133       0.14985085 </v>
    <v>       0.22552051       0.83696761       0.48250852 </v>
    <v>       0.51393423       0.99493814       0.33633525 </v>
    <v>       0.73054259       0.16048014       0.16494136 </v>
    <v>       0.24677000       0.83168938       0.84288741 </v>
    <v>       0.53755996       0.33723399       0.01107751 </v>
    <v>       0.50272709       0.98276318       0.01126966 </v>
   </varray>
  </structure>
  <varray name="forces" >
   <v>       0.00842228       0.03146710      -0.01383705 </v>
   <v>       0.02724727       0.07163953       0.02208065 </v>
   <v>      -0.00625335      -0.03533355       0.00495083 </v>
   <v>      -0.00486295      -0.00746304       0.01799084 </v>
   <v>      -0.01615527      -0.02719604      -0.00027413 </v>
   <v>       0.01643000      -0.03319990       0.01288083 </v>
   <v>       0.30947584      -0.12063249      -0.05685977 </v>
   <v>      -0.02481066      -0.00736180      -0.03024828 </v>
   <v>      -0.20096179       0.09211736      -0.20432073 </v>
   <v>       0.00626123       0.00201949      -0.01163892 </v>
   <v>       0.11611988      -0.16837421       0.15991621 </v>
   <v>      -0.00934505      -0.02203340      -0.00093455 </v>
   <v>      -0.00493056      -0.02287170      -0.03880781 </v>
   <v>      -0.03523171      -0.01181101      -0.03391365 </v>
   <v>      -0.00750608      -0.01190753      -0.00607175 </v>
   <v>      -0.01406845       0.00176012       0.03491940 </v>
   <v>       0.00636746      -0.00852172      -0.03196676 </v>
   <v>       0.02355816       0.01886248       0.02036433 </v>
   <v>       0.00598874       0.04953278       0.03483292 </v>
   <v>      -0.00446394      -0.01974233      -0.01795767 </v>
   <v>       0.00465555      -0.00244068      -0.01779786 </v>
   <v>      -0.01290854      -0.04976990       0.03553150 </v>
   <v>       0.00617668       0.00382381      -0.01491898 </v>
   <v>      -0.38614081       0.26648526       0.37072861 </v>
   <v>       0.21689588       0.01463073      -0.05116824 </v>
   <v>       0.32718291       0.15176609       0.10099947 </v>
   <v>      -0.32505801      -0.15238596      -0.25724704 </v>
   <v>       0.03009367      -0.02220775      -0.03712617 </v>
   <v>      -0.01956314       0.00996485       0.00841973 </v>
   <v>      -0.00761940      -0.00862496       0.01484367 </v>
   <v>       0.29828708       0.18930676      -0.09026231 </v>
   <v>      -0.17003159       0.09055834      -0.17220615 </v>
   <v>      -0.14798637      -0.27245088       0.31713480 </v>
   <v>       0.01727068       0.02683893       0.01758554 </v>
   <v>      -0.00397861       0.01508845      -0.01047622 </v>
   <v>      -0.01855704      -0.03153320      -0.07514530 </v>
  </varray>
  <varray name="stress" >
   <v>      -4.38473310      -0.10874462       0.22751265 </v>
   <v>      -0.10874459      -0.75296605       0.06360975 </v>
   <v>       0.22751267       0.06360974      -1.76760883 </v>
  </varray>
  <energy>
   <i name="e_fr_energy">   -355.85187949 </i>
   <i name="e_wo_entrp">   -355.85859546 </i>
   <i name="e_0_energy">      0.02014791 </i>
  </energy>
  <time name="totalsc">   11.98   12.82</time>
 </calculation>
 <calculation>
  <scstep>
   <time name="dav">    1.08    1.08</time>
   <time name="total">    1.16    1.33</time>
   <energy>
    <i name="alphaZ">   1477.97132572 </i>
    <i name="ewald"> -19445.58920063 </i>
    <i name="hartreedc">  -6290.52225052 </i>
    <i name="XCdc">   -245.86119773 </i>
    <i name="pawpsdc">  33960.91608854 </i>
    <i name="pawaedc"> -32369.13540785 </i>
    <i name="eentropy">      0.02077541 </i>
    <i name="bandstr">  -2564.24472882 </i>
    <i name="atom">  25120.39883093 </i>
    <i name="e_fr_energy">   -356.04576496 </i>
    <i name="e_wo_entrp">   -356.06654037 </i>
    <i name="e_0_energy">   -356.05269010 </i>
   </energy>
  </scstep>
  <scstep>
   <time name="diag">    0.08    0.08</time>
   <time name="diis">    0.72    0.72</time>
   <time name="orth">    0.01    0.01</time>
   <time name="total">    0.87    0.91</time>
   <energy>
    <i name="e_fr_energy">   -355.93354858 </i>
    <i name="e_wo_entrp">   -355.95385360 </i>
    <i name="e_0_energy">   -355.94031692 </i>
   </energy>
  </scstep>
  <scstep>
   <time name="diag">    0.08    0.08</time>
   <time name="diis">    0.76    0.79</time>
   <time name="orth">    0.04    0.04</time>
   <time name="total">    0.94    1.01</time>
   <energy>
    <i name="e_fr_energy">   -355.90710559 </i>
    <i name="e_wo_entrp">   -355.92683964 </i>
    <i name="e_0_energy">   -355.91368361 </i>
   </energy>
  </scstep>
  <scstep>
   <time name="diag">    0.08    0.08</time>
   <time name="diis">    0.77    0.77</time>
   <time name="orth">    0.01    0.01</time>
   <time name="total">    0.92    0.97</time>
   <energy>
    <i name="e_fr_energy">   -355.88086631 </i>
    <i name="e_wo_entrp">   -355.90100727 </i>
    <i name="e_0_energy">   -355.88757996 </i>
   </energy>
  </scstep>
  <scstep>
   <time name="diag">    0.08    0.08</time>
   <time name="diis">    0.85    0.85</time>
   <time name="orth">    0.01    0.01</time>
   <time name="total">    1.00    1.05</time>
   <energy>
    <i name="e_fr_energy">   -355.87999961 </i>
    <i name="e_wo_entrp">   -355.90010612 </i>
    <i name="e_0_energy">   -355.88670178 </i>
   </energy>
  </scstep>
  <scstep>
   <time name="diag">    0.10    0.11</time>
   <time name="diis">    0.88    0.89</time>
   <time name="orth">    0.01    0.01</time>
   <time name="total">    1.07    1.13</time>
   <energy>
    <i name="e_fr_energy">   -355.88074642 </i>
    <i name="e_wo_entrp">   -355.90096782 </i>
    <i name="e_0_energy">   -355.88748689 </i>
   </energy>
  </scstep>
  <scstep>
   <time name="diag">    0.08    0.08</time>
   <time name="diis">    0.86    0.86</time>
   <time name="orth">    0.01    0.01</time>
   <time name="total">    1.01    1.05</time>
   <energy>
    <i name="e_fr_energy">   -355.88114820 </i>
    <i name="e_wo_entrp">   -355.90129912 </i>
    <i name="e_0_energy">   -355.88786517 </i>
   </energy>
  </scstep>
  <scstep>
   <time name="diag">    0.08    0.08</time>
   <time name="diis">    0.86    0.86</time>
   <time name="orth">    0.01    0.01</time>
   <time name="total">    1.01    1.06</time>
   <energy>
    <i name="e_fr_energy">   -355.88141583 </i>
    <i name="e_wo_entrp">   -355.90157124 </i>
    <i name="e_0_energy">   -355.88813430 </i>
   </energy>
  </scstep>
  <scstep>
   <time name="diag">    0.08    0.09</time>
   <time name="diis">    0.75    0.75</time>
   <time name="orth">    0.01    0.01</time>
   <time name="total">    0.93    0.99</time>
   <energy>
    <i name="e_fr_energy">   -355.88163056 </i>
    <i name="e_wo_entrp">   -355.90175685 </i>
    <i name="e_0_energy">   -355.88833932 </i>
   </energy>
  </scstep>
  <scstep>
   <time name="diag">    0.08    0.08</time>
   <time name="diis">    0.74    0.74</time>
   <time name="orth">    0.01    0.01</time>
   <time name="total">    0.89    0.94</time>
   <energy>
    <i name="e_fr_energy">   -355.88178758 </i>
    <i name="e_wo_entrp">   -355.90195849 </i>
    <i name="e_0_energy">   -355.88851122 </i>
   </energy>
  </scstep>
  <scstep>
   <time name="diag">    0.08    0.08</time>
   <time name="diis">    0.63    0.64</time>
   <time name="orth">    0.01    0.01</time>
   <time name="total">    0.79    0.84</time>
   <energy>
    <i name="e_fr_energy">   -355.88186291 </i>
    <i name="e_wo_entrp">   -355.90198410 </i>
    <i name="e_0_energy">   -355.88856997 </i>
   </energy>
  </scstep>
  <scstep>
   <time name="diag">    0.11    0.11</time>
   <time name="diis">    0.58    0.58</time>
   <time name="orth">    0.01    0.01</time>
   <time name="total">    0.77    0.82</time>
   <energy>
    <i name="e_fr_energy">   -355.88189334 </i>
    <i name="e_wo_entrp">   -355.90204676 </i>
    <i name="e_0_energy">   -355.88861114 </i>
   </energy>
  </scstep>
  <scstep>
   <time name="diag">    0.08    0.08</time>
   <time name="diis">    0.47    0.47</time>
   <time name="orth">    0.01    0.01</time>
   <time name="total">    0.59    0.63</time>
   <energy>
    <i name="alphaZ">   1477.97132572 </i>
    <i name="ewald"> -19445.58920063 </i>
    <i name="hartreedc">  -6253.35707906 </i>
    <i name="XCdc">   -247.52043555 </i>
    <i name="pawpsdc">  34407.41216317 </i>
    <i name="pawaedc"> -32814.67437841 </i>
    <i name="eentropy">      0.02015432 </i>
    <i name="bandstr">  -2600.54327915 </i>
    <i name="atom">  25120.39883093 </i>
    <i name="e_fr_energy">   -355.88189866 </i>
    <i name="e_wo_entrp">   -355.90205298 </i>
    <i name="e_0_energy">   -355.88861677 </i>
   </energy>
  </scstep>
  <structure>
   <crystal>
    <varray name="basis" >
     <v>       7.04253273       0.01846868       0.06460037 </v>
     <v>       0.02779085      10.25064877      -0.00034765 </v>
     <v>       0.09434841      -0.00065064      10.26661560 </v>
    </varray>
    <i name="volume">    741.08466600 </i>
    <varray name="rec_basis" >
     <v>       0.14200735      -0.00038504      -0.00130505 </v>
     <v>      -0.00025591       0.09755550       0.00000853 </v>
     <v>      -0.00089356       0.00000573       0.09741129 </v>
    </varray>
   </crystal>
   <varray name="positions" >
    <v>       0.72032803       0.16104680       0.82980253 </v>
    <v>       0.51372397       0.33687773       0.33999889 </v>
    <v>       0.01684135       0.32315339       0.67433419 </v>
    <v>       0.25634314       0.48862785       0.15774177 </v>
    <v>       0.96969184       0.33867162       0.32586814 </v>
    <v>       0.49799365       0.66697166       0.33461726 </v>
    <v>       0.21641108       0.15895795       0.47580338 </v>
    <v>       0.78155864       0.51599827       0.52427404 </v>
    <v>       0.76972258       0.83483448       0.51065750 </v>
    <v>       0.25962500       0.49433675       0.84354514 </v>
    <v>       0.26242133       0.16259199       0.16533561 </v>
    <v>       0.75684536       0.82325330       0.82955785 </v>
    <v>       0.49126955       0.68091543       0.01050047 </v>
    <v>       0.47599522       0.99832284       0.65037522 </v>
    <v>       0.29068157       0.17173580       0.85372902 </v>
    <v>       0.99804549       0.99981813       0.99845233 </v>
    <v>       0.02406972       0.00151423       0.68122111 </v>
    <v>       0.99560497       0.66626593       0.31767070 </v>
    <v>       0.49025455       0.33111290       0.64365280 </v>
    <v>       0.97585019       0.32094336       0.99850987 </v>
    <v>       0.75714428       0.51099045       0.83560561 </v>
    <v>       0.46456872       0.67253965       0.65657056 </v>
    <v>       0.00898511       0.67736495       0.01291199 </v>
    <v>       0.75378457       0.83714044       0.16332191 </v>
    <v>       0.97347999       0.99585887       0.31944121 </v>
    <v>       0.24028992       0.84587867       0.17630178 </v>
    <v>       0.76821855       0.15356638       0.49977497 </v>
    <v>       0.22240547       0.50416068       0.49993285 </v>
    <v>       0.04377741       0.67594381       0.67161254 </v>
    <v>       0.74704933       0.50649929       0.14987302 </v>
    <v>       0.22700383       0.83763974       0.48216966 </v>
    <v>       0.51318475       0.99525357       0.33573028 </v>
    <v>       0.72971937       0.15953509       0.16605658 </v>
    <v>       0.24686010       0.83175775       0.84293784 </v>
    <v>       0.53761843       0.33730150       0.01105839 </v>
    <v>       0.50261694       0.98262178       0.01104601 </v>
   </varray>
  </structure>
  <varray name="forces" >
   <v>       0.02674372       0.02398192      -0.03239553 </v>
   <v>       0.00336469       0.08969504       0.03345528 </v>
   <v>      -0.01997068      -0.05305689      -0.02168170 </v>
   <v>      -0.02193730      -0.02519624       0.01479769 </v>
   <v>       0.01430805      -0.04324823       0.01044481 </v>
   <v>       0.02985759      -0.05568101       0.01494827 </v>
   <v>       0.26664207      -0.05518254      -0.02367773 </v>
   <v>      -0.03992891      -0.00568527      -0.02700797 </v>
   <v>      -0.17883667       0.07143506      -0.18425828 </v>
   <v>       0.00412744      -0.01269981      -0.00117392 </v>
   <v>       0.06232648      -0.09592553       0.09900621 </v>
   <v>      -0.00923494      -0.01778062      -0.02772973 </v>
   <v>      -0.00204642      -0.04819780      -0.03385019 </v>
   <v>      -0.00789418      -0.00747839       0.03056233 </v>
   <v>      -0.03336862      -0.00536327      -0.01328411 </v>
   <v>      -0.02621569       0.00248440       0.04348670 </v>
   <v>      -0.02865666      -0.00024148      -0.04869152 </v>
   <v>       0.02454776       0.03938800       0.02694828 </v>
   <v>       0.01678981       0.04510155       0.04139494 </v>
   <v>       0.02965419      -0.03240057       0.00645338 </v>
   <v>       0.00285296      -0.00048640      -0.03486906 </v>
   <v>       0.04628506      -0.04342800       0.04183740 </v>
   <v>      -0.01155730       0.00732383      -0.00534970 </v>
   <v>      -0.32846786       0.19547529       0.29691084 </v>
   <v>       0.23051580       0.03423351      -0.00507868 </v>
   <v>       0.29247311       0.07873148       0.05643790 </v>
   <v>      -0.27693430      -0.10971773      -0.21167274 </v>
   <v>       0.02952812      -0.03961288      -0.04989795 </v>
   <v>      -0.06383444       0.02565553       0.00081178 </v>
   <v>       0.02241925       0.00323697       0.03293707 </v>
   <v>       0.24272913       0.13345406      -0.05708151 </v>
   <v>      -0.18148776       0.07002966      -0.12046548 </v>
   <v>      -0.08018212      -0.20822959       0.23508381 </v>
   <v>       0.01123405       0.03898550       0.02053489 </v>
   <v>      -0.04123922       0.00128311      -0.02046487 </v>
   <v>      -0.00460623      -0.00088265      -0.08742091 </v>
  </varray>
  <varray name="stress" >
   <v>       8.33524470      -0.05896415      -0.18133402 </v>
   <v>      -0.05896414      11.38290757       0.20735817 </v>
   <v>      -0.18133401       0.20735819      10.33138177 </v>
  </varray>
  <energy>
   <i name="e_fr_energy">   -355.88189866 </i>
   <i name="e_wo_entrp">   -355.88861677 </i>
   <i name="e_0_energy">      0.02015432 </i>
  </energy>
  <time name="totalsc">   13.48   14.40</time>
 </calculation>
 <calculation>
  <scstep>
   <time name="dav">    0.95    0.96</time>
   <time name="total">    1.02    1.21</time>
   <energy>
    <i name="alphaZ">   1476.71749274 </i>
    <i name="ewald"> -19434.60437543 </i>
    <i name="hartreedc">  -6256.93516313 </i>
    <i name="XCdc">   -247.75174531 </i>
    <i name="pawpsdc">  34407.93665987 </i>
    <i name="pawaedc"> -32815.17782310 </i>
    <i name="eentropy">      0.02052609 </i>
    <i name="bandstr">  -2606.51094229 </i>
    <i name="atom">  25120.39883093 </i>
    <i name="e_fr_energy">   -355.90653963 </i>
    <i name="e_wo_entrp">   -355.92706571 </i>
    <i name="e_0_energy">   -355.91338166 </i>
   </energy>
  </scstep>
  <scstep>
   <time name="diag">    0.14    0.15</time>
   <time name="diis">    0.81    0.83</time>
   <time name="orth">    0.01    0.01</time>
   <time name="total">    1.04    1.10</time>
   <energy>
    <i name="e_fr_energy">   -355.91110125 </i>
    <i name="e_wo_entrp">   -355.93214327 </i>
    <i name="e_0_energy">   -355.91811525 </i>
   </energy>
  </scstep>
  <scstep>
   <time name="diag">    0.09    0.09</time>
   <time name="diis">    0.75    0.75</time>
   <time name="orth">    0.01    0.01</time>
   <time name="total">    0.91    0.96</time>
   <energy>
    <i name="e_fr_energy">   -355.90885574 </i>
    <i name="e_wo_entrp">   -355.92985746 </i>
    <i name="e_0_energy">   -355.91585631 </i>
   </energy>
  </scstep>
  <scstep>
   <time name="diag">    0.08    0.08</time>
   <time name="diis">    0.76    0.76</time>
   <time name="orth">    0.01    0.01</time>
   <time name="total">    0.91    0.96</time>
   <energy>
    <i name="e_fr_energy">   -355.90843052 </i>
    <i name="e_wo_entrp">   -355.92920899 </i>
    <i name="e_0_energy">   -355.91535668 </i>
   </energy>
  </scstep>
  <scstep>
   <time name="diag">    0.08    0.08</time>
   <time name="diis">    0.76    0.76</time>
   <time name="orth">    0.01    0.01</time>
   <time name="total">    0.91    0.96</time>
   <energy>
    <i name="e_fr_energy">   -355.90830848 </i>
    <i name="e_wo_entrp">   -355.92926344 </i>
    <i name="e_0_energy">   -355.91529347 </i>
   </energy>
  </scstep>
  <scstep>
   <time name="diag">    0.08    0.08</time>
   <time name="diis">    0.83    0.84</time>
   <time name="orth">    0.01    0.01</time>
   <time name="total">    0.99    1.03</time>
   <energy>
    <i name="e_fr_energy">   -355.90829703 </i>
    <i name="e_wo_entrp">   -355.92918601 </i>
    <i name="e_0_energy">   -355.91526003 </i>
   </energy>
  </scstep>
  <scstep>
   <time name="diag">    0.08    0.08</time>
   <time name="diis">    0.58    0.59</time>
   <time name="orth">    0.01    0.01</time>
   <time name="total">    0.74    0.78</time>
   <energy>
    <i name="e_fr_energy">   -355.90829479 </i>
    <i name="e_wo_entrp">   -355.92919408 </i>
    <i name="e_0_energy">   -355.91526122 </i>
   </energy>
  </scstep>
  <scstep>
   <time name="diag">    0.08    0.08</time>
   <time name="diis">    0.52    0.53</time>
   <time name="orth">    0.01    0.01</time>
   <time name="total">    0.64    0.69</time>
   <energy>
    <i name="alphaZ">   1476.71749274 </i>
    <i name="ewald"> -19434.60437543 </i>
    <i name="hartreedc">  -6260.89444054 </i>
    <i name="XCdc">   -247.58543459 </i>
    <i name="pawpsdc">  34368.18595141 </i>
    <i name="pawaedc"> -32775.27188641 </i>
    <i name="eentropy">      0.02089217 </i>
    <i name="bandstr">  -2602.87532394 </i>
    <i name="atom">  25120.39883093 </i>
    <i name="e_fr_energy">   -355.90829366 </i>
    <i name="e_wo_entrp">   -355.92918583 </i>
    <i name="e_0_energy">   -355.91525771 </i>
   </energy>
  </scstep>
  <structure>
   <crystal>
    <varray name="basis" >
     <v>       7.04072512       0.01830128       0.06485808 </v>
     <v>       0.02751893      10.25774556      -0.00007323 </v>
     <v>       0.09466020      -0.00037944      10.27086468 </v>
    </varray>
    <i name="volume">    741.71389698 </i>
    <varray name="rec_basis" >
     <v>       0.14204388      -0.00038108      -0.00130914 </v>
     <v>      -0.00025346       0.09748799       0.00000594 </v>
     <v>      -0.00089698       0.00000310       0.09737105 </v>
    </varray>
   </crystal>
   <varray name="positions" >
    <v>       0.72036846       0.16110713       0.82976395 </v>
    <v>       0.51378458       0.33703598       0.34004982 </v>
    <v>       0.01681183       0.32307099       0.67432970 </v>
    <v>       0.25631444       0.48860262       0.15777680 </v>
    <v>       0.96966791       0.33860690       0.32587287 </v>
    <v>       0.49805316       0.66688998       0.33464451 </v>
    <v>       0.21730741       0.15874449       0.47570021 </v>
    <v>       0.78147331       0.51598443       0.52421460 </v>
    <v>       0.76914375       0.83501337       0.51025270 </v>
    <v>       0.25964240       0.49433277       0.84352744 </v>
    <v>       0.26272172       0.16228632       0.16562745 </v>
    <v>       0.75681782       0.82321020       0.82954158 </v>
    <v>       0.49125791       0.68085486       0.01042332 </v>
    <v>       0.47591212       0.99830151       0.65034388 </v>
    <v>       0.29063850       0.17171461       0.85371270 </v>
    <v>       0.99799216       0.99982212       0.99852866 </v>
    <v>       0.02406186       0.00150036       0.68114677 </v>
    <v>       0.99567547       0.66631601       0.31771550 </v>
    <v>       0.49028003       0.33121229       0.64372765 </v>
    <v>       0.97586526       0.32089547       0.99848629 </v>
    <v>       0.75715728       0.51098684       0.83555996 </v>
    <v>       0.46457649       0.67244122       0.65664736 </v>
    <v>       0.00899020       0.67737444       0.01288606 </v>
    <v>       0.75266378       0.83764982       0.16404898 </v>
    <v>       0.97414119       0.99589860       0.31935854 </v>
    <v>       0.24123707       0.84614741       0.17647767 </v>
    <v>       0.76728977       0.15327838       0.49927728 </v>
    <v>       0.22249695       0.50410533       0.49984866 </v>
    <v>       0.04368293       0.67597309       0.67162645 </v>
    <v>       0.74705028       0.50648860       0.14991343 </v>
    <v>       0.22785317       0.83799651       0.48199753 </v>
    <v>       0.51267051       0.99542924       0.33541006 </v>
    <v>       0.72932599       0.15901198       0.16666396 </v>
    <v>       0.24690607       0.83181978       0.84297517 </v>
    <v>       0.53757736       0.33732525       0.01103177 </v>
    <v>       0.50257485       0.98257410       0.01088373 </v>
   </varray>
  </structure>
  <varray name="forces" >
   <v>       0.02390239       0.02307359      -0.03086708 </v>
   <v>       0.00185017       0.09304352       0.03272948 </v>
   <v>      -0.02122872      -0.06134999      -0.04202133 </v>
   <v>      -0.02977481      -0.03259209       0.00421279 </v>
   <v>       0.01670450      -0.04829534       0.01709290 </v>
   <v>       0.02909308      -0.06063751       0.01238500 </v>
   <v>       0.22891283      -0.03246286      -0.00952134 </v>
   <v>      -0.02622458       0.00130931      -0.01742639 </v>
   <v>      -0.15328319       0.06777269      -0.17321138 </v>
   <v>       0.00035003      -0.01376240       0.00269583 </v>
   <v>       0.04371290      -0.06534819       0.06347517 </v>
   <v>       0.00178684      -0.02127371      -0.03354962 </v>
   <v>      -0.00022002      -0.04540990      -0.02248103 </v>
   <v>      -0.00311652      -0.00772840       0.05414977 </v>
   <v>      -0.03313733      -0.00263601      -0.00890824 </v>
   <v>      -0.03113144      -0.00769887       0.05523333 </v>
   <v>      -0.03614856      -0.00279225      -0.05854638 </v>
   <v>       0.02800576       0.05624292       0.01650139 </v>
   <v>       0.01546465       0.04087776       0.03576961 </v>
   <v>       0.02104647      -0.03897497       0.02387610 </v>
   <v>       0.00751293       0.00041948      -0.02978457 </v>
   <v>       0.04246567      -0.03560145       0.03729669 </v>
   <v>      -0.02161241       0.02275642       0.01705972 </v>
   <v>      -0.28130939       0.16678926       0.24698715 </v>
   <v>       0.22097805       0.03140144       0.01156818 </v>
   <v>       0.25897850       0.04944472       0.03663139 </v>
   <v>      -0.23428047      -0.10011992      -0.19234724 </v>
   <v>       0.01090675      -0.03219797      -0.03736304 </v>
   <v>      -0.05160696       0.03997280      -0.01711413 </v>
   <v>       0.03425137       0.00423743       0.01938733 </v>
   <v>       0.20060259       0.10337439      -0.04227531 </v>
   <v>      -0.17298644       0.05554261      -0.09357286 </v>
   <v>      -0.05517045      -0.17733995       0.18557757 </v>
   <v>      -0.00368725       0.03188209       0.02188948 </v>
   <v>      -0.03204511      -0.00411474      -0.00990262 </v>
   <v>       0.00043818       0.00219606      -0.07562632 </v>
  </varray>
  <varray name="stress" >
   <v>       7.48626942      -0.01638837      -0.30609512 </v>
   <v>      -0.01638839      10.10567059       0.23190462 </v>
   <v>      -0.30609513       0.23190461       9.13403740 </v>
  </varray>
  <energy>
   <i name="e_fr_energy">   -355.90829366 </i>
   <i name="e_wo_entrp">   -355.91525771 </i>
   <i name="e_0_energy">      0.02089217 </i>
  </energy>
  <time name="totalsc">    8.74    9.39</time>
 </calculation>
 <calculation>
  <scstep>
   <time name="dav">    0.99    0.99</time>
   <time name="total">    1.06    1.28</time>
   <energy>
    <i name="alphaZ">   1472.96873607 </i>
    <i name="ewald"> -19400.68109252 </i>
    <i name="hartreedc">  -6272.50283613 </i>
    <i name="XCdc">   -248.27342799 </i>
    <i name="pawpsdc">  34368.63574326 </i>
    <i name="pawaedc"> -32775.74396769 </i>
    <i name="eentropy">      0.02151004 </i>
    <i name="bandstr">  -2620.76862764 </i>
    <i name="atom">  25120.39883093 </i>
    <i name="e_fr_energy">   -355.94513167 </i>
    <i name="e_wo_entrp">   -355.96664170 </i>
    <i name="e_0_energy">   -355.95230168 </i>
   </energy>
  </scstep>
  <scstep>
   <time name="diag">    0.08    0.08</time>
   <time name="diis">    0.84    0.84</time>
   <time name="orth">    0.01    0.01</time>
   <time name="total">    0.99    1.03</time>
   <energy>
    <i name="e_fr_energy">   -355.98388668 </i>
    <i name="e_wo_entrp">   -356.00720080 </i>
    <i name="e_0_energy">   -355.99165805 </i>
   </energy>
  </scstep>
  <scstep>
   <time name="diag">    0.08    0.08</time>
   <time name="diis">    0.84    0.84</time>
   <time name="orth">    0.01    0.01</time>
   <time name="total">    1.00    1.04</time>
   <energy>
    <i name="e_fr_energy">   -355.96789839 </i>
    <i name="e_wo_entrp">   -355.99090357 </i>
    <i name="e_0_energy">   -355.97556679 </i>
   </energy>
  </scstep>
  <scstep>
   <time name="diag">    0.08    0.08</time>
   <time name="diis">    0.83    0.85</time>
   <time name="orth">    0.01    0.01</time>
   <time name="total">    0.99    1.04</time>
   <energy>
    <i name="e_fr_energy">   -355.96378784 </i>
    <i name="e_wo_entrp">   -355.98623693 </i>
    <i name="e_0_energy">   -355.97127087 </i>
   </energy>
  </scstep>
  <scstep>
   <time name="diag">    0.08    0.08</time>
   <time name="diis">    0.75    0.75</time>
   <time name="orth">    0.01    0.01</time>
   <time name="total">    0.90    0.95</time>
   <energy>
    <i name="e_fr_energy">   -355.96280222 </i>
    <i name="e_wo_entrp">   -355.98574043 </i>
    <i name="e_0_energy">   -355.97044829 </i>
   </energy>
  </scstep>
  <scstep>
   <time name="diag">    0.08    0.08</time>
   <time name="diis">    0.81    0.82</time>
   <time name="orth">    0.01    0.01</time>
   <time name="total">    0.99    1.04</time>
   <energy>
    <i name="e_fr_energy">   -355.96272766 </i>
    <i name="e_wo_entrp">   -355.98546629 </i>
    <i name="e_0_energy">   -355.97030721 </i>
   </energy>
  </scstep>
  <scstep>
   <time name="diag">    0.09    0.09</time>
   <time name="diis">    0.82    0.82</time>
   <time name="orth">    0.01    0.01</time>
   <time name="total">    0.99    1.03</time>
   <energy>
    <i name="e_fr_energy">   -355.96276673 </i>
    <i name="e_wo_entrp">   -355.98553479 </i>
    <i name="e_0_energy">   -355.97035608 </i>
   </energy>
  </scstep>
  <scstep>
   <time name="diag">    0.08    0.08</time>
   <time name="diis">    0.72    0.73</time>
   <time name="orth">    0.01    0.01</time>
   <time name="total">    0.88    0.93</time>
   <energy>
    <i name="e_fr_energy">   -355.96277904 </i>
    <i name="e_wo_entrp">   -355.98552277 </i>
    <i name="e_0_energy">   -355.97036028 </i>
   </energy>
  </scstep>
  <scstep>
   <time name="diag">    0.09    0.09</time>
   <time name="diis">    0.66    0.66</time>
   <time name="orth">    0.01    0.01</time>
   <time name="total">    0.83    0.87</time>
   <energy>
    <i name="e_fr_energy">   -355.96279124 </i>
    <i name="e_wo_entrp">   -355.98555316 </i>
    <i name="e_0_energy">   -355.97037855 </i>
   </energy>
  </scstep>
  <scstep>
   <time name="diag">    0.08    0.08</time>
   <time name="diis">    0.60    0.60</time>
   <time name="orth">    0.01    0.01</time>
   <time name="total">    0.75    0.81</time>
   <energy>
    <i name="e_fr_energy">   -355.96279702 </i>
    <i name="e_wo_entrp">   -355.98555520 </i>
    <i name="e_0_energy">   -355.97038308 </i>
   </energy>
  </scstep>
  <scstep>
   <time name="diag">    0.08    0.08</time>
   <time name="diis">    0.49    0.50</time>
   <time name="orth">    0.01    0.01</time>
   <time name="total">    0.62    0.67</time>
   <energy>
    <i name="alphaZ">   1472.96873607 </i>
    <i name="ewald"> -19400.68109252 </i>
    <i name="hartreedc">  -6283.92225559 </i>
    <i name="XCdc">   -247.79621325 </i>
    <i name="pawpsdc">  34250.12163309 </i>
    <i name="pawaedc"> -32657.33334153 </i>
    <i name="eentropy">      0.02276637 </i>
    <i name="bandstr">  -2609.74186058 </i>
    <i name="atom">  25120.39883093 </i>
    <i name="e_fr_energy">   -355.96279702 </i>
    <i name="e_wo_entrp">   -355.98556339 </i>
    <i name="e_0_energy">   -355.97038581 </i>
   </energy>
  </scstep>
  <structure>
   <crystal>
    <varray name="basis" >
     <v>       7.03530230       0.01779910       0.06563119 </v>
     <v>       0.02670316      10.27903591       0.00075005 </v>
     <v>       0.09559559       0.00043415      10.28361190 </v>
    </varray>
    <i name="volume">    743.60158465 </i>
    <varray name="rec_basis" >
     <v>       0.14215356      -0.00036919      -0.00132143 </v>
     <v>      -0.00024611       0.09728603      -0.00000182 </v>
     <v>      -0.00090722      -0.00000474       0.09725053 </v>
    </varray>
   </crystal>
   <varray name="positions" >
    <v>       0.72048978       0.16128802       0.82964825 </v>
    <v>       0.51396645       0.33751041       0.34020251 </v>
    <v>       0.01672325       0.32282396       0.67431626 </v>
    <v>       0.25622830       0.48852697       0.15788187 </v>
    <v>       0.96959611       0.33841286       0.32588704 </v>
    <v>       0.49823171       0.66664510       0.33472624 </v>
    <v>       0.21999709       0.15810461       0.47539080 </v>
    <v>       0.78121723       0.51594296       0.52403634 </v>
    <v>       0.76740688       0.83554968       0.50903884 </v>
    <v>       0.25969461       0.49432084       0.84347437 </v>
    <v>       0.26362304       0.16136994       0.16650260 </v>
    <v>       0.75673519       0.82308099       0.82949280 </v>
    <v>       0.49122299       0.68067328       0.01019195 </v>
    <v>       0.47566277       0.99823757       0.65024991 </v>
    <v>       0.29050926       0.17165107       0.85366378 </v>
    <v>       0.99783213       0.99983408       0.99875758 </v>
    <v>       0.02403829       0.00145880       0.68092384 </v>
    <v>       0.99588704       0.66646613       0.31784983 </v>
    <v>       0.49035650       0.33151028       0.64395210 </v>
    <v>       0.97591048       0.32075189       0.99841558 </v>
    <v>       0.75719631       0.51097603       0.83542306 </v>
    <v>       0.46459981       0.67214613       0.65687768 </v>
    <v>       0.00900548       0.67740290       0.01280829 </v>
    <v>       0.74930053       0.83917678       0.16622934 </v>
    <v>       0.97612530       0.99601775       0.31911057 </v>
    <v>       0.24407928       0.84695311       0.17700501 </v>
    <v>       0.76450273       0.15241501       0.49778492 </v>
    <v>       0.22277148       0.50393942       0.49959621 </v>
    <v>       0.04339941       0.67606089       0.67166818 </v>
    <v>       0.74705313       0.50645654       0.15003460 </v>
    <v>       0.23040189       0.83906612       0.48148125 </v>
    <v>       0.51112745       0.99595589       0.33444981 </v>
    <v>       0.72814542       0.15744364       0.16848544 </v>
    <v>       0.24704401       0.83200575       0.84308711 </v>
    <v>       0.53745412       0.33739643       0.01095195 </v>
    <v>       0.50244856       0.98243117       0.01039707 </v>
   </varray>
  </structure>
  <varray name="forces" >
   <v>       0.01813747       0.02029199      -0.02434707 </v>
   <v>      -0.00248595       0.10358095       0.03029086 </v>
   <v>      -0.02455622      -0.08164898      -0.09561994 </v>
   <v>      -0.05483002      -0.05122472      -0.02829639 </v>
   <v>       0.02371995      -0.06322941       0.03436093 </v>
   <v>       0.02454750      -0.07309750       0.00533229 </v>
   <v>       0.12839596       0.03229894       0.03477650 </v>
   <v>       0.01502624       0.02122998       0.01242792 </v>
   <v>      -0.07893534       0.05786705      -0.14069414 </v>
   <v>      -0.01250609      -0.01457104       0.01424725 </v>
   <v>      -0.01804847       0.02825533      -0.04698828 </v>
   <v>       0.03572027      -0.03225780      -0.04779416 </v>
   <v>       0.00588652      -0.03951508       0.01232292 </v>
   <v>       0.01011510      -0.00657463       0.12787767 </v>
   <v>      -0.03645251       0.00851715       0.00184367 </v>
   <v>      -0.04384550      -0.03546229       0.09127917 </v>
   <v>      -0.05701465      -0.01005337      -0.08911096 </v>
   <v>       0.03839941       0.10503820      -0.01318554 </v>
   <v>       0.01201086       0.02851432       0.01917751 </v>
   <v>      -0.00066806      -0.05384147       0.07219999 </v>
   <v>       0.02319332       0.00379615      -0.01354182 </v>
   <v>       0.03044060      -0.01373167       0.02362599 </v>
   <v>      -0.04813130       0.05855036       0.07407917 </v>
   <v>      -0.14010997       0.07652972       0.09727623 </v>
   <v>       0.18784355       0.02345989       0.06241255 </v>
   <v>       0.15695223      -0.04094921      -0.02559126 </v>
   <v>      -0.11985782      -0.06749814      -0.13616995 </v>
   <v>      -0.04268776      -0.01015871       0.00124778 </v>
   <v>      -0.01718264       0.07465352      -0.06702303 </v>
   <v>       0.07142154       0.00832364      -0.02258704 </v>
   <v>       0.07948591       0.01493801       0.00182539 </v>
   <v>      -0.14723427       0.01326607      -0.00987067 </v>
   <v>       0.02460600      -0.08947908       0.04249485 </v>
   <v>      -0.04902323       0.01041530       0.02617863 </v>
   <v>      -0.00566366      -0.01630649       0.01843554 </v>
   <v>       0.01333104       0.01007302      -0.04289256 </v>
  </varray>
  <varray name="stress" >
   <v>       4.49924978       0.10173192      -0.71273130 </v>
   <v>       0.10173188       5.88090845       0.31469706 </v>
   <v>      -0.71273132       0.31469707       5.18266619 </v>
  </varray>
  <energy>
   <i name="e_fr_energy">   -355.96279702 </i>
   <i name="e_wo_entrp">   -355.97038581 </i>
   <i name="e_0_energy">      0.02276637 </i>
  </energy>
  <time name="totalsc">   11.70   12.59</time>
 </calculation>
 <calculation>
  <scstep>
   <time name="dav">    0.86    0.87</time>
   <time name="total">    0.94    1.18</time>
   <energy>
    <i name="alphaZ">   1465.52813820 </i>
    <i name="ewald"> -19328.44920020 </i>
    <i name="hartreedc">  -6311.13077074 </i>
    <i name="XCdc">   -249.14061239 </i>
    <i name="pawpsdc">  34249.47216767 </i>
    <i name="pawaedc"> -32656.71333370 </i>
    <i name="eentropy">      0.02092926 </i>
    <i name="bandstr">  -2645.86462867 </i>
    <i name="atom">  25120.39883093 </i>
    <i name="e_fr_energy">   -355.87847963 </i>
    <i name="e_wo_entrp">   -355.89940889 </i>
    <i name="e_0_energy">   -355.88545605 </i>
   </energy>
  </scstep>
  <scstep>
   <time name="diag">    0.08    0.08</time>
   <time name="diis">    0.78    0.79</time>
   <time name="orth">    0.01    0.01</time>
   <time name="total">    0.95    0.99</time>
   <energy>
    <i name="e_fr_energy">   -356.02028174 </i>
    <i name="e_wo_entrp">   -356.04479906 </i>
    <i name="e_0_energy">   -356.02845418 </i>
   </energy>
  </scstep>
  <scstep>
   <time name="diag">    0.09    0.09</time>
   <time name="diis">    0.81    0.82</time>
   <time name="orth">    0.01    0.01</time>
   <time name="total">    1.01    1.07</time>
   <energy>
    <i name="e_fr_energy">   -355.98350979 </i>
    <i name="e_wo_entrp">   -356.00705933 </i>
    <i name="e_0_energy">   -355.99135963 </i>
   </energy>
  </scstep>
  <scstep>
   <time name="diag">    0.07    0.08</time>
   <time name="diis">    0.82    0.83</time>
   <time name="orth">    0.01    0.01</time>
   <time name="total">    1.01    1.07</time>
   <energy>
    <i name="e_fr_energy">   -355.96647870 </i>
    <i name="e_wo_entrp">   -355.98957682 </i>
    <i name="e_0_energy">   -355.97417807 </i>
   </energy>
  </scstep>
  <scstep>
   <time name="diag">    0.08    0.08</time>
   <time name="diis">    0.78    0.78</time>
   <time name="orth">    0.01    0.01</time>
   <time name="total">    0.95    1.00</time>
   <energy>
    <i name="e_fr_energy">   -355.96283105 </i>
    <i name="e_wo_entrp">   -355.98658460 </i>
    <i name="e_0_energy">   -355.97074890 </i>
   </energy>
  </scstep>
  <scstep>
   <time name="diag">    0.09    0.09</time>
   <time name="diis">    0.82    0.83</time>
   <time name="orth">    0.01    0.01</time>
   <time name="total">    0.99    1.03</time>
   <energy>
    <i name="e_fr_energy">   -355.96232302 </i>
    <i name="e_wo_entrp">   -355.98575350 </i>
    <i name="e_0_energy">   -355.97013318 </i>
   </energy>
  </scstep>
  <scstep>
   <time name="diag">    0.08    0.08</time>
   <time name="diis">    0.87    0.87</time>
   <time name="orth">    0.01    0.01</time>
   <time name="total">    1.02    1.07</time>
   <energy>
    <i name="e_fr_energy">   -355.96250759 </i>
    <i name="e_wo_entrp">   -355.98600103 </i>
    <i name="e_0_energy">   -355.97033873 </i>
   </energy>
  </scstep>
  <scstep>
[...]
       <r>    6.6716    1.0000 </r>
       <r>    6.7018    1.0000 </r>
       <r>    6.7689    1.0000 </r>
       <r>    6.7857    1.0000 </r>
       <r>    6.8187    1.0000 </r>
       <r>    6.8505    1.0000 </r>
       <r>    6.8753    1.0000 </r>
       <r>    6.9269    1.0000 </r>
       <r>    6.9411    1.0001 </r>
       <r>    6.9870    1.0003 </r>
       <r>    7.0183    1.0008 </r>
       <r>    7.0703    1.0036 </r>
       <r>    7.1169    1.0104 </r>
       <r>    7.1367    1.0150 </r>
       <r>    7.1589    1.0214 </r>
       <r>    7.1838    1.0289 </r>
       <r>    7.2179    1.0354 </r>
       <r>    7.2643    1.0169 </r>
       <r>    7.2824    0.9935 </r>
       <r>    7.3358    0.8461 </r>
       <r>    7.3698    0.6896 </r>
       <r>    7.4363    0.3246 </r>
       <r>    7.4640    0.1916 </r>
       <r>    7.4697    0.1676 </r>
       <r>    7.5353   -0.0063 </r>
       <r>    7.5600   -0.0286 </r>
       <r>    7.6002   -0.0346 </r>
       <r>    7.6531   -0.0204 </r>
       <r>    7.6653   -0.0169 </r>
       <r>    7.7098   -0.0071 </r>
       <r>    7.7466   -0.0029 </r>
       <r>    7.7838   -0.0010 </r>
       <r>    7.8281   -0.0002 </r>
       <r>    7.8960   -0.0000 </r>
       <r>    7.9035   -0.0000 </r>
       <r>    7.9431   -0.0000 </r>
       <r>    7.9750   -0.0000 </r>
       <r>    8.0544   -0.0000 </r>
       <r>    8.0888   -0.0000 </r>
       <r>    8.1471   -0.0000 </r>
       <r>    8.2194   -0.0000 </r>
       <r>    8.2623   -0.0000 </r>
       <r>    8.3034   -0.0000 </r>
       <r>    8.3646   -0.0000 </r>
       <r>    8.4164   -0.0000 </r>
       <r>    8.5481   -0.0000 </r>
       <r>    8.7063   -0.0000 </r>
       <r>    8.8389   -0.0000 </r>
       <r>    9.1495   -0.0000 </r>
      </set>
     </set>
    </set>
   </array>
  </eigenvalues>
  <separator name="orbital magnetization" >
   <v name="MAGDIPOLOUT">      0.00000000      0.00000000      0.00000000</v>
  </separator>
  <dos>
   <i name="efermi">      7.40443276 </i>
   <total>
    <array>
     <dimension dim="1">gridpoints</dimension>
     <dimension dim="2">spin</dimension>
     <field>energy</field>
     <field>total</field>
     <field>integrated</field>
     <set>
      <set comment="spin 1">
       <r>   -49.7237     0.0000     0.0000 </r>
       <r>   -49.5180     0.0000     0.0000 </r>
       <r>   -49.3123     0.0000     0.0000 </r>
       <r>   -49.1066     0.0000     0.0000 </r>
       <r>   -48.9009     0.0000     0.0000 </r>
       <r>   -48.6953     0.0000     0.0000 </r>
       <r>   -48.4896     0.0000     0.0000 </r>
       <r>   -48.2839    -0.0000    -0.0000 </r>
       <r>   -48.0782    -0.0000    -0.0000 </r>
       <r>   -47.8725    -0.0000    -0.0000 </r>
       <r>   -47.6668    -0.0000    -0.0000 </r>
       <r>   -47.4611    -0.0000    -0.0000 </r>
       <r>   -47.2554    -0.0334    -0.0069 </r>
       <r>   -47.0497    -0.2961    -0.0678 </r>
       <r>   -46.8440    10.9859     2.1919 </r>
       <r>   -46.6383    30.7456     8.5161 </r>
       <r>   -46.4326     7.7737    10.1150 </r>
       <r>   -46.2270    -0.5537    10.0012 </r>
       <r>   -46.0213    -0.0056    10.0000 </r>
       <r>   -45.8156    -0.0000    10.0000 </r>
       <r>   -45.6099    -0.0000    10.0000 </r>
       <r>   -45.4042     0.0000    10.0000 </r>
       <r>   -45.1985     0.0000    10.0000 </r>
       <r>   -44.9928     0.0000    10.0000 </r>
       <r>   -44.7871     0.0000    10.0000 </r>
       <r>   -44.5814     0.0000    10.0000 </r>
       <r>   -44.3757     0.0000    10.0000 </r>
       <r>   -44.1700     0.0000    10.0000 </r>
       <r>   -43.9643     0.0000    10.0000 </r>
       <r>   -43.7587     0.0000    10.0000 </r>
       <r>   -43.5530     0.0000    10.0000 </r>
       <r>   -43.3473     0.0000    10.0000 </r>
       <r>   -43.1416     0.0000    10.0000 </r>
       <r>   -42.9359     0.0000    10.0000 </r>
       <r>   -42.7302     0.0000    10.0000 </r>
       <r>   -42.5245     0.0000    10.0000 </r>
       <r>   -42.3188    -0.0000    10.0000 </r>
       <r>   -42.1131    -0.0000    10.0000 </r>
       <r>   -41.9074    -0.0000    10.0000 </r>
       <r>   -41.7017    -0.0000    10.0000 </r>
       <r>   -41.4960    -0.0000    10.0000 </r>
       <r>   -41.2904    -0.0524     9.9892 </r>
       <r>   -41.0847    -1.7749     9.6241 </r>
       <r>   -40.8790    35.1747    16.8593 </r>
       <r>   -40.6733    79.7588    33.2650 </r>
       <r>   -40.4676     4.1430    34.1172 </r>
       <r>   -40.2619    -0.5665    34.0006 </r>
       <r>   -40.0562    -0.0031    34.0000 </r>
       <r>   -39.8505    -0.0000    34.0000 </r>
       <r>   -39.6448    -0.0000    34.0000 </r>
       <r>   -39.4391     0.0000    34.0000 </r>
       <r>   -39.2334     0.0000    34.0000 </r>
       <r>   -39.0277     0.0000    34.0000 </r>
       <r>   -38.8221     0.0000    34.0000 </r>
       <r>   -38.6164     0.0000    34.0000 </r>
       <r>   -38.4107     0.0000    34.0000 </r>
       <r>   -38.2050     0.0000    34.0000 </r>
       <r>   -37.9993     0.0000    34.0000 </r>
       <r>   -37.7936     0.0000    34.0000 </r>
       <r>   -37.5879     0.0000    34.0000 </r>
       <r>   -37.3822     0.0000    34.0000 </r>
       <r>   -37.1765     0.0000    34.0000 </r>
       <r>   -36.9708     0.0000    34.0000 </r>
       <r>   -36.7651     0.0000    34.0000 </r>
       <r>   -36.5594     0.0000    34.0000 </r>
       <r>   -36.3538     0.0000    34.0000 </r>
       <r>   -36.1481     0.0000    34.0000 </r>
       <r>   -35.9424     0.0000    34.0000 </r>
       <r>   -35.7367     0.0000    34.0000 </r>
       <r>   -35.5310     0.0000    34.0000 </r>
       <r>   -35.3253     0.0000    34.0000 </r>
       <r>   -35.1196     0.0000    34.0000 </r>
       <r>   -34.9139     0.0000    34.0000 </r>
       <r>   -34.7082     0.0000    34.0000 </r>
       <r>   -34.5025     0.0000    34.0000 </r>
       <r>   -34.2968     0.0000    34.0000 </r>
       <r>   -34.0911     0.0000    34.0000 </r>
       <r>   -33.8855     0.0000    34.0000 </r>
       <r>   -33.6798     0.0000    34.0000 </r>
       <r>   -33.4741     0.0000    34.0000 </r>
       <r>   -33.2684     0.0000    34.0000 </r>
       <r>   -33.0627     0.0000    34.0000 </r>
       <r>   -32.8570     0.0000    34.0000 </r>
       <r>   -32.6513     0.0000    34.0000 </r>
       <r>   -32.4456     0.0000    34.0000 </r>
       <r>   -32.2399     0.0000    34.0000 </r>
       <r>   -32.0342     0.0000    34.0000 </r>
       <r>   -31.8285     0.0000    34.0000 </r>
       <r>   -31.6228     0.0000    34.0000 </r>
       <r>   -31.4172     0.0000    34.0000 </r>
       <r>   -31.2115     0.0000    34.0000 </r>
       <r>   -31.0058     0.0000    34.0000 </r>
       <r>   -30.8001     0.0000    34.0000 </r>
       <r>   -30.5944     0.0000    34.0000 </r>
       <r>   -30.3887     0.0000    34.0000 </r>
       <r>   -30.1830     0.0000    34.0000 </r>
       <r>   -29.9773     0.0000    34.0000 </r>
       <r>   -29.7716     0.0000    34.0000 </r>
       <r>   -29.5659     0.0000    34.0000 </r>
       <r>   -29.3602     0.0000    34.0000 </r>
       <r>   -29.1545     0.0000    34.0000 </r>
       <r>   -28.9489     0.0000    34.0000 </r>
       <r>   -28.7432     0.0000    34.0000 </r>
       <r>   -28.5375     0.0000    34.0000 </r>
       <r>   -28.3318     0.0000    34.0000 </r>
       <r>   -28.1261     0.0000    34.0000 </r>
       <r>   -27.9204     0.0000    34.0000 </r>
       <r>   -27.7147     0.0000    34.0000 </r>
       <r>   -27.5090     0.0000    34.0000 </r>
       <r>   -27.3033     0.0000    34.0000 </r>
       <r>   -27.0976     0.0000    34.0000 </r>
       <r>   -26.8919     0.0000    34.0000 </r>
       <r>   -26.6862     0.0000    34.0000 </r>
       <r>   -26.4806     0.0000    34.0000 </r>
       <r>   -26.2749     0.0000    34.0000 </r>
       <r>   -26.0692     0.0000    34.0000 </r>
       <r>   -25.8635     0.0000    34.0000 </r>
       <r>   -25.6578     0.0000    34.0000 </r>
       <r>   -25.4521     0.0000    34.0000 </r>
       <r>   -25.2464     0.0000    34.0000 </r>
       <r>   -25.0407     0.0000    34.0000 </r>
       <r>   -24.8350     0.0000    34.0000 </r>
       <r>   -24.6293    -0.0000    34.0000 </r>
       <r>   -24.4236    -0.0000    34.0000 </r>
       <r>   -24.2179    -0.0000    34.0000 </r>
       <r>   -24.0123    -0.0000    34.0000 </r>
       <r>   -23.8066    -0.0000    34.0000 </r>
       <r>   -23.6009    -0.0298    33.9939 </r>
       <r>   -23.3952    -0.5839    33.8738 </r>
       <r>   -23.1895    14.2296    36.8007 </r>
       <r>   -22.9838    24.6567    41.8724 </r>
       <r>   -22.7781    68.0135    55.8622 </r>
       <r>   -22.5724    35.4535    63.1547 </r>
       <r>   -22.3667     4.5373    64.0879 </r>
       <r>   -22.1610    -0.4250    64.0005 </r>
       <r>   -21.9553    -0.0025    64.0000 </r>
       <r>   -21.7496    -0.0000    64.0000 </r>
       <r>   -21.5440    -0.0000    64.0000 </r>
       <r>   -21.3383     0.0000    64.0000 </r>
       <r>   -21.1326     0.0000    64.0000 </r>
       <r>   -20.9269     0.0000    64.0000 </r>
       <r>   -20.7212    -0.0000    64.0000 </r>
       <r>   -20.5155    -0.0000    64.0000 </r>
       <r>   -20.3098    -0.0000    64.0000 </r>
       <r>   -20.1041    -0.0000    64.0000 </r>
       <r>   -19.8984    -0.0000    64.0000 </r>
       <r>   -19.6927    -0.0218    63.9955 </r>
       <r>   -19.4870    -0.9147    63.8074 </r>
       <r>   -19.2813    14.1664    66.7213 </r>
       <r>   -19.0757    69.1204    80.9388 </r>
       <r>   -18.8700   122.9506   106.2287 </r>
       <r>   -18.6643   120.4798   131.0104 </r>
       <r>   -18.4586    26.2694   136.4138 </r>
       <r>   -18.2529    -1.9939   136.0037 </r>
       <r>   -18.0472    -0.0178   136.0000 </r>
       <r>   -17.8415    -0.0000   136.0000 </r>
       <r>   -17.6358    -0.0000   136.0000 </r>
       <r>   -17.4301     0.0000   136.0000 </r>
       <r>   -17.2244     0.0000   136.0000 </r>
       <r>   -17.0187     0.0000   136.0000 </r>
       <r>   -16.8130     0.0000   136.0000 </r>
       <r>   -16.6074     0.0000   136.0000 </r>
       <r>   -16.4017     0.0000   136.0000 </r>
       <r>   -16.1960     0.0000   136.0000 </r>
       <r>   -15.9903     0.0000   136.0000 </r>
       <r>   -15.7846     0.0000   136.0000 </r>
       <r>   -15.5789     0.0000   136.0000 </r>
       <r>   -15.3732     0.0000   136.0000 </r>
       <r>   -15.1675     0.0000   136.0000 </r>
       <r>   -14.9618     0.0000   136.0000 </r>
       <r>   -14.7561     0.0000   136.0000 </r>
       <r>   -14.5504     0.0000   136.0000 </r>
       <r>   -14.3447     0.0000   136.0000 </r>
       <r>   -14.1391     0.0000   136.0000 </r>
       <r>   -13.9334     0.0000   136.0000 </r>
       <r>   -13.7277     0.0000   136.0000 </r>
       <r>   -13.5220     0.0000   136.0000 </r>
       <r>   -13.3163     0.0000   136.0000 </r>
       <r>   -13.1106     0.0000   136.0000 </r>
       <r>   -12.9049     0.0000   136.0000 </r>
       <r>   -12.6992     0.0000   136.0000 </r>
       <r>   -12.4935     0.0000   136.0000 </r>
       <r>   -12.2878     0.0000   136.0000 </r>
       <r>   -12.0821     0.0000   136.0000 </r>
       <r>   -11.8764     0.0000   136.0000 </r>
       <r>   -11.6708     0.0000   136.0000 </r>
       <r>   -11.4651     0.0000   136.0000 </r>
       <r>   -11.2594     0.0000   136.0000 </r>
       <r>   -11.0537     0.0000   136.0000 </r>
       <r>   -10.8480     0.0000   136.0000 </r>
       <r>   -10.6423     0.0000   136.0000 </r>
       <r>   -10.4366     0.0000   136.0000 </r>
       <r>   -10.2309     0.0000   136.0000 </r>
       <r>   -10.0252     0.0000   136.0000 </r>
       <r>    -9.8195     0.0000   136.0000 </r>
       <r>    -9.6138     0.0000   136.0000 </r>
       <r>    -9.4081     0.0000   136.0000 </r>
       <r>    -9.2025     0.0000   136.0000 </r>
       <r>    -8.9968     0.0000   136.0000 </r>
       <r>    -8.7911     0.0000   136.0000 </r>
       <r>    -8.5854     0.0000   136.0000 </r>
       <r>    -8.3797     0.0000   136.0000 </r>
       <r>    -8.1740     0.0000   136.0000 </r>
       <r>    -7.9683     0.0000   136.0000 </r>
       <r>    -7.7626     0.0000   136.0000 </r>
       <r>    -7.5569     0.0000   136.0000 </r>
       <r>    -7.3512     0.0000   136.0000 </r>
       <r>    -7.1455     0.0000   136.0000 </r>
       <r>    -6.9398     0.0000   136.0000 </r>
       <r>    -6.7342     0.0000   136.0000 </r>
       <r>    -6.5285     0.0000   136.0000 </r>
       <r>    -6.3228     0.0000   136.0000 </r>
       <r>    -6.1171     0.0000   136.0000 </r>
       <r>    -5.9114     0.0000   136.0000 </r>
       <r>    -5.7057     0.0000   136.0000 </r>
       <r>    -5.5000     0.0000   136.0000 </r>
       <r>    -5.2943     0.0000   136.0000 </r>
       <r>    -5.0886     0.0000   136.0000 </r>
       <r>    -4.8829     0.0000   136.0000 </r>
       <r>    -4.6772     0.0000   136.0000 </r>
       <r>    -4.4715     0.0000   136.0000 </r>
       <r>    -4.2659     0.0000   136.0000 </r>
       <r>    -4.0602     0.0000   136.0000 </r>
       <r>    -3.8545     0.0000   136.0000 </r>
       <r>    -3.6488     0.0000   136.0000 </r>
       <r>    -3.4431     0.0000   136.0000 </r>
       <r>    -3.2374     0.0000   136.0000 </r>
       <r>    -3.0317     0.0000   136.0000 </r>
       <r>    -2.8260     0.0000   136.0000 </r>
       <r>    -2.6203     0.0000   136.0000 </r>
       <r>    -2.4146     0.0000   136.0000 </r>
       <r>    -2.2089     0.0000   136.0000 </r>
       <r>    -2.0032     0.0000   136.0000 </r>
       <r>    -1.7975     0.0000   136.0000 </r>
       <r>    -1.5919     0.0000   136.0000 </r>
       <r>    -1.3862     0.0000   136.0000 </r>
       <r>    -1.1805     0.0000   136.0000 </r>
       <r>    -0.9748     0.0000   136.0000 </r>
       <r>    -0.7691     0.0000   136.0000 </r>
       <r>    -0.5634    -0.0000   136.0000 </r>
       <r>    -0.3577    -0.0000   136.0000 </r>
       <r>    -0.1520    -0.0000   136.0000 </r>
       <r>     0.0537    -0.0000   136.0000 </r>
       <r>     0.2594    -0.0000   136.0000 </r>
       <r>     0.4651    -0.0069   135.9986 </r>
       <r>     0.6708     0.0737   136.0137 </r>
       <r>     0.8764     0.5540   136.1277 </r>
       <r>     1.0821     1.4615   136.4283 </r>
       <r>     1.2878     1.9075   136.8207 </r>
       <r>     1.4935     2.8571   137.4083 </r>
       <r>     1.6992     4.2312   138.2787 </r>
       <r>     1.9049     2.0366   138.6976 </r>
       <r>     2.1106     4.4143   139.6056 </r>
       <r>     2.3163     3.5682   140.3395 </r>
       <r>     2.5220     4.5943   141.2845 </r>
       <r>     2.7277     5.0929   142.3321 </r>
       <r>     2.9334     8.0901   143.9961 </r>
       <r>     3.1391     7.4473   145.5280 </r>
       <r>     3.3447     8.9735   147.3738 </r>
       <r>     3.5504     8.2743   149.0757 </r>
       <r>     3.7561    11.7678   151.4963 </r>
       <r>     3.9618    18.4747   155.2963 </r>
       <r>     4.1675    24.1829   160.2706 </r>
       <r>     4.3732    25.1305   165.4397 </r>
       <r>     4.5789    29.1165   171.4287 </r>
       <r>     4.7846    33.6767   178.3558 </r>
       <r>     4.9903    41.5120   186.8944 </r>
       <r>     5.1960    36.6756   194.4383 </r>
       <r>     5.4017    37.4544   202.1423 </r>
       <r>     5.6074    33.1410   208.9592 </r>
       <r>     5.8130    28.7192   214.8665 </r>
       <r>     6.0187    22.1619   219.4250 </r>
       <r>     6.2244    49.7227   229.6525 </r>
       <r>     6.4301    58.4975   241.6850 </r>
       <r>     6.6358    54.2963   252.8533 </r>
       <r>     6.8415    54.3302   264.0286 </r>
       <r>     7.0472    56.8899   275.7303 </r>
       <r>     7.2529    54.5056   286.9417 </r>
       <r>     7.4586    46.0115   296.4059 </r>
       <r>     7.6643    48.3118   306.3432 </r>
       <r>     7.8700    49.3550   316.4951 </r>
       <r>     8.0757    44.1137   325.5689 </r>
       <r>     8.2813    34.6414   332.6944 </r>
       <r>     8.4870    33.8596   339.6590 </r>
       <r>     8.6927    23.2572   344.4428 </r>
       <r>     8.8984    15.8964   347.7126 </r>
       <r>     9.1041    15.6715   350.9361 </r>
       <r>     9.3098     5.4822   352.0637 </r>
       <r>     9.5155    -0.3016   352.0017 </r>
       <r>     9.7212    -0.0082   352.0000 </r>
       <r>     9.9269    -0.0000   352.0000 </r>
       <r>    10.1326    -0.0000   352.0000 </r>
       <r>    10.3383     0.0000   352.0000 </r>
       <r>    10.5440     0.0000   352.0000 </r>
       <r>    10.7496     0.0000   352.0000 </r>
       <r>    10.9553     0.0000   352.0000 </r>
       <r>    11.1610     0.0000   352.0000 </r>
       <r>    11.3667     0.0000   352.0000 </r>
       <r>    11.5724     0.0000   352.0000 </r>
       <r>    11.7781     0.0000   352.0000 </r>
       <r>    11.9838     0.0000   352.0000 </r>
      </set>
     </set>
    </array>
   </total>
  </dos>
 </calculation>
 <structure name="finalpos" >
  <crystal>
   <varray name="basis" >
    <v>       7.01816390       0.03185719       0.02424196 </v>
    <v>       0.04701042      10.29640720       0.01879135 </v>
    <v>       0.03435103       0.01866735      10.32757067 </v>
   </varray>
   <i name="volume">    746.26314330 </i>
   <varray name="rec_basis" >
    <v>       0.14249199      -0.00064971      -0.00047278 </v>
    <v>      -0.00044027       0.09712358      -0.00017409 </v>
    <v>      -0.00033367      -0.00017519       0.09682962 </v>
   </varray>
  </crystal>
  <varray name="positions" >
   <v>       0.70914476       0.16261815       0.83722840 </v>
   <v>       0.51798077       0.34589149       0.33913879 </v>
   <v>      -0.00263144       0.31530150       0.66881129 </v>
   <v>       0.24724622       0.48630472       0.15350558 </v>
   <v>       0.97521064       0.33212554       0.33007574 </v>
   <v>       0.49670653       0.66371132       0.33211167 </v>
   <v>       0.25507271       0.16064285       0.48107341 </v>
   <v>       0.78659663       0.52250837       0.52060224 </v>
   <v>       0.75918977       0.83790293       0.50125193 </v>
   <v>       0.25269578       0.49234995       0.84123959 </v>
   <v>       0.26372755       0.16262648       0.16604410 </v>
   <v>       0.76001341       0.81875969       0.82769187 </v>
   <v>       0.49545172       0.67539718       0.00964145 </v>
   <v>       0.47537030       0.99106833       0.66284000 </v>
   <v>       0.28065813       0.17432293       0.85037779 </v>
   <v>       0.99285325       0.99941016       0.00164714 </v>
   <v>       0.01036834       0.00600119       0.67246988 </v>
   <v>       0.00686835       0.67213530       0.31885993 </v>
   <v>       0.50372621       0.33946028       0.64543223 </v>
   <v>       0.97069803       0.31488623       0.00260304 </v>
   <v>       0.76242355       0.51077164       0.83529719 </v>
   <v>       0.46705916       0.66973305       0.66049113 </v>
   <v>       0.00963938       0.68068195       0.01292105 </v>
   <v>       0.74590656       0.83952591       0.16953506 </v>
   <v>       0.98954399       0.99741161       0.32411439 </v>
   <v>       0.25317944       0.84714085       0.17126155 </v>
   <v>       0.73943094       0.14571959       0.48852527 </v>
   <v>       0.22165324       0.50162676       0.50367873 </v>
   <v>       0.04579603       0.68018905       0.66876959 </v>
   <v>       0.76025809       0.50859929       0.15132789 </v>
   <v>       0.23687527       0.84259748       0.48479160 </v>
   <v>       0.50535670       0.99317404       0.33104740 </v>
   <v>       0.72967233       0.15268772       0.17300836 </v>
   <v>       0.24169219       0.83343183       0.84422576 </v>
   <v>       0.53494386       0.34080401       0.01293214 </v>
   <v>       0.49960563       0.98248365       0.00541983 </v>
  </varray>
 </structure>
</modeling>
