 vasp.5.4.1 05Feb16 (build Jan 29 2020 16:04:39) complex                        
  
 executed on           IFC91_ompi date 2020.06.15  03:12:07
 running on  160 total cores
 distrk:  each k-point on   20 cores,    8 groups
 distr:  one band on NCORES_PER_BAND=   5 cores,    4 groups


--------------------------------------------------------------------------------------------------------


 INCAR:
 POTCAR:    PAW_PBE Hf 20Jan2003                  
 POTCAR:    PAW_PBE Nb_sv 25May2007               
 POTCAR:    PAW_PBE Ta 17Jan2003                  
 POTCAR:    PAW_PBE Zr_sv 04Jan2005               

 ----------------------------------------------------------------------------- 
|                                                                             |
|           W    W    AA    RRRRR   N    N  II  N    N   GGGG   !!!           |
|           W    W   A  A   R    R  NN   N  II  NN   N  G    G  !!!           |
|           W    W  A    A  R    R  N N  N  II  N N  N  G       !!!           |
|           W WW W  AAAAAA  RRRRR   N  N N  II  N  N N  G  GGG   !            |
|           WW  WW  A    A  R   R   N   NN  II  N   NN  G    G                |
|           W    W  A    A  R    R  N    N  II  N    N   GGGG   !!!           |
|                                                                             |
|      For optimal performance we recommend to set                            |
|        NCORE= 4 - approx SQRT( number of cores)                             |
|      NCORE specifies how many cores store one orbital (NPAR=cpu/NCORE).     |
|      This setting can  greatly improve the performance of VASP for DFT.     |
|      The default, NPAR=number of cores might be grossly inefficient         |
|      on modern multi-core architectures or massively parallel machines.     |
|      Do your own testing !!!!                                               |
|      Unfortunately you need to use the default for GW and RPA calculations. |
|      (for HF NCORE is supported but not extensively tested yet)             |
|                                                                             |
 ----------------------------------------------------------------------------- 


 ----------------------------------------------------------------------------- 
|                                                                             |
|           W    W    AA    RRRRR   N    N  II  N    N   GGGG   !!!           |
|           W    W   A  A   R    R  NN   N  II  NN   N  G    G  !!!           |
|           W    W  A    A  R    R  N N  N  II  N N  N  G       !!!           |
|           W WW W  AAAAAA  RRRRR   N  N N  II  N  N N  G  GGG   !            |
|           WW  WW  A    A  R   R   N   NN  II  N   NN  G    G                |
|           W    W  A    A  R    R  N    N  II  N    N   GGGG   !!!           |
|                                                                             |
|      You have enabled k-point parallelism (KPAR>1).                         |
|      This developmental code was originally  written by Paul Kent at ORNL,  |
|      and carefully double checked in Vienna.                                |
|      GW as well as linear response parallelism added by Martijn Marsman     |
|      and Georg Kresse.                                                      |
|      Carefully verify results versus KPAR=1.                                |
|      Report problems to Paul Kent and Vienna.                               |
|                                                                             |
 ----------------------------------------------------------------------------- 

 POTCAR:    PAW_PBE Hf 20Jan2003                  
   VRHFIN =Hf: 6s5d                                                             
   LEXCH  = PE                                                                  
   EATOM  =    75.9011 eV,    5.5786 Ry                                         
                                                                                
   TITEL  = PAW_PBE Hf 20Jan2003                                                
   LULTRA =        F    use ultrasoft PP ?                                      
   IUNSCR =        1    unscreen: 0-lin 1-nonlin 2-no                           
   RPACOR =    2.500    partial core radius                                     
   POMASS =  178.490; ZVAL   =    4.000    mass and valenz                      
   RCORE  =    3.000    outmost cutoff radius                                   
   RWIGS  =    3.050; RWIGS  =    1.614    wigner-seitz radius (au A)           
   ENMAX  =  220.334; ENMIN  =  165.250 eV                                      
   RCLOC  =    2.212    cutoff for local pot                                    
   LCOR   =        T    correct aug charges                                     
   LPAW   =        T    paw PP                                                  
   EAUG   =  335.116                                                            
   DEXC   =    0.000                                                            
   RMAX   =    3.077    core radius for proj-oper                               
   RAUG   =    1.300    factor for augmentation sphere                          
   RDEP   =    3.047    radius for radial grids                                 
   RDEPT  =    2.344    core radius for aug-charge                              
                                                                                
   Atomic configuration                                                         
   16 entries                                                                   
     n  l   j            E        occ.                                          
     1  0  0.50    -65259.4397   2.0000                                         
     2  0  0.50    -11157.9882   2.0000                                         
     2  1  1.50     -9795.2113   6.0000                                         
     3  0  0.50     -2541.4058   2.0000                                         
     3  1  1.50     -2134.4770   6.0000                                         
     3  2  2.50     -1653.5418  10.0000                                         
     4  0  0.50      -510.9575   2.0000                                         
     4  1  1.50      -377.5023   6.0000                                         
     4  2  2.50      -205.2085  10.0000                                         
     4  3  3.50       -15.4905  14.0000                                         
     5  0  0.50       -65.6020   2.0000                                         
     5  1  1.50       -34.2798   6.0000                                         
     5  2  2.50        -1.9877   3.0000                                         
     6  0  0.50        -4.7357   1.0000                                         
     6  1  1.50        -1.3606   0.0000                                         
     5  3  2.50        -1.3606   0.0000                                         
   Description                                                                  
     l       E           TYP  RCUT    TYP  RCUT                                 
     2     -1.9876627     23  2.500                                             
     2      0.0744703     23  2.500                                             
     0     -4.7356889     23  2.600                                             
     0      3.2364747     23  2.600                                             
     1     -1.3605826     23  3.000                                             
     1     27.2116520     23  3.000                                             
  local pseudopotential read in
  partial core-charges read in
  partial kinetic energy density read in
  atomic valenz-charges read in
  non local Contribution for L=           2  read in
    real space projection operators read in
  non local Contribution for L=           2  read in
    real space projection operators read in
  non local Contribution for L=           0  read in
    real space projection operators read in
  non local Contribution for L=           0  read in
    real space projection operators read in
  non local Contribution for L=           1  read in
    real space projection operators read in
  non local Contribution for L=           1  read in
    real space projection operators read in
    PAW grid and wavefunctions read in
 
   number of l-projection  operators is LMAX  =           6
   number of lm-projection operators is LMMAX =          18
 
 POTCAR:    PAW_PBE Nb_sv 25May2007               
   VRHFIN =Nb: 4p5s4d                                                           
   LEXCH  = PE                                                                  
   EATOM  =  1555.1913 eV,  114.3033 Ry                                         
                                                                                
   TITEL  = PAW_PBE Nb_sv 25May2007                                             
   LULTRA =        F    use ultrasoft PP ?                                      
   IUNSCR =        1    unscreen: 0-lin 1-nonlin 2-no                           
   RPACOR =    1.800    partial core radius                                     
   POMASS =   92.910; ZVAL   =   13.000    mass and valenz                      
   RCORE  =    2.400    outmost cutoff radius                                   
   RWIGS  =    2.400; RWIGS  =    1.270    wigner-seitz radius (au A)           
   ENMAX  =  293.235; ENMIN  =  219.927 eV                                      
   ICORE  =        3    local potential                                         
   LCOR   =        T    correct aug charges                                     
   LPAW   =        T    paw PP                                                  
   EAUG   =  455.659                                                            
   DEXC   =    0.000                                                            
   RMAX   =    2.456    core radius for proj-oper                               
   RAUG   =    1.300    factor for augmentation sphere                          
   RDEP   =    2.451    radius for radial grids                                 
   RDEPT  =    1.956    core radius for aug-charge                              
                                                                                
   Atomic configuration                                                         
   11 entries                                                                   
     n  l   j            E        occ.                                          
     1  0  0.50    -18805.2457   2.0000                                         
     2  0  0.50     -2630.2869   2.0000                                         
     2  1  1.50     -2348.4046   6.0000                                         
     3  0  0.50      -438.8757   2.0000                                         
     3  1  1.50      -346.7588   6.0000                                         
     3  2  2.50      -196.2560  10.0000                                         
     4  0  0.50       -58.3859   2.0000                                         
     5  0  0.50        -3.9816   1.0000                                         
     4  1  1.50       -34.5141   6.0000                                         
     4  2  2.50        -3.0408   4.0000                                         
     4  3  2.50        -1.3606   0.0000                                         
   Description                                                                  
     l       E           TYP  RCUT    TYP  RCUT                                 
     0    -58.3859094     23  2.200                                             
     0     -3.9816262     23  2.200                                             
     1    -34.5140738     23  2.200                                             
     1     13.6058260     23  2.200                                             
     2     -3.0408010     23  2.200                                             
     2     -0.1283038     23  2.200                                             
     3     -1.3605826     23  2.400                                             
  local pseudopotential read in
  partial core-charges read in
  partial kinetic energy density read in
  atomic valenz-charges read in
  non local Contribution for L=           0  read in
    real space projection operators read in
  non local Contribution for L=           0  read in
    real space projection operators read in
  non local Contribution for L=           1  read in
    real space projection operators read in
  non local Contribution for L=           1  read in
    real space projection operators read in
  non local Contribution for L=           2  read in
    real space projection operators read in
  non local Contribution for L=           2  read in
    real space projection operators read in
    PAW grid and wavefunctions read in
 
   number of l-projection  operators is LMAX  =           6
   number of lm-projection operators is LMMAX =          18
 
 POTCAR:    PAW_PBE Ta 17Jan2003                  
   VRHFIN =Ta:  6s5d                                                            
   LEXCH  = PE                                                                  
   EATOM  =   130.6506 eV,    9.6025 Ry                                         
                                                                                
   TITEL  = PAW_PBE Ta 17Jan2003                                                
   LULTRA =        F    use ultrasoft PP ?                                      
   IUNSCR =        1    unscreen: 0-lin 1-nonlin 2-no                           
   RPACOR =    2.330    partial core radius                                     
   POMASS =  180.948; ZVAL   =    5.000    mass and valenz                      
   RCORE  =    2.900    outmost cutoff radius                                   
   RWIGS  =    2.840; RWIGS  =    1.503    wigner-seitz radius (au A)           
   ENMAX  =  223.667; ENMIN  =  167.750 eV                                      
   RCLOC  =    2.205    cutoff for local pot                                    
   LCOR   =        T    correct aug charges                                     
   LPAW   =        T    paw PP                                                  
   EAUG   =  332.075                                                            
   DEXC   =    0.000                                                            
   RMAX   =    2.970    core radius for proj-oper                               
   RAUG   =    1.300    factor for augmentation sphere                          
   RDEP   =    3.060    radius for radial grids                                 
   RDEPT  =    2.354    core radius for aug-charge                              
                                                                                
   Atomic configuration                                                         
   16 entries                                                                   
     n  l   j            E        occ.                                          
     1  0  0.50    -67341.2807   2.0000                                         
     2  0  0.50    -11566.9376   2.0000                                         
     2  1  1.50    -10134.1182   6.0000                                         
     3  0  0.50     -2648.5620   2.0000                                         
     3  1  1.50     -2222.6012   6.0000                                         
     3  2  2.50     -1726.3120  10.0000                                         
     4  0  0.50      -538.6961   2.0000                                         
     4  1  1.50      -399.0129   6.0000                                         
     4  2  2.50      -220.3959  10.0000                                         
     4  3  3.50       -23.0374  14.0000                                         
     5  0  0.50       -71.2901   2.0000                                         
     5  1  1.50       -37.8225   6.0000                                         
     5  2  2.50        -2.6455   4.0000                                         
     6  0  0.50        -4.9623   1.0000                                         
     6  1  1.50        -1.3606   0.0000                                         
     5  3  2.50        -1.3606   0.0000                                         
   Description                                                                  
     l       E           TYP  RCUT    TYP  RCUT                                 
     2     -2.6455043     23  2.500                                             
     2     -0.6258895     23  2.500                                             
     0     -4.9622780     23  2.500                                             
     0      4.7531321     23  2.500                                             
     1     -1.3605826     23  2.900                                             
     1     27.2116520     23  2.900                                             
  local pseudopotential read in
  partial core-charges read in
  partial kinetic energy density read in
  atomic valenz-charges read in
  non local Contribution for L=           2  read in
    real space projection operators read in
  non local Contribution for L=           2  read in
    real space projection operators read in
  non local Contribution for L=           0  read in
    real space projection operators read in
  non local Contribution for L=           0  read in
    real space projection operators read in
  non local Contribution for L=           1  read in
    real space projection operators read in
  non local Contribution for L=           1  read in
    real space projection operators read in
    PAW grid and wavefunctions read in
 
   number of l-projection  operators is LMAX  =           6
   number of lm-projection operators is LMMAX =          18
 
 POTCAR:    PAW_PBE Zr_sv 04Jan2005               
   VRHFIN =Zr: 4s4p5s4d                                                         
   LEXCH  = PE                                                                  
   EATOM  =  1284.2219 eV,   94.3876 Ry                                         
                                                                                
   TITEL  = PAW_PBE Zr_sv 04Jan2005                                             
   LULTRA =        F    use ultrasoft PP ?                                      
   IUNSCR =        1    unscreen: 0-lin 1-nonlin 2-no                           
   RPACOR =    2.200    partial core radius                                     
   POMASS =   91.224; ZVAL   =   12.000    mass and valenz                      
   RCORE  =    2.500    outmost cutoff radius                                   
   RWIGS  =    3.070; RWIGS  =    1.625    wigner-seitz radius (au A)           
   ENMAX  =  229.898; ENMIN  =  172.424 eV                                      
   ICORE  =        3    local potential                                         
   LCOR   =        T    correct aug charges                                     
   LPAW   =        T    paw PP                                                  
   EAUG   =  461.257                                                            
   DEXC   =    0.000                                                            
   RMAX   =    2.561    core radius for proj-oper                               
   RAUG   =    1.300    factor for augmentation sphere                          
   RDEP   =    2.597    radius for radial grids                                 
   RDEPT  =    2.007    core radius for aug-charge                              
                                                                                
   Atomic configuration                                                         
   11 entries                                                                   
     n  l   j            E        occ.                                          
     1  0  0.50    -17820.0161   2.0000                                         
     2  0  0.50     -2467.0882   2.0000                                         
     2  1  1.50     -2199.6095   6.0000                                         
     3  0  0.50      -402.4863   2.0000                                         
     3  1  1.50      -315.3675   6.0000                                         
     3  2  2.50      -172.4472  10.0000                                         
     4  0  0.50       -52.4146   2.0000                                         
     5  0  0.50        -3.8421   1.0000                                         
     4  1  1.50       -30.5054   6.0000                                         
     4  2  2.50        -2.3341   3.0000                                         
     4  3  2.50        -1.3606   0.0000                                         
   Description                                                                  
     l       E           TYP  RCUT    TYP  RCUT                                 
     0    -52.4145962     23  2.200                                             
     0     -3.8421270     23  2.500                                             
     1    -30.5053914     23  2.200                                             
     1     20.4087390     23  2.200                                             
     2     -2.3340816     23  2.500                                             
     2     -0.6120942     23  2.500                                             
     3     -4.0817478     23  2.500                                             
  local pseudopotential read in
  partial core-charges read in
  partial kinetic energy density read in
  atomic valenz-charges read in
  non local Contribution for L=           0  read in
    real space projection operators read in
  non local Contribution for L=           0  read in
    real space projection operators read in
  non local Contribution for L=           1  read in
    real space projection operators read in
  non local Contribution for L=           1  read in
    real space projection operators read in
  non local Contribution for L=           2  read in
    real space projection operators read in
  non local Contribution for L=           2  read in
    real space projection operators read in
    PAW grid and wavefunctions read in
 
   number of l-projection  operators is LMAX  =           6
   number of lm-projection operators is LMMAX =          18
 
 Optimization of the real space projectors (new method)

 maximal supplied QI-value         = 12.47
 optimisation between [QCUT,QGAM] = [  8.86, 17.71] = [ 21.96, 87.83] Ry 
 Optimized for a Real-space Cutoff    1.90 Angstroem

   l    n(q)    QCUT    max X(q) W(low)/X(q) W(high)/X(q)  e(spline) 
   2      9     8.855    48.111    0.22E-03    0.80E-04    0.10E-05
   2      9     8.855    40.545    0.21E-03    0.76E-04    0.95E-06
   0     10     8.855   121.658    0.27E-04    0.12E-04    0.11E-06
   0     10     8.855    71.177    0.22E-04    0.11E-04    0.99E-07
   1     10     8.855    14.183    0.65E-04    0.10E-03    0.98E-07
   1     10     8.855     8.257    0.43E-04    0.73E-04    0.72E-07
 Optimization of the real space projectors (new method)

 maximal supplied QI-value         = 15.68
 optimisation between [QCUT,QGAM] = [  8.78, 17.72] = [ 21.60, 87.97] Ry 
 Optimized for a Real-space Cutoff    1.96 Angstroem

   l    n(q)    QCUT    max X(q) W(low)/X(q) W(high)/X(q)  e(spline) 
   0     10     8.783    10.201    0.29E-04    0.25E-05    0.69E-07
   0     10     8.783     8.174    0.45E-04    0.57E-05    0.14E-06
   1     10     8.783     3.488    0.76E-05    0.24E-04    0.95E-07
   1     10     8.783     4.917    0.78E-04    0.14E-03    0.46E-06
   2      9     8.783   153.744    0.22E-03    0.34E-04    0.15E-05
   2      9     8.783   126.342    0.22E-03    0.35E-04    0.15E-05
 Optimization of the real space projectors (new method)

 maximal supplied QI-value         = 12.85
 optimisation between [QCUT,QGAM] = [  8.87, 17.73] = [ 22.01, 88.06] Ry 
 Optimized for a Real-space Cutoff    1.90 Angstroem

   l    n(q)    QCUT    max X(q) W(low)/X(q) W(high)/X(q)  e(spline) 
   2      9     8.867    62.315    0.23E-03    0.62E-04    0.11E-05
   2      9     8.867    52.185    0.23E-03    0.62E-04    0.11E-05
   0     10     8.867   103.837    0.15E-04    0.23E-04    0.98E-07
   0     10     8.867    59.728    0.12E-04    0.21E-04    0.89E-07
   1     10     8.867    13.958    0.50E-04    0.22E-04    0.14E-06
   1     10     8.867     8.441    0.36E-04    0.19E-04    0.98E-07
 Optimization of the real space projectors (new method)

 maximal supplied QI-value         = 15.12
 optimisation between [QCUT,QGAM] = [  8.77, 17.69] = [ 21.53, 87.61] Ry 
 Optimized for a Real-space Cutoff    1.74 Angstroem

   l    n(q)    QCUT    max X(q) W(low)/X(q) W(high)/X(q)  e(spline) 
   0      9     8.768    12.107    0.28E-04    0.53E-06    0.29E-07
   0      9     8.768     9.948    0.36E-04    0.50E-05    0.64E-07
   1      9     8.768     3.563    0.14E-04    0.16E-04    0.88E-07
   1      9     8.768     4.524    0.21E-03    0.33E-03    0.19E-06
   2      8     8.768    87.261    0.19E-03    0.25E-03    0.24E-06
   2      8     8.768    70.950    0.19E-03    0.24E-03    0.24E-06
  PAW_PBE Hf 20Jan2003                  :
 energy of atom  1       EATOM=  -75.9011
 kinetic energy error for atom=    0.0071 (will be added to EATOM!!)
  PAW_PBE Nb_sv 25May2007               :
 energy of atom  2       EATOM=-1555.1913
 kinetic energy error for atom=    0.0655 (will be added to EATOM!!)
  PAW_PBE Ta 17Jan2003                  :
 energy of atom  3       EATOM= -130.6506
 kinetic energy error for atom=    0.0121 (will be added to EATOM!!)
  PAW_PBE Zr_sv 04Jan2005               :
 energy of atom  4       EATOM=-1284.2219
 kinetic energy error for atom=    0.0483 (will be added to EATOM!!)
 
 
 POSCAR: generated by pypospack                  
  positions in direct lattice
  No initial velocities read in
 exchange correlation table for  LEXCH =        8
   RHO(1)=    0.500       N(1)  =     2000
   RHO(2)=  100.500       N(2)  =     4000
 


--------------------------------------------------------------------------------------------------------


 ion  position               nearest neighbor table
   1  0.480  0.340  0.002-  20 2.95   2 3.01   8 3.02  32 3.04  22 3.07   6 3.08  29 3.08   5 3.09
                            31 3.10  35 3.36  25 3.44  34 3.50  33 3.62  32 3.80
   2  0.243  0.166  0.178-  11 2.86  10 2.91  19 2.96  32 2.97  25 2.98   1 3.01  28 3.04  33 3.04
                            12 3.17  24 3.31  29 3.34  20 3.36  29 3.49  31 3.57
   3  0.003  0.331  0.655-  21 2.94  12 2.95  26 2.97  16 2.98   6 3.06  22 3.06   5 3.10  19 3.14
                            31 3.14  13 3.24  15 3.36  34 3.37  32 3.41  34 3.46
   4  0.245  0.835  0.504-  17 2.91  13 2.92  15 2.94  18 2.96  14 2.98  11 3.03   7 3.04  10 3.04
                            30 3.25  24 3.30  12 3.33  21 3.33   9 3.36   9 3.47
   5  0.754  0.159  0.841-  13 2.92  28 3.00  17 3.01  32 3.04  33 3.05   1 3.09   3 3.10  34 3.12
                            36 3.34  29 3.36  31 3.41  31 3.43   6 3.55
   6  0.760  0.508  0.836-  15 2.88  18 2.98  23 2.99  32 3.00  35 3.04   3 3.06   1 3.08  34 3.09
                            22 3.30  36 3.31   8 3.37  26 3.47  22 3.54   5 3.55
   7  0.496  0.664  0.327-  20 2.91  21 2.92  26 2.93  24 2.97  27 2.97   4 3.04   9 3.04   8 3.04
                            35 3.25  25 3.32  14 3.38  18 3.44  10 3.45  14 3.45
   8  0.771  0.492  0.166-  14 2.90  19 2.91  25 3.00  32 3.00   1 3.02  23 3.02   7 3.04  35 3.09
                            20 3.13  29 3.29   6 3.37  26 3.38  27 3.50  20 3.70
   9  0.753  0.832  0.503-  17 2.92  13 2.95  14 2.97  11 2.97  15 2.98  10 3.00  18 3.01   7 3.04
                            36 3.26  26 3.30  27 3.31   4 3.36  16 3.36   4 3.47
  10  0.507  0.002  0.330-  16 2.82  12 2.88   2 2.91  27 2.91  29 2.91  24 2.94   9 3.00   4 3.04
                            33 3.22   7 3.45
  11  0.989  0.006  0.333-  27 2.78  16 2.80  24 2.81  29 2.85   2 2.86  12 2.87   9 2.97   4 3.03
                            28 3.31
  12  0.252  0.162  0.489-  19 2.86  17 2.87  11 2.87  10 2.88  13 2.89  25 2.92   3 2.95  34 2.99
                             2 3.17   4 3.33
  13  0.999  0.013  0.658-  31 2.79  16 2.87  12 2.89   5 2.92   4 2.92   9 2.95  30 3.00  36 3.00
                             3 3.24
  14  0.001  0.664  0.332-  20 2.78  27 2.82  24 2.83  21 2.85  26 2.88   8 2.90   9 2.97   4 2.98
                             7 3.38   7 3.45
  15  0.008  0.660  0.666-  22 2.67  21 2.83  30 2.85   6 2.88  26 2.91  36 2.92   4 2.94   9 2.98
                             3 3.36
  16  0.745  0.161  0.490-  11 2.80  10 2.82  19 2.84  17 2.85  13 2.87  25 2.90   3 2.98  34 2.99
                            29 3.27   9 3.36
  17  0.500  0.007  0.654-  31 2.81  16 2.85  12 2.87   4 2.91   9 2.92   5 3.01  36 3.02  30 3.04
                            34 3.34
  18  0.491  0.658  0.663-  22 2.73  21 2.84  26 2.90  30 2.93   4 2.96   6 2.98  36 3.00   9 3.01
                            34 3.30   7 3.44
  19  0.994  0.333  0.348-  16 2.84  26 2.85  12 2.86  20 2.89  21 2.89   8 2.91  29 2.96   2 2.96
                             3 3.14
  20  0.229  0.496  0.180-  14 2.78  32 2.86  19 2.89   7 2.91  25 2.95   1 2.95  23 2.97  35 3.07
                             8 3.13  21 3.23   2 3.36  24 3.51   8 3.70
  21  0.244  0.508  0.496-  15 2.83  18 2.84  14 2.85  19 2.89   7 2.92  25 2.94   3 2.94  34 2.99
                            20 3.23   4 3.33  22 3.34  26 3.36  26 3.47
  22  0.243  0.522  0.822-  15 2.67  18 2.73  23 2.89  32 2.92  35 2.95  34 3.05   3 3.06   1 3.07
                            30 3.16   6 3.30  21 3.34   6 3.54
  23  0.015  0.678  0.005-  24 2.85  22 2.89  30 2.91  27 2.92  20 2.97   6 2.99   8 3.02  36 3.03
                            28 3.11  35 3.24  32 3.48  35 3.59
  24  0.228  0.840  0.181-  28 2.77  11 2.81  14 2.83  23 2.85  33 2.94  10 2.94   7 2.97  35 3.05
                            27 3.13   4 3.30   2 3.31  20 3.51
  25  0.502  0.338  0.339-  16 2.90  26 2.92  12 2.92  21 2.94  20 2.95  29 2.97   2 2.98   8 3.00
                            34 3.28   7 3.32   1 3.44
  26  0.752  0.508  0.496-  19 2.85  14 2.88  18 2.90  15 2.91  25 2.92   7 2.93   3 2.97  34 3.00
                             9 3.30  21 3.36   8 3.38  21 3.47   6 3.47
  27  0.770  0.835  0.179-  28 2.78  11 2.78  14 2.82  10 2.91  33 2.92  23 2.92   7 2.97  35 3.09
                            24 3.13   9 3.31  29 3.41   8 3.50  36 3.66
  28  0.997  0.983  0.010-  24 2.77  27 2.78  36 2.97  30 2.98   5 3.00  29 3.00  31 3.02   2 3.04
                            23 3.11  11 3.31  33 3.38  33 3.45  32 3.62
  29  0.754  0.169  0.170-  11 2.85  10 2.91  19 2.96  25 2.97  33 2.99  28 3.00   1 3.08  32 3.18
                            16 3.27   8 3.29   2 3.34   5 3.36  27 3.41   2 3.49
  30  0.243  0.832  0.821-  15 2.85  23 2.91  18 2.93  28 2.98  13 3.00  35 3.04  17 3.04  33 3.08
                            31 3.15  22 3.16   4 3.25  36 3.34  36 3.49
  31  0.253  0.141  0.829-  13 2.79  17 2.81  32 2.96  33 3.01  28 3.02   1 3.10  34 3.12   3 3.14
                            30 3.15   5 3.41   5 3.43   2 3.57
  32  0.036  0.337  0.989-  20 2.86  22 2.92  31 2.96   2 2.97   8 3.00   6 3.00   5 3.04   1 3.04
                            29 3.18   3 3.41  23 3.48  28 3.62   1 3.80
  33  0.503  0.986  0.015-  27 2.92  24 2.94  29 2.99  31 3.01  36 3.04   2 3.04   5 3.05  30 3.08
                            35 3.22  10 3.22  28 3.38  28 3.45   1 3.62
  34  0.497  0.335  0.660-  12 2.99  21 2.99  16 2.99  26 3.00  22 3.05   6 3.09  31 3.12   5 3.12
                            25 3.28  18 3.30  17 3.34   3 3.37   3 3.46   1 3.50
  35  0.489  0.670  0.008-  22 2.95   6 3.04  30 3.04  24 3.05  20 3.07  27 3.09   8 3.09  36 3.12
                            33 3.22  23 3.24   7 3.25   1 3.36  23 3.59
  36  0.754  0.832  0.822-  15 2.92  28 2.97  18 3.00  13 3.00  17 3.02  23 3.03  33 3.04  35 3.12
                             9 3.26   6 3.31   5 3.34  30 3.34  30 3.49  27 3.66
 
  LATTYP: Found a triclinic cell.
 ALAT       =    19.9122483795
 B/A-ratio  =     0.3430136227
 C/A-ratio  =     0.5131444946
 COS(alpha) =     0.0000149686
 COS(beta)  =     0.5158852945
 COS(gamma) =     0.6871246097
  
  Lattice vectors:
  
 A1 = (  13.6712666729,  10.2287042458, -10.2453751779)
 A2 = (   6.8301686429,   0.0072130963,  -0.0000897896)
 A3 = (  -0.0000099766,   0.0270815350, -10.2178247417)


Analysis of symmetry for initial positions (statically):
=====================================================================
 Subroutine PRICEL returns:
 Original cell was already a primitive cell.
 

 Routine SETGRP: Setting up the symmetry group for a 
 triclinic supercell.


 Subroutine GETGRP returns: Found  1 space group operations
 (whereof  1 operations were pure point group operations)
 out of a pool of  2 trial point group operations.


The static configuration has the point symmetry C_1 .


Analysis of symmetry for dynamics (positions and initial velocities):
=====================================================================
 Subroutine PRICEL returns:
 Original cell was already a primitive cell.
 

 Routine SETGRP: Setting up the symmetry group for a 
 triclinic supercell.


 Subroutine GETGRP returns: Found  1 space group operations
 (whereof  1 operations were pure point group operations)
 out of a pool of  2 trial point group operations.


The dynamic configuration has the point symmetry C_1 .


 Subroutine INISYM returns: Found  1 space group operations
 (whereof  1 operations are pure point group operations),
 and found     1 'primitive' translations

 
 
 KPOINTS: k-points                                

Automatic generation of k-mesh.
Space group operators:
 irot       det(A)        alpha          n_x          n_y          n_z        tau_x        tau_y        tau_z
    1     1.000000     0.000000     1.000000     0.000000     0.000000     0.000000     0.000000     0.000000
 
 Subroutine IBZKPT returns following result:
 ===========================================
 
 Found     14 irreducible k-points:
 
 Following reciprocal coordinates:
            Coordinates               Weight
  0.000000  0.000000  0.000000      1.000000
  0.333333  0.000000 -0.000000      2.000000
 -0.000000  0.333333  0.000000      2.000000
  0.333333  0.333333  0.000000      2.000000
 -0.333333  0.333333  0.000000      2.000000
  0.000000  0.000000  0.333333      2.000000
  0.333333 -0.000000  0.333333      2.000000
 -0.333333  0.000000  0.333333      2.000000
 -0.000000  0.333333  0.333333      2.000000
  0.333333  0.333333  0.333333      2.000000
 -0.333333  0.333333  0.333333      2.000000
  0.000000 -0.333333  0.333333      2.000000
  0.333333 -0.333333  0.333333      2.000000
 -0.333333 -0.333333  0.333333      2.000000
 
 Following cartesian coordinates:
            Coordinates               Weight
  0.000000  0.000000  0.000000      1.000000
  0.243445 -0.000261 -0.000001      2.000000
 -0.000172  0.163223  0.000433      2.000000
  0.243273  0.162961  0.000432      2.000000
 -0.243618  0.163484  0.000434      2.000000
  0.000002  0.000437  0.162733      2.000000
  0.243447  0.000176  0.162733      2.000000
 -0.243444  0.000699  0.162734      2.000000
 -0.000171  0.163660  0.163166      2.000000
  0.243275  0.163399  0.163165      2.000000
 -0.243616  0.163922  0.163167      2.000000
  0.000174 -0.162786  0.162301      2.000000
  0.243619 -0.163047  0.162300      2.000000
 -0.243271 -0.162524  0.162302      2.000000
 


--------------------------------------------------------------------------------------------------------




 Dimension of arrays:
   k-points           NKPTS =     14   k-points in BZ     NKDIM =     14   number of bands    NBANDS=    176
   number of dos      NEDOS =    301   number of ions     NIONS =     36
   non local maximal  LDIM  =      6   non local SUM 2l+1 LMDIM =     18
   total plane-waves  NPLWV = 144000
   max r-space proj   IRMAX =   6443   max aug-charges    IRDMAX=  13985
   dimension x,y,z NGX =    40 NGY =   60 NGZ =   60
   dimension x,y,z NGXF=    80 NGYF=  120 NGZF=  120
   support grid    NGXF=    80 NGYF=  120 NGZF=  120
   ions per type =               9  10  11   6
 NGX,Y,Z   is equivalent  to a cutoff of   9.74,  9.79,  9.76 a.u.
 NGXF,Y,Z  is equivalent  to a cutoff of  19.47, 19.58, 19.52 a.u.


 I would recommend the setting:
   dimension x,y,z NGX =    39 NGY =   58 NGZ =   58
 SYSTEM =  automatically generated by mexm         
 POSCAR =  generated by pypospack                  

 Startparameter for this run:
   NWRITE =      2    write-flag & timer
   PREC   = accura    normal or accurate (medium, high low for compatibility)
   ISTART =      0    job   : 0-new  1-cont  2-samecut
   ICHARG =      2    charge: 1-file 2-atom 10-const
   ISPIN  =      1    spin polarized calculation?
   LNONCOLLINEAR =      F non collinear calculations
   LSORBIT =      F    spin-orbit coupling
   INIWAV =      1    electr: 0-lowe 1-rand  2-diag
   LASPH  =      F    aspherical Exc in radial PAW
   METAGGA=      F    non-selfconsistent MetaGGA calc.

 Electronic Relaxation 1
   ENCUT  =  300.0 eV  22.05 Ry    4.70 a.u.   9.65 14.39 14.43*2*pi/ulx,y,z
   ENINI  =  300.0     initial cutoff
   ENAUG  =  461.3 eV  augmentation charge cutoff
   NELM   =     70;   NELMIN=  2; NELMDL= -5     # of ELM steps 
   EDIFF  = 0.1E-04   stopping-criterion for ELM
   LREAL  =      T    real-space projection
   NLSPLINE    = F    spline interpolate recip. space projectors
   LCOMPAT=      F    compatible to vasp.4.4
   GGA_COMPAT  = T    GGA compatible to vasp.4.4-vasp.4.6
   LMAXPAW     = -100 max onsite density
   LMAXMIX     =    2 max onsite mixed and CHGCAR
   VOSKOWN=      0    Vosko Wilk Nusair interpolation
   ROPT   =   -0.00025  -0.00025  -0.00025  -0.00025
 Ionic relaxation
   EDIFFG = -.1E-01   stopping-criterion for IOM
   NSW    =    300    number of steps for IOM
   NBLOCK =      1;   KBLOCK =    300    inner block; outer block 
   IBRION =      2    ionic relax: 0-MD 1-quasi-New 2-CG
   NFREE  =      1    steps in history (QN), initial steepest desc. (CG)
   ISIF   =      3    stress and relaxation
   IWAVPR =     11    prediction:  0-non 1-charg 2-wave 3-comb
   ISYM   =      1    0-nonsym 1-usesym 2-fastsym
   LCORR  =      T    Harris-Foulkes like correction to forces

   POTIM  = 0.1500    time-step for ionic-motion
   TEIN   =    0.0    initial temperature
   TEBEG  =    0.0;   TEEND  =   0.0 temperature during run
   SMASS  =  -3.00    Nose mass-parameter (am)
   estimated Nose-frequenzy (Omega)   =  0.10E-29 period in steps =****** mass=  -0.107E-26a.u.
   SCALEE = 1.0000    scale energy and forces
   NPACO  =    256;   APACO  = 16.0  distance and # of slots for P.C.
   PSTRESS=    0.0 pullay stress

  Mass of Ions in am
   POMASS = 178.49 92.91180.95 91.22
  Ionic Valenz
   ZVAL   =   4.00 13.00  5.00 12.00
  Atomic Wigner-Seitz radii
   RWIGS  =  -1.00 -1.00 -1.00 -1.00
  virtual crystal weights 
   VCA    =   1.00  1.00  1.00  1.00
   NELECT =     293.0000    total number of electrons
   NUPDOWN=      -1.0000    fix difference up-down

 DOS related values:
   EMIN   =  10.00;   EMAX   =-10.00  energy-range for DOS
   EFERMI =   0.00
   ISMEAR =     1;   SIGMA  =   0.15  broadening in eV -4-tet -1-fermi 0-gaus

 Electronic relaxation 2 (details)
   IALGO  =     68    algorithm
   LDIAG  =      T    sub-space diagonalisation (order eigenvalues)
   LSUBROT=      F    optimize rotation matrix (better conditioning)
   TURBO    =      0    0=normal 1=particle mesh
   IRESTART =      0    0=no restart 2=restart with 2 vectors
   NREBOOT  =      0    no. of reboots
   NMIN     =      0    reboot dimension
   EREF     =   0.00    reference energy to select bands
   IMIX   =      4    mixing-type and parameters
     AMIX     =   0.40;   BMIX     =  1.00
     AMIX_MAG =   1.60;   BMIX_MAG =  1.00
     AMIN     =   0.10
     WC   =   100.;   INIMIX=   1;  MIXPRE=   1;  MAXMIX= -45

 Intra band minimization:
   WEIMIN = 0.0010     energy-eigenvalue tresh-hold
   EBREAK =  0.14E-07  absolut break condition
   DEPER  =   0.30     relativ break condition  

   TIME   =   0.40     timestep for ELM

  volume/ion in A,a.u.               =      19.75       133.27
  Fermi-wavevector in a.u.,A,eV,Ry     =   1.218289  2.302233 20.194154  1.484228
  Thomas-Fermi vector in A             =   2.353581
 
 Write flags
   LWAVE  =      F    write WAVECAR
   LCHARG =      F    write CHGCAR
   LVTOT  =      F    write LOCPOT, total local potential
   LVHAR  =      F    write LOCPOT, Hartree potential only
   LELF   =      F    write electronic localiz. function (ELF)
   LORBIT =      0    0 simple, 1 ext, 2 COOP (PROOUT)


 Dipole corrections
   LMONO  =      F    monopole corrections only (constant potential shift)
   LDIPOL =      F    correct potential (dipole corrections)
   IDIPOL =      0    1-x, 2-y, 3-z, 4-all directions 
   EPSILON=  1.0000000 bulk dielectric constant

 Exchange correlation treatment:
   GGA     =    --    GGA type
   LEXCH   =     8    internal setting for exchange type
   VOSKOWN=      0    Vosko Wilk Nusair interpolation
   LHFCALC =     F    Hartree Fock is set to
   LHFONE  =     F    Hartree Fock one center treatment
   AEXX    =    0.0000 exact exchange contribution

 Linear response parameters
   LEPSILON=     F    determine dielectric tensor
   LRPA    =     F    only Hartree local field effects (RPA)
   LNABLA  =     F    use nabla operator in PAW spheres
   LVEL    =     F    velocity operator in full k-point grid
   LINTERFAST=   F  fast interpolation
   KINTER  =     0    interpolate to denser k-point grid
   CSHIFT  =0.1000    complex shift for real part using Kramers Kronig
   OMEGAMAX=  -1.0    maximum frequency
   DEG_THRESHOLD= 0.2000000E-02 threshold for treating states as degnerate
   RTIME   =    0.100 relaxation time in fs

 Orbital magnetization related:
   ORBITALMAG=     F  switch on orbital magnetization
   LCHIMAG   =     F  perturbation theory with respect to B field
   DQ        =  0.001000  dq finite difference perturbation B field



--------------------------------------------------------------------------------------------------------


 conjugate gradient relaxation of ions
 charge density and potential will be updated during run
 non-spin polarized calculation
 RMM-DIIS sequential band-by-band and
  variant of blocked Davidson during initial phase
 perform sub-space diagonalisation
    before iterative eigenvector-optimisation
 modified Broyden-mixing scheme, WC =      100.0
 initial mixing is a Kerker type mixing with AMIX =  0.4000 and BMIX =      1.0000
 Hartree-type preconditioning will be used
 using additional bands           29
 real space projection scheme for non local part
 use partial core corrections
 calculate Harris-corrections to forces 
   (improved forces if not selfconsistent)
 use gradient corrections 
 use of overlap-Matrix (Vanderbilt PP)
 Methfessel and Paxton  Order N= 1 SIGMA  =   0.15


--------------------------------------------------------------------------------------------------------


  energy-cutoff  :      300.00
  volume of cell :      710.95
      direct lattice vectors                 reciprocal lattice vectors
     6.830168643  0.007213096 -0.000089790     0.146409435 -0.000157221 -0.000000560
     0.010939364 10.187196518 -0.027370857    -0.000103663  0.098163244  0.000260174
     0.000009977 -0.027081535 10.217824742     0.000001009  0.000262952  0.097868886

  length of vectors
     6.830172452 10.187239162 10.217860630     0.146409520  0.098163643  0.097869239


 
 k-points in units of 2pi/SCALE and weight: k-points                                
   0.00000000  0.00000000  0.00000000       0.037
   0.24344522 -0.00026142 -0.00000093       0.074
  -0.00017237  0.16322290  0.00043261       0.074
   0.24327285  0.16296147  0.00043168       0.074
  -0.24361758  0.16348432  0.00043354       0.074
   0.00000168  0.00043723  0.16273345       0.074
   0.24344689  0.00017581  0.16273252       0.074
  -0.24344354  0.00069865  0.16273438       0.074
  -0.00017069  0.16366013  0.16316606       0.074
   0.24327453  0.16339870  0.16316513       0.074
  -0.24361591  0.16392155  0.16316699       0.074
   0.00017405 -0.16278567  0.16230084       0.074
   0.24361926 -0.16304709  0.16229991       0.074
  -0.24327117 -0.16252425  0.16230177       0.074
 
 k-points in reciprocal lattice and weights: k-points                                
   0.00000000  0.00000000  0.00000000       0.037
   0.33333333  0.00000000 -0.00000000       0.074
  -0.00000000  0.33333333  0.00000000       0.074
   0.33333333  0.33333333  0.00000000       0.074
  -0.33333333  0.33333333  0.00000000       0.074
   0.00000000  0.00000000  0.33333333       0.074
   0.33333333 -0.00000000  0.33333333       0.074
  -0.33333333  0.00000000  0.33333333       0.074
  -0.00000000  0.33333333  0.33333333       0.074
   0.33333333  0.33333333  0.33333333       0.074
  -0.33333333  0.33333333  0.33333333       0.074
   0.00000000 -0.33333333  0.33333333       0.074
   0.33333333 -0.33333333  0.33333333       0.074
  -0.33333333 -0.33333333  0.33333333       0.074
 
 position of ions in fractional coordinates (direct lattice) 
   0.48008500  0.34011800  0.00207900
   0.24310500  0.16567100  0.17829400
   0.00303600  0.33082900  0.65528800
   0.24531900  0.83527900  0.50355200
   0.75400700  0.15936100  0.84138300
   0.76045900  0.50756900  0.83606000
   0.49622900  0.66367200  0.32651000
   0.77051100  0.49168700  0.16574500
   0.75282000  0.83154200  0.50294800
   0.50657500  0.00192900  0.33032100
   0.98916800  0.00632700  0.33300200
   0.25176000  0.16219800  0.48882900
   0.99863900  0.01251300  0.65792900
   0.00148300  0.66413100  0.33191400
   0.00751200  0.66019800  0.66638600
   0.74510200  0.16144600  0.49046400
   0.50041600  0.00724200  0.65407900
   0.49058900  0.65820800  0.66301400
   0.99387100  0.33250100  0.34849000
   0.22891500  0.49568400  0.18032300
   0.24396300  0.50796200  0.49586600
   0.24336800  0.52178600  0.82219000
   0.01496400  0.67751100  0.00451000
   0.22809200  0.84048200  0.18130300
   0.50199300  0.33760100  0.33869500
   0.75249800  0.50785200  0.49605400
   0.76975500  0.83505000  0.17948700
   0.99733900  0.98272000  0.01024000
   0.75432200  0.16939200  0.17024200
   0.24288900  0.83185100  0.82128600
   0.25264400  0.14088000  0.82946400
   0.03578100  0.33654100  0.98869200
   0.50297700  0.98555300  0.01529000
   0.49683800  0.33460300  0.66008000
   0.48929400  0.66967500  0.00846000
   0.75368200  0.83244000  0.82153500
 
 position of ions in cartesian coordinates  (Angst):
   3.28278221  3.46825550  0.01189043
   1.66226226  1.68464810  1.81722046
   0.02436199  3.35249573  6.68656259
   1.68471259  8.49728387  5.12232176
   5.15174667  1.60609461  8.59267449
   5.19962404  5.15354863  8.52875367
   3.39659116  6.75569404  3.31801213
   5.26810047  5.00998124  1.68002628
   5.15098912  8.46289133  5.11620691
   3.46001708  0.01435948  3.37506380
   6.75625679  0.06257115  3.40229408
   1.72134248  1.64092063  4.99030695
   6.82101623  0.11685794  6.72217106
   0.01739762  6.75665497  3.37326111
   0.05853702  6.70757420  6.79094450
   5.09094333  1.63677410  5.00698938
   3.41801142  0.05967176  6.68302144
   3.35801260  6.69087747  6.75650109
   6.79194737  3.38498427  3.55161967
   1.56895232  5.04639808  1.82892096
   1.67187016  5.16303963  5.05274662
   1.66796069  5.29502579  8.38668974
   0.10961823  6.90192350  0.02753699
   1.56710297  8.55889059  1.82949709
   3.43239337  3.43365628  3.45144065
   5.14524877  5.16558206  5.05462492
   5.26669317  8.50750999  1.81104156
   6.82274400 10.01807835  0.07764309
   5.15400121  1.72646018  1.73479879
   1.66808095  8.45373991  8.36896613
   1.72715054  1.41453143  8.47143909
   0.24808167  3.40189210 10.09306695
   3.44619921 10.04323604  0.12920995
   3.39715426  3.39437428  6.73537877
   3.34928644  6.82541104  0.06806929
   5.15688972  8.46341782  8.37144838
 


--------------------------------------------------------------------------------------------------------


 k-point  1 :   0.0000 0.0000 0.0000  plane waves:    8439
 k-point  2 :   0.3333 0.0000-0.0000  plane waves:    8389
 k-point  3 :  -0.0000 0.3333 0.0000  plane waves:    8396
 k-point  4 :   0.3333 0.3333 0.0000  plane waves:    8378
 k-point  5 :  -0.3333 0.3333 0.0000  plane waves:    8373
 k-point  6 :   0.0000 0.0000 0.3333  plane waves:    8389
 k-point  7 :   0.3333-0.0000 0.3333  plane waves:    8379
 k-point  8 :  -0.3333 0.0000 0.3333  plane waves:    8378
 k-point  9 :  -0.0000 0.3333 0.3333  plane waves:    8373
 k-point 10 :   0.3333 0.3333 0.3333  plane waves:    8376
 k-point 11 :  -0.3333 0.3333 0.3333  plane waves:    8380
 k-point 12 :   0.0000-0.3333 0.3333  plane waves:    8382
 k-point 13 :   0.3333-0.3333 0.3333  plane waves:    8378
 k-point 14 :  -0.3333-0.3333 0.3333  plane waves:    8377

 maximum and minimum number of plane-waves per node :      1698     1660

 maximum number of plane-waves:      8439
 maximum index in each direction: 
   IXMAX=    9   IYMAX=   14   IZMAX=   14
   IXMIN=   -9   IYMIN=  -14   IZMIN=  -14

 NGX is ok and might be reduce to  38
 NGY is ok and might be reduce to  58
 NGZ is ok and might be reduce to  58

 real space projection operators:
  total allocation   :      28357.45 KBytes
  max/ min on nodes  :       5701.22       5646.66


 parallel 3D FFT for wavefunctions:
    minimum data exchange during FFTs selected (reduces bandwidth)
 parallel 3D FFT for charge:
    minimum data exchange during FFTs selected (reduces bandwidth)


 total amount of memory used by VASP on root node    67320. kBytes
========================================================================

   base      :      30000. kBytes
   nonlr-proj:      10887. kBytes
   fftplans  :       2814. kBytes
   grid      :       5360. kBytes
   one-center:        124. kBytes
   wavefun   :      18135. kBytes
 
     INWAV:  cpu time    0.0000: real time    0.0000
 Broyden mixing: mesh for mixing (old mesh)
   NGX = 19   NGY = 29   NGZ = 29
  (NGX  = 80   NGY  =120   NGZ  =120)
  gives a total of  15979 points

 initial charge density was supplied:
 charge density of overlapping atoms calculated
 number of electron     293.0000000 magnetization 
 keeping initial charge density in first step


--------------------------------------------------------------------------------------------------------


 Maximum index for non-local projection operator         1266
 Maximum index for augmentation-charges          688 (set IRDMAX)


--------------------------------------------------------------------------------------------------------


 First call to EWALD:  gamma=   0.199
 Maximum number of real-space cells 3x 2x 2
 Maximum number of reciprocal cells 2x 3x 3

 FEWALD executed in parallel
    FEWALD:  cpu time    0.0538: real time    0.0541


----------------------------------------- Iteration    1(   1)  ---------------------------------------


    POTLOK:  cpu time    0.0525: real time    0.0615
    SETDIJ:  cpu time    0.0081: real time    0.0081
     EDDAV:  cpu time    1.1377: real time    1.1421
       DOS:  cpu time    0.0023: real time    0.0023
    --------------------------------------------
      LOOP:  cpu time    1.2071: real time    1.4780

 eigenvalue-minimisations  :  5472
 total energy-change (2. order) : 0.1839333E+04  (-0.1104355E+05)
 number of electron     293.0000000 magnetization 
 augmentation part      293.0000000 magnetization 

 Free energy of the ion-electron system (eV)
  ---------------------------------------------------
  alpha Z        PSCENC =      1555.25334819
  Ewald energy   TEWEN  =    -19263.03449892
  -Hartree energ DENC   =     -7082.65583169
  -exchange      EXHF   =         0.00000000
  -V(xc)+E(xc)   XCENC  =      -342.77525562
  PAW double counting   =     21556.35635867   -19908.91531546
  entropy T*S    EENTRO =         0.00129664
  eigenvalues    EBANDS =       -51.26592999
  atomic energy  EATOM  =     25376.36928711
  Solvation  Ediel_sol  =         0.00000000
  ---------------------------------------------------
  free energy    TOTEN  =      1839.33345894 eV

  energy without entropy =     1839.33216230  energy(sigma->0) =     1839.33302673


--------------------------------------------------------------------------------------------------------




----------------------------------------- Iteration    1(   2)  ---------------------------------------


     EDDAV:  cpu time    1.0185: real time    1.0251
       DOS:  cpu time    0.0014: real time    0.0014
    --------------------------------------------
      LOOP:  cpu time    1.0206: real time    1.1972

 eigenvalue-minimisations  :  5720
 total energy-change (2. order) :-0.1949093E+04  (-0.1885367E+04)
 number of electron     293.0000000 magnetization 
 augmentation part      293.0000000 magnetization 

 Free energy of the ion-electron system (eV)
  ---------------------------------------------------
  alpha Z        PSCENC =      1555.25334819
  Ewald energy   TEWEN  =    -19263.03449892
  -Hartree energ DENC   =     -7082.65583169
  -exchange      EXHF   =         0.00000000
  -V(xc)+E(xc)   XCENC  =      -342.77525562
  PAW double counting   =     21556.35635867   -19908.91531546
  entropy T*S    EENTRO =        -0.00668868
  eigenvalues    EBANDS =     -2000.35084544
  atomic energy  EATOM  =     25376.36928711
  Solvation  Ediel_sol  =         0.00000000
  ---------------------------------------------------
  free energy    TOTEN  =      -109.75944183 eV

  energy without entropy =     -109.75275316  energy(sigma->0) =     -109.75721228


--------------------------------------------------------------------------------------------------------




----------------------------------------- Iteration    1(   3)  ---------------------------------------


     EDDAV:  cpu time    1.5272: real time    1.5393
       DOS:  cpu time    0.0013: real time    0.0013
    --------------------------------------------
      LOOP:  cpu time    1.5290: real time    1.5813

 eigenvalue-minimisations  :  8312
 total energy-change (2. order) :-0.2444084E+03  (-0.2321195E+03)
 number of electron     293.0000000 magnetization 
 augmentation part      293.0000000 magnetization 

 Free energy of the ion-electron system (eV)
  ---------------------------------------------------
  alpha Z        PSCENC =      1555.25334819
  Ewald energy   TEWEN  =    -19263.03449892
  -Hartree energ DENC   =     -7082.65583169
  -exchange      EXHF   =         0.00000000
  -V(xc)+E(xc)   XCENC  =      -342.77525562
  PAW double counting   =     21556.35635867   -19908.91531546
  entropy T*S    EENTRO =        -0.00738336
  eigenvalues    EBANDS =     -2244.75852817
  atomic energy  EATOM  =     25376.36928711
  Solvation  Ediel_sol  =         0.00000000
  ---------------------------------------------------
  free energy    TOTEN  =      -354.16781924 eV

  energy without entropy =     -354.16043589  energy(sigma->0) =     -354.16535813


--------------------------------------------------------------------------------------------------------




----------------------------------------- Iteration    1(   4)  ---------------------------------------


     EDDAV:  cpu time    1.4482: real time    1.4944
       DOS:  cpu time    0.0014: real time    0.0014
    --------------------------------------------
      LOOP:  cpu time    1.4501: real time    1.5310

 eigenvalue-minimisations  :  8336
 total energy-change (2. order) :-0.2837451E+02  (-0.2689586E+02)
 number of electron     293.0000000 magnetization 
 augmentation part      293.0000000 magnetization 

 Free energy of the ion-electron system (eV)
  ---------------------------------------------------
  alpha Z        PSCENC =      1555.25334819
  Ewald energy   TEWEN  =    -19263.03449892
  -Hartree energ DENC   =     -7082.65583169
  -exchange      EXHF   =         0.00000000
  -V(xc)+E(xc)   XCENC  =      -342.77525562
  PAW double counting   =     21556.35635867   -19908.91531546
  entropy T*S    EENTRO =         0.00818860
  eigenvalues    EBANDS =     -2273.14861372
  atomic energy  EATOM  =     25376.36928711
  Solvation  Ediel_sol  =         0.00000000
  ---------------------------------------------------
  free energy    TOTEN  =      -382.54233284 eV

  energy without entropy =     -382.55052144  energy(sigma->0) =     -382.54506237


--------------------------------------------------------------------------------------------------------




----------------------------------------- Iteration    1(   5)  ---------------------------------------


     EDDAV:  cpu time    1.4042: real time    1.4118
       DOS:  cpu time    0.0012: real time    0.0012
    CHARGE:  cpu time    0.0303: real time    0.0305
    MIXING:  cpu time    0.0013: real time    0.0014
    --------------------------------------------
      LOOP:  cpu time    1.4374: real time    1.4688

 eigenvalue-minimisations  :  7840
 total energy-change (2. order) :-0.2755935E+01  (-0.2698924E+01)
 number of electron     293.0000007 magnetization 
 augmentation part       18.6857632 magnetization 

 Broyden mixing:
  rms(total) = 0.64646E+01    rms(broyden)= 0.64641E+01
  rms(prec ) = 0.67470E+01
  weight for this iteration     100.00

 Free energy of the ion-electron system (eV)
  ---------------------------------------------------
  alpha Z        PSCENC =      1555.25334819
  Ewald energy   TEWEN  =    -19263.03449892
  -Hartree energ DENC   =     -7082.65583169
  -exchange      EXHF   =         0.00000000
  -V(xc)+E(xc)   XCENC  =      -342.77525562
  PAW double counting   =     21556.35635867   -19908.91531546
  entropy T*S    EENTRO =         0.01148789
  eigenvalues    EBANDS =     -2275.90784752
  atomic energy  EATOM  =     25376.36928711
  Solvation  Ediel_sol  =         0.00000000
  ---------------------------------------------------
  free energy    TOTEN  =      -385.29826735 eV

  energy without entropy =     -385.30975523  energy(sigma->0) =     -385.30209664


--------------------------------------------------------------------------------------------------------




----------------------------------------- Iteration    1(   6)  ---------------------------------------


    POTLOK:  cpu time    0.0306: real time    0.0307
    SETDIJ:  cpu time    0.0040: real time    0.0040
    EDDIAG:  cpu time    0.0753: real time    0.0756
  RMM-DIIS:  cpu time    0.7220: real time    0.7256
    ORTHCH:  cpu time    0.0119: real time    0.0119
       DOS:  cpu time    0.0016: real time    0.0017
    CHARGE:  cpu time    0.0296: real time    0.0297
    MIXING:  cpu time    0.0016: real time    0.0023
    --------------------------------------------
      LOOP:  cpu time    0.8773: real time    0.9064

 eigenvalue-minimisations  :  6881
 total energy-change (2. order) : 0.1049330E+02  (-0.2327747E+01)
 number of electron     293.0000007 magnetization 
 augmentation part       19.4554891 magnetization 

 Broyden mixing:
  rms(total) = 0.31437E+01    rms(broyden)= 0.31437E+01
  rms(prec ) = 0.34508E+01
  weight for this iteration     100.00

 eigenvalues of (default mixing * dielectric matrix)
  average eigenvalue GAMMA=   1.8553
  1.8553

 Free energy of the ion-electron system (eV)
  ---------------------------------------------------
  alpha Z        PSCENC =      1555.25334819
  Ewald energy   TEWEN  =    -19263.03449892
  -Hartree energ DENC   =     -6931.67220437
  -exchange      EXHF   =         0.00000000
  -V(xc)+E(xc)   XCENC  =      -345.37530580
  PAW double counting   =     26881.25582703   -25240.39569118
  entropy T*S    EENTRO =         0.01320445
  eigenvalues    EBANDS =     -2407.21893755
  atomic energy  EATOM  =     25376.36928711
  Solvation  Ediel_sol  =         0.00000000
  ---------------------------------------------------
  free energy    TOTEN  =      -374.80497103 eV

  energy without entropy =     -374.81817549  energy(sigma->0) =     -374.80937252


--------------------------------------------------------------------------------------------------------




----------------------------------------- Iteration    1(   7)  ---------------------------------------


    POTLOK:  cpu time    0.0291: real time    0.0293
    SETDIJ:  cpu time    0.0038: real time    0.0038
    EDDIAG:  cpu time    0.0728: real time    0.0765
  RMM-DIIS:  cpu time    0.8397: real time    0.8434
    ORTHCH:  cpu time    0.0120: real time    0.0120
       DOS:  cpu time    0.0020: real time    0.0020
    CHARGE:  cpu time    0.0324: real time    0.0325
    MIXING:  cpu time    0.0013: real time    0.0013
    --------------------------------------------
      LOOP:  cpu time    0.9938: real time    1.0452

 eigenvalue-minimisations  :  7483
 total energy-change (2. order) :-0.2448126E+01  (-0.3189154E+01)
 number of electron     293.0000008 magnetization 
 augmentation part       19.9484645 magnetization 

 Broyden mixing:
  rms(total) = 0.12070E+01    rms(broyden)= 0.12065E+01
  rms(prec ) = 0.34597E+01
  weight for this iteration     100.00

 eigenvalues of (default mixing * dielectric matrix)
  average eigenvalue GAMMA=   1.1629
  1.8328  0.4930

 Free energy of the ion-electron system (eV)
  ---------------------------------------------------
  alpha Z        PSCENC =      1555.25334819
  Ewald energy   TEWEN  =    -19263.03449892
  -Hartree energ DENC   =     -6818.61180140
  -exchange      EXHF   =         0.00000000
  -V(xc)+E(xc)   XCENC  =      -345.13964056
  PAW double counting   =     31884.52071488   -30238.62589255
  entropy T*S    EENTRO =        -0.00570877
  eigenvalues    EBANDS =     -2527.97890552
  atomic energy  EATOM  =     25376.36928711
  Solvation  Ediel_sol  =         0.00000000
  ---------------------------------------------------
  free energy    TOTEN  =      -377.25309753 eV

  energy without entropy =     -377.24738876  energy(sigma->0) =     -377.25119460


--------------------------------------------------------------------------------------------------------




----------------------------------------- Iteration    1(   8)  ---------------------------------------


    POTLOK:  cpu time    0.0292: real time    0.0293
    SETDIJ:  cpu time    0.0038: real time    0.0038
    EDDIAG:  cpu time    0.1283: real time    0.1289
  RMM-DIIS:  cpu time    0.7416: real time    0.7885
    ORTHCH:  cpu time    0.0130: real time    0.0130
       DOS:  cpu time    0.0025: real time    0.0025
    CHARGE:  cpu time    0.0307: real time    0.0308
    MIXING:  cpu time    0.0015: real time    0.0015
    --------------------------------------------
      LOOP:  cpu time    0.9510: real time    1.0261

 eigenvalue-minimisations  :  7167
 total energy-change (2. order) : 0.6825053E+01  (-0.7253935E+00)
 number of electron     293.0000007 magnetization 
 augmentation part       19.7437326 magnetization 

 Broyden mixing:
  rms(total) = 0.43676E+00    rms(broyden)= 0.43619E+00
  rms(prec ) = 0.73669E+00
  weight for this iteration     100.00

 eigenvalues of (default mixing * dielectric matrix)
  average eigenvalue GAMMA=   1.1529
  1.8510  1.1914  0.4162

 Free energy of the ion-electron system (eV)
  ---------------------------------------------------
  alpha Z        PSCENC =      1555.25334819
  Ewald energy   TEWEN  =    -19263.03449892
  -Hartree energ DENC   =     -6838.92712035
  -exchange      EXHF   =         0.00000000
  -V(xc)+E(xc)   XCENC  =      -343.74440744
  PAW double counting   =     32983.76991004   -31334.52704910
  entropy T*S    EENTRO =         0.01705295
  eigenvalues    EBANDS =     -2505.60456745
  atomic energy  EATOM  =     25376.36928711
  Solvation  Ediel_sol  =         0.00000000
  ---------------------------------------------------
  free energy    TOTEN  =      -370.42804497 eV

  energy without entropy =     -370.44509792  energy(sigma->0) =     -370.43372929


--------------------------------------------------------------------------------------------------------




----------------------------------------- Iteration    1(   9)  ---------------------------------------


    POTLOK:  cpu time    0.0318: real time    0.0320
    SETDIJ:  cpu time    0.0042: real time    0.0042
    EDDIAG:  cpu time    0.1075: real time    0.1086
  RMM-DIIS:  cpu time    0.8735: real time    0.8784
    ORTHCH:  cpu time    0.0126: real time    0.0136
       DOS:  cpu time    0.0009: real time    0.0009
    CHARGE:  cpu time    0.0298: real time    0.0300
    MIXING:  cpu time    0.0014: real time    0.0014
    --------------------------------------------
      LOOP:  cpu time    1.0624: real time    1.0978

 eigenvalue-minimisations  :  7549
 total energy-change (2. order) : 0.2151032E+00  (-0.2947000E+00)
 number of electron     293.0000007 magnetization 
 augmentation part       19.6598921 magnetization 

 Broyden mixing:
  rms(total) = 0.29856E+00    rms(broyden)= 0.29836E+00
  rms(prec ) = 0.45191E+00
  weight for this iteration     100.00

 eigenvalues of (default mixing * dielectric matrix)
  average eigenvalue GAMMA=   1.0723
  1.7340  1.7340  0.4105  0.4105

 Free energy of the ion-electron system (eV)
  ---------------------------------------------------
  alpha Z        PSCENC =      1555.25334819
  Ewald energy   TEWEN  =    -19263.03449892
  -Hartree energ DENC   =     -6841.17402851
  -exchange      EXHF   =         0.00000000
  -V(xc)+E(xc)   XCENC  =      -343.15657775
  PAW double counting   =     33198.44077539   -31545.33629322
  entropy T*S    EENTRO =         0.01324982
  eigenvalues    EBANDS =     -2507.58820392
  atomic energy  EATOM  =     25376.36928711
  Solvation  Ediel_sol  =         0.00000000
  ---------------------------------------------------
  free energy    TOTEN  =      -370.21294181 eV

  energy without entropy =     -370.22619162  energy(sigma->0) =     -370.21735841


--------------------------------------------------------------------------------------------------------




----------------------------------------- Iteration    1(  10)  ---------------------------------------


    POTLOK:  cpu time    0.0300: real time    0.0307
    SETDIJ:  cpu time    0.0038: real time    0.0038
    EDDIAG:  cpu time    0.0764: real time    0.0770
  RMM-DIIS:  cpu time    0.7856: real time    0.7905
    ORTHCH:  cpu time    0.0120: real time    0.0120
       DOS:  cpu time    0.0013: real time    0.0013
    CHARGE:  cpu time    0.0315: real time    0.0316
    MIXING:  cpu time    0.0014: real time    0.0014
    --------------------------------------------
      LOOP:  cpu time    0.9426: real time    0.9765

 eigenvalue-minimisations  :  7531
 total energy-change (2. order) : 0.4464823E-01  (-0.6119342E-01)
 number of electron     293.0000007 magnetization 
 augmentation part       19.5877841 magnetization 

 Broyden mixing:
  rms(total) = 0.15730E+00    rms(broyden)= 0.15724E+00
  rms(prec ) = 0.29188E+00
  weight for this iteration     100.00

 eigenvalues of (default mixing * dielectric matrix)
  average eigenvalue GAMMA=   1.0692
  1.8894  1.8894  0.7182  0.4245  0.4245

 Free energy of the ion-electron system (eV)
  ---------------------------------------------------
  alpha Z        PSCENC =      1555.25334819
  Ewald energy   TEWEN  =    -19263.03449892
  -Hartree energ DENC   =     -6853.18124935
  -exchange      EXHF   =         0.00000000
  -V(xc)+E(xc)   XCENC  =      -342.33079737
  PAW double counting   =     33425.25625355   -31765.90791214
  entropy T*S    EENTRO =         0.01512272
  eigenvalues    EBANDS =     -2502.60784738
  atomic energy  EATOM  =     25376.36928711
  Solvation  Ediel_sol  =         0.00000000
  ---------------------------------------------------
  free energy    TOTEN  =      -370.16829358 eV

  energy without entropy =     -370.18341630  energy(sigma->0) =     -370.17333448


--------------------------------------------------------------------------------------------------------




----------------------------------------- Iteration    1(  11)  ---------------------------------------


    POTLOK:  cpu time    0.0291: real time    0.0292
    SETDIJ:  cpu time    0.0036: real time    0.0036
    EDDIAG:  cpu time    0.0738: real time    0.0741
  RMM-DIIS:  cpu time    0.8566: real time    0.8601
    ORTHCH:  cpu time    0.0118: real time    0.0119
       DOS:  cpu time    0.0258: real time    0.0259
    CHARGE:  cpu time    0.0307: real time    0.0308
    MIXING:  cpu time    0.0014: real time    0.0014
    --------------------------------------------
      LOOP:  cpu time    1.0336: real time    1.0622

 eigenvalue-minimisations  :  7472
 total energy-change (2. order) : 0.3726029E-01  (-0.1722734E-01)
 number of electron     293.0000007 magnetization 
 augmentation part       19.5530162 magnetization 

 Broyden mixing:
  rms(total) = 0.87657E-01    rms(broyden)= 0.87610E-01
  rms(prec ) = 0.17537E+00
  weight for this iteration     100.00

 eigenvalues of (default mixing * dielectric matrix)
  average eigenvalue GAMMA=   1.0432
  2.0032  2.0032  0.9758  0.4487  0.4487  0.3795

 Free energy of the ion-electron system (eV)
  ---------------------------------------------------
  alpha Z        PSCENC =      1555.25334819
  Ewald energy   TEWEN  =    -19263.03449892
  -Hartree energ DENC   =     -6855.14970594
  -exchange      EXHF   =         0.00000000
  -V(xc)+E(xc)   XCENC  =      -342.02194905
  PAW double counting   =     33568.53698229   -31905.90553902
  entropy T*S    EENTRO =         0.01572424
  eigenvalues    EBANDS =     -2504.19468219
  atomic energy  EATOM  =     25376.36928711
  Solvation  Ediel_sol  =         0.00000000
  ---------------------------------------------------
  free energy    TOTEN  =      -370.13103329 eV

  energy without entropy =     -370.14675753  energy(sigma->0) =     -370.13627470


--------------------------------------------------------------------------------------------------------




----------------------------------------- Iteration    1(  12)  ---------------------------------------


    POTLOK:  cpu time    0.0331: real time    0.0334
    SETDIJ:  cpu time    0.0089: real time    0.0090
    EDDIAG:  cpu time    0.0817: real time    0.0821
  RMM-DIIS:  cpu time    0.8771: real time    0.8913
    ORTHCH:  cpu time    0.0120: real time    0.0122
       DOS:  cpu time    0.0026: real time    0.0026
    CHARGE:  cpu time    0.0345: real time    0.0346
    MIXING:  cpu time    0.0016: real time    0.0016
    --------------------------------------------
      LOOP:  cpu time    1.0526: real time    1.1113

 eigenvalue-minimisations  :  7611
 total energy-change (2. order) : 0.9559189E-02  (-0.6354281E-02)
 number of electron     293.0000007 magnetization 
 augmentation part       19.5489344 magnetization 

 Broyden mixing:
  rms(total) = 0.44608E-01    rms(broyden)= 0.44582E-01
  rms(prec ) = 0.70060E-01
  weight for this iteration     100.00

 eigenvalues of (default mixing * dielectric matrix)
  average eigenvalue GAMMA=   1.0333
  2.2458  1.8817  1.1891  0.6821  0.4882  0.3985  0.3480

 Free energy of the ion-electron system (eV)
  ---------------------------------------------------
  alpha Z        PSCENC =      1555.25334819
  Ewald energy   TEWEN  =    -19263.03449892
  -Hartree energ DENC   =     -6857.82353663
  -exchange      EXHF   =         0.00000000
  -V(xc)+E(xc)   XCENC  =      -341.82574614
  PAW double counting   =     33694.31434572   -32029.34895843
  entropy T*S    EENTRO =         0.01459870
  eigenvalues    EBANDS =     -2504.04031369
  atomic energy  EATOM  =     25376.36928711
  Solvation  Ediel_sol  =         0.00000000
  ---------------------------------------------------
  free energy    TOTEN  =      -370.12147410 eV

  energy without entropy =     -370.13607279  energy(sigma->0) =     -370.12634033


--------------------------------------------------------------------------------------------------------




----------------------------------------- Iteration    1(  13)  ---------------------------------------


    POTLOK:  cpu time    0.0285: real time    0.0298
    SETDIJ:  cpu time    0.0037: real time    0.0038
    EDDIAG:  cpu time    0.0879: real time    0.0882
  RMM-DIIS:  cpu time    0.8658: real time    0.8873
    ORTHCH:  cpu time    0.0118: real time    0.0118
       DOS:  cpu time    0.0280: real time    0.0282
    CHARGE:  cpu time    0.0531: real time    0.0534
    MIXING:  cpu time    0.0016: real time    0.0016
    --------------------------------------------
      LOOP:  cpu time    1.0810: real time    1.1295

 eigenvalue-minimisations  :  7553
 total energy-change (2. order) : 0.3814402E-03  (-0.2023605E-02)
 number of electron     293.0000007 magnetization 
 augmentation part       19.5476821 magnetization 

 Broyden mixing:
  rms(total) = 0.29308E-01    rms(broyden)= 0.29295E-01
  rms(prec ) = 0.58172E-01
  weight for this iteration     100.00

 eigenvalues of (default mixing * dielectric matrix)
  average eigenvalue GAMMA=   1.0308
  2.3565  1.9040  1.3074  0.9535  0.5353  0.4213  0.4213  0.3473

 Free energy of the ion-electron system (eV)
  ---------------------------------------------------
  alpha Z        PSCENC =      1555.25334819
  Ewald energy   TEWEN  =    -19263.03449892
  -Hartree energ DENC   =     -6857.60995319
  -exchange      EXHF   =         0.00000000
  -V(xc)+E(xc)   XCENC  =      -341.79511399
  PAW double counting   =     33766.43257860   -32100.39975322
  entropy T*S    EENTRO =         0.01581428
  eigenvalues    EBANDS =     -2505.35280152
  atomic energy  EATOM  =     25376.36928711
  Solvation  Ediel_sol  =         0.00000000
  ---------------------------------------------------
  free energy    TOTEN  =      -370.12109266 eV

  energy without entropy =     -370.13690694  energy(sigma->0) =     -370.12636408


--------------------------------------------------------------------------------------------------------




----------------------------------------- Iteration    1(  14)  ---------------------------------------


    POTLOK:  cpu time    0.0274: real time    0.0274
    SETDIJ:  cpu time    0.0036: real time    0.0036
    EDDIAG:  cpu time    0.0819: real time    0.0823
  RMM-DIIS:  cpu time    0.8632: real time    0.8718
    ORTHCH:  cpu time    0.0121: real time    0.0122
       DOS:  cpu time    0.0008: real time    0.0008
    CHARGE:  cpu time    0.0313: real time    0.0314
    MIXING:  cpu time    0.0016: real time    0.0016
    --------------------------------------------
      LOOP:  cpu time    1.0226: real time    1.0948

 eigenvalue-minimisations  :  7688
 total energy-change (2. order) : 0.6696133E-03  (-0.7950340E-03)
 number of electron     293.0000007 magnetization 
 augmentation part       19.5462250 magnetization 

 Broyden mixing:
  rms(total) = 0.16841E-01    rms(broyden)= 0.16835E-01
  rms(prec ) = 0.27681E-01
  weight for this iteration     100.00

 eigenvalues of (default mixing * dielectric matrix)
  average eigenvalue GAMMA=   1.0221
  2.4549  1.9261  1.4655  1.1161  0.5724  0.5391  0.3936  0.3936  0.3379

 Free energy of the ion-electron system (eV)
  ---------------------------------------------------
  alpha Z        PSCENC =      1555.25334819
  Ewald energy   TEWEN  =    -19263.03449892
  -Hartree energ DENC   =     -6858.47253592
  -exchange      EXHF   =         0.00000000
  -V(xc)+E(xc)   XCENC  =      -341.76485855
  PAW double counting   =     33797.65077981   -32131.10627909
  entropy T*S    EENTRO =         0.01520119
  eigenvalues    EBANDS =     -2505.03086686
  atomic energy  EATOM  =     25376.36928711
  Solvation  Ediel_sol  =         0.00000000
  ---------------------------------------------------
  free energy    TOTEN  =      -370.12042304 eV

  energy without entropy =     -370.13562424  energy(sigma->0) =     -370.12549011


--------------------------------------------------------------------------------------------------------




----------------------------------------- Iteration    1(  15)  ---------------------------------------


    POTLOK:  cpu time    0.0288: real time    0.0290
    SETDIJ:  cpu time    0.0036: real time    0.0037
    EDDIAG:  cpu time    0.0743: real time    0.0748
  RMM-DIIS:  cpu time    0.7894: real time    0.7961
    ORTHCH:  cpu time    0.0121: real time    0.0122
       DOS:  cpu time    0.0008: real time    0.0008
    CHARGE:  cpu time    0.0319: real time    0.0321
    MIXING:  cpu time    0.0017: real time    0.0017
    --------------------------------------------
      LOOP:  cpu time    0.9433: real time    1.0179

 eigenvalue-minimisations  :  7573
 total energy-change (2. order) :-0.4493334E-04  (-0.4830564E-03)
 number of electron     293.0000007 magnetization 
 augmentation part       19.5459242 magnetization 

 Broyden mixing:
  rms(total) = 0.91622E-02    rms(broyden)= 0.91548E-02
  rms(prec ) = 0.15734E-01
  weight for this iteration     100.00

 eigenvalues of (default mixing * dielectric matrix)
  average eigenvalue GAMMA=   1.0100
  2.5186  1.9937  1.5197  1.1851  0.7372  0.6056  0.4222  0.4222  0.3659  0.3302

 Free energy of the ion-electron system (eV)
  ---------------------------------------------------
  alpha Z        PSCENC =      1555.25334819
  Ewald energy   TEWEN  =    -19263.03449892
  -Hartree energ DENC   =     -6858.86971633
  -exchange      EXHF   =         0.00000000
  -V(xc)+E(xc)   XCENC  =      -341.74602455
  PAW double counting   =     33823.03001862   -32156.07532705
  entropy T*S    EENTRO =         0.01533713
  eigenvalues    EBANDS =     -2505.06289218
  atomic energy  EATOM  =     25376.36928711
  Solvation  Ediel_sol  =         0.00000000
  ---------------------------------------------------
  free energy    TOTEN  =      -370.12046798 eV

  energy without entropy =     -370.13580511  energy(sigma->0) =     -370.12558035


--------------------------------------------------------------------------------------------------------




----------------------------------------- Iteration    1(  16)  ---------------------------------------


    POTLOK:  cpu time    0.0280: real time    0.0283
    SETDIJ:  cpu time    0.0036: real time    0.0036
    EDDIAG:  cpu time    0.0907: real time    0.0911
  RMM-DIIS:  cpu time    0.7726: real time    0.7817
    ORTHCH:  cpu time    0.0119: real time    0.0119
       DOS:  cpu time    0.0014: real time    0.0014
    CHARGE:  cpu time    0.0313: real time    0.0314
    MIXING:  cpu time    0.0017: real time    0.0017
    --------------------------------------------
      LOOP:  cpu time    0.9417: real time    1.0167

 eigenvalue-minimisations  :  7361
 total energy-change (2. order) :-0.2521283E-04  (-0.1799884E-03)
 number of electron     293.0000007 magnetization 
 augmentation part       19.5461060 magnetization 

 Broyden mixing:
  rms(total) = 0.55547E-02    rms(broyden)= 0.55526E-02
  rms(prec ) = 0.10740E-01
  weight for this iteration     100.00

 eigenvalues of (default mixing * dielectric matrix)
  average eigenvalue GAMMA=   1.0038
  2.5685  2.0566  1.5786  1.1918  0.9026  0.7020  0.4756  0.4756  0.3865  0.3740
  0.3304

 Free energy of the ion-electron system (eV)
  ---------------------------------------------------
  alpha Z        PSCENC =      1555.25334819
  Ewald energy   TEWEN  =    -19263.03449892
  -Hartree energ DENC   =     -6859.11618879
  -exchange      EXHF   =         0.00000000
  -V(xc)+E(xc)   XCENC  =      -341.74072115
  PAW double counting   =     33834.46652157   -32167.33172550
  entropy T*S    EENTRO =         0.01525250
  eigenvalues    EBANDS =     -2505.00176820
[...]
     98       5.4304      2.00000
     99       5.5195      2.00000
    100       5.5902      2.00000
    101       5.6399      2.00000
    102       5.6971      2.00000
    103       5.7608      2.00000
    104       5.8204      2.00000
    105       5.9179      2.00000
    106       6.0705      2.00000
    107       6.1190      2.00000
    108       6.1287      2.00000
    109       6.1626      2.00000
    110       6.1857      2.00000
    111       6.2451      2.00000
    112       6.2732      2.00000
    113       6.2887      2.00000
    114       6.3228      2.00000
    115       6.3555      2.00000
    116       6.3824      2.00000
    117       6.4234      2.00000
    118       6.4639      2.00000
    119       6.5098      2.00000
    120       6.5386      2.00000
    121       6.5696      2.00000
    122       6.6075      2.00000
    123       6.6364      2.00000
    124       6.6775      2.00000
    125       6.7219      2.00000
    126       6.7644      2.00000
    127       6.8233      2.00000
    128       6.8576      2.00000
    129       6.9089      2.00000
    130       6.9584      2.00000
    131       6.9878      2.00000
    132       7.0171      2.00000
    133       7.0470      2.00000
    134       7.1166      2.00009
    135       7.1425      2.00025
    136       7.1766      2.00081
    137       7.2106      2.00236
    138       7.2645      2.01006
    139       7.3054      2.02422
    140       7.3154      2.02911
    141       7.3534      2.05136
    142       7.3988      2.07084
    143       7.4031      2.07086
    144       7.4209      2.06463
    145       7.4684      1.96749
    146       7.5014      1.79946
    147       7.5228      1.63888
    148       7.5667      1.20415
    149       7.5920      0.91957
    150       7.6236      0.57893
    151       7.6744      0.16292
    152       7.7171     -0.01613
    153       7.7487     -0.06446
    154       7.8024     -0.05962
    155       7.8218     -0.04806
    156       7.8442     -0.03463
    157       7.8859     -0.01565
    158       7.9211     -0.00680
    159       7.9519     -0.00293
    160       7.9738     -0.00151
    161       8.0476     -0.00012
    162       8.1082     -0.00001
    163       8.1531     -0.00000
    164       8.2457     -0.00000
    165       8.2577     -0.00000
    166       8.3356     -0.00000
    167       8.3888     -0.00000
    168       8.4527     -0.00000
    169       8.6914     -0.00000
    170       8.8035     -0.00000
    171       8.8656     -0.00000
    172       9.4566     -0.00000
    173       9.5479     -0.00000
    174       9.6078     -0.00000
    175       9.6283     -0.00000
    176       9.7277     -0.00000


--------------------------------------------------------------------------------------------------------


 soft charge-density along one line, spin component           1
         0         1         2         3         4         5         6         7         8         9
 total charge-density along one line
 
 pseudopotential strength for first ion, spin component:           1
 -5.051  -0.001   0.000  -0.001  -0.000  -6.299  -0.001   0.000
 -0.001  -5.054  -0.001  -0.003   0.001  -0.001  -6.303  -0.001
  0.000  -0.001  -5.053  -0.001   0.001   0.000  -0.001  -6.301
 -0.001  -0.003  -0.001  -5.053  -0.002  -0.002  -0.004  -0.001
 -0.000   0.001   0.001  -0.002  -5.053  -0.001   0.002   0.001
 -6.299  -0.001   0.000  -0.002  -0.001  -7.835  -0.001   0.000
 -0.001  -6.303  -0.001  -0.004   0.002  -0.001  -7.840  -0.001
  0.000  -0.001  -6.301  -0.001   0.001   0.000  -0.001  -7.838
 -0.002  -0.004  -0.001  -6.301  -0.002  -0.002  -0.006  -0.001
 -0.001   0.002   0.001  -0.002  -6.301  -0.001   0.002   0.001
  0.002   0.001   0.000   0.001   0.001   0.002   0.002   0.000
  0.003   0.002  -0.000   0.002   0.001   0.004   0.003   0.000
  0.003   0.001   0.001   0.002   0.003   0.004   0.002   0.002
  0.002  -0.002  -0.003   0.004  -0.002   0.003  -0.003  -0.003
 -0.001   0.002  -0.000  -0.002   0.001  -0.002   0.003  -0.000
 -0.002  -0.004  -0.002  -0.004  -0.004  -0.003  -0.004  -0.002
 -0.004   0.002   0.003  -0.004   0.003  -0.004   0.003   0.003
  0.002  -0.004  -0.001   0.003  -0.000   0.002  -0.004  -0.001
 total augmentation occupancy for first ion, spin component:           1
  4.031   0.006  -0.149  -0.025  -0.033  -2.085  -0.009   0.064   0.021   0.014  -0.011   0.028  -0.005  -0.030   0.017  -0.001
  0.006   3.515   0.017  -0.260   0.021  -0.009  -1.805  -0.009   0.136  -0.009  -0.014   0.018  -0.029   0.008  -0.036  -0.001
 -0.149   0.017   3.918  -0.044  -0.004   0.064  -0.009  -2.071   0.017   0.006  -0.074   0.008  -0.020   0.056   0.007  -0.001
 -0.025  -0.260  -0.044   3.946  -0.163   0.021   0.136   0.018  -2.044   0.091  -0.090   0.016  -0.028  -0.035   0.110  -0.002
 -0.033   0.021  -0.004  -0.163   3.912   0.014  -0.009   0.006   0.091  -2.063   0.090  -0.007  -0.009   0.039  -0.036  -0.001
 -2.085  -0.009   0.064   0.021   0.014   1.088   0.007  -0.027  -0.015  -0.006   0.015  -0.015   0.010   0.014  -0.011   0.001
 -0.009  -1.805  -0.009   0.136  -0.009   0.007   0.937   0.004  -0.072   0.004   0.011  -0.009   0.011  -0.008   0.017   0.000
  0.064  -0.009  -2.071   0.018   0.006  -0.027   0.004   1.102  -0.006  -0.006   0.041  -0.004   0.009  -0.034  -0.004   0.000
  0.021   0.136   0.017  -2.044   0.091  -0.015  -0.072  -0.006   1.069  -0.050   0.047  -0.008   0.013   0.024  -0.056   0.001
  0.014  -0.009   0.006   0.091  -2.063  -0.006   0.004  -0.006  -0.050   1.096  -0.053   0.005   0.004  -0.019   0.018   0.001
 -0.011  -0.014  -0.074  -0.090   0.090   0.015   0.011   0.041   0.047  -0.053   2.345  -0.292   0.018   0.012  -0.045   0.001
  0.028   0.018   0.008   0.016  -0.007  -0.015  -0.009  -0.004  -0.008   0.005  -0.292   0.039  -0.000  -0.001   0.001  -0.000
 -0.005  -0.029  -0.020  -0.028  -0.009   0.010   0.011   0.009   0.013   0.004   0.018  -0.000   0.293  -0.012  -0.013   0.005
 -0.030   0.008   0.056  -0.035   0.039   0.014  -0.008  -0.034   0.024  -0.019   0.012  -0.001  -0.012   0.288   0.001  -0.000
  0.017  -0.036   0.007   0.110  -0.036  -0.011   0.017  -0.004  -0.056   0.018  -0.045   0.001  -0.013   0.001   0.284  -0.000
 -0.001  -0.001  -0.001  -0.002  -0.001   0.001   0.000   0.000   0.001   0.001   0.001  -0.000   0.005  -0.000  -0.000   0.000
 -0.002   0.001   0.003  -0.002   0.001   0.001  -0.001  -0.002   0.001  -0.001   0.000  -0.000  -0.000   0.005   0.000  -0.000
  0.001  -0.002  -0.000   0.002   0.000  -0.000   0.001   0.000  -0.001   0.000   0.000  -0.000  -0.000   0.000   0.005  -0.000


------------------------ aborting loop because EDIFF is reached ----------------------------------------


    CHARGE:  cpu time    0.0285: real time    0.0287
    FORLOC:  cpu time    0.0133: real time    0.0134
    FORNL :  cpu time    0.3089: real time    0.3102
    STRESS:  cpu time    0.9150: real time    0.9222
    FORCOR:  cpu time    0.0421: real time    0.0424
    FORHAR:  cpu time    0.0182: real time    0.0182
    MIXING:  cpu time    0.0011: real time    0.0012
    OFIELD:  cpu time    0.0000: real time    0.0000

  FORCE on cell =-STRESS in cart. coord.  units (eV):
  Direction    XX          YY          ZZ          XY          YZ          ZX
  --------------------------------------------------------------------------------------
  Alpha Z  1555.38151  1555.38151  1555.38151
  Ewald   -5443.95822 -6875.48041 -6950.26469   -47.81147    63.91750  -161.52569
  Hartree  3203.98106  1872.83449  1776.06662   -28.56455    28.58075  -139.33603
  E(xc)   -1288.54224 -1288.88890 -1288.84243    -0.23081     0.37772     0.08539
  Local   -2890.88928  -130.98481    41.68784    76.48813   -94.16387   300.58230
  n-local  -281.06759  -284.80775  -285.88208     2.45964    -3.10301    -1.98927
  augment   243.10740   243.58629   243.68245    -0.46047     0.64218     0.35156
  Kinetic  4902.07800  4908.42261  4908.24492    -1.89687     3.76434     1.83186
  Fock        0.00000     0.00000     0.00000     0.00000     0.00000     0.00000
  -------------------------------------------------------------------------------------
  Total       0.09064     0.06304     0.07415    -0.01640     0.01561     0.00012
  in kB       0.20428     0.14207     0.16711    -0.03696     0.03518     0.00026
  external pressure =        0.17 kB  Pullay stress =        0.00 kB


 VOLUME and BASIS-vectors are now :
 -----------------------------------------------------------------------------
  energy-cutoff  :      300.00
  volume of cell :      710.89
      direct lattice vectors                 reciprocal lattice vectors
     6.833358822  0.009831810 -0.000013773     0.146341225 -0.000213401 -0.000002126
     0.014852890 10.185741306 -0.025283003    -0.000141257  0.098177260  0.000240257
     0.000111908 -0.024994452 10.213671101    -0.000000152  0.000243028  0.097908584

  length of vectors
     6.833365895 10.185783514 10.213701684     0.146341380  0.098177656  0.097908886


 FORCES acting on ions
    electron-ion (+dipol)            ewald-force                    non-local-force                 convergence-correction
 -----------------------------------------------------------------------------------------------
   -.408E+02 -.408E+02 -.378E+02   0.405E+02 0.410E+02 0.381E+02   0.270E+00 -.190E+00 -.300E+00   0.282E-03 -.766E-02 -.637E-02
   -.247E+02 -.595E+02 0.958E+02   0.246E+02 0.592E+02 -.950E+02   0.192E+00 0.249E+00 -.764E+00   -.882E-03 -.497E-03 -.105E-01
   0.245E+02 -.934E+02 -.827E+02   -.244E+02 0.937E+02 0.822E+02   -.907E-01 -.257E+00 0.537E+00   -.224E-04 -.588E-02 0.795E-02
   -.226E+02 0.932E+02 0.516E+02   0.223E+02 -.932E+02 -.514E+02   0.217E+00 0.691E-03 -.148E+00   0.139E-03 0.520E-02 0.788E-02
   -.598E+01 -.895E+02 -.104E+03   0.609E+01 0.888E+02 0.104E+03   -.104E+00 0.679E+00 0.277E+00   -.382E-03 -.303E-02 0.302E-02
   -.358E+01 0.560E+02 -.760E+02   0.400E+01 -.553E+02 0.759E+02   -.420E+00 -.706E+00 0.127E+00   -.346E-03 -.344E-02 0.142E-02
   -.766E+01 0.471E+02 0.442E+02   0.750E+01 -.476E+02 -.442E+02   0.165E+00 0.478E+00 -.825E-01   0.982E-04 -.863E-03 -.259E-02
   0.552E+02 -.469E+01 0.502E+02   -.545E+02 0.478E+01 -.498E+02   -.686E+00 -.808E-01 -.438E+00   -.256E-04 -.500E-02 -.747E-02
   0.228E+02 0.101E+03 0.551E+02   -.227E+02 -.100E+03 -.551E+02   -.123E+00 -.290E+00 0.335E-01   -.171E-03 0.489E-02 0.762E-02
   0.359E+02 0.202E+03 0.317E+03   -.353E+02 -.202E+03 -.318E+03   -.581E+00 -.208E+00 0.392E+00   0.325E-02 0.164E-01 -.736E-02
   -.346E+02 0.196E+03 0.350E+03   0.341E+02 -.196E+03 -.351E+03   0.504E+00 -.172E+00 0.419E+00   0.248E-02 0.203E-01 -.116E-01
   -.253E+02 -.244E+03 0.987E+02   0.254E+02 0.244E+03 -.992E+02   -.478E-02 0.564E+00 0.496E+00   -.145E-01 0.525E-02 0.242E-01
   0.380E+02 0.969E+02 -.212E+03   -.381E+02 -.964E+02 0.211E+03   0.111E+00 -.481E+00 0.720E+00   0.126E-02 0.148E-01 0.398E-01
   0.181E+02 0.968E+02 0.177E+03   -.177E+02 -.972E+02 -.178E+03   -.328E+00 0.410E+00 0.295E+00   -.249E-02 -.364E-02 -.124E-01
   0.588E+01 0.191E+03 -.521E+02   -.507E+01 -.192E+03 0.520E+02   -.813E+00 0.731E+00 0.987E-01   -.286E-02 -.282E-02 0.347E-01
   0.275E+02 -.273E+03 0.221E+02   -.275E+02 0.272E+03 -.226E+02   0.525E-01 0.632E+00 0.441E+00   0.985E-02 0.817E-02 0.185E-01
   -.335E+02 0.155E+03 -.161E+03   0.336E+02 -.154E+03 0.161E+03   -.117E+00 -.513E+00 0.435E+00   -.278E-02 0.667E-02 0.535E-01
   -.881E+01 0.156E+03 0.458E+02   0.807E+01 -.157E+03 -.460E+02   0.745E+00 0.788E+00 0.180E+00   -.298E-02 0.249E-02 0.427E-01
   0.117E+02 -.312E+03 0.283E+03   -.118E+02 0.312E+03 -.283E+03   0.428E-01 -.210E+00 -.555E+00   0.112E-02 -.173E-01 0.175E-02
   -.709E+02 -.890E+01 0.554E+02   0.703E+02 0.867E+01 -.546E+02   0.581E+00 0.235E+00 -.800E+00   0.115E-03 -.663E-02 -.953E-02
   -.418E+02 -.110E+02 0.517E+02   0.415E+02 0.114E+02 -.520E+02   0.298E+00 -.430E+00 0.302E+00   -.277E-04 -.758E-02 0.809E-02
   0.968E+01 0.579E+02 -.102E+03   -.101E+02 -.571E+02 0.101E+03   0.467E+00 -.786E+00 0.383E+00   0.114E-02 -.403E-02 0.269E-02
   0.576E+01 0.592E+02 -.426E+02   -.523E+01 -.590E+02 0.427E+02   -.529E+00 -.209E+00 -.523E-01   -.845E-03 0.495E-02 -.881E-02
   -.974E+01 0.794E+02 0.593E+02   0.871E+01 -.791E+02 -.587E+02   0.103E+01 -.378E+00 -.600E+00   -.514E-03 0.696E-02 -.133E-01
   -.108E+01 -.141E+03 0.145E+03   0.119E+01 0.141E+03 -.145E+03   -.110E+00 -.314E+00 -.262E+00   0.373E-03 -.535E-02 -.364E-02
   0.420E+02 -.173E+02 0.417E+02   -.417E+02 0.175E+02 -.421E+02   -.303E+00 -.249E+00 0.390E+00   -.194E-03 -.729E-02 0.714E-02
   0.839E+01 0.949E+02 0.574E+02   -.741E+01 -.949E+02 -.570E+02   -.986E+00 0.275E-01 -.367E+00   -.265E-03 0.668E-02 -.135E-01
   0.878E+00 -.616E+01 -.361E+02   -.934E+00 0.570E+01 0.368E+02   0.583E-01 0.451E+00 -.660E+00   0.232E-03 0.579E-02 -.111E-01
   0.276E+02 -.959E+02 0.141E+03   -.275E+02 0.959E+02 -.141E+03   -.113E+00 0.857E-01 -.591E+00   0.506E-03 -.123E-02 -.137E-01
   0.244E+02 0.550E+02 -.107E+03   -.248E+02 -.551E+02 0.106E+03   0.451E+00 0.101E+00 0.562E+00   0.105E-02 0.919E-02 0.514E-02
   0.291E+02 -.203E+03 -.338E+03   -.294E+02 0.202E+03 0.338E+03   0.270E+00 0.929E+00 0.799E-01   0.215E-02 -.788E-02 0.114E-01
   0.851E+02 -.126E+03 -.580E+02   -.844E+02 0.126E+03 0.580E+02   -.671E+00 -.688E+00 0.739E-01   -.296E-03 -.251E-01 -.153E-01
   -.727E+01 -.715E+02 -.989E+02   0.748E+01 0.713E+02 0.998E+02   -.211E+00 0.214E+00 -.865E+00   0.154E-02 0.155E-01 -.334E-01
   -.658E+02 -.280E+03 -.215E+03   0.657E+02 0.280E+03 0.214E+03   0.886E-01 -.282E+00 0.631E+00   -.162E-03 -.168E-01 0.287E-01
   -.115E+01 0.226E+03 -.171E+03   0.366E+00 -.226E+03 0.172E+03   0.787E+00 0.674E-01 -.368E+00   0.562E-03 0.114E-01 -.249E-01
   -.666E+02 0.113E+03 -.250E+03   0.672E+02 -.113E+03 0.249E+03   -.609E+00 0.133E-01 0.510E+00   -.465E-02 0.238E-01 0.138E-01
 -----------------------------------------------------------------------------------------------
   0.473E+00 -.254E+00 -.636E+00   0.711E-13 0.995E-13 -.853E-13   -.467E+00 0.212E+00 0.531E+00   -.828E-02 0.365E-01 0.115E+00
 
 
 POSITION                                       TOTAL-FORCE (eV/Angst)
 -----------------------------------------------------------------------------------
      3.28652      3.46914      0.01959         0.000660      0.000468      0.000976
      1.65339      1.69062      1.81695        -0.004965      0.000776     -0.001971
      0.03202      3.35383      6.70971        -0.000245     -0.001073      0.002161
      1.69286      8.50077      5.12446        -0.001975      0.001133     -0.003625
      5.15196      1.60529      8.59287         0.000675     -0.000913      0.000338
      5.20045      5.16282      8.52730        -0.000737      0.002715     -0.000545
      3.40372      6.74640      3.32138        -0.002812     -0.003221      0.004773
      5.27648      5.00876      1.68722        -0.001141      0.001467     -0.001727
      5.15133      8.46583      5.11954         0.001776      0.001390     -0.005115
      3.46080      0.02298      3.37175        -0.000398     -0.000299     -0.000650
      6.75792      0.05120      3.40013        -0.000506      0.000108     -0.000792
      1.71994      1.64919      4.98715         0.000367      0.001019      0.000203
      6.82313      0.13304      6.71214         0.001058     -0.000180      0.001447
      0.02009      6.77051      3.37414         0.000535     -0.001329      0.001126
      0.06111      6.70290      6.78413         0.000506      0.001015      0.000920
      5.10031      1.64888      4.99870        -0.001166      0.000405     -0.000034
      3.42132      0.06344      6.67830         0.001281      0.000745     -0.001838
      3.36110      6.69229      6.75437         0.000790      0.000592     -0.003300
      6.80021      3.38519      3.53570        -0.000449     -0.000029      0.000879
      1.57043      5.04542      1.83178         0.000637      0.000418     -0.003410
      1.66827      5.15821      5.05037         0.001142     -0.000607      0.003152
      1.67439      5.30100      8.38590         0.003051      0.000330      0.000513
      0.11175      6.90220      0.03189        -0.002555      0.001301      0.002036
      1.57659      8.55574      1.82962         0.000119     -0.002922      0.006682
      3.43102      3.43500      3.45468        -0.000556      0.000092     -0.005733
      5.15934      5.15873      5.05180        -0.001131      0.001231      0.001835
      5.26709      8.50818      1.80946        -0.003100     -0.003148      0.006529
      6.83202     10.01556      0.07937         0.003007     -0.004517      0.000401
      5.15510      1.72304      1.73211         0.001205     -0.000285     -0.002312
      1.67648      8.45398      8.36578        -0.001304      0.000303     -0.002340
      1.73342      1.41188      8.46996         0.004536     -0.000685     -0.001426
      0.24313      3.40587     10.07896        -0.000813     -0.000014     -0.004398
      3.44793     10.04574      0.13563        -0.000913     -0.002860      0.001667
      3.40224      3.39706      6.72598         0.001582      0.000655      0.001429
      3.35570      6.82421      0.07092        -0.000326      0.003010      0.001981
      5.15852      8.46492      8.36897         0.002164      0.002907      0.000165
 -----------------------------------------------------------------------------------
    total drift:                               -0.001449     -0.004868      0.010295


--------------------------------------------------------------------------------------------------------



  FREE ENERGIE OF THE ION-ELECTRON SYSTEM (eV)
  ---------------------------------------------------
  free  energy   TOTEN  =      -370.12685971 eV

  energy  without entropy=     -370.14323240  energy(sigma->0) =     -370.13231727
 
 d Force = 0.5387932E-04[ 0.373E-04, 0.705E-04]  d Energy = 0.5403918E-04-0.160E-06
 d Force = 0.5397728E-01[ 0.537E-01, 0.543E-01]  d Ewald  =-0.4418657E-01 0.982E-01


--------------------------------------------------------------------------------------------------------


    POTLOK:  cpu time    0.0909: real time    0.0912


--------------------------------------------------------------------------------------------------------


 Conjugate gradient step on ions:
 trial-energy change:   -0.000054  1 .order   -0.000056   -0.000072   -0.000040
  (g-gl).g = 0.250E-04      g.g   = 0.256E-04  gl.gl    = 0.105E-03
 g(Force)  = 0.201E-04   g(Stress)= 0.556E-05 ortho     = 0.139E-05
 gamma     =   0.23778
 trial     =   2.78290
 opt step  =   6.16916  (harmonic =   6.16916) maximal distance =0.00122775
 next E    =  -370.126886   (d E  =  -0.00008)


--------------------------------------------------------------------------------------------------------


  
 reached required accuracy - stopping structural energy minimisation
     LOOP+:  cpu time    3.7693: real time    4.3099
    4ORBIT:  cpu time    0.0000: real time    0.0000

 total amount of memory used by VASP on root node    67320. kBytes
========================================================================

   base      :      30000. kBytes
   nonlr-proj:      10887. kBytes
   fftplans  :       2814. kBytes
   grid      :       5360. kBytes
   one-center:        124. kBytes
   wavefun   :      18135. kBytes
 
  
  
 General timing and accounting informations for this job:
 ========================================================
  
                  Total CPU time used (sec):      122.504
                            User time (sec):      121.704
                          System time (sec):        0.800
                         Elapsed time (sec):      141.237
  
                   Maximum memory used (kb):      258472.
                   Average memory used (kb):           0.
  
                          Minor page faults:       106264
                          Major page faults:           34
                 Voluntary context switches:         5715
