<?xml version="1.0" encoding="ISO-8859-1"?>
<modeling>
 <generator>
  <i name="program" type="string">vasp </i>
  <i name="version" type="string">5.4.1  </i>
  <i name="subversion" type="string">05Feb16 (build Jan 29 2020 16:04:39) complex                          parallel </i>
  <i name="platform" type="string">IFC91_ompi </i>
  <i name="date" type="string">2020 06 15 </i>
  <i name="time" type="string">03:12:07 </i>
 </generator>
 <incar>
  <i type="string" name="SYSTEM"> automatically generated by mexm</i>
  <i type="int" name="ISTART">     0</i>
  <i type="string" name="PREC">accurate               ! avoid wrap aro</i>
  <i type="string" name="ALGO"> Fast                   ! blocked Davids</i>
  <i type="int" name="ISPIN">     1</i>
  <i type="int" name="ICHARG">     2</i>
  <i type="int" name="NELM">    70</i>
  <i type="int" name="IBRION">     2</i>
  <i name="EDIFF">      0.00001000</i>
  <i name="EDIFFG">     -0.01000000</i>
  <i type="int" name="NSW">   300</i>
  <i type="int" name="ISIF">     3</i>
  <i type="int" name="ISYM">     1</i>
  <i name="ENCUT">    300.00000000</i>
  <i name="POTIM">      0.15000000</i>
  <i type="string" name="LREAL"> Auto                  ! unpublished met</i>
  <i type="int" name="ISMEAR">     1</i>
  <i name="SIGMA">      0.15000000</i>
  <i type="logical" name="LWAVE"> F  </i>
  <i type="logical" name="LCHARG"> F  </i>
  <i type="logical" name="LVTOT"> F  </i>
  <v type="int" name="KPOINT_BSE">    -1     0     0     0</v>
  <i type="int" name="NELM">    70</i>
 </incar>
 <kpoints>
  <generation param="Gamma">
   <v type="int" name="divisions">       3        3        3 </v>
   <v name="usershift">      0.00000000       0.00000000       0.00000000 </v>
   <v name="genvec1">      0.33333333      -0.00000000      -0.00000000 </v>
   <v name="genvec2">     -0.00000000       0.33333333       0.00000000 </v>
   <v name="genvec3">     -0.00000000      -0.00000000       0.33333333 </v>
   <v name="shift">      0.00000000       0.00000000       0.00000000 </v>
  </generation>
  <varray name="kpointlist" >
   <v>       0.00000000       0.00000000       0.00000000 </v>
   <v>       0.33333333       0.00000000      -0.00000000 </v>
   <v>      -0.00000000       0.33333333       0.00000000 </v>
   <v>       0.33333333       0.33333333       0.00000000 </v>
   <v>      -0.33333333       0.33333333       0.00000000 </v>
   <v>       0.00000000       0.00000000       0.33333333 </v>
   <v>       0.33333333      -0.00000000       0.33333333 </v>
   <v>      -0.33333333       0.00000000       0.33333333 </v>
   <v>      -0.00000000       0.33333333       0.33333333 </v>
   <v>       0.33333333       0.33333333       0.33333333 </v>
   <v>      -0.33333333       0.33333333       0.33333333 </v>
   <v>       0.00000000      -0.33333333       0.33333333 </v>
   <v>       0.33333333      -0.33333333       0.33333333 </v>
   <v>      -0.33333333      -0.33333333       0.33333333 </v>
  </varray>
  <varray name="weights" >
   <v>       0.03703704 </v>
   <v>       0.07407407 </v>
   <v>       0.07407407 </v>
   <v>       0.07407407 </v>
   <v>       0.07407407 </v>
   <v>       0.07407407 </v>
   <v>       0.07407407 </v>
   <v>       0.07407407 </v>
   <v>       0.07407407 </v>
   <v>       0.07407407 </v>
   <v>       0.07407407 </v>
   <v>       0.07407407 </v>
   <v>       0.07407407 </v>
   <v>       0.07407407 </v>
  </varray>
 </kpoints>
 <parameters>
  <separator name="general" >
   <i type="string" name="SYSTEM">automatically generated by mexm</i>
   <i type="logical" name="LCOMPAT"> F  </i>
  </separator>
  <separator name="electronic" >
   <i type="string" name="PREC">accura</i>
   <i name="ENMAX">    300.00000000</i>
   <i name="ENAUG">    461.25700000</i>
   <i name="EDIFF">      0.00001000</i>
   <i type="int" name="IALGO">    68</i>
   <i type="int" name="IWAVPR">    11</i>
   <i type="int" name="NBANDS">   176</i>
   <i name="NELECT">    293.00000000</i>
   <i type="int" name="TURBO">     0</i>
   <i type="int" name="IRESTART">     0</i>
   <i type="int" name="NREBOOT">     0</i>
   <i type="int" name="NMIN">     0</i>
   <i name="EREF">      0.00000000</i>
   <separator name="electronic smearing" >
    <i type="int" name="ISMEAR">     1</i>
    <i name="SIGMA">      0.15000000</i>
    <i name="KSPACING">      0.50000000</i>
    <i type="logical" name="KGAMMA"> T  </i>
   </separator>
   <separator name="electronic projectors" >
    <i type="logical" name="LREAL"> T  </i>
    <v name="ROPT">     -0.00025000     -0.00025000     -0.00025000     -0.00025000</v>
    <i type="int" name="LMAXPAW">  -100</i>
    <i type="int" name="LMAXMIX">     2</i>
    <i type="logical" name="NLSPLINE"> F  </i>
   </separator>
   <separator name="electronic startup" >
    <i type="int" name="ISTART">     0</i>
    <i type="int" name="ICHARG">     2</i>
    <i type="int" name="INIWAV">     1</i>
   </separator>
   <separator name="electronic spin" >
    <i type="int" name="ISPIN">     1</i>
    <i type="logical" name="LNONCOLLINEAR"> F  </i>
    <v name="MAGMOM">      1.00000000      1.00000000      1.00000000      1.00000000      1.00000000      1.00000000      1.00000000      1.00000000      1.00000000      1.00000000      1.00000000      1.00000000      1.00000000      1.00000000      1.00000000      1.00000000      1.00000000      1.00000000      1.00000000      1.00000000
      1.00000000      1.00000000      1.00000000      1.00000000      1.00000000      1.00000000      1.00000000      1.00000000      1.00000000      1.00000000      1.00000000      1.00000000      1.00000000      1.00000000      1.00000000      1.00000000</v>
    <i name="NUPDOWN">     -1.00000000</i>
    <i type="logical" name="LSORBIT"> F  </i>
    <v name="SAXIS">      0.00000000      0.00000000      1.00000000</v>
    <i type="logical" name="LSPIRAL"> F  </i>
    <v name="QSPIRAL">      0.00000000      0.00000000      0.00000000</v>
    <i type="logical" name="LZEROZ"> F  </i>
   </separator>
   <separator name="electronic exchange-correlation" >
    <i type="logical" name="LASPH"> F  </i>
    <i type="logical" name="LMETAGGA"> F  </i>
   </separator>
   <separator name="electronic convergence" >
    <i type="int" name="NELM">    70</i>
    <i type="int" name="NELMDL">    -5</i>
    <i type="int" name="NELMIN">     2</i>
    <i name="ENINI">    300.00000000</i>
    <separator name="electronic convergence detail" >
     <i type="logical" name="LDIAG"> T  </i>
     <i type="logical" name="LSUBROT"> F  </i>
     <i name="WEIMIN">      0.00100000</i>
     <i name="EBREAK">      0.00000001</i>
     <i name="DEPER">      0.30000000</i>
     <i type="int" name="NRMM">     4</i>
     <i name="TIME">      0.40000000</i>
    </separator>
   </separator>
   <separator name="electronic mixer" >
    <i name="AMIX">      0.40000000</i>
    <i name="BMIX">      1.00000000</i>
    <i name="AMIN">      0.10000000</i>
    <i name="AMIX_MAG">      1.60000000</i>
    <i name="BMIX_MAG">      1.00000000</i>
    <separator name="electronic mixer details" >
     <i type="int" name="IMIX">     4</i>
     <i type="logical" name="MIXFIRST"> F  </i>
     <i type="int" name="MAXMIX">   -45</i>
     <i name="WC">    100.00000000</i>
     <i type="int" name="INIMIX">     1</i>
     <i type="int" name="MIXPRE">     1</i>
     <i type="int" name="MREMOVE">     5</i>
    </separator>
   </separator>
   <separator name="electronic dipolcorrection" >
    <i type="logical" name="LDIPOL"> F  </i>
    <i type="logical" name="LMONO"> F  </i>
    <i type="int" name="IDIPOL">     0</i>
    <i name="EPSILON">      1.00000000</i>
    <v name="DIPOL">   -100.00000000   -100.00000000   -100.00000000</v>
    <i name="EFIELD">      0.00000000</i>
   </separator>
  </separator>
  <separator name="grids" >
   <i type="int" name="NGX">    40</i>
   <i type="int" name="NGY">    60</i>
   <i type="int" name="NGZ">    60</i>
   <i type="int" name="NGXF">    80</i>
   <i type="int" name="NGYF">   120</i>
   <i type="int" name="NGZF">   120</i>
   <i type="logical" name="ADDGRID"> F  </i>
  </separator>
  <separator name="ionic" >
   <i type="int" name="NSW">   300</i>
   <i type="int" name="IBRION">     2</i>
   <i type="int" name="ISIF">     3</i>
   <i name="PSTRESS">      0.00000000</i>
   <i name="EDIFFG">     -0.01000000</i>
   <i type="int" name="NFREE">     1</i>
   <i name="POTIM">      0.15000000</i>
   <i name="SMASS">     -3.00000000</i>
   <i name="SCALEE">      1.00000000</i>
  </separator>
  <separator name="ionic md" >
   <i name="TEBEG">      0.00010000</i>
   <i name="TEEND">      0.00010000</i>
   <i type="int" name="NBLOCK">     1</i>
   <i type="int" name="KBLOCK">   300</i>
   <i type="int" name="NPACO">   256</i>
   <i name="APACO">     16.00000000</i>
  </separator>
  <separator name="symmetry" >
   <i type="int" name="ISYM">     1</i>
   <i name="SYMPREC">      0.00001000</i>
  </separator>
  <separator name="dos" >
   <i type="logical" name="LORBIT"> F  </i>
   <v name="RWIGS">     -1.00000000     -1.00000000     -1.00000000     -1.00000000</v>
   <i type="int" name="NEDOS">   301</i>
   <i name="EMIN">     10.00000000</i>
   <i name="EMAX">    -10.00000000</i>
   <i name="EFERMI">      0.00000000</i>
  </separator>
  <separator name="writing" >
   <i type="int" name="NWRITE">     2</i>
   <i type="logical" name="LWAVE"> F  </i>
   <i type="logical" name="LCHARG"> F  </i>
   <i type="logical" name="LPARD"> F  </i>
   <i type="logical" name="LVTOT"> F  </i>
   <i type="logical" name="LVHAR"> F  </i>
   <i type="logical" name="LELF"> F  </i>
   <i type="logical" name="LOPTICS"> F  </i>
   <v name="STM">      0.00000000      0.00000000      0.00000000      0.00000000      0.00000000      0.00000000      0.00000000</v>
  </separator>
  <separator name="performance" >
   <i type="int" name="NPAR">     4</i>
   <i type="int" name="NSIM">     4</i>
   <i type="int" name="NBLK">    -1</i>
   <i type="logical" name="LPLANE"> T  </i>
   <i type="logical" name="LSCALAPACK"> T  </i>
   <i type="logical" name="LSCAAWARE"> F  </i>
   <i type="logical" name="LSCALU"> F  </i>
   <i type="logical" name="LASYNC"> F  </i>
   <i type="logical" name="LORBITALREAL"> F  </i>
  </separator>
  <separator name="miscellaneous" >
   <i type="int" name="IDIOT">     3</i>
   <i type="logical" name="LMUSIC"> F  </i>
   <v name="POMASS">    178.49000000     92.91000000    180.94800000     91.22400000</v>
   <v name="DARWINR">      0.00000000      0.00000000      0.00000000      0.00000000</v>
   <v name="DARWINV">      1.00000000      1.00000000      1.00000000      1.00000000</v>
   <i type="logical" name="LCORR"> T  </i>
  </separator>
  <i type="logical" name="GGA_COMPAT"> T  </i>
  <i type="logical" name="LBERRY"> F  </i>
  <i type="int" name="ICORELEVEL">     0</i>
  <i type="logical" name="LDAU"> F  </i>
  <i type="int" name="I_CONSTRAINED_M">     0</i>
  <separator name="electronic exchange-correlation" >
   <i type="string" name="GGA">--</i>
   <i type="int" name="VOSKOWN">     0</i>
   <i type="logical" name="LHFCALC"> F  </i>
   <i type="string" name="PRECFOCK"></i>
   <i type="logical" name="LSYMGRAD"> F  </i>
   <i type="logical" name="LHFONE"> F  </i>
   <i type="logical" name="LRHFCALC"> F  </i>
   <i type="logical" name="LTHOMAS"> F  </i>
   <i type="logical" name="LMODELHF"> F  </i>
   <i name="ENCUT4O">     -1.00000000</i>
   <i type="int" name="EXXOEP">     0</i>
   <i type="int" name="FOURORBIT">     0</i>
   <i name="AEXX">      0.00000000</i>
   <i name="HFALPHA">      0.00000000</i>
   <i name="MCALPHA">      0.00000000</i>
   <i name="ALDAX">      1.00000000</i>
   <i name="AGGAX">      1.00000000</i>
   <i name="ALDAC">      1.00000000</i>
   <i name="AGGAC">      1.00000000</i>
   <i type="int" name="NKREDX">     1</i>
   <i type="int" name="NKREDY">     1</i>
   <i type="int" name="NKREDZ">     1</i>
   <i type="logical" name="SHIFTRED"> F  </i>
   <i type="logical" name="ODDONLY"> F  </i>
   <i type="logical" name="EVENONLY"> F  </i>
   <i type="int" name="LMAXFOCK">     0</i>
   <i type="int" name="NMAXFOCKAE">     0</i>
   <i type="logical" name="LFOCKAEDFT"> F  </i>
   <i name="HFSCREEN">      0.00000000</i>
   <i name="HFSCREENC">      0.00000000</i>
   <i type="int" name="NBANDSGWLOW">     0</i>
  </separator>
  <separator name="vdW DFT" >
   <i type="logical" name="LUSE_VDW"> F  </i>
   <i name="Zab_VDW">     -0.84910000</i>
   <i name="PARAM1">      0.12340000</i>
   <i name="PARAM2">      1.00000000</i>
   <i name="PARAM3">      0.00000000</i>
  </separator>
  <separator name="model GW" >
   <i type="int" name="MODEL_GW">     0</i>
   <i name="MODEL_EPS0">     11.84921896</i>
   <i name="MODEL_ALPHA">      1.00000000</i>
  </separator>
  <separator name="linear response parameters" >
   <i type="logical" name="LEPSILON"> F  </i>
   <i type="logical" name="LRPA"> F  </i>
   <i type="logical" name="LNABLA"> F  </i>
   <i type="logical" name="LVEL"> F  </i>
   <i type="int" name="KINTER">     0</i>
   <i name="CSHIFT">      0.10000000</i>
   <i name="OMEGAMAX">     -1.00000000</i>
   <i name="DEG_THRESHOLD">      0.00200000</i>
  </separator>
  <separator name="orbital magnetization" >
   <i type="logical" name="NUCIND"> F  </i>
   <v name="MAGPOS">      0.00000000      0.00000000      0.00000000</v>
   <i type="logical" name="LNICSALL"> T  </i>
   <i type="logical" name="ORBITALMAG"> F  </i>
   <i type="logical" name="LMAGBLOCH"> F  </i>
   <i type="logical" name="LCHIMAG"> F  </i>
   <i type="logical" name="LGAUGE"> T  </i>
   <i type="int" name="MAGATOM">     0</i>
   <v name="MAGDIPOL">      0.00000000      0.00000000      0.00000000</v>
   <v name="AVECCONST">      0.00000000      0.00000000      0.00000000</v>
  </separator>
  <separator name="response functions" >
   <i type="logical" name="LADDER"> F  </i>
   <i type="logical" name="LFXC"> F  </i>
   <i type="logical" name="LHARTREE"> T  </i>
   <i type="int" name="IBSE">     0</i>
   <v type="int" name="KPOINT">    -1     0     0     0</v>
   <i type="logical" name="LTCTE"> F  </i>
   <i type="logical" name="LTETE"> F  </i>
   <i type="logical" name="LTRIPLET"> F  </i>
   <i type="logical" name="LFXCEPS"> F  </i>
   <i type="logical" name="LFXHEG"> F  </i>
   <i type="int" name="NATURALO">     0</i>
   <i type="logical" name="L2ORDER"> F  </i>
   <i type="logical" name="LUSEW"> F  </i>
   <i name="ENCUTGW">     -2.00000000</i>
   <i name="ENCUTGWSOFT">     -2.00000000</i>
   <i name="ENCUTLF">     -1.00000000</i>
   <i type="int" name="LMAXMP2">    -1</i>
   <i name="SCISSOR">      0.00000000</i>
   <i type="int" name="NOMEGA">     0</i>
   <i type="int" name="NOMEGAR">     0</i>
   <i type="int" name="NBANDSGW">    -1</i>
   <i type="int" name="NBANDSO">    -1</i>
   <i type="int" name="NBANDSV">    -1</i>
   <i type="int" name="NELM">    70</i>
   <i type="int" name="NELMHF">     1</i>
   <i type="int" name="DIM">     3</i>
   <i type="int" name="ANTIRES">     0</i>
   <i name="OMEGAMAX">    -30.00000000</i>
   <i name="OMEGAMIN">    -30.00000000</i>
   <i name="OMEGATL">   -200.00000000</i>
   <i type="int" name="OMEGAGRID">     0</i>
   <i name="CSHIFT">     -0.10000000</i>
   <i type="logical" name="SELFENERGY"> F  </i>
   <i type="logical" name="LSPECTRAL"> F  </i>
   <i type="logical" name="LSPECTRALGW"> F  </i>
   <i type="logical" name="LSINGLES"> F  </i>
   <i type="logical" name="LFERMIGW"> F  </i>
   <i type="logical" name="ODDONLYGW"> F  </i>
   <i type="logical" name="EVENONLYGW"> F  </i>
   <i type="int" name="NKREDLFX">     1</i>
   <i type="int" name="NKREDLFY">     1</i>
   <i type="int" name="NKREDLFZ">     1</i>
   <i type="int" name="MAXMEM">  1800</i>
   <i type="int" name="TELESCOPE">     0</i>
   <i type="int" name="TAUPAR">     1</i>
   <i type="int" name="OMEGAPAR">    -1</i>
   <i name="LAMBDA">      1.00000000</i>
  </separator>
  <separator name="External order field" >
   <i name="OFIELD_KAPPA">      0.00000000</i>
   <v name="OFIELD_K">      0.00000000      0.00000000      0.00000000</v>
   <i name="OFIELD_Q6_NEAR">      0.00000000</i>
   <i name="OFIELD_Q6_FAR">      0.00000000</i>
   <i name="OFIELD_A">      0.00000000</i>
  </separator>
 </parameters>
 <atominfo>
  <atoms>      36 </atoms>
  <types>       4 </types>
  <array name="atoms" >
   <dimension dim="1">ion</dimension>
   <field type="string">element</field>
   <field type="int">atomtype</field>
   <set>
    <rc><c>Hf</c><c>   1</c></rc>
    <rc><c>Hf</c><c>   1</c></rc>
    <rc><c>Hf</c><c>   1</c></rc>
    <rc><c>Hf</c><c>   1</c></rc>
    <rc><c>Hf</c><c>   1</c></rc>
    <rc><c>Hf</c><c>   1</c></rc>
    <rc><c>Hf</c><c>   1</c></rc>
    <rc><c>Hf</c><c>   1</c></rc>
    <rc><c>Hf</c><c>   1</c></rc>
    <rc><c>Nb</c><c>   2</c></rc>
    <rc><c>Nb</c><c>   2</c></rc>
    <rc><c>Nb</c><c>   2</c></rc>
    <rc><c>Nb</c><c>   2</c></rc>
    <rc><c>Nb</c><c>   2</c></rc>
    <rc><c>Nb</c><c>   2</c></rc>
    <rc><c>Nb</c><c>   2</c></rc>
    <rc><c>Nb</c><c>   2</c></rc>
    <rc><c>Nb</c><c>   2</c></rc>
    <rc><c>Nb</c><c>   2</c></rc>
    <rc><c>Ta</c><c>   3</c></rc>
    <rc><c>Ta</c><c>   3</c></rc>
    <rc><c>Ta</c><c>   3</c></rc>
    <rc><c>Ta</c><c>   3</c></rc>
    <rc><c>Ta</c><c>   3</c></rc>
    <rc><c>Ta</c><c>   3</c></rc>
    <rc><c>Ta</c><c>   3</c></rc>
    <rc><c>Ta</c><c>   3</c></rc>
    <rc><c>Ta</c><c>   3</c></rc>
    <rc><c>Ta</c><c>   3</c></rc>
    <rc><c>Ta</c><c>   3</c></rc>
    <rc><c>Zr</c><c>   4</c></rc>
    <rc><c>Zr</c><c>   4</c></rc>
    <rc><c>Zr</c><c>   4</c></rc>
    <rc><c>Zr</c><c>   4</c></rc>
    <rc><c>Zr</c><c>   4</c></rc>
    <rc><c>Zr</c><c>   4</c></rc>
   </set>
  </array>
  <array name="atomtypes" >
   <dimension dim="1">type</dimension>
   <field type="int">atomspertype</field>
   <field type="string">element</field>
   <field>mass</field>
   <field>valence</field>
   <field type="string">pseudopotential</field>
   <set>
    <rc><c>   9</c><c>Hf</c><c>    178.49000000</c><c>      4.00000000</c><c>  PAW_PBE Hf 20Jan2003                  </c></rc>
    <rc><c>  10</c><c>Nb</c><c>     92.91000000</c><c>     13.00000000</c><c>  PAW_PBE Nb_sv 25May2007               </c></rc>
    <rc><c>  11</c><c>Ta</c><c>    180.94800000</c><c>      5.00000000</c><c>  PAW_PBE Ta 17Jan2003                  </c></rc>
    <rc><c>   6</c><c>Zr</c><c>     91.22400000</c><c>     12.00000000</c><c>  PAW_PBE Zr_sv 04Jan2005               </c></rc>
   </set>
  </array>
 </atominfo>
 <structure name="initialpos" >
  <crystal>
   <varray name="basis" >
    <v>       6.83016864       0.00721310      -0.00008979 </v>
    <v>       0.01093936      10.18719652      -0.02737086 </v>
    <v>       0.00000998      -0.02708153      10.21782474 </v>
   </varray>
   <i name="volume">    710.95313752 </i>
   <varray name="rec_basis" >
    <v>       0.14640944      -0.00015722      -0.00000056 </v>
    <v>      -0.00010366       0.09816324       0.00026017 </v>
    <v>       0.00000101       0.00026295       0.09786889 </v>
   </varray>
  </crystal>
  <varray name="positions" >
   <v>       0.48008500       0.34011800       0.00207900 </v>
   <v>       0.24310500       0.16567100       0.17829400 </v>
   <v>       0.00303600       0.33082900       0.65528800 </v>
   <v>       0.24531900       0.83527900       0.50355200 </v>
   <v>       0.75400700       0.15936100       0.84138300 </v>
   <v>       0.76045900       0.50756900       0.83606000 </v>
   <v>       0.49622900       0.66367200       0.32651000 </v>
   <v>       0.77051100       0.49168700       0.16574500 </v>
   <v>       0.75282000       0.83154200       0.50294800 </v>
   <v>       0.50657500       0.00192900       0.33032100 </v>
   <v>       0.98916800       0.00632700       0.33300200 </v>
   <v>       0.25176000       0.16219800       0.48882900 </v>
   <v>       0.99863900       0.01251300       0.65792900 </v>
   <v>       0.00148300       0.66413100       0.33191400 </v>
   <v>       0.00751200       0.66019800       0.66638600 </v>
   <v>       0.74510200       0.16144600       0.49046400 </v>
   <v>       0.50041600       0.00724200       0.65407900 </v>
   <v>       0.49058900       0.65820800       0.66301400 </v>
   <v>       0.99387100       0.33250100       0.34849000 </v>
   <v>       0.22891500       0.49568400       0.18032300 </v>
   <v>       0.24396300       0.50796200       0.49586600 </v>
   <v>       0.24336800       0.52178600       0.82219000 </v>
   <v>       0.01496400       0.67751100       0.00451000 </v>
   <v>       0.22809200       0.84048200       0.18130300 </v>
   <v>       0.50199300       0.33760100       0.33869500 </v>
   <v>       0.75249800       0.50785200       0.49605400 </v>
   <v>       0.76975500       0.83505000       0.17948700 </v>
   <v>       0.99733900       0.98272000       0.01024000 </v>
   <v>       0.75432200       0.16939200       0.17024200 </v>
   <v>       0.24288900       0.83185100       0.82128600 </v>
   <v>       0.25264400       0.14088000       0.82946400 </v>
   <v>       0.03578100       0.33654100       0.98869200 </v>
   <v>       0.50297700       0.98555300       0.01529000 </v>
   <v>       0.49683800       0.33460300       0.66008000 </v>
   <v>       0.48929400       0.66967500       0.00846000 </v>
   <v>       0.75368200       0.83244000       0.82153500 </v>
  </varray>
 </structure>
 <calculation>
  <scstep>
   <time name="dav">    1.14    1.14</time>
   <time name="total">    1.21    1.48</time>
   <energy>
    <i name="alphaZ">   1555.25334819 </i>
    <i name="ewald"> -19263.03449892 </i>
    <i name="hartreedc">  -7082.65583169 </i>
    <i name="XCdc">   -342.77525562 </i>
    <i name="pawpsdc">  21556.35635867 </i>
    <i name="pawaedc"> -19908.91531546 </i>
    <i name="eentropy">      0.00129664 </i>
    <i name="bandstr">    -51.26592999 </i>
    <i name="atom">  25376.36928711 </i>
    <i name="e_fr_energy">   1839.33345894 </i>
    <i name="e_wo_entrp">   1839.33216230 </i>
    <i name="e_0_energy">   1839.33302673 </i>
   </energy>
  </scstep>
  <scstep>
   <time name="dav">    1.02    1.03</time>
   <time name="total">    1.02    1.20</time>
   <energy>
    <i name="e_fr_energy">   -109.75944183 </i>
    <i name="e_wo_entrp">   -109.75275316 </i>
    <i name="e_0_energy">   -109.75721228 </i>
   </energy>
  </scstep>
  <scstep>
   <time name="dav">    1.53    1.54</time>
   <time name="total">    1.53    1.58</time>
   <energy>
    <i name="e_fr_energy">   -354.16781924 </i>
    <i name="e_wo_entrp">   -354.16043589 </i>
    <i name="e_0_energy">   -354.16535813 </i>
   </energy>
  </scstep>
  <scstep>
   <time name="dav">    1.45    1.49</time>
   <time name="total">    1.45    1.53</time>
   <energy>
    <i name="e_fr_energy">   -382.54233284 </i>
    <i name="e_wo_entrp">   -382.55052144 </i>
    <i name="e_0_energy">   -382.54506237 </i>
   </energy>
  </scstep>
  <scstep>
   <time name="dav">    1.40    1.41</time>
   <time name="total">    1.44    1.47</time>
   <energy>
    <i name="e_fr_energy">   -385.29826735 </i>
    <i name="e_wo_entrp">   -385.30975523 </i>
    <i name="e_0_energy">   -385.30209664 </i>
   </energy>
  </scstep>
  <scstep>
   <time name="diag">    0.08    0.08</time>
   <time name="diis">    0.72    0.73</time>
   <time name="orth">    0.01    0.01</time>
   <time name="total">    0.88    0.91</time>
   <energy>
    <i name="e_fr_energy">   -374.80497103 </i>
    <i name="e_wo_entrp">   -374.81817549 </i>
    <i name="e_0_energy">   -374.80937252 </i>
   </energy>
  </scstep>
  <scstep>
   <time name="diag">    0.07    0.08</time>
   <time name="diis">    0.84    0.84</time>
   <time name="orth">    0.01    0.01</time>
   <time name="total">    0.99    1.05</time>
   <energy>
    <i name="e_fr_energy">   -377.25309753 </i>
    <i name="e_wo_entrp">   -377.24738876 </i>
    <i name="e_0_energy">   -377.25119460 </i>
   </energy>
  </scstep>
  <scstep>
   <time name="diag">    0.13    0.13</time>
   <time name="diis">    0.74    0.79</time>
   <time name="orth">    0.01    0.01</time>
   <time name="total">    0.95    1.03</time>
   <energy>
    <i name="e_fr_energy">   -370.42804497 </i>
    <i name="e_wo_entrp">   -370.44509792 </i>
    <i name="e_0_energy">   -370.43372929 </i>
   </energy>
  </scstep>
  <scstep>
   <time name="diag">    0.11    0.11</time>
   <time name="diis">    0.87    0.88</time>
   <time name="orth">    0.01    0.01</time>
   <time name="total">    1.06    1.10</time>
   <energy>
    <i name="e_fr_energy">   -370.21294181 </i>
    <i name="e_wo_entrp">   -370.22619162 </i>
    <i name="e_0_energy">   -370.21735841 </i>
   </energy>
  </scstep>
  <scstep>
   <time name="diag">    0.08    0.08</time>
   <time name="diis">    0.79    0.79</time>
   <time name="orth">    0.01    0.01</time>
   <time name="total">    0.94    0.98</time>
   <energy>
    <i name="e_fr_energy">   -370.16829358 </i>
    <i name="e_wo_entrp">   -370.18341630 </i>
    <i name="e_0_energy">   -370.17333448 </i>
   </energy>
  </scstep>
  <scstep>
   <time name="diag">    0.07    0.07</time>
   <time name="diis">    0.86    0.86</time>
   <time name="orth">    0.01    0.01</time>
   <time name="total">    1.03    1.06</time>
   <energy>
    <i name="e_fr_energy">   -370.13103329 </i>
    <i name="e_wo_entrp">   -370.14675753 </i>
    <i name="e_0_energy">   -370.13627470 </i>
   </energy>
  </scstep>
  <scstep>
   <time name="diag">    0.08    0.08</time>
   <time name="diis">    0.88    0.89</time>
   <time name="orth">    0.01    0.01</time>
   <time name="total">    1.05    1.11</time>
   <energy>
    <i name="e_fr_energy">   -370.12147410 </i>
    <i name="e_wo_entrp">   -370.13607279 </i>
    <i name="e_0_energy">   -370.12634033 </i>
   </energy>
  </scstep>
  <scstep>
   <time name="diag">    0.09    0.09</time>
   <time name="diis">    0.87    0.89</time>
   <time name="orth">    0.01    0.01</time>
   <time name="total">    1.08    1.13</time>
   <energy>
    <i name="e_fr_energy">   -370.12109266 </i>
    <i name="e_wo_entrp">   -370.13690694 </i>
    <i name="e_0_energy">   -370.12636408 </i>
   </energy>
  </scstep>
  <scstep>
   <time name="diag">    0.08    0.08</time>
   <time name="diis">    0.86    0.87</time>
   <time name="orth">    0.01    0.01</time>
   <time name="total">    1.02    1.09</time>
   <energy>
    <i name="e_fr_energy">   -370.12042304 </i>
    <i name="e_wo_entrp">   -370.13562424 </i>
    <i name="e_0_energy">   -370.12549011 </i>
   </energy>
  </scstep>
  <scstep>
   <time name="diag">    0.07    0.07</time>
   <time name="diis">    0.79    0.80</time>
   <time name="orth">    0.01    0.01</time>
   <time name="total">    0.94    1.02</time>
   <energy>
    <i name="e_fr_energy">   -370.12046798 </i>
    <i name="e_wo_entrp">   -370.13580511 </i>
    <i name="e_0_energy">   -370.12558035 </i>
   </energy>
  </scstep>
  <scstep>
   <time name="diag">    0.09    0.09</time>
   <time name="diis">    0.77    0.78</time>
   <time name="orth">    0.01    0.01</time>
   <time name="total">    0.94    1.02</time>
   <energy>
    <i name="e_fr_energy">   -370.12049319 </i>
    <i name="e_wo_entrp">   -370.13574569 </i>
    <i name="e_0_energy">   -370.12557736 </i>
   </energy>
  </scstep>
  <scstep>
   <time name="diag">    0.07    0.07</time>
   <time name="diis">    0.69    0.70</time>
   <time name="orth">    0.01    0.01</time>
   <time name="total">    0.85    0.88</time>
   <energy>
    <i name="e_fr_energy">   -370.12047154 </i>
    <i name="e_wo_entrp">   -370.13581155 </i>
    <i name="e_0_energy">   -370.12558488 </i>
   </energy>
  </scstep>
  <scstep>
   <time name="diag">    0.08    0.08</time>
   <time name="diis">    0.65    0.65</time>
   <time name="orth">    0.01    0.01</time>
   <time name="total">    0.80    0.85</time>
   <energy>
    <i name="e_fr_energy">   -370.12048273 </i>
    <i name="e_wo_entrp">   -370.13580634 </i>
    <i name="e_0_energy">   -370.12559060 </i>
   </energy>
  </scstep>
  <scstep>
   <time name="diag">    0.08    0.08</time>
   <time name="diis">    0.58    0.59</time>
   <time name="orth">    0.01    0.01</time>
   <time name="total">    0.74    0.77</time>
   <energy>
    <i name="e_fr_energy">   -370.12049042 </i>
    <i name="e_wo_entrp">   -370.13583101 </i>
    <i name="e_0_energy">   -370.12560395 </i>
   </energy>
  </scstep>
  <scstep>
   <time name="diag">    0.07    0.08</time>
   <time name="diis">    0.41    0.41</time>
   <time name="orth">    0.01    0.01</time>
   <time name="total">    0.53    0.56</time>
   <energy>
    <i name="alphaZ">   1555.25334819 </i>
    <i name="ewald"> -19263.03449892 </i>
    <i name="hartreedc">  -6859.07422265 </i>
    <i name="XCdc">   -341.74947480 </i>
    <i name="pawpsdc">  33843.76407104 </i>
    <i name="pawaedc"> -32176.47222945 </i>
    <i name="eentropy">      0.01533444 </i>
    <i name="bandstr">  -2505.19210582 </i>
    <i name="atom">  25376.36928711 </i>
    <i name="e_fr_energy">   -370.12049085 </i>
    <i name="e_wo_entrp">   -370.13582529 </i>
    <i name="e_0_energy">   -370.12560233 </i>
   </energy>
  </scstep>
  <structure>
   <crystal>
    <varray name="basis" >
     <v>       6.83016864       0.00721310      -0.00008979 </v>
     <v>       0.01093936      10.18719652      -0.02737086 </v>
     <v>       0.00000998      -0.02708153      10.21782474 </v>
    </varray>
    <i name="volume">    710.95313752 </i>
    <varray name="rec_basis" >
     <v>       0.14640944      -0.00015722      -0.00000056 </v>
     <v>      -0.00010366       0.09816324       0.00026017 </v>
     <v>       0.00000101       0.00026295       0.09786889 </v>
    </varray>
   </crystal>
   <varray name="positions" >
    <v>       0.48008500       0.34011800       0.00207900 </v>
    <v>       0.24310500       0.16567100       0.17829400 </v>
    <v>       0.00303600       0.33082900       0.65528800 </v>
    <v>       0.24531900       0.83527900       0.50355200 </v>
    <v>       0.75400700       0.15936100       0.84138300 </v>
    <v>       0.76045900       0.50756900       0.83606000 </v>
    <v>       0.49622900       0.66367200       0.32651000 </v>
    <v>       0.77051100       0.49168700       0.16574500 </v>
    <v>       0.75282000       0.83154200       0.50294800 </v>
    <v>       0.50657500       0.00192900       0.33032100 </v>
    <v>       0.98916800       0.00632700       0.33300200 </v>
    <v>       0.25176000       0.16219800       0.48882900 </v>
    <v>       0.99863900       0.01251300       0.65792900 </v>
    <v>       0.00148300       0.66413100       0.33191400 </v>
    <v>       0.00751200       0.66019800       0.66638600 </v>
    <v>       0.74510200       0.16144600       0.49046400 </v>
    <v>       0.50041600       0.00724200       0.65407900 </v>
    <v>       0.49058900       0.65820800       0.66301400 </v>
    <v>       0.99387100       0.33250100       0.34849000 </v>
    <v>       0.22891500       0.49568400       0.18032300 </v>
    <v>       0.24396300       0.50796200       0.49586600 </v>
    <v>       0.24336800       0.52178600       0.82219000 </v>
    <v>       0.01496400       0.67751100       0.00451000 </v>
    <v>       0.22809200       0.84048200       0.18130300 </v>
    <v>       0.50199300       0.33760100       0.33869500 </v>
    <v>       0.75249800       0.50785200       0.49605400 </v>
    <v>       0.76975500       0.83505000       0.17948700 </v>
    <v>       0.99733900       0.98272000       0.01024000 </v>
    <v>       0.75432200       0.16939200       0.17024200 </v>
    <v>       0.24288900       0.83185100       0.82128600 </v>
    <v>       0.25264400       0.14088000       0.82946400 </v>
    <v>       0.03578100       0.33654100       0.98869200 </v>
    <v>       0.50297700       0.98555300       0.01529000 </v>
    <v>       0.49683800       0.33460300       0.66008000 </v>
    <v>       0.48929400       0.66967500       0.00846000 </v>
    <v>       0.75368200       0.83244000       0.82153500 </v>
   </varray>
  </structure>
  <varray name="forces" >
   <v>       0.00031432       0.00070808       0.02219866 </v>
   <v>      -0.02234369       0.03381823       0.01129530 </v>
   <v>       0.00858712       0.00117352       0.13203438 </v>
   <v>       0.00996938       0.00861473       0.00947494 </v>
   <v>       0.00304639       0.00018341      -0.00041848 </v>
   <v>       0.00303963       0.00023206       0.00150323 </v>
   <v>       0.00572936      -0.03242679      -0.00532478 </v>
   <v>       0.00800051      -0.01946966       0.03011525 </v>
   <v>      -0.01158752      -0.00228911       0.00812754 </v>
   <v>       0.00047790       0.02298182      -0.00318960 </v>
   <v>      -0.00835855      -0.09063849       0.00033515 </v>
   <v>       0.00512910       0.01461338       0.00930661 </v>
   <v>      -0.00043800       0.03420191      -0.01836106 </v>
   <v>       0.00213606       0.09140877       0.00687256 </v>
   <v>      -0.00182800      -0.01732299      -0.01621850 </v>
   <v>       0.01189821       0.02469909      -0.02439160 </v>
   <v>      -0.00193752      -0.00375171      -0.00911896 </v>
   <v>      -0.00161025      -0.00183605      -0.01054510 </v>
   <v>       0.02521880      -0.01829850      -0.09990874 </v>
   <v>       0.01596152      -0.00156996       0.01912692 </v>
   <v>       0.00524799      -0.00971996      -0.00366922 </v>
   <v>       0.00074432       0.00099608      -0.00120363 </v>
   <v>       0.00013582      -0.00511551       0.00514825 </v>
   <v>       0.00687991      -0.00572354      -0.00289115 </v>
   <v>      -0.02820136       0.00140747       0.01231054 </v>
   <v>       0.00007430      -0.01474757       0.00102598 </v>
   <v>      -0.00690609       0.00495225       0.00049411 </v>
   <v>       0.00984683       0.00378970       0.00367578 </v>
   <v>      -0.01730986      -0.02043849      -0.01114958 </v>
   <v>       0.02494133       0.00565060      -0.00187434 </v>
   <v>      -0.00326530      -0.00549388       0.00672826 </v>
   <v>      -0.01608035       0.00344236      -0.04890160 </v>
   <v>      -0.00071028       0.00095774       0.01334441 </v>
   <v>      -0.00477088       0.00083328      -0.03278901 </v>
   <v>       0.00284563      -0.00022187       0.00160159 </v>
   <v>      -0.02487677      -0.00560042      -0.00476409 </v>
  </varray>
  <varray name="stress" >
   <v>       0.33355723       0.36808959       0.10213254 </v>
   <v>       0.36808960      -0.10761117       0.24439820 </v>
   <v>       0.10213261       0.24439818      -0.27410782 </v>
  </varray>
  <energy>
   <i name="e_fr_energy">   -370.12049085 </i>
   <i name="e_wo_entrp">   -370.12560233 </i>
   <i name="e_0_energy">      0.01533444 </i>
  </energy>
  <time name="totalsc">   22.07   23.50</time>
 </calculation>
 <calculation>
  <scstep>
   <time name="dav">    0.98    0.99</time>
   <time name="total">    1.07    1.25</time>
   <energy>
    <i name="alphaZ">   1555.26672571 </i>
    <i name="ewald"> -19263.66358314 </i>
    <i name="hartreedc">  -6858.55632168 </i>
    <i name="XCdc">   -341.74841889 </i>
    <i name="pawpsdc">  33843.67618470 </i>
    <i name="pawaedc"> -32176.38360997 </i>
    <i name="eentropy">      0.01540140 </i>
    <i name="bandstr">  -2505.09688834 </i>
    <i name="atom">  25376.36928711 </i>
    <i name="e_fr_energy">   -370.12122310 </i>
    <i name="e_wo_entrp">   -370.13662450 </i>
    <i name="e_0_energy">   -370.12635690 </i>
   </energy>
  </scstep>
  <scstep>
   <time name="diag">    0.09    0.09</time>
   <time name="diis">    0.81    0.82</time>
   <time name="orth">    0.01    0.01</time>
   <time name="total">    1.08    1.11</time>
   <energy>
    <i name="e_fr_energy">   -370.12142310 </i>
    <i name="e_wo_entrp">   -370.13682692 </i>
    <i name="e_0_energy">   -370.12655770 </i>
   </energy>
  </scstep>
  <scstep>
   <time name="diag">    0.10    0.10</time>
   <time name="diis">    0.71    0.72</time>
   <time name="orth">    0.02    0.02</time>
   <time name="total">    0.94    0.98</time>
   <energy>
    <i name="e_fr_energy">   -370.12141372 </i>
    <i name="e_wo_entrp">   -370.13678366 </i>
    <i name="e_0_energy">   -370.12653703 </i>
   </energy>
  </scstep>
  <scstep>
   <time name="diag">    0.09    0.09</time>
   <time name="diis">    0.52    0.52</time>
   <time name="orth">    0.01    0.01</time>
   <time name="total">    1.06    1.09</time>
   <energy>
    <i name="alphaZ">   1555.26672571 </i>
    <i name="ewald"> -19263.66358314 </i>
    <i name="hartreedc">  -6858.46951030 </i>
    <i name="XCdc">   -341.75155596 </i>
    <i name="pawpsdc">  33843.84765062 </i>
    <i name="pawaedc"> -32176.55577755 </i>
    <i name="eentropy">      0.01541217 </i>
    <i name="bandstr">  -2505.18005803 </i>
    <i name="atom">  25376.36928711 </i>
    <i name="e_fr_energy">   -370.12140938 </i>
    <i name="e_wo_entrp">   -370.13682156 </i>
    <i name="e_0_energy">   -370.12654677 </i>
   </energy>
  </scstep>
  <structure>
   <crystal>
    <varray name="basis" >
     <v>       6.83057554       0.00766146       0.00003497 </v>
     <v>       0.01160846      10.18700048      -0.02692517 </v>
     <v>       0.00019437      -0.02663553      10.21732392 </v>
    </varray>
    <i name="volume">    710.94702231 </i>
    <varray name="rec_basis" >
     <v>       0.14640073      -0.00016684      -0.00000322 </v>
     <v>      -0.00011011       0.09816512       0.00025591 </v>
     <v>      -0.00000079       0.00025869       0.09787366 </v>
    </varray>
   </crystal>
   <varray name="positions" >
    <v>       0.48008566       0.34011909       0.00211045 </v>
    <v>       0.24305758       0.16571912       0.17831013 </v>
    <v>       0.00305419       0.33083115       0.65547502 </v>
    <v>       0.24534010       0.83529126       0.50356545 </v>
    <v>       0.75401345       0.15936125       0.84138241 </v>
    <v>       0.76046544       0.50756933       0.83606213 </v>
    <v>       0.49624121       0.66362590       0.32650233 </v>
    <v>       0.77052800       0.49165944       0.16578758 </v>
    <v>       0.75279545       0.83153880       0.50295950 </v>
    <v>       0.50657596       0.00196164       0.33031657 </v>
    <v>       0.98915049       0.00619824       0.33300213 </v>
    <v>       0.25177084       0.16221879       0.48884224 </v>
    <v>       0.99863799       0.01256152       0.65790312 </v>
    <v>       0.00148732       0.66426089       0.33192408 </v>
    <v>       0.00750817       0.66017333       0.66636296 </v>
    <v>       0.74512716       0.16148098       0.49042955 </v>
    <v>       0.50041190       0.00723664       0.65406607 </v>
    <v>       0.49058559       0.65820535       0.66299906 </v>
    <v>       0.99392448       0.33247459       0.34834842 </v>
    <v>       0.22894883       0.49568182       0.18035009 </v>
    <v>       0.24397414       0.50794817       0.49586077 </v>
    <v>       0.24336957       0.52178741       0.82218830 </v>
    <v>       0.01496430       0.67750375       0.00451727 </v>
    <v>       0.22810659       0.84047385       0.18129888 </v>
    <v>       0.50193324       0.33760309       0.33871244 </v>
    <v>       0.75249819       0.50783105       0.49605540 </v>
    <v>       0.76974036       0.83505705       0.17948772 </v>
    <v>       0.99735986       0.98272538       0.01024522 </v>
    <v>       0.75428537       0.16936295       0.17022613 </v>
    <v>       0.24294184       0.83185898       0.82128337 </v>
    <v>       0.25263709       0.14087223       0.82947351 </v>
    <v>       0.03574692       0.33654573       0.98862275 </v>
    <v>       0.50297549       0.98555441       0.01530891 </v>
    <v>       0.49682789       0.33460407       0.66003356 </v>
    <v>       0.48930003       0.66967469       0.00846227 </v>
    <v>       0.75362930       0.83243206       0.82152823 </v>
   </varray>
  </structure>
  <varray name="forces" >
   <v>       0.00089966       0.00055018       0.02004359 </v>
   <v>      -0.02184879       0.02938874       0.00922370 </v>
   <v>       0.01017526       0.00160365       0.11616323 </v>
   <v>       0.01022279       0.00873897       0.00941120 </v>
   <v>       0.00110145      -0.00177675       0.00065808 </v>
   <v>       0.00087544       0.00231283       0.00218378 </v>
   <v>       0.00630117      -0.02979666      -0.00366273 </v>
   <v>       0.00910527      -0.01770181       0.02651002 </v>
   <v>      -0.01253308      -0.00175792       0.00873646 </v>
   <v>       0.00002213       0.02202355      -0.00284519 </v>
   <v>      -0.00718825      -0.07687752      -0.00043225 </v>
   <v>       0.00314856       0.01372350       0.00736219 </v>
   <v>      -0.00030051       0.03251306      -0.01730192 </v>
   <v>       0.00193988       0.07722238       0.00509986 </v>
   <v>      -0.00168704      -0.01611229      -0.01497189 </v>
   <v>       0.01159096       0.02287851      -0.02199971 </v>
   <v>      -0.00199092      -0.00287554      -0.00715534 </v>
   <v>      -0.00135973      -0.00195022      -0.00826509 </v>
   <v>       0.02212296      -0.01486572      -0.08481924 </v>
   <v>       0.01154672      -0.00211476       0.01657293 </v>
   <v>       0.00101756      -0.01049767      -0.00409917 </v>
   <v>       0.00152572       0.00242474      -0.00067029 </v>
   <v>       0.00024357      -0.00454293       0.00480778 </v>
   <v>       0.00797088      -0.00545660      -0.00374118 </v>
   <v>      -0.02472888       0.00127536       0.01201996 </v>
   <v>       0.00390979      -0.01582770      -0.00024114 </v>
   <v>      -0.00797276       0.00406146      -0.00150573 </v>
   <v>       0.00906653       0.00271761       0.00233627 </v>
   <v>      -0.01477556      -0.01895294      -0.01057743 </v>
   <v>       0.02301528       0.00504414      -0.00234110 </v>
   <v>      -0.00065749      -0.00694478       0.00598459 </v>
   <v>      -0.01547764       0.00403299      -0.04279414 </v>
   <v>      -0.00191401       0.00203989       0.01204876 </v>
   <v>      -0.00310559       0.00048477      -0.02905654 </v>
   <v>       0.00340504      -0.00052716       0.00106217 </v>
   <v>      -0.02366639      -0.00445735      -0.00374449 </v>
  </varray>
  <varray name="stress" >
   <v>       0.34336264       0.37976528       0.10522239 </v>
   <v>       0.37976525      -0.10756547       0.25385511 </v>
   <v>       0.10522237       0.25385508      -0.28320726 </v>
  </varray>
  <energy>
   <i name="e_fr_energy">   -370.12140938 </i>
   <i name="e_wo_entrp">   -370.12654677 </i>
   <i name="e_0_energy">      0.01541217 </i>
  </energy>
  <time name="totalsc">    6.67    7.08</time>
 </calculation>
 <calculation>
  <scstep>
   <time name="dav">    1.13    1.14</time>
   <time name="total">    1.34    1.54</time>
   <energy>
    <i name="alphaZ">   1555.30703987 </i>
    <i name="ewald"> -19265.53520730 </i>
    <i name="hartreedc">  -6856.92327331 </i>
    <i name="XCdc">   -341.74821566 </i>
    <i name="pawpsdc">  33843.85297458 </i>
    <i name="pawaedc"> -32176.56057812 </i>
    <i name="eentropy">      0.01558178 </i>
    <i name="bandstr">  -2504.89961107 </i>
    <i name="atom">  25376.36928711 </i>
    <i name="e_fr_energy">   -370.12200211 </i>
    <i name="e_wo_entrp">   -370.13758390 </i>
    <i name="e_0_energy">   -370.12719604 </i>
   </energy>
  </scstep>
  <scstep>
   <time name="diag">    0.10    0.10</time>
   <time name="diis">    0.79    0.79</time>
   <time name="orth">    0.01    0.01</time>
   <time name="total">    1.02    1.05</time>
   <energy>
    <i name="e_fr_energy">   -370.12364014 </i>
    <i name="e_wo_entrp">   -370.13924812 </i>
    <i name="e_0_energy">   -370.12884280 </i>
   </energy>
  </scstep>
  <scstep>
   <time name="diag">    0.20    0.20</time>
   <time name="diis">    0.91    0.91</time>
   <time name="orth">    0.01    0.01</time>
   <time name="total">    1.23    1.26</time>
   <energy>
    <i name="e_fr_energy">   -370.12359261 </i>
    <i name="e_wo_entrp">   -370.13907605 </i>
    <i name="e_0_energy">   -370.12875376 </i>
   </energy>
  </scstep>
  <scstep>
   <time name="diag">    0.08    0.08</time>
   <time name="diis">    0.88    0.89</time>
   <time name="orth">    0.01    0.01</time>
   <time name="total">    1.09    1.12</time>
   <energy>
    <i name="e_fr_energy">   -370.12353891 </i>
    <i name="e_wo_entrp">   -370.13916137 </i>
    <i name="e_0_energy">   -370.12874640 </i>
   </energy>
  </scstep>
  <scstep>
   <time name="diag">    0.23    0.23</time>
   <time name="diis">    1.34    1.35</time>
   <time name="orth">    0.01    0.01</time>
   <time name="total">    1.65    1.69</time>
   <energy>
    <i name="e_fr_energy">   -370.12353604 </i>
    <i name="e_wo_entrp">   -370.13909240 </i>
    <i name="e_0_energy">   -370.12872149 </i>
   </energy>
  </scstep>
  <scstep>
   <time name="diag">    0.07    0.07</time>
   <time name="diis">    0.62    0.62</time>
   <time name="orth">    0.01    0.01</time>
   <time name="total">    0.74    0.77</time>
   <energy>
    <i name="alphaZ">   1555.30703987 </i>
    <i name="ewald"> -19265.53520730 </i>
    <i name="hartreedc">  -6856.69653042 </i>
    <i name="XCdc">   -341.75540205 </i>
    <i name="pawpsdc">  33844.17174803 </i>
    <i name="pawaedc"> -32176.89548879 </i>
    <i name="eentropy">      0.01560558 </i>
    <i name="bandstr">  -2505.10458609 </i>
    <i name="atom">  25376.36928711 </i>
    <i name="e_fr_energy">   -370.12353408 </i>
    <i name="e_wo_entrp">   -370.13913966 </i>
    <i name="e_0_energy">   -370.12873594 </i>
   </energy>
  </scstep>
  <structure>
   <crystal>
    <varray name="basis" >
     <v>       6.83179624       0.00900654       0.00040926 </v>
     <v>       0.01361574      10.18641236      -0.02558809 </v>
     <v>       0.00074753      -0.02529750      10.21582145 </v>
    </varray>
    <i name="volume">    710.92859429 </i>
    <varray name="rec_basis" >
     <v>       0.14637465      -0.00019568      -0.00001120 </v>
     <v>      -0.00012944       0.09817077       0.00024311 </v>
     <v>      -0.00000619       0.00024590       0.09788799 </v>
    </varray>
   </crystal>
   <varray name="positions" >
    <v>       0.48008765       0.34012235       0.00220479 </v>
    <v>       0.24291530       0.16586349       0.17835851 </v>
    <v>       0.00310875       0.33083758       0.65603612 </v>
    <v>       0.24540341       0.83532803       0.50360581 </v>
    <v>       0.75403282       0.15936202       0.84138063 </v>
    <v>       0.76048476       0.50757032       0.83606852 </v>
    <v>       0.49627787       0.66348761       0.32647934 </v>
    <v>       0.77057899       0.49157675       0.16591534 </v>
    <v>       0.75272181       0.83152918       0.50299402 </v>
    <v>       0.50657883       0.00205955       0.33030327 </v>
    <v>       0.98909802       0.00581197       0.33300254 </v>
    <v>       0.25180333       0.16228115       0.48888195 </v>
    <v>       0.99863496       0.01270709       0.65782548 </v>
    <v>       0.00150023       0.66465055       0.33195431 </v>
    <v>       0.00749667       0.66009933       0.66629385 </v>
    <v>       0.74520261       0.16158592       0.49032617 </v>
    <v>       0.50039962       0.00722056       0.65402728 </v>
    <v>       0.49057537       0.65819742       0.66295422 </v>
    <v>       0.99408493       0.33239537       0.34792365 </v>
    <v>       0.22905029       0.49567526       0.18043135 </v>
    <v>       0.24400757       0.50790668       0.49584506 </v>
    <v>       0.24337430       0.52179164       0.82218320 </v>
    <v>       0.01496520       0.67748200       0.00453909 </v>
    <v>       0.22815037       0.84044939       0.18128653 </v>
    <v>       0.50175397       0.33760936       0.33876477 </v>
    <v>       0.75249877       0.50776821       0.49605959 </v>
    <v>       0.76969642       0.83507819       0.17948987 </v>
    <v>       0.99742242       0.98274153       0.01026088 </v>
    <v>       0.75417549       0.16927579       0.17017852 </v>
    <v>       0.24310034       0.83188293       0.82127546 </v>
    <v>       0.25261638       0.14084890       0.82950204 </v>
    <v>       0.03564469       0.33655994       0.98841498 </v>
    <v>       0.50297097       0.98555865       0.01536562 </v>
    <v>       0.49679756       0.33460728       0.65989423 </v>
    <v>       0.48931812       0.66967375       0.00846907 </v>
    <v>       0.75347121       0.83240826       0.82150792 </v>
   </varray>
  </structure>
  <varray name="forces" >
   <v>       0.00313842      -0.00049932       0.01597129 </v>
   <v>      -0.02060416       0.01683828       0.00411899 </v>
   <v>       0.01370970       0.00219086       0.07267384 </v>
   <v>       0.00928942       0.00834089       0.00925153 </v>
   <v>      -0.00402773      -0.00686198       0.00519946 </v>
   <v>      -0.00497413       0.00776139       0.00489258 </v>
   <v>       0.00827309      -0.02317922       0.00104436 </v>
   <v>       0.01100906      -0.01190244       0.01814805 </v>
   <v>      -0.01362833      -0.00072813       0.01062595 </v>
   <v>      -0.00069094       0.01988114      -0.00166603 </v>
   <v>      -0.00437670      -0.04918478      -0.00180765 </v>
   <v>      -0.00604480       0.01406711       0.00274245 </v>
   <v>      -0.00087506       0.03029515      -0.01691313 </v>
   <v>       0.00132847       0.04812368       0.00259866 </v>
   <v>      -0.00061754      -0.01486378      -0.01344372 </v>
   <v>       0.01622519       0.02190589      -0.01859766 </v>
   <v>      -0.00059280      -0.00039271      -0.00350341 </v>
   <v>      -0.00179244      -0.00274417      -0.00312601 </v>
   <v>       0.01491915      -0.00814574      -0.05175019 </v>
   <v>       0.00059692      -0.00338595       0.00984775 </v>
   <v>      -0.01206759      -0.01306678      -0.00410347 </v>
   <v>       0.00298134       0.00604460       0.00293939 </v>
   <v>       0.00059928      -0.00287209       0.00407810 </v>
   <v>       0.01020693      -0.00540053      -0.00529346 </v>
   <v>      -0.01481687       0.00069552       0.01176505 </v>
   <v>       0.01603572      -0.01898197      -0.00244789 </v>
   <v>      -0.01036804       0.00148346      -0.00655545 </v>
   <v>       0.00630937       0.00050289      -0.00124833 </v>
   <v>      -0.00861875      -0.01588084      -0.00877010 </v>
   <v>       0.01532438       0.00293196      -0.00140185 </v>
   <v>       0.00454881      -0.01064525       0.00573531 </v>
   <v>      -0.01515068       0.00670704      -0.02944645 </v>
   <v>      -0.00491943       0.00583793       0.01096345 </v>
   <v>       0.00200907       0.00059572      -0.02198811 </v>
   <v>       0.00442582      -0.00222523       0.00073359 </v>
   <v>      -0.01676415      -0.00324261      -0.00126685 </v>
  </varray>
  <varray name="stress" >
   <v>       0.07919264       0.04947632       0.01706885 </v>
   <v>       0.04947632      -0.09101789       0.04845667 </v>
   <v>       0.01706882       0.04845668      -0.21128701 </v>
  </varray>
  <energy>
   <i name="e_fr_energy">   -370.12353408 </i>
   <i name="e_wo_entrp">   -370.12873594 </i>
   <i name="e_0_energy">      0.01560558 </i>
  </energy>
  <time name="totalsc">    8.72    9.19</time>
 </calculation>
 <calculation>
  <scstep>
   <time name="dav">    1.05    1.06</time>
   <time name="total">    1.14    1.30</time>
   <energy>
    <i name="alphaZ">   1555.38848539 </i>
    <i name="ewald"> -19269.20802509 </i>
    <i name="hartreedc">  -6853.62725979 </i>
    <i name="XCdc">   -341.74869121 </i>
    <i name="pawpsdc">  33844.11917781 </i>
    <i name="pawaedc"> -32176.84277785 </i>
    <i name="eentropy">      0.01597022 </i>
    <i name="bandstr">  -2504.58511582 </i>
    <i name="atom">  25376.36928711 </i>
    <i name="e_fr_energy">   -370.11894924 </i>
    <i name="e_wo_entrp">   -370.13491946 </i>
    <i name="e_0_energy">   -370.12427265 </i>
   </energy>
  </scstep>
  <scstep>
   <time name="diag">    0.07    0.08</time>
   <time name="diis">    0.73    0.73</time>
   <time name="orth">    0.01    0.01</time>
   <time name="total">    0.88    0.91</time>
   <energy>
    <i name="e_fr_energy">   -370.12547408 </i>
    <i name="e_wo_entrp">   -370.14140808 </i>
    <i name="e_0_energy">   -370.13078541 </i>
   </energy>
  </scstep>
  <scstep>
   <time name="diag">    0.07    0.08</time>
   <time name="diis">    0.77    0.78</time>
   <time name="orth">    0.01    0.01</time>
   <time name="total">    0.93    0.96</time>
   <energy>
    <i name="e_fr_energy">   -370.12521781 </i>
    <i name="e_wo_entrp">   -370.14098800 </i>
    <i name="e_0_energy">   -370.13047454 </i>
   </energy>
  </scstep>
  <scstep>
   <time name="diag">    0.07    0.07</time>
   <time name="diis">    0.85    0.86</time>
   <time name="orth">    0.01    0.01</time>
   <time name="total">    1.01    1.03</time>
   <energy>
    <i name="e_fr_energy">   -370.12504052 </i>
    <i name="e_wo_entrp">   -370.14105205 </i>
    <i name="e_0_energy">   -370.13037770 </i>
   </energy>
  </scstep>
  <scstep>
   <time name="diag">    0.08    0.08</time>
   <time name="diis">    0.78    0.79</time>
   <time name="orth">    0.01    0.01</time>
   <time name="total">    0.95    1.01</time>
   <energy>
    <i name="e_fr_energy">   -370.12502744 </i>
    <i name="e_wo_entrp">   -370.14089967 </i>
    <i name="e_0_energy">   -370.13031819 </i>
   </energy>
  </scstep>
  <scstep>
   <time name="diag">    0.08    0.08</time>
   <time name="diis">    0.82    0.82</time>
   <time name="orth">    0.01    0.01</time>
   <time name="total">    1.01    1.04</time>
   <energy>
    <i name="e_fr_energy">   -370.12501513 </i>
    <i name="e_wo_entrp">   -370.14099277 </i>
    <i name="e_0_energy">   -370.13034101 </i>
   </energy>
  </scstep>
  <scstep>
   <time name="diag">    0.14    0.14</time>
   <time name="diis">    0.50    0.51</time>
   <time name="orth">    0.01    0.01</time>
   <time name="total">    0.69    0.73</time>
   <energy>
    <i name="alphaZ">   1555.38848539 </i>
    <i name="ewald"> -19269.20802509 </i>
    <i name="hartreedc">  -6853.18339826 </i>
    <i name="XCdc">   -341.76283140 </i>
    <i name="pawpsdc">  33845.52017752 </i>
    <i name="pawaedc"> -32178.27468298 </i>
    <i name="eentropy">      0.01595128 </i>
    <i name="bandstr">  -2504.98997534 </i>
    <i name="atom">  25376.36928711 </i>
    <i name="e_fr_energy">   -370.12501177 </i>
    <i name="e_wo_entrp">   -370.14096305 </i>
    <i name="e_0_energy">   -370.13032886 </i>
   </energy>
  </scstep>
  <structure>
   <crystal>
    <varray name="basis" >
     <v>       6.83423763       0.01169670       0.00115784 </v>
     <v>       0.01763031      10.18523611      -0.02291395 </v>
     <v>       0.00185387      -0.02262144      10.21281650 </v>
    </varray>
    <i name="volume">    710.89136761 </i>
    <varray name="rec_basis" >
     <v>       0.14632254      -0.00025334      -0.00002712 </v>
     <v>      -0.00016807       0.09818211       0.00021750 </v>
     <v>      -0.00001697       0.00022031       0.09791667 </v>
    </varray>
   </crystal>
   <varray name="positions" >
    <v>       0.48009162       0.34012885       0.00239350 </v>
    <v>       0.24263071       0.16615228       0.17845525 </v>
    <v>       0.00321775       0.33085027       0.65715847 </v>
    <v>       0.24552997       0.83540156       0.50368653 </v>
    <v>       0.75407154       0.15936354       0.84137708 </v>
    <v>       0.76052339       0.50757230       0.83608130 </v>
    <v>       0.49635125       0.66321100       0.32643338 </v>
    <v>       0.77068098       0.49141132       0.16617091 </v>
    <v>       0.75257456       0.83150997       0.50306306 </v>
    <v>       0.50658452       0.00225540       0.33027665 </v>
    <v>       0.98899332       0.00503939       0.33300345 </v>
    <v>       0.25186827       0.16240587       0.48896137 </v>
    <v>       0.99862883       0.01299828       0.65767014 </v>
    <v>       0.00152582       0.66542992       0.33201468 </v>
    <v>       0.00747375       0.65995133       0.66615562 </v>
    <v>       0.74535345       0.16179583       0.49011936 </v>
    <v>       0.50037506       0.00718840       0.65394968 </v>
    <v>       0.49055495       0.65818156       0.66286455 </v>
    <v>       0.99440589       0.33223698       0.34707399 </v>
    <v>       0.22925318       0.49566210       0.18059389 </v>
    <v>       0.24407445       0.50782368       0.49581366 </v>
    <v>       0.24338374       0.52180010       0.82217298 </v>
    <v>       0.01496701       0.67743850       0.00458275 </v>
    <v>       0.22823791       0.84040046       0.18126183 </v>
    <v>       0.50139547       0.33762193       0.33886946 </v>
    <v>       0.75249996       0.50764251       0.49606800 </v>
    <v>       0.76960855       0.83512050       0.17949418 </v>
    <v>       0.99754751       0.98277380       0.01029220 </v>
    <v>       0.75395583       0.16910152       0.17008332 </v>
    <v>       0.24341726       0.83193078       0.82125964 </v>
    <v>       0.25257496       0.14080224       0.82955912 </v>
    <v>       0.03544028       0.33658843       0.98799938 </v>
    <v>       0.50296191       0.98556710       0.01547908 </v>
    <v>       0.49673694       0.33461374       0.65961554 </v>
    <v>       0.48935429       0.66967186       0.00848268 </v>
    <v>       0.75315511       0.83236070       0.82146732 </v>
   </varray>
  </structure>
  <varray name="forces" >
   <v>       0.00585290       0.00009043       0.00754021 </v>
   <v>      -0.01892647      -0.00830381      -0.00438490 </v>
   <v>       0.02212784       0.00703013      -0.01459265 </v>
   <v>       0.00798061       0.00502124       0.00726058 </v>
   <v>      -0.01362485      -0.01699426       0.01387825 </v>
   <v>      -0.01655303       0.02155887       0.00682650 </v>
   <v>       0.01213220      -0.00829780       0.01081666 </v>
   <v>       0.01561337       0.00022359       0.00282641 </v>
   <v>      -0.01608173      -0.00143532       0.01245775 </v>
   <v>      -0.00370265       0.01223194       0.00165636 </v>
   <v>       0.00378387       0.01582570      -0.00562957 </v>
   <v>      -0.02473197       0.01258758      -0.00961801 </v>
   <v>      -0.00166250       0.02139295      -0.01595765 </v>
   <v>       0.00034879      -0.01882752      -0.00331282 </v>
   <v>       0.00147557      -0.01051178      -0.01091546 </v>
   <v>       0.02352934       0.01644455      -0.00990404 </v>
   <v>       0.00200211       0.00584942       0.00308424 </v>
   <v>      -0.00210803      -0.00332167       0.00646049 </v>
   <v>      -0.00158659       0.00867874       0.02233101 </v>
   <v>      -0.02200240      -0.00471777      -0.00186007 </v>
   <v>      -0.03737621      -0.01652228      -0.00446940 </v>
   <v>       0.00613288       0.01608254       0.00632597 </v>
   <v>       0.00128304       0.00005135       0.00320091 </v>
   <v>       0.01715598      -0.00679260      -0.00714386 </v>
   <v>       0.00374008       0.00120891       0.01163093 </v>
   <v>       0.03960541      -0.02445894      -0.00785532 </v>
   <v>      -0.01738878      -0.00510948      -0.01518943 </v>
   <v>       0.00101931      -0.00655682      -0.00640614 </v>
   <v>       0.00492662      -0.00875091      -0.00345304 </v>
   <v>       0.00163760      -0.00382877      -0.00283066 </v>
   <v>       0.01668135      -0.02006284       0.00376290 </v>
   <v>      -0.01288152       0.01221734       0.00151938 </v>
   <v>      -0.01167044       0.01361896       0.00588636 </v>
   <v>       0.01084279      -0.00027600      -0.00502327 </v>
   <v>       0.00618735      -0.00536510      -0.00050373 </v>
   <v>      -0.00376183       0.00001944       0.00158512 </v>
  </varray>
  <varray name="stress" >
   <v>      -0.22448848      -0.44211049      -0.11301500 </v>
   <v>      -0.44211052      -0.00499936      -0.24839456 </v>
   <v>      -0.11301499      -0.24839462       0.07144274 </v>
  </varray>
  <energy>
   <i name="e_fr_energy">   -370.12501177 </i>
   <i name="e_wo_entrp">   -370.13032886 </i>
   <i name="e_0_energy">      0.01595128 </i>
  </energy>
  <time name="totalsc">    8.27    9.30</time>
 </calculation>
 <calculation>
  <scstep>
   <time name="dav">    0.94    0.95</time>
   <time name="total">    1.04    1.20</time>
   <energy>
    <i name="alphaZ">   1555.37749699 </i>
    <i name="ewald"> -19268.72073551 </i>
    <i name="hartreedc">  -6853.58684600 </i>
    <i name="XCdc">   -341.76385922 </i>
    <i name="pawpsdc">  33845.45293176 </i>
    <i name="pawaedc"> -32178.20630215 </i>
    <i name="eentropy">      0.01591056 </i>
    <i name="bandstr">  -2505.06282767 </i>
    <i name="atom">  25376.36928711 </i>
    <i name="e_fr_energy">   -370.12494414 </i>
    <i name="e_wo_entrp">   -370.14085470 </i>
    <i name="e_0_energy">   -370.13024766 </i>
   </energy>
  </scstep>
  <scstep>
   <time name="diag">    0.07    0.08</time>
   <time name="diis">    0.70    0.70</time>
   <time name="orth">    0.01    0.01</time>
   <time name="total">    0.85    0.88</time>
   <energy>
    <i name="e_fr_energy">   -370.12505337 </i>
    <i name="e_wo_entrp">   -370.14095592 </i>
    <i name="e_0_energy">   -370.13035422 </i>
   </energy>
  </scstep>
  <scstep>
   <time name="diag">    0.08    0.08</time>
   <time name="diis">    0.58    0.58</time>
   <time name="orth">    0.01    0.01</time>
   <time name="total">    0.74    0.77</time>
   <energy>
    <i name="e_fr_energy">   -370.12504097 </i>
    <i name="e_wo_entrp">   -370.14097748 </i>
    <i name="e_0_energy">   -370.13035314 </i>
   </energy>
  </scstep>
  <scstep>
   <time name="diag">    0.07    0.07</time>
   <time name="diis">    0.35    0.35</time>
   <time name="orth">    0.01    0.01</time>
   <time name="total">    0.47    0.50</time>
   <energy>
    <i name="alphaZ">   1555.37749699 </i>
    <i name="ewald"> -19268.72073551 </i>
    <i name="hartreedc">  -6853.66403757 </i>
    <i name="XCdc">   -341.76133687 </i>
    <i name="pawpsdc">  33845.17937118 </i>
    <i name="pawaedc"> -32177.92621131 </i>
    <i name="eentropy">      0.01589775 </i>
    <i name="bandstr">  -2504.99476753 </i>
    <i name="atom">  25376.36928711 </i>
    <i name="e_fr_energy">   -370.12503575 </i>
    <i name="e_wo_entrp">   -370.14093350 </i>
    <i name="e_0_energy">   -370.13033500 </i>
   </energy>
  </scstep>
  <structure>
   <crystal>
    <varray name="basis" >
     <v>       6.83391014       0.01133584       0.00105743 </v>
     <v>       0.01709179      10.18539389      -0.02327266 </v>
     <v>       0.00170547      -0.02298041      10.21321959 </v>
    </varray>
    <i name="volume">    710.89638990 </i>
    <varray name="rec_basis" >
     <v>       0.14632952      -0.00024561      -0.00002499 </v>
     <v>      -0.00016289       0.09818058       0.00022094 </v>
     <v>      -0.00001552       0.00022375       0.09791282 </v>
    </varray>
   </crystal>
   <varray name="positions" >
    <v>       0.48009109       0.34012799       0.00236818 </v>
    <v>       0.24266890       0.16611353       0.17844228 </v>
    <v>       0.00320316       0.33084861       0.65700787 </v>
    <v>       0.24551301       0.83539171       0.50367571 </v>
    <v>       0.75406635       0.15936333       0.84137755 </v>
    <v>       0.76051821       0.50757203       0.83607959 </v>
    <v>       0.49634139       0.66324811       0.32643954 </v>
    <v>       0.77066730       0.49143353       0.16613661 </v>
    <v>       0.75259430       0.83151255       0.50305379 </v>
    <v>       0.50658377       0.00222912       0.33028023 </v>
    <v>       0.98900730       0.00514304       0.33300330 </v>
    <v>       0.25185957       0.16238914       0.48895072 </v>
    <v>       0.99862968       0.01295921       0.65769099 </v>
    <v>       0.00152246       0.66532537       0.33200661 </v>
    <v>       0.00747681       0.65997118       0.66617416 </v>
    <v>       0.74533324       0.16176767       0.49014711 </v>
    <v>       0.50037835       0.00719271       0.65396009 </v>
    <v>       0.49055768       0.65818369       0.66287658 </v>
    <v>       0.99436282       0.33225821       0.34718799 </v>
    <v>       0.22922598       0.49566388       0.18057208 </v>
    <v>       0.24406547       0.50783481       0.49581788 </v>
    <v>       0.24338248       0.52179896       0.82217436 </v>
    <v>       0.01496676       0.67744434       0.00457689 </v>
    <v>       0.22822617       0.84040702       0.18126514 </v>
    <v>       0.50144355       0.33762024       0.33885541 </v>
    <v>       0.75249979       0.50765937       0.49606687 </v>
    <v>       0.76962034       0.83511482       0.17949361 </v>
    <v>       0.99753074       0.98276948       0.01028800 </v>
    <v>       0.75398526       0.16912489       0.17009608 </v>
    <v>       0.24337477       0.83192437       0.82126177 </v>
    <v>       0.25258051       0.14080850       0.82955146 </v>
    <v>       0.03546769       0.33658459       0.98805515 </v>
    <v>       0.50296313       0.98556597       0.01546385 </v>
    <v>       0.49674506       0.33461286       0.65965293 </v>
    <v>       0.48934944       0.66967211       0.00848085 </v>
    <v>       0.75319749       0.83236706       0.82147276 </v>
   </varray>
  </structure>
  <varray name="forces" >
   <v>       0.00590701      -0.00014978       0.00859891 </v>
   <v>      -0.01955793      -0.00425637      -0.00238833 </v>
   <v>       0.02057898       0.00637666       0.00049440 </v>
   <v>       0.00724668       0.00577305       0.00747385 </v>
   <v>      -0.01164768      -0.01521874       0.01290569 </v>
   <v>      -0.01466979       0.01943942       0.00642668 </v>
   <v>       0.01183608      -0.01052014       0.00911677 </v>
   <v>       0.01506755      -0.00209409       0.00558525 </v>
   <v>      -0.01464965      -0.00147006       0.01191341 </v>
   <v>      -0.00336914       0.01344425       0.00135133 </v>
   <v>       0.00257333       0.00229966      -0.00462010 </v>
   <v>      -0.02347955       0.01417297      -0.00779512 </v>
   <v>      -0.00173227       0.02309450      -0.01678237 </v>
   <v>       0.00054554      -0.00493577      -0.00221275 </v>
   <v>       0.00159178      -0.01198487      -0.01167272 </v>
   <v>       0.02440558       0.01933377      -0.01249952 </v>
   <v>       0.00218586       0.00530566       0.00098887 </v>
   <v>      -0.00215612      -0.00366458       0.00506439 </v>
   <v>       0.00121737       0.00455418       0.00858473 </v>
   <v>      -0.01838113      -0.00518173       0.00069497 </v>
   <v>      -0.03375891      -0.01660680      -0.00383858 </v>
   <v>       0.00543563       0.01481103       0.00611157 </v>
   <v>       0.00104159      -0.00046657       0.00290285 </v>
   <v>       0.01614792      -0.00622884      -0.00694852 </v>
   <v>       0.00028524       0.00079709       0.01222997 </v>
   <v>       0.03621148      -0.02409686      -0.00592332 </v>
   <v>      -0.01647492      -0.00350691      -0.01406103 </v>
   <v>       0.00189068      -0.00552181      -0.00574386 </v>
   <v>       0.00218467      -0.01032647      -0.00428527 </v>
   <v>       0.00329868      -0.00292108      -0.00173619 </v>
   <v>       0.01471018      -0.01890978       0.00450923 </v>
   <v>      -0.01436105       0.01257382      -0.00408375 </v>
   <v>      -0.01072851       0.01194108       0.00726913 </v>
   <v>       0.00917238       0.00060619      -0.00792612 </v>
   <v>       0.00583545      -0.00477059      -0.00050232 </v>
   <v>      -0.00440302      -0.00169151       0.00079787 </v>
  </varray>
  <varray name="stress" >
   <v>      -0.23667273      -0.41179899      -0.10300670 </v>
   <v>      -0.41179899      -0.02922351      -0.22975097 </v>
   <v>      -0.10300663      -0.22975102       0.02187080 </v>
  </varray>
  <energy>
   <i name="e_fr_energy">   -370.12503575 </i>
   <i name="e_wo_entrp">   -370.13033500 </i>
   <i name="e_0_energy">      0.01589775 </i>
  </energy>
  <time name="totalsc">    4.69    5.12</time>
 </calculation>
 <calculation>
  <scstep>
   <time name="dav">    0.94    0.95</time>
   <time name="total">    1.04    1.18</time>
   <energy>
    <i name="alphaZ">   1555.56383120 </i>
    <i name="ewald"> -19269.61121027 </i>
    <i name="hartreedc">  -6853.79429412 </i>
    <i name="XCdc">   -341.72589044 </i>
    <i name="pawpsdc">  33845.22068990 </i>
    <i name="pawaedc"> -32177.96555310 </i>
    <i name="eentropy">      0.01601598 </i>
    <i name="bandstr">  -2504.19828890 </i>
    <i name="atom">  25376.36928711 </i>
    <i name="e_fr_energy">   -370.12541263 </i>
    <i name="e_wo_entrp">   -370.14142861 </i>
    <i name="e_0_energy">   -370.13075129 </i>
   </energy>
  </scstep>
  <scstep>
   <time name="diag">    0.11    0.11</time>
   <time name="diis">    0.80    0.80</time>
   <time name="orth">    0.01    0.01</time>
   <time name="total">    0.99    1.04</time>
   <energy>
    <i name="e_fr_energy">   -370.12561422 </i>
    <i name="e_wo_entrp">   -370.14169780 </i>
    <i name="e_0_energy">   -370.13097541 </i>
   </energy>
  </scstep>
  <scstep>
   <time name="diag">    0.07    0.07</time>
   <time name="diis">    0.78    0.79</time>
   <time name="orth">    0.01    0.01</time>
   <time name="total">    0.94    0.97</time>
   <energy>
    <i name="e_fr_energy">   -370.12559104 </i>
    <i name="e_wo_entrp">   -370.14155829 </i>
    <i name="e_0_energy">   -370.13091346 </i>
   </energy>
  </scstep>
  <scstep>
   <time name="diag">    0.08    0.08</time>
   <time name="diis">    0.82    0.83</time>
   <time name="orth">    0.01    0.01</time>
   <time name="total">    0.98    1.02</time>
   <energy>
    <i name="e_fr_energy">   -370.12556497 </i>
    <i name="e_wo_entrp">   -370.14161306 </i>
    <i name="e_0_energy">   -370.13091434 </i>
   </energy>
  </scstep>
  <scstep>
   <time name="diag">    0.07    0.13</time>
   <time name="diis">    0.50    0.51</time>
   <time name="orth">    0.01    0.01</time>
   <time name="total">    0.63    0.72</time>
   <energy>
    <i name="alphaZ">   1555.56383120 </i>
    <i name="ewald"> -19269.61121027 </i>
    <i name="hartreedc">  -6853.32088759 </i>
    <i name="XCdc">   -341.74651850 </i>
    <i name="pawpsdc">  33850.60086101 </i>
    <i name="pawaedc"> -32183.35232920 </i>
    <i name="eentropy">      0.01600831 </i>
    <i name="bandstr">  -2504.64460564 </i>
    <i name="atom">  25376.36928711 </i>
    <i name="e_fr_energy">   -370.12556358 </i>
    <i name="e_wo_entrp">   -370.14157189 </i>
    <i name="e_0_energy">   -370.13089969 </i>
   </energy>
  </scstep>
  <structure>
   <crystal>
    <varray name="basis" >
     <v>       6.83337797       0.01026565       0.00079583 </v>
     <v>       0.01549687      10.18514195      -0.02412220 </v>
     <v>       0.00131941      -0.02383173      10.21304284 </v>
    </varray>
    <i name="volume">    710.81123472 </i>
    <varray name="rec_basis" >
     <v>       0.14634084      -0.00022271      -0.00001943 </v>
     <v>      -0.00014753       0.09818300       0.00022913 </v>
     <v>      -0.00001175       0.00023192       0.09791455 </v>
    </varray>
   </crystal>
   <varray name="positions" >
    <v>       0.48012447       0.34012807       0.00241820 </v>
    <v>       0.24253268       0.16612502       0.17844248 </v>
    <v>       0.00332842       0.33087358       0.65711607 </v>
    <v>       0.24556543       0.83542033       0.50371134 </v>
    <v>       0.75400504       0.15930659       0.84142536 </v>
    <v>       0.76043969       0.50764526       0.83610501 </v>
    <v>       0.49641459       0.66318246       0.32646919 </v>
    <v>       0.77076118       0.49140996       0.16618168 </v>
    <v>       0.75249849       0.83150541       0.50310488 </v>
    <v>       0.50656534       0.00229812       0.33028288 </v>
    <v>       0.98901179       0.00507844       0.33298615 </v>
    <v>       0.25173436       0.16245418       0.48892922 </v>
    <v>       0.99861920       0.01307326       0.65761371 </v>
    <v>       0.00152794       0.66538064       0.33200399 </v>
    <v>       0.00748367       0.65991211       0.66611731 </v>
    <v>       0.74548374       0.16185979       0.49008093 </v>
    <v>       0.50038819       0.00720956       0.65395649 </v>
    <v>       0.49054373       0.65816850       0.66288700 </v>
    <v>       0.99439997       0.33226037       0.34713966 </v>
    <v>       0.22914250       0.49564332       0.18059004 </v>
    <v>       0.24388329       0.50776486       0.49580043 </v>
    <v>       0.24341361       0.52185532       0.82219637 </v>
    <v>       0.01497276       0.67743849       0.00459187 </v>
    <v>       0.22832477       0.84037887       0.18123676 </v>
    <v>       0.50141118       0.33762452       0.33891107 </v>
    <v>       0.75270253       0.50755683       0.49604529 </v>
    <v>       0.76951999       0.83510566       0.17944141 </v>
    <v>       0.99755320       0.98275176       0.01026944 </v>
    <v>       0.75397679       0.16906962       0.17007096 </v>
    <v>       0.24342323       0.83191790       0.82125375 </v>
    <v>       0.25265898       0.14073312       0.82957356 </v>
    <v>       0.03536796       0.33663450       0.98800063 </v>
    <v>       0.50290219       0.98561167       0.01550189 </v>
    <v>       0.49679059       0.33461563       0.65959689 </v>
    <v>       0.48938552       0.66965400       0.00848022 </v>
    <v>       0.75314298       0.83235626       0.82147189 </v>
   </varray>
  </structure>
  <varray name="forces" >
   <v>       0.00319833       0.00004939       0.00784589 </v>
   <v>      -0.01635170      -0.00304945      -0.00461875 </v>
   <v>       0.01568600       0.00326858       0.00068023 </v>
   <v>       0.00642962       0.00417832       0.00382730 </v>
   <v>      -0.01036722      -0.01185875       0.01011853 </v>
   <v>      -0.01245981       0.01681938       0.00359052 </v>
   <v>       0.00785024      -0.01058223       0.00958986 </v>
   <v>       0.00971935       0.00066957       0.00385721 </v>
   <v>      -0.01052027       0.00149833       0.00810274 </v>
   <v>      -0.00262251       0.00918832      -0.00111471 </v>
   <v>       0.00193216       0.00561425      -0.00340291 </v>
   <v>      -0.01644770       0.01181519      -0.00849940 </v>
   <v>      -0.00204646       0.01843177      -0.01319705 </v>
   <v>      -0.00079704      -0.00769593      -0.00154494 </v>
   <v>       0.00035436      -0.00881327      -0.00843851 </v>
   <v>       0.01625449       0.01484384      -0.00845965 </v>
   <v>       0.00373860       0.00453503       0.00093485 </v>
   <v>      -0.00207729      -0.00191306       0.00512930 </v>
   <v>      -0.00118912       0.00306947       0.01042673 </v>
   <v>      -0.01348836      -0.00300571      -0.00167516 </v>
   <v>      -0.02493943      -0.01211554      -0.00387656 </v>
   <v>       0.00694715       0.01208996       0.00499728 </v>
   <v>      -0.00013626       0.00220419       0.00415616 </v>
   <v>       0.01340154      -0.00532167      -0.00366800 </v>
   <v>       0.00129268      -0.00027453       0.00786845 </v>
   <v>       0.02996264      -0.01902478      -0.00602584 </v>
   <v>      -0.01236391      -0.00354082      -0.01032640 </v>
   <v>       0.00095352      -0.00871844      -0.00367622 </v>
   <v>       0.00256467      -0.00625990      -0.00212762 </v>
   <v>       0.00105458      -0.00405491      -0.00296133 </v>
   <v>       0.01321992      -0.01213150       0.00260133 </v>
   <v>      -0.01075814       0.00756879      -0.00220937 </v>
   <v>      -0.00998266       0.00894780       0.00594592 </v>
   <v>       0.00775975       0.00057911      -0.00533218 </v>
   <v>       0.00568604      -0.00535888       0.00155404 </v>
   <v>      -0.00145774      -0.00165191      -0.00007175 </v>
  </varray>
  <varray name="stress" >
   <v>       0.03443484      -0.18500577      -0.05804460 </v>
   <v>      -0.18500579       0.11531198      -0.11357119 </v>
   <v>      -0.05804464      -0.11357125       0.13909109 </v>
  </varray>
  <energy>
   <i name="e_fr_energy">   -370.12556358 </i>
   <i name="e_wo_entrp">   -370.13089969 </i>
   <i name="e_0_energy">      0.01600831 </i>
  </energy>
  <time name="totalsc">    6.86    7.58</time>
 </calculation>
 <calculation>
  <scstep>
   <time name="dav">    1.57    1.70</time>
   <time name="total">    2.16    2.41</time>
   <energy>
    <i name="alphaZ">   1555.99700973 </i>
    <i name="ewald"> -19271.66250402 </i>
    <i name="hartreedc">  -6853.64846289 </i>
    <i name="XCdc">   -341.66385292 </i>
    <i name="pawpsdc">  33850.57631502 </i>
    <i name="pawaedc"> -32183.32805646 </i>
    <i name="eentropy">      0.01623694 </i>
    <i name="bandstr">  -2502.78126946 </i>
    <i name="atom">  25376.36928711 </i>
    <i name="e_fr_energy">   -370.12529696 </i>
    <i name="e_wo_entrp">   -370.14153390 </i>
    <i name="e_0_energy">   -370.13070927 </i>
   </energy>
  </scstep>
  <scstep>
   <time name="diag">    0.08    0.08</time>
   <time name="diis">    0.70    0.81</time>
   <time name="orth">    0.01    0.02</time>
   <time name="total">    1.14    1.31</time>
   <energy>
    <i name="e_fr_energy">   -370.12646634 </i>
    <i name="e_wo_entrp">   -370.14290185 </i>
    <i name="e_0_energy">   -370.13194484 </i>
   </energy>
  </scstep>
  <scstep>
   <time name="diag">    0.08    0.08</time>
   <time name="diis">    0.85    0.88</time>
   <time name="orth">    0.01    0.01</time>
   <time name="total">    1.01    1.09</time>
   <energy>
    <i name="e_fr_energy">   -370.12632928 </i>
    <i name="e_wo_entrp">   -370.14247300 </i>
    <i name="e_0_energy">   -370.13171052 </i>
   </energy>
  </scstep>
  <scstep>
   <time name="diag">    0.25    0.39</time>
   <time name="diis">    0.77    0.80</time>
   <time name="orth">    0.01    0.01</time>
   <time name="total">    1.10    2.03</time>
   <energy>
    <i name="e_fr_energy">   -370.12619258 </i>
    <i name="e_wo_entrp">   -370.14251602 </i>
    <i name="e_0_energy">   -370.13163373 </i>
   </energy>
  </scstep>
  <scstep>
   <time name="diag">    0.08    0.08</time>
   <time name="diis">    0.84    0.85</time>
   <time name="orth">    0.01    0.01</time>
   <time name="total">    1.00    1.03</time>
   <energy>
    <i name="e_fr_energy">   -370.12618791 </i>
    <i name="e_wo_entrp">   -370.14242559 </i>
    <i name="e_0_energy">   -370.13160047 </i>
   </energy>
  </scstep>
  <scstep>
   <time name="diag">    0.08    0.09</time>
   <time name="diis">    0.68    0.69</time>
   <time name="orth">    0.01    0.01</time>
   <time name="total">    0.84    0.89</time>
   <energy>
    <i name="e_fr_energy">   -370.12618638 </i>
    <i name="e_wo_entrp">   -370.14245896 </i>
    <i name="e_0_energy">   -370.13161057 </i>
   </energy>
  </scstep>
  <scstep>
   <time name="diag">    0.08    0.08</time>
   <time name="diis">    0.53    0.53</time>
   <time name="orth">    0.01    0.01</time>
   <time name="total">    0.65    0.68</time>
   <energy>
    <i name="alphaZ">   1555.99700973 </i>
    <i name="ewald"> -19271.66250402 </i>
    <i name="hartreedc">  -6852.54271114 </i>
    <i name="XCdc">   -341.71129266 </i>
    <i name="pawpsdc">  33862.97966760 </i>
    <i name="pawaedc"> -32195.73554404 </i>
    <i name="eentropy">      0.01625471 </i>
    <i name="bandstr">  -2503.83635481 </i>
    <i name="atom">  25376.36928711 </i>
    <i name="e_fr_energy">   -370.12618753 </i>
    <i name="e_wo_entrp">   -370.14244224 </i>
    <i name="e_0_energy">   -370.13160577 </i>
   </energy>
  </scstep>
  <structure>
   <crystal>
    <varray name="basis" >
     <v>       6.83214232       0.00778074       0.00018841 </v>
     <v>       0.01179356      10.18455694      -0.02609479 </v>
     <v>       0.00042302      -0.02580844      10.21263245 </v>
    </varray>
    <i name="volume">    710.61334991 </i>
[...]
       <r>    6.8576    1.0000 </r>
       <r>    6.9089    1.0000 </r>
       <r>    6.9584    1.0000 </r>
       <r>    6.9878    1.0000 </r>
       <r>    7.0171    1.0000 </r>
       <r>    7.0470    1.0000 </r>
       <r>    7.1166    1.0000 </r>
       <r>    7.1425    1.0001 </r>
       <r>    7.1766    1.0004 </r>
       <r>    7.2106    1.0012 </r>
       <r>    7.2645    1.0050 </r>
       <r>    7.3054    1.0121 </r>
       <r>    7.3154    1.0146 </r>
       <r>    7.3534    1.0257 </r>
       <r>    7.3988    1.0354 </r>
       <r>    7.4031    1.0354 </r>
       <r>    7.4209    1.0323 </r>
       <r>    7.4684    0.9837 </r>
       <r>    7.5014    0.8997 </r>
       <r>    7.5228    0.8194 </r>
       <r>    7.5667    0.6021 </r>
       <r>    7.5920    0.4598 </r>
       <r>    7.6236    0.2895 </r>
       <r>    7.6744    0.0815 </r>
       <r>    7.7171   -0.0081 </r>
       <r>    7.7487   -0.0322 </r>
       <r>    7.8024   -0.0298 </r>
       <r>    7.8218   -0.0240 </r>
       <r>    7.8442   -0.0173 </r>
       <r>    7.8859   -0.0078 </r>
       <r>    7.9211   -0.0034 </r>
       <r>    7.9519   -0.0015 </r>
       <r>    7.9738   -0.0008 </r>
       <r>    8.0476   -0.0001 </r>
       <r>    8.1082   -0.0000 </r>
       <r>    8.1531   -0.0000 </r>
       <r>    8.2457   -0.0000 </r>
       <r>    8.2577   -0.0000 </r>
       <r>    8.3356   -0.0000 </r>
       <r>    8.3888   -0.0000 </r>
       <r>    8.4527   -0.0000 </r>
       <r>    8.6914   -0.0000 </r>
       <r>    8.8035   -0.0000 </r>
       <r>    8.8656   -0.0000 </r>
       <r>    9.4566   -0.0000 </r>
       <r>    9.5479   -0.0000 </r>
       <r>    9.6078   -0.0000 </r>
       <r>    9.6283   -0.0000 </r>
       <r>    9.7277   -0.0000 </r>
      </set>
     </set>
    </set>
   </array>
  </eigenvalues>
  <separator name="orbital magnetization" >
   <v name="MAGDIPOLOUT">      0.00000000      0.00000000      0.00000000</v>
  </separator>
  <dos>
   <i name="efermi">      7.58490069 </i>
   <total>
    <array>
     <dimension dim="1">gridpoints</dimension>
     <dimension dim="2">spin</dimension>
     <field>energy</field>
     <field>total</field>
     <field>integrated</field>
     <set>
      <set comment="spin 1">
       <r>   -49.4875     0.0000     0.0000 </r>
       <r>   -49.2806     0.0000     0.0000 </r>
       <r>   -49.0737     0.0000     0.0000 </r>
       <r>   -48.8668     0.0000     0.0000 </r>
       <r>   -48.6599     0.0000     0.0000 </r>
       <r>   -48.4531     0.0000     0.0000 </r>
       <r>   -48.2462     0.0000     0.0000 </r>
       <r>   -48.0393    -0.0000    -0.0000 </r>
       <r>   -47.8324    -0.0000    -0.0000 </r>
       <r>   -47.6255    -0.0000    -0.0000 </r>
       <r>   -47.4186    -0.0000    -0.0000 </r>
       <r>   -47.2118    -0.0000    -0.0000 </r>
       <r>   -47.0049    -0.0353    -0.0073 </r>
       <r>   -46.7980    -1.1552    -0.2463 </r>
       <r>   -46.5911    22.8381     4.4785 </r>
       <r>   -46.3842    65.9043    18.1129 </r>
       <r>   -46.1774     9.8732    20.1554 </r>
       <r>   -45.9705    -0.7411    20.0021 </r>
       <r>   -45.7636    -0.0102    20.0000 </r>
       <r>   -45.5567    -0.0000    20.0000 </r>
       <r>   -45.3498    -0.0000    20.0000 </r>
       <r>   -45.1430     0.0000    20.0000 </r>
       <r>   -44.9361     0.0000    20.0000 </r>
       <r>   -44.7292     0.0000    20.0000 </r>
       <r>   -44.5223     0.0000    20.0000 </r>
       <r>   -44.3154     0.0000    20.0000 </r>
       <r>   -44.1085     0.0000    20.0000 </r>
       <r>   -43.9017     0.0000    20.0000 </r>
       <r>   -43.6948     0.0000    20.0000 </r>
       <r>   -43.4879     0.0000    20.0000 </r>
       <r>   -43.2810     0.0000    20.0000 </r>
       <r>   -43.0741     0.0000    20.0000 </r>
       <r>   -42.8673     0.0000    20.0000 </r>
       <r>   -42.6604     0.0000    20.0000 </r>
       <r>   -42.4535     0.0000    20.0000 </r>
       <r>   -42.2466     0.0000    20.0000 </r>
       <r>   -42.0397     0.0000    20.0000 </r>
       <r>   -41.8328    -0.0000    20.0000 </r>
       <r>   -41.6260    -0.0000    20.0000 </r>
       <r>   -41.4191    -0.0000    20.0000 </r>
       <r>   -41.2122    -0.0000    20.0000 </r>
       <r>   -41.0053    -0.0147    19.9970 </r>
       <r>   -40.7984    -0.7814    19.8353 </r>
       <r>   -40.5916    13.2653    22.5797 </r>
       <r>   -40.3847    35.6044    29.9456 </r>
       <r>   -40.1778    10.6227    32.1432 </r>
       <r>   -39.9709    -0.6820    32.0021 </r>
       <r>   -39.7640    -0.0102    32.0000 </r>
       <r>   -39.5571    -0.0000    32.0000 </r>
       <r>   -39.3503    -0.0000    32.0000 </r>
       <r>   -39.1434     0.0000    32.0000 </r>
       <r>   -38.9365     0.0000    32.0000 </r>
       <r>   -38.7296     0.0000    32.0000 </r>
       <r>   -38.5227     0.0000    32.0000 </r>
       <r>   -38.3159     0.0000    32.0000 </r>
       <r>   -38.1090     0.0000    32.0000 </r>
       <r>   -37.9021     0.0000    32.0000 </r>
       <r>   -37.6952     0.0000    32.0000 </r>
       <r>   -37.4883     0.0000    32.0000 </r>
       <r>   -37.2815     0.0000    32.0000 </r>
       <r>   -37.0746     0.0000    32.0000 </r>
       <r>   -36.8677     0.0000    32.0000 </r>
       <r>   -36.6608     0.0000    32.0000 </r>
       <r>   -36.4539     0.0000    32.0000 </r>
       <r>   -36.2470     0.0000    32.0000 </r>
       <r>   -36.0402     0.0000    32.0000 </r>
       <r>   -35.8333     0.0000    32.0000 </r>
       <r>   -35.6264     0.0000    32.0000 </r>
       <r>   -35.4195     0.0000    32.0000 </r>
       <r>   -35.2126     0.0000    32.0000 </r>
       <r>   -35.0058     0.0000    32.0000 </r>
       <r>   -34.7989     0.0000    32.0000 </r>
       <r>   -34.5920     0.0000    32.0000 </r>
       <r>   -34.3851     0.0000    32.0000 </r>
       <r>   -34.1782     0.0000    32.0000 </r>
       <r>   -33.9713     0.0000    32.0000 </r>
       <r>   -33.7645     0.0000    32.0000 </r>
       <r>   -33.5576     0.0000    32.0000 </r>
       <r>   -33.3507     0.0000    32.0000 </r>
       <r>   -33.1438     0.0000    32.0000 </r>
       <r>   -32.9369     0.0000    32.0000 </r>
       <r>   -32.7301     0.0000    32.0000 </r>
       <r>   -32.5232     0.0000    32.0000 </r>
       <r>   -32.3163     0.0000    32.0000 </r>
       <r>   -32.1094     0.0000    32.0000 </r>
       <r>   -31.9025     0.0000    32.0000 </r>
       <r>   -31.6957     0.0000    32.0000 </r>
       <r>   -31.4888     0.0000    32.0000 </r>
       <r>   -31.2819     0.0000    32.0000 </r>
       <r>   -31.0750     0.0000    32.0000 </r>
       <r>   -30.8681     0.0000    32.0000 </r>
       <r>   -30.6612     0.0000    32.0000 </r>
       <r>   -30.4544     0.0000    32.0000 </r>
       <r>   -30.2475     0.0000    32.0000 </r>
       <r>   -30.0406     0.0000    32.0000 </r>
       <r>   -29.8337     0.0000    32.0000 </r>
       <r>   -29.6268     0.0000    32.0000 </r>
       <r>   -29.4200     0.0000    32.0000 </r>
       <r>   -29.2131     0.0000    32.0000 </r>
       <r>   -29.0062     0.0000    32.0000 </r>
       <r>   -28.7993     0.0000    32.0000 </r>
       <r>   -28.5924     0.0000    32.0000 </r>
       <r>   -28.3855     0.0000    32.0000 </r>
       <r>   -28.1787     0.0000    32.0000 </r>
       <r>   -27.9718     0.0000    32.0000 </r>
       <r>   -27.7649     0.0000    32.0000 </r>
       <r>   -27.5580     0.0000    32.0000 </r>
       <r>   -27.3511     0.0000    32.0000 </r>
       <r>   -27.1443     0.0000    32.0000 </r>
       <r>   -26.9374     0.0000    32.0000 </r>
       <r>   -26.7305     0.0000    32.0000 </r>
       <r>   -26.5236     0.0000    32.0000 </r>
       <r>   -26.3167     0.0000    32.0000 </r>
       <r>   -26.1099     0.0000    32.0000 </r>
       <r>   -25.9030     0.0000    32.0000 </r>
       <r>   -25.6961     0.0000    32.0000 </r>
       <r>   -25.4892     0.0000    32.0000 </r>
       <r>   -25.2823     0.0000    32.0000 </r>
       <r>   -25.0754     0.0000    32.0000 </r>
       <r>   -24.8686     0.0000    32.0000 </r>
       <r>   -24.6617     0.0000    32.0000 </r>
       <r>   -24.4548    -0.0000    32.0000 </r>
       <r>   -24.2479    -0.0000    32.0000 </r>
       <r>   -24.0410    -0.0000    32.0000 </r>
       <r>   -23.8342    -0.0000    32.0000 </r>
       <r>   -23.6273    -0.0001    32.0000 </r>
       <r>   -23.4204    -0.0842    31.9825 </r>
       <r>   -23.2135    -0.3942    31.9010 </r>
       <r>   -23.0066    25.2028    37.1150 </r>
       <r>   -22.7997    36.1011    44.5836 </r>
       <r>   -22.5929   107.0116    66.7224 </r>
       <r>   -22.3860    93.2986    86.0241 </r>
       <r>   -22.1791    30.0494    92.2408 </r>
       <r>   -21.9722    -1.0878    92.0157 </r>
       <r>   -21.7653    -0.0760    92.0000 </r>
       <r>   -21.5585    -0.0001    92.0000 </r>
       <r>   -21.3516    -0.0000    92.0000 </r>
       <r>   -21.1447     0.0000    92.0000 </r>
       <r>   -20.9378     0.0000    92.0000 </r>
       <r>   -20.7309     0.0000    92.0000 </r>
       <r>   -20.5240     0.0000    92.0000 </r>
       <r>   -20.3172    -0.0000    92.0000 </r>
       <r>   -20.1103    -0.0000    92.0000 </r>
       <r>   -19.9034    -0.0000    92.0000 </r>
       <r>   -19.6965    -0.0000    92.0000 </r>
       <r>   -19.4896    -0.0000    92.0000 </r>
       <r>   -19.2828    -0.0245    91.9949 </r>
       <r>   -19.0759    -0.7898    91.8315 </r>
       <r>   -18.8690    14.2514    94.7799 </r>
       <r>   -18.6621    63.2615   107.8675 </r>
       <r>   -18.4552    59.5401   120.1853 </r>
       <r>   -18.2484    34.5619   127.3355 </r>
       <r>   -18.0415     3.5716   128.0744 </r>
       <r>   -17.8346    -0.3578   128.0003 </r>
       <r>   -17.6277    -0.0016   128.0000 </r>
       <r>   -17.4208    -0.0000   128.0000 </r>
       <r>   -17.2139    -0.0000   128.0000 </r>
       <r>   -17.0071     0.0000   128.0000 </r>
       <r>   -16.8002     0.0000   128.0000 </r>
       <r>   -16.5933     0.0000   128.0000 </r>
       <r>   -16.3864     0.0000   128.0000 </r>
       <r>   -16.1795     0.0000   128.0000 </r>
       <r>   -15.9727     0.0000   128.0000 </r>
       <r>   -15.7658     0.0000   128.0000 </r>
       <r>   -15.5589     0.0000   128.0000 </r>
       <r>   -15.3520     0.0000   128.0000 </r>
       <r>   -15.1451     0.0000   128.0000 </r>
       <r>   -14.9382     0.0000   128.0000 </r>
       <r>   -14.7314     0.0000   128.0000 </r>
       <r>   -14.5245     0.0000   128.0000 </r>
       <r>   -14.3176     0.0000   128.0000 </r>
       <r>   -14.1107     0.0000   128.0000 </r>
       <r>   -13.9038     0.0000   128.0000 </r>
       <r>   -13.6970     0.0000   128.0000 </r>
       <r>   -13.4901     0.0000   128.0000 </r>
       <r>   -13.2832     0.0000   128.0000 </r>
       <r>   -13.0763     0.0000   128.0000 </r>
       <r>   -12.8694     0.0000   128.0000 </r>
       <r>   -12.6626     0.0000   128.0000 </r>
       <r>   -12.4557     0.0000   128.0000 </r>
       <r>   -12.2488     0.0000   128.0000 </r>
       <r>   -12.0419     0.0000   128.0000 </r>
       <r>   -11.8350     0.0000   128.0000 </r>
       <r>   -11.6281     0.0000   128.0000 </r>
       <r>   -11.4213     0.0000   128.0000 </r>
       <r>   -11.2144     0.0000   128.0000 </r>
       <r>   -11.0075     0.0000   128.0000 </r>
       <r>   -10.8006     0.0000   128.0000 </r>
       <r>   -10.5937     0.0000   128.0000 </r>
       <r>   -10.3869     0.0000   128.0000 </r>
       <r>   -10.1800     0.0000   128.0000 </r>
       <r>    -9.9731     0.0000   128.0000 </r>
       <r>    -9.7662     0.0000   128.0000 </r>
       <r>    -9.5593     0.0000   128.0000 </r>
       <r>    -9.3524     0.0000   128.0000 </r>
       <r>    -9.1456     0.0000   128.0000 </r>
       <r>    -8.9387     0.0000   128.0000 </r>
       <r>    -8.7318     0.0000   128.0000 </r>
       <r>    -8.5249     0.0000   128.0000 </r>
       <r>    -8.3180     0.0000   128.0000 </r>
       <r>    -8.1112     0.0000   128.0000 </r>
       <r>    -7.9043     0.0000   128.0000 </r>
       <r>    -7.6974     0.0000   128.0000 </r>
       <r>    -7.4905     0.0000   128.0000 </r>
       <r>    -7.2836     0.0000   128.0000 </r>
       <r>    -7.0768     0.0000   128.0000 </r>
       <r>    -6.8699     0.0000   128.0000 </r>
       <r>    -6.6630     0.0000   128.0000 </r>
       <r>    -6.4561     0.0000   128.0000 </r>
       <r>    -6.2492     0.0000   128.0000 </r>
       <r>    -6.0423     0.0000   128.0000 </r>
       <r>    -5.8355     0.0000   128.0000 </r>
       <r>    -5.6286     0.0000   128.0000 </r>
       <r>    -5.4217     0.0000   128.0000 </r>
       <r>    -5.2148     0.0000   128.0000 </r>
       <r>    -5.0079     0.0000   128.0000 </r>
       <r>    -4.8011     0.0000   128.0000 </r>
       <r>    -4.5942     0.0000   128.0000 </r>
       <r>    -4.3873     0.0000   128.0000 </r>
       <r>    -4.1804     0.0000   128.0000 </r>
       <r>    -3.9735     0.0000   128.0000 </r>
       <r>    -3.7666     0.0000   128.0000 </r>
       <r>    -3.5598     0.0000   128.0000 </r>
       <r>    -3.3529     0.0000   128.0000 </r>
       <r>    -3.1460     0.0000   128.0000 </r>
       <r>    -2.9391     0.0000   128.0000 </r>
       <r>    -2.7322     0.0000   128.0000 </r>
       <r>    -2.5254     0.0000   128.0000 </r>
       <r>    -2.3185     0.0000   128.0000 </r>
       <r>    -2.1116     0.0000   128.0000 </r>
       <r>    -1.9047     0.0000   128.0000 </r>
       <r>    -1.6978     0.0000   128.0000 </r>
       <r>    -1.4909     0.0000   128.0000 </r>
       <r>    -1.2841     0.0000   128.0000 </r>
       <r>    -1.0772     0.0000   128.0000 </r>
       <r>    -0.8703     0.0000   128.0000 </r>
       <r>    -0.6634    -0.0000   128.0000 </r>
       <r>    -0.4565    -0.0000   128.0000 </r>
       <r>    -0.2497    -0.0000   128.0000 </r>
       <r>    -0.0428    -0.0000   128.0000 </r>
       <r>     0.1641    -0.0000   128.0000 </r>
       <r>     0.3710    -0.0006   127.9999 </r>
       <r>     0.5779    -0.0116   127.9975 </r>
       <r>     0.7847     0.2327   128.0456 </r>
       <r>     0.9916     1.0503   128.2629 </r>
       <r>     1.1985     1.5497   128.5835 </r>
       <r>     1.4054     1.7399   128.9435 </r>
       <r>     1.6123     3.1274   129.5905 </r>
       <r>     1.8192     4.0813   130.4349 </r>
       <r>     2.0260     2.0407   130.8570 </r>
       <r>     2.2329     4.4014   131.7676 </r>
       <r>     2.4398     3.7747   132.5485 </r>
       <r>     2.6467     3.2567   133.2223 </r>
       <r>     2.8536     6.1636   134.4974 </r>
       <r>     3.0604     7.7268   136.0959 </r>
       <r>     3.2673     8.4668   137.8475 </r>
       <r>     3.4742     8.3643   139.5780 </r>
       <r>     3.6811    10.2309   141.6945 </r>
       <r>     3.8880    16.0309   145.0111 </r>
       <r>     4.0949    22.7835   149.7245 </r>
       <r>     4.3017    23.6827   154.6240 </r>
       <r>     4.5086    25.1233   159.8216 </r>
       <r>     4.7155    32.6533   166.5769 </r>
       <r>     4.9224    37.4365   174.3219 </r>
       <r>     5.1293    37.6840   182.1180 </r>
       <r>     5.3361    38.5973   190.1030 </r>
       <r>     5.5430    33.4084   197.0146 </r>
       <r>     5.7499    34.2073   204.0915 </r>
       <r>     5.9568    20.3963   208.3111 </r>
       <r>     6.1637    24.5177   213.3833 </r>
       <r>     6.3705    60.3587   225.8705 </r>
       <r>     6.5774    60.8760   238.4646 </r>
       <r>     6.7843    52.7177   249.3709 </r>
       <r>     6.9912    51.8228   260.0921 </r>
       <r>     7.1981    57.9695   272.0849 </r>
       <r>     7.4050    56.9946   283.8760 </r>
       <r>     7.6118    49.9640   294.2126 </r>
       <r>     7.8187    45.2460   303.5732 </r>
       <r>     8.0256    48.9077   313.6913 </r>
       <r>     8.2325    39.9953   321.9656 </r>
       <r>     8.4394    31.9880   328.5833 </r>
       <r>     8.6462    20.6684   332.8592 </r>
       <r>     8.8531    20.0020   336.9973 </r>
       <r>     9.0600    12.7827   339.6418 </r>
       <r>     9.2669    15.2214   342.7908 </r>
       <r>     9.4738    21.9754   347.3371 </r>
       <r>     9.6807    18.0215   351.0654 </r>
       <r>     9.8875     4.8027   352.0590 </r>
       <r>    10.0944    -0.2783   352.0014 </r>
       <r>    10.3013    -0.0069   352.0000 </r>
       <r>    10.5082    -0.0000   352.0000 </r>
       <r>    10.7151    -0.0000   352.0000 </r>
       <r>    10.9219     0.0000   352.0000 </r>
       <r>    11.1288     0.0000   352.0000 </r>
       <r>    11.3357     0.0000   352.0000 </r>
       <r>    11.5426     0.0000   352.0000 </r>
       <r>    11.7495     0.0000   352.0000 </r>
       <r>    11.9564     0.0000   352.0000 </r>
       <r>    12.1632     0.0000   352.0000 </r>
       <r>    12.3701     0.0000   352.0000 </r>
       <r>    12.5770     0.0000   352.0000 </r>
      </set>
     </set>
    </array>
   </total>
  </dos>
 </calculation>
 <structure name="finalpos" >
  <crystal>
   <varray name="basis" >
    <v>       6.83335882       0.00983181      -0.00001377 </v>
    <v>       0.01485289      10.18574131      -0.02528300 </v>
    <v>       0.00011191      -0.02499445      10.21367110 </v>
   </varray>
   <i name="volume">    710.89455461 </i>
   <varray name="rec_basis" >
    <v>       0.14634122      -0.00021340      -0.00000213 </v>
    <v>      -0.00014126       0.09817726       0.00024026 </v>
    <v>      -0.00000015       0.00024303       0.09790858 </v>
   </varray>
  </crystal>
  <varray name="positions" >
   <v>       0.48021280       0.34013133       0.00276030 </v>
   <v>       0.24159517       0.16618371       0.17830551 </v>
   <v>       0.00395642       0.33087694       0.65775307 </v>
   <v>       0.24591010       0.83557468       0.50379428 </v>
   <v>       0.75358278       0.15893972       0.84170542 </v>
   <v>       0.75992046       0.50818614       0.83614936 </v>
   <v>       0.49665738       0.66266071       0.32683103 </v>
   <v>       0.77109341       0.49140596       0.16641002 </v>
   <v>       0.75203490       0.83165448       0.50330314 </v>
   <v>       0.50644557       0.00257740       0.33012867 </v>
   <v>       0.98894347       0.00488851       0.33291375 </v>
   <v>       0.25133613       0.16286804       0.48868505 </v>
   <v>       0.99846311       0.01371031       0.65720790 </v>
   <v>       0.00148743       0.66551765       0.33200233 </v>
   <v>       0.00749822       0.65969325       0.66585367 </v>
   <v>       0.74602263       0.16236261       0.48981568 </v>
   <v>       0.50065307       0.00734921       0.65387754 </v>
   <v>       0.49042427       0.65817832       0.66293710 </v>
   <v>       0.99442135       0.33223755       0.34699743 </v>
   <v>       0.22873836       0.49556402       0.18057310 </v>
   <v>       0.24302538       0.50739632       0.49572742 </v>
   <v>       0.24388269       0.52221569       0.82233976 </v>
   <v>       0.01488107       0.67763138       0.00479981 </v>
   <v>       0.22889114       0.84019596       0.18121477 </v>
   <v>       0.50135889       0.33758396       0.33907682 </v>
   <v>       0.75391283       0.50695510       0.49586782 </v>
   <v>       0.76897286       0.83500082       0.17922846 </v>
   <v>       0.99766885       0.98235398       0.01020380 </v>
   <v>       0.75403158       0.16885101       0.17000660 </v>
   <v>       0.24351556       0.83176127       0.82113615 </v>
   <v>       0.25335217       0.14040428       0.82962433 </v>
   <v>       0.03483122       0.33676645       0.98764433 </v>
   <v>       0.50242996       0.98580836       0.01572046 </v>
   <v>       0.49714867       0.33464903       0.65935650 </v>
   <v>       0.48962053       0.66952492       0.00860186 </v>
   <v>       0.75307959       0.83234496       0.82145078 </v>
  </varray>
 </structure>
</modeling>
