       N       E                     dE             d eps       ncg     rms          rms(c)
DAV:   1     0.232161747038E+04    0.23216E+04   -0.12682E+05  6088   0.107E+03
DAV:   2    -0.316540136670E+02   -0.23533E+04   -0.22672E+04  6248   0.409E+02
DAV:   3    -0.330549547578E+03   -0.29890E+03   -0.28383E+03  9456   0.101E+02
DAV:   4    -0.366163912100E+03   -0.35614E+02   -0.34136E+02  9504   0.322E+01
DAV:   5    -0.369690762429E+03   -0.35269E+01   -0.34791E+01  8784   0.989E+00    0.620E+01
RMM:   6    -0.359755616776E+03    0.99351E+01   -0.27815E+01  7856   0.103E+01    0.288E+01
RMM:   7    -0.364218856304E+03   -0.44632E+01   -0.29437E+01  8254   0.771E+00    0.152E+01
RMM:   8    -0.355044724296E+03    0.91741E+01   -0.87246E+00  7973   0.415E+00    0.456E+00
RMM:   9    -0.354833184979E+03    0.21154E+00   -0.24123E+00  8297   0.191E+00    0.325E+00
RMM:  10    -0.354771600253E+03    0.61585E-01   -0.54652E-01  8304   0.104E+00    0.188E+00
RMM:  11    -0.354727843102E+03    0.43757E-01   -0.17798E-01  8102   0.648E-01    0.963E-01
RMM:  12    -0.354725239950E+03    0.26032E-02   -0.73963E-02  8272   0.418E-01    0.481E-01
RMM:  13    -0.354720961489E+03    0.42785E-02   -0.20330E-02  8285   0.214E-01    0.271E-01
RMM:  14    -0.354720976756E+03   -0.15267E-04   -0.95345E-03  8535   0.112E-01    0.171E-01
RMM:  15    -0.354720949813E+03    0.26944E-04   -0.39561E-03  8199   0.764E-02    0.896E-02
RMM:  16    -0.354720952136E+03   -0.23237E-05   -0.15035E-03  7970   0.415E-02    0.459E-02
RMM:  17    -0.354720967622E+03   -0.15485E-04   -0.68531E-04  6808   0.289E-02    0.210E-02
RMM:  18    -0.354720981840E+03   -0.14218E-04   -0.28006E-04  6022   0.188E-02    0.112E-02
RMM:  19    -0.354720987102E+03   -0.52622E-05   -0.12136E-04  5358   0.140E-02    0.649E-03
RMM:  20    -0.354720988763E+03   -0.16613E-05   -0.50677E-05  4807   0.115E-02
   1 F= -.35472099E+03 E0= -.35472575E+03  d E =-.354721E+03
       N       E                     dE             d eps       ncg     rms          rms(c)
DAV:   1    -0.354819484685E+03   -0.98498E-01   -0.35533E+00  7008   0.602E+00    0.224E+00
RMM:   2    -0.354792386073E+03    0.27099E-01   -0.39432E-01  8035   0.157E+00    0.835E-01
RMM:   3    -0.354773772931E+03    0.18613E-01   -0.82398E-02  8362   0.489E-01    0.581E-01
RMM:   4    -0.354764777516E+03    0.89954E-02   -0.23713E-02  8410   0.305E-01    0.337E-01
RMM:   5    -0.354762924558E+03    0.18530E-02   -0.73140E-03  8306   0.165E-01    0.242E-01
RMM:   6    -0.354763202433E+03   -0.27787E-03   -0.30968E-03  8886   0.864E-02    0.171E-01
RMM:   7    -0.354763314786E+03   -0.11235E-03   -0.12431E-03  8811   0.620E-02    0.868E-02
RMM:   8    -0.354763418954E+03   -0.10417E-03   -0.73634E-04  7935   0.380E-02    0.589E-02
RMM:   9    -0.354763504421E+03   -0.85467E-04   -0.26653E-04  7093   0.272E-02    0.449E-02
RMM:  10    -0.354763593637E+03   -0.89216E-04   -0.17422E-04  6491   0.209E-02    0.241E-02
RMM:  11    -0.354763639340E+03   -0.45703E-04   -0.11409E-04  5495   0.175E-02    0.932E-03
RMM:  12    -0.354763644173E+03   -0.48331E-05   -0.36860E-05  4714   0.133E-02
   2 F= -.35476364E+03 E0= -.35476846E+03  d E =-.426554E-01
       N       E                     dE             d eps       ncg     rms          rms(c)
DAV:   1    -0.355138083305E+03   -0.37444E+00   -0.21483E+01  6584   0.149E+01    0.561E+00
RMM:   2    -0.354966757153E+03    0.17133E+00   -0.23440E+00  7998   0.388E+00    0.202E+00
RMM:   3    -0.354860383173E+03    0.10637E+00   -0.48216E-01  8359   0.119E+00    0.143E+00
RMM:   4    -0.354804997020E+03    0.55386E-01   -0.13889E-01  8410   0.739E-01    0.833E-01
RMM:   5    -0.354794177718E+03    0.10819E-01   -0.42873E-02  8282   0.406E-01    0.607E-01
RMM:   6    -0.354795725887E+03   -0.15482E-02   -0.18846E-02  8847   0.214E-01    0.420E-01
RMM:   7    -0.354796110792E+03   -0.38491E-03   -0.75226E-03  9369   0.155E-01    0.214E-01
RMM:   8    -0.354796660920E+03   -0.55013E-03   -0.44806E-03  9580   0.915E-02    0.150E-01
RMM:   9    -0.354797095569E+03   -0.43465E-03   -0.14661E-03  8999   0.632E-02    0.113E-01
RMM:  10    -0.354797548443E+03   -0.45287E-03   -0.99748E-04  8786   0.461E-02    0.595E-02
RMM:  11    -0.354797738117E+03   -0.18967E-03   -0.61852E-04  7805   0.363E-02    0.208E-02
RMM:  12    -0.354797758841E+03   -0.20724E-04   -0.23181E-04  6849   0.221E-02    0.146E-02
RMM:  13    -0.354797767339E+03   -0.84981E-05   -0.69020E-05  5468   0.155E-02
   3 F= -.35479777E+03 E0= -.35480270E+03  d E =-.767786E-01
       N       E                     dE             d eps       ncg     rms          rms(c)
DAV:   1    -0.354820951552E+03   -0.23193E-01   -0.23801E+00  5904   0.412E+00    0.457E-01
RMM:   2    -0.354828963010E+03   -0.80115E-02   -0.89097E-02  7523   0.781E-01    0.289E-01
RMM:   3    -0.354825974283E+03    0.29887E-02   -0.10538E-02  8189   0.226E-01    0.194E-01
RMM:   4    -0.354825653127E+03    0.32116E-03   -0.20015E-03  8944   0.699E-02    0.125E-01
RMM:   5    -0.354825596955E+03    0.56172E-04   -0.85576E-04  8510   0.481E-02    0.726E-02
RMM:   6    -0.354825565934E+03    0.31021E-04   -0.36406E-04  8419   0.336E-02    0.331E-02
RMM:   7    -0.354825558915E+03    0.70189E-05   -0.13788E-04  6671   0.172E-02    0.222E-02
RMM:   8    -0.354825555958E+03    0.29576E-05   -0.46965E-05  4796   0.133E-02
   4 F= -.35482556E+03 E0= -.35483057E+03  d E =-.277886E-01
       N       E                     dE             d eps       ncg     rms          rms(c)
DAV:   1    -0.354837806572E+03   -0.12248E-01   -0.21422E+01  5640   0.124E+01    0.139E+00
RMM:   2    -0.354908074134E+03   -0.70268E-01   -0.80529E-01  7316   0.239E+00    0.833E-01
RMM:   3    -0.354885641280E+03    0.22433E-01   -0.99626E-02  8286   0.706E-01    0.606E-01
RMM:   4    -0.354882299697E+03    0.33416E-02   -0.17868E-02  9050   0.211E-01    0.387E-01
RMM:   5    -0.354881826241E+03    0.47346E-03   -0.77243E-03  8765   0.150E-01    0.230E-01
RMM:   6    -0.354881534250E+03    0.29199E-03   -0.34048E-03  8773   0.107E-01    0.101E-01
RMM:   7    -0.354881529847E+03    0.44032E-05   -0.13723E-03  9402   0.517E-02    0.711E-02
RMM:   8    -0.354881526707E+03    0.31398E-05   -0.45984E-04  8033   0.295E-02    0.457E-02
RMM:   9    -0.354881532042E+03   -0.53346E-05   -0.23689E-04  7524   0.230E-02    0.258E-02
RMM:  10    -0.354881528352E+03    0.36905E-05   -0.97140E-05  6491   0.163E-02
   5 F= -.35488153E+03 E0= -.35488676E+03  d E =-.837610E-01
       N       E                     dE             d eps       ncg     rms          rms(c)
DAV:   1    -0.354673433174E+03    0.20810E+00   -0.85889E+01  5784   0.248E+01    0.281E+00
RMM:   2    -0.354949321716E+03   -0.27589E+00   -0.33160E+00  7181   0.484E+00    0.156E+00
RMM:   3    -0.354887297234E+03    0.62024E-01   -0.42885E-01  8339   0.148E+00    0.127E+00
RMM:   4    -0.354871070897E+03    0.16226E-01   -0.71721E-02  9188   0.434E-01    0.805E-01
RMM:   5    -0.354869087181E+03    0.19837E-02   -0.32442E-02  8773   0.305E-01    0.483E-01
RMM:   6    -0.354867764874E+03    0.13223E-02   -0.14451E-02  8824   0.222E-01    0.211E-01
RMM:   7    -0.354867783391E+03   -0.18517E-04   -0.57263E-03  9981   0.106E-01    0.151E-01
RMM:   8    -0.354867781866E+03    0.15251E-05   -0.20642E-03  9641   0.608E-02    0.943E-02
RMM:   9    -0.354867823159E+03   -0.41293E-04   -0.97476E-04  8918   0.438E-02    0.544E-02
RMM:  10    -0.354867819214E+03    0.39454E-05   -0.40617E-04  8088   0.294E-02    0.255E-02
RMM:  11    -0.354867820151E+03   -0.93731E-06   -0.16933E-04  7174   0.210E-02    0.160E-02
RMM:  12    -0.354867824740E+03   -0.45888E-05   -0.96318E-05  6336   0.155E-02
   6 F= -.35486782E+03 E0= -.35487320E+03  d E =-.700574E-01
       N       E                     dE             d eps       ncg     rms          rms(c)
DAV:   1    -0.354842231267E+03    0.25589E-01   -0.29513E+01  5656   0.145E+01    0.167E+00
RMM:   2    -0.354939273642E+03   -0.97042E-01   -0.11114E+00  7326   0.280E+00    0.987E-01
RMM:   3    -0.354900564756E+03    0.38709E-01   -0.12486E-01  8199   0.803E-01    0.675E-01
RMM:   4    -0.354897068947E+03    0.34958E-02   -0.26365E-02  8870   0.250E-01    0.428E-01
RMM:   5    -0.354896442171E+03    0.62678E-03   -0.10160E-02  9011   0.171E-01    0.254E-01
RMM:   6    -0.354896380736E+03    0.61435E-04   -0.44938E-03  9036   0.114E-01    0.123E-01
RMM:   7    -0.354896348581E+03    0.32155E-04   -0.16604E-03  9483   0.610E-02    0.787E-02
RMM:   8    -0.354896399546E+03   -0.50965E-04   -0.63026E-04  8455   0.338E-02    0.481E-02
RMM:   9    -0.354896418050E+03   -0.18504E-04   -0.27529E-04  7721   0.259E-02    0.242E-02
RMM:  10    -0.354896430033E+03   -0.11983E-04   -0.10926E-04  6570   0.168E-02    0.136E-02
RMM:  11    -0.354896434973E+03   -0.49405E-05   -0.53168E-05  5346   0.133E-02
   7 F= -.35489643E+03 E0= -.35490179E+03  d E =-.986676E-01
       N       E                     dE             d eps       ncg     rms          rms(c)
DAV:   1    -0.354987518736E+03   -0.91089E-01   -0.28161E+00  7552   0.569E+00    0.240E+00
RMM:   2    -0.354951555525E+03    0.35963E-01   -0.46458E-01  8196   0.159E+00    0.946E-01
RMM:   3    -0.354926060357E+03    0.25495E-01   -0.93696E-02  8419   0.474E-01    0.623E-01
RMM:   4    -0.354916545017E+03    0.95153E-02   -0.29522E-02  8410   0.329E-01    0.360E-01
RMM:   5    -0.354913698756E+03    0.28463E-02   -0.85382E-03  8334   0.188E-01    0.252E-01
RMM:   6    -0.354913939062E+03   -0.24031E-03   -0.35176E-03  8846   0.883E-02    0.180E-01
RMM:   7    -0.354913948403E+03   -0.93408E-05   -0.13594E-03  8748   0.653E-02    0.941E-02
RMM:   8    -0.354913983882E+03   -0.35479E-04   -0.85767E-04  8019   0.394E-02    0.627E-02
RMM:   9    -0.354914024769E+03   -0.40887E-04   -0.27031E-04  7058   0.289E-02    0.475E-02
RMM:  10    -0.354914072279E+03   -0.47510E-04   -0.21058E-04  6933   0.224E-02    0.243E-02
RMM:  11    -0.354914073696E+03   -0.14166E-05   -0.13815E-04  5601   0.187E-02    0.126E-02
RMM:  12    -0.354914072459E+03    0.12368E-05   -0.45319E-05  4718   0.135E-02
   8 F= -.35491407E+03 E0= -.35491954E+03  d E =-.176375E-01
       N       E                     dE             d eps       ncg     rms          rms(c)
DAV:   1    -0.354931106170E+03   -0.17032E-01   -0.59056E-01  7560   0.260E+00    0.110E+00
RMM:   2    -0.354923580423E+03    0.75257E-02   -0.96091E-02  8191   0.726E-01    0.431E-01
RMM:   3    -0.354918237259E+03    0.53432E-02   -0.19256E-02  8421   0.216E-01    0.281E-01
RMM:   4    -0.354916268063E+03    0.19692E-02   -0.60788E-03  8400   0.149E-01    0.163E-01
RMM:   5    -0.354915682032E+03    0.58603E-03   -0.17577E-03  8279   0.851E-02    0.114E-01
RMM:   6    -0.354915723885E+03   -0.41853E-04   -0.71938E-04  8351   0.405E-02    0.828E-02
RMM:   7    -0.354915716608E+03    0.72767E-05   -0.28213E-04  7205   0.297E-02    0.442E-02
RMM:   8    -0.354915717025E+03   -0.41660E-06   -0.17726E-04  7083   0.201E-02    0.289E-02
RMM:   9    -0.354915722205E+03   -0.51805E-05   -0.73810E-05  4997   0.162E-02
   9 F= -.35491572E+03 E0= -.35492124E+03  d E =-.192872E-01
       N       E                     dE             d eps       ncg     rms          rms(c)
DAV:   1    -0.354920458493E+03   -0.47415E-02   -0.51361E-01  5728   0.208E+00    0.266E-01
RMM:   2    -0.354921603156E+03   -0.11447E-02   -0.23262E-02  8042   0.419E-01    0.129E-01
RMM:   3    -0.354921445783E+03    0.15737E-03   -0.25947E-03  8119   0.114E-01    0.959E-02
RMM:   4    -0.354921271154E+03    0.17463E-03   -0.65768E-04  8504   0.416E-02    0.573E-02
RMM:   5    -0.354921250246E+03    0.20908E-04   -0.28939E-04  7970   0.291E-02    0.349E-02
RMM:   6    -0.354921246322E+03    0.39244E-05   -0.10481E-04  6889   0.177E-02    0.199E-02
RMM:   7    -0.354921247541E+03   -0.12193E-05   -0.37176E-05  4287   0.119E-02
  10 F= -.35492125E+03 E0= -.35492686E+03  d E =-.552534E-02
       N       E                     dE             d eps       ncg     rms          rms(c)
DAV:   1    -0.354923727385E+03   -0.24811E-02   -0.46184E+00  5600   0.623E+00    0.796E-01
RMM:   2    -0.354933873247E+03   -0.10146E-01   -0.20789E-01  8004   0.125E+00    0.374E-01
RMM:   3    -0.354932274589E+03    0.15987E-02   -0.22517E-02  8091   0.335E-01    0.274E-01
RMM:   4    -0.354930791233E+03    0.14834E-02   -0.57814E-03  8679   0.123E-01    0.161E-01
RMM:   5    -0.354930661327E+03    0.12991E-03   -0.26061E-03  8638   0.861E-02    0.100E-01
RMM:   6    -0.354930655829E+03    0.54980E-05   -0.99552E-04  9080   0.519E-02    0.592E-02
RMM:   7    -0.354930674166E+03   -0.18336E-04   -0.38980E-04  7635   0.284E-02    0.400E-02
RMM:   8    -0.354930692120E+03   -0.17954E-04   -0.18362E-04  6709   0.209E-02    0.235E-02
RMM:   9    -0.354930707511E+03   -0.15391E-04   -0.83137E-05  5920   0.160E-02    0.143E-02
RMM:  10    -0.354930717925E+03   -0.10414E-04   -0.37702E-05  5091   0.132E-02    0.761E-03
RMM:  11    -0.354930721623E+03   -0.36979E-05   -0.18255E-05  4006   0.110E-02
  11 F= -.35493072E+03 E0= -.35493659E+03  d E =-.149994E-01
       N       E                     dE             d eps       ncg     rms          rms(c)
DAV:   1    -0.354930485674E+03    0.23225E-03   -0.62536E-01  5760   0.229E+00    0.293E-01
RMM:   2    -0.354931882265E+03   -0.13966E-02   -0.28204E-02  8010   0.460E-01    0.137E-01
RMM:   3    -0.354931680626E+03    0.20164E-03   -0.31072E-03  8099   0.123E-01    0.100E-01
RMM:   4    -0.354931486991E+03    0.19363E-03   -0.80427E-04  8635   0.452E-02    0.586E-02
RMM:   5    -0.354931473954E+03    0.13037E-04   -0.36340E-04  8296   0.318E-02    0.365E-02
RMM:   6    -0.354931476356E+03   -0.24019E-05   -0.13276E-04  6839   0.195E-02    0.218E-02
RMM:   7    -0.354931481231E+03   -0.48752E-05   -0.51562E-05  5046   0.135E-02
  12 F= -.35493148E+03 E0= -.35493743E+03  d E =-.157590E-01
       N       E                     dE             d eps       ncg     rms          rms(c)
DAV:   1    -0.354933285100E+03   -0.18087E-02   -0.72944E-01  5664   0.243E+00    0.233E-01
RMM:   2    -0.354935695642E+03   -0.24105E-02   -0.28286E-02  7489   0.467E-01    0.130E-01
RMM:   3    -0.354935218455E+03    0.47719E-03   -0.29309E-03  8130   0.134E-01    0.964E-02
RMM:   4    -0.354935125721E+03    0.92734E-04   -0.62280E-04  8766   0.397E-02    0.613E-02
RMM:   5    -0.354935111855E+03    0.13866E-04   -0.25420E-04  7888   0.284E-02    0.352E-02
RMM:   6    -0.354935102939E+03    0.89158E-05   -0.10587E-04  7031   0.186E-02    0.179E-02
RMM:   7    -0.354935098736E+03    0.42028E-05   -0.34399E-05  4116   0.117E-02
  13 F= -.35493510E+03 E0= -.35494108E+03  d E =-.361751E-02
       N       E                     dE             d eps       ncg     rms          rms(c)
DAV:   1    -0.354925557347E+03    0.95456E-02   -0.65659E+00  5600   0.730E+00    0.688E-01
RMM:   2    -0.354947269129E+03   -0.21712E-01   -0.25471E-01  7268   0.140E+00    0.376E-01
RMM:   3    -0.354943150333E+03    0.41188E-02   -0.26244E-02  8105   0.411E-01    0.289E-01
RMM:   4    -0.354942350842E+03    0.79949E-03   -0.54510E-03  9167   0.117E-01    0.185E-01
RMM:   5    -0.354942242468E+03    0.10837E-03   -0.21836E-03  8677   0.837E-02    0.108E-01
RMM:   6    -0.354942182948E+03    0.59521E-04   -0.99168E-04  8776   0.577E-02    0.542E-02
RMM:   7    -0.354942165372E+03    0.17575E-04   -0.39439E-04  8391   0.285E-02    0.369E-02
RMM:   8    -0.354942165278E+03    0.94638E-07   -0.12418E-04  6369   0.180E-02    0.241E-02
RMM:   9    -0.354942165457E+03   -0.17927E-06   -0.81506E-05  5964   0.154E-02
  14 F= -.35494217E+03 E0= -.35494827E+03  d E =-.106842E-01
       N       E                     dE             d eps       ncg     rms          rms(c)
DAV:   1    -0.354870408801E+03    0.71756E-01   -0.26265E+01  5600   0.146E+01    0.138E+00
RMM:   2    -0.354958275382E+03   -0.87867E-01   -0.10298E+00  7214   0.283E+00    0.740E-01
RMM:   3    -0.354943405940E+03    0.14869E-01   -0.10847E-01  8258   0.843E-01    0.590E-01
RMM:   4    -0.354940087469E+03    0.33185E-02   -0.21696E-02  9188   0.234E-01    0.381E-01
RMM:   5    -0.354939603032E+03    0.48444E-03   -0.87109E-03  8715   0.170E-01    0.226E-01
RMM:   6    -0.354939312197E+03    0.29084E-03   -0.40656E-03  8775   0.120E-01    0.109E-01
RMM:   7    -0.354939259035E+03    0.53162E-04   -0.16198E-03  9784   0.577E-02    0.757E-02
RMM:   8    -0.354939279223E+03   -0.20188E-04   -0.57441E-04  8493   0.332E-02    0.499E-02
RMM:   9    -0.354939287817E+03   -0.85936E-05   -0.27942E-04  7869   0.256E-02    0.288E-02
RMM:  10    -0.354939290184E+03   -0.23673E-05   -0.12078E-04  6530   0.179E-02    0.162E-02
RMM:  11    -0.354939288350E+03    0.18338E-05   -0.64098E-05  5478   0.144E-02
  15 F= -.35493929E+03 E0= -.35494571E+03  d E =-.780712E-02
       N       E                     dE             d eps       ncg     rms          rms(c)
DAV:   1    -0.354918495127E+03    0.20795E-01   -0.10673E+01  5672   0.932E+00    0.881E-01
RMM:   2    -0.354952661095E+03   -0.34166E-01   -0.41007E-01  7237   0.177E+00    0.478E-01
RMM:   3    -0.354945136582E+03    0.75245E-02   -0.40535E-02  8125   0.512E-01    0.354E-01
RMM:   4    -0.354943873393E+03    0.12632E-02   -0.89075E-03  9037   0.151E-01    0.218E-01
RMM:   5    -0.354943732240E+03    0.14115E-03   -0.34563E-03  8940   0.107E-01    0.129E-01
RMM:   6    -0.354943723561E+03    0.86787E-05   -0.15198E-03  9025   0.679E-02    0.694E-02
RMM:   7    -0.354943711300E+03    0.12261E-04   -0.56408E-04  8956   0.365E-02    0.456E-02
RMM:   8    -0.354943734520E+03   -0.23220E-04   -0.20230E-04  7134   0.207E-02    0.295E-02
RMM:   9    -0.354943750595E+03   -0.16075E-04   -0.11124E-04  6976   0.177E-02    0.148E-02
RMM:  10    -0.354943757481E+03   -0.68856E-05   -0.37611E-05  4977   0.125E-02
  16 F= -.35494376E+03 E0= -.35494996E+03  d E =-.122763E-01
       N       E                     dE             d eps       ncg     rms          rms(c)
DAV:   1    -0.354966092011E+03   -0.22341E-01   -0.23960E+00  6248   0.482E+00    0.150E+00
RMM:   2    -0.354956493358E+03    0.95987E-02   -0.19854E-01  7522   0.115E+00    0.537E-01
RMM:   3    -0.354949308975E+03    0.71844E-02   -0.37084E-02  8283   0.372E-01    0.397E-01
RMM:   4    -0.354945123543E+03    0.41854E-02   -0.10859E-02  8400   0.197E-01    0.225E-01
RMM:   5    -0.354944429762E+03    0.69378E-03   -0.33927E-03  8255   0.115E-01    0.165E-01
RMM:   6    -0.354944598898E+03   -0.16914E-03   -0.14902E-03  8641   0.606E-02    0.111E-01
RMM:   7    -0.354944642699E+03   -0.43801E-04   -0.56197E-04  8105   0.438E-02    0.590E-02
RMM:   8    -0.354944706525E+03   -0.63825E-04   -0.32410E-04  7185   0.263E-02    0.401E-02
RMM:   9    -0.354944749911E+03   -0.43386E-04   -0.14045E-04  6209   0.214E-02    0.301E-02
RMM:  10    -0.354944790454E+03   -0.40543E-04   -0.66693E-05  4960   0.144E-02    0.155E-02
RMM:  11    -0.354944814946E+03   -0.24492E-04   -0.52813E-05  4654   0.141E-02    0.639E-03
RMM:  12    -0.354944817422E+03   -0.24759E-05   -0.19388E-05  3987   0.123E-02
  17 F= -.35494482E+03 E0= -.35495109E+03  d E =-.105994E-02
       N       E                     dE             d eps       ncg     rms          rms(c)
DAV:   1    -0.354948238133E+03   -0.34232E-02   -0.32210E-01  6368   0.177E+00    0.548E-01
RMM:   2    -0.354947015520E+03    0.12226E-02   -0.26773E-02  7751   0.424E-01    0.200E-01
RMM:   3    -0.354946041155E+03    0.97437E-03   -0.51159E-03  8312   0.136E-01    0.149E-01
RMM:   4    -0.354945456353E+03    0.58480E-03   -0.15009E-03  8351   0.733E-02    0.842E-02
RMM:   5    -0.354945339741E+03    0.11661E-03   -0.46681E-04  8113   0.440E-02    0.607E-02
RMM:   6    -0.354945338245E+03    0.14954E-05   -0.20800E-04  7263   0.233E-02    0.402E-02
RMM:   7    -0.354945321212E+03    0.17033E-04   -0.69520E-05  5896   0.167E-02    0.214E-02
RMM:   8    -0.354945317576E+03    0.36364E-05   -0.46106E-05  4270   0.127E-02
  18 F= -.35494532E+03 E0= -.35495157E+03  d E =-.156010E-02
       N       E                     dE             d eps       ncg     rms          rms(c)
DAV:   1    -0.354944724297E+03    0.59692E-03   -0.11084E+00  5600   0.295E+00    0.235E-01
RMM:   2    -0.354947425901E+03   -0.27016E-02   -0.35774E-02  7210   0.556E-01    0.125E-01
RMM:   3    -0.354947266382E+03    0.15952E-03   -0.38802E-03  8093   0.159E-01    0.929E-02
RMM:   4    -0.354947192241E+03    0.74141E-04   -0.83407E-04  9338   0.435E-02    0.604E-02
RMM:   5    -0.354947189837E+03    0.24035E-05   -0.34923E-04  8421   0.313E-02    0.363E-02
RMM:   6    -0.354947170760E+03    0.19077E-04   -0.13258E-04  7278   0.200E-02    0.170E-02
RMM:   7    -0.354947168404E+03    0.23559E-05   -0.40625E-05  4594   0.124E-02
  19 F= -.35494717E+03 E0= -.35495348E+03  d E =-.185083E-02
       N       E                     dE             d eps       ncg     rms          rms(c)
DAV:   1    -0.354945426957E+03    0.17438E-02   -0.10536E+00  5600   0.287E+00    0.231E-01
RMM:   2    -0.354948032461E+03   -0.26055E-02   -0.34465E-02  7384   0.544E-01    0.127E-01
RMM:   3    -0.354947898522E+03    0.13394E-03   -0.39072E-03  8095   0.155E-01    0.929E-02
RMM:   4    -0.354947835609E+03    0.62913E-04   -0.87538E-04  9365   0.439E-02    0.608E-02
RMM:   5    -0.354947835685E+03   -0.75881E-07   -0.36632E-04  8445   0.318E-02    0.353E-02
RMM:   6    -0.354947818227E+03    0.17459E-04   -0.13809E-04  7083   0.198E-02    0.167E-02
RMM:   7    -0.354947816417E+03    0.18093E-05   -0.42907E-05  4648   0.129E-02
  20 F= -.35494782E+03 E0= -.35495417E+03  d E =-.249884E-02
       N       E                     dE             d eps       ncg     rms          rms(c)
DAV:   1    -0.354949050039E+03   -0.12318E-02   -0.17960E-01  6048   0.126E+00    0.304E-01
RMM:   2    -0.354948976120E+03    0.73918E-04   -0.11583E-02  7318   0.284E-01    0.118E-01
RMM:   3    -0.354948660812E+03    0.31531E-03   -0.17399E-03  8097   0.912E-02    0.827E-02
RMM:   4    -0.354948489152E+03    0.17166E-03   -0.51239E-04  8330   0.400E-02    0.488E-02
RMM:   5    -0.354948448298E+03    0.40854E-04   -0.17610E-04  7500   0.247E-02    0.340E-02
RMM:   6    -0.354948443701E+03    0.45968E-05   -0.71324E-05  5818   0.141E-02
  21 F= -.35494844E+03 E0= -.35495484E+03  d E =-.627283E-03
       N       E                     dE             d eps       ncg     rms          rms(c)
DAV:   1    -0.354949091008E+03   -0.64271E-03   -0.15466E-01  6032   0.117E+00    0.278E-01
RMM:   2    -0.354949007242E+03    0.83766E-04   -0.98905E-03  7396   0.263E-01    0.107E-01
RMM:   3    -0.354948737919E+03    0.26932E-03   -0.14796E-03  8110   0.842E-02    0.757E-02
RMM:   4    -0.354948600907E+03    0.13701E-03   -0.44779E-04  8305   0.371E-02    0.464E-02
RMM:   5    -0.354948567637E+03    0.33270E-04   -0.15819E-04  7353   0.231E-02    0.333E-02
RMM:   6    -0.354948564409E+03    0.32281E-05   -0.65436E-05  5609   0.135E-02
  22 F= -.35494856E+03 E0= -.35495499E+03  d E =-.747992E-03
       N       E                     dE             d eps       ncg     rms          rms(c)
DAV:   1    -0.354948963512E+03   -0.39587E-03   -0.43040E-02  6112   0.604E-01    0.139E-01
RMM:   2    -0.354948972236E+03   -0.87244E-05   -0.25480E-03  7698   0.133E-01    0.607E-02
RMM:   3    -0.354948901865E+03    0.70372E-04   -0.45377E-04  8119   0.429E-02    0.450E-02
RMM:   4    -0.354948858150E+03    0.43715E-04   -0.13354E-04  7309   0.208E-02    0.239E-02
RMM:   5    -0.354948851599E+03    0.65505E-05   -0.45243E-05  5238   0.133E-02
  23 F= -.35494885E+03 E0= -.35495529E+03  d E =-.287190E-03
       N       E                     dE             d eps       ncg     rms          rms(c)
DAV:   1    -0.354950006044E+03   -0.11479E-02   -0.38525E-01  5856   0.181E+00    0.389E-01
RMM:   2    -0.354950145039E+03   -0.13900E-03   -0.21873E-02  7347   0.392E-01    0.163E-01
RMM:   3    -0.354949481733E+03    0.66331E-03   -0.33219E-03  8134   0.126E-01    0.120E-01
RMM:   4    -0.354949165350E+03    0.31638E-03   -0.99555E-04  8361   0.567E-02    0.663E-02
RMM:   5    -0.354949130494E+03    0.34856E-04   -0.35263E-04  8285   0.350E-02    0.484E-02
RMM:   6    -0.354949148428E+03   -0.17934E-04   -0.13860E-04  6766   0.192E-02    0.283E-02
RMM:   7    -0.354949158380E+03   -0.99519E-05   -0.59113E-05  5108   0.142E-02
  24 F= -.35494916E+03 E0= -.35495563E+03  d E =-.593970E-03
       N       E                     dE             d eps       ncg     rms          rms(c)
DAV:   1    -0.354949291160E+03   -0.14273E-03   -0.91244E-03  5968   0.278E-01    0.583E-02
RMM:   2    -0.354949293763E+03   -0.26031E-05   -0.57282E-04  7454   0.607E-02    0.233E-02
RMM:   3    -0.354949279956E+03    0.13807E-04   -0.62583E-05  5534   0.187E-02    0.165E-02
RMM:   4    -0.354949277854E+03    0.21021E-05   -0.22299E-05  3565   0.115E-02
  25 F= -.35494928E+03 E0= -.35495575E+03  d E =-.119474E-03
       N       E                     dE             d eps       ncg     rms          rms(c)
DAV:   1    -0.354949598735E+03   -0.31878E-03   -0.81851E-02  5776   0.832E-01    0.182E-01
RMM:   2    -0.354949631526E+03   -0.32791E-04   -0.52479E-03  7891   0.184E-01    0.765E-02
RMM:   3    -0.354949488006E+03    0.14352E-03   -0.69241E-04  8082   0.546E-02    0.544E-02
RMM:   4    -0.354949427600E+03    0.60405E-04   -0.23088E-04  7729   0.255E-02    0.323E-02
RMM:   5    -0.354949415756E+03    0.11844E-04   -0.80249E-05  6866   0.163E-02    0.224E-02
RMM:   6    -0.354949421963E+03   -0.62072E-05   -0.27838E-05  3929   0.101E-02
  26 F= -.35494942E+03 E0= -.35495587E+03  d E =-.263583E-03
       N       E                     dE             d eps       ncg     rms          rms(c)
DAV:   1    -0.354949612561E+03   -0.19681E-03   -0.93533E-03  6384   0.297E-01    0.957E-02
RMM:   2    -0.354949587982E+03    0.24580E-04   -0.81047E-04  8031   0.728E-02    0.354E-02
RMM:   3    -0.354949571997E+03    0.15984E-04   -0.17747E-04  7147   0.237E-02    0.287E-02
RMM:   4    -0.354949552009E+03    0.19988E-04   -0.51604E-05  6249   0.160E-02    0.152E-02
RMM:   5    -0.354949548279E+03    0.37303E-05   -0.15855E-05  3260   0.103E-02
  27 F= -.35494955E+03 E0= -.35495599E+03  d E =-.126316E-03
       N       E                     dE             d eps       ncg     rms          rms(c)
DAV:   1    -0.354950280987E+03   -0.72898E-03   -0.82783E-02  5928   0.890E-01    0.264E-01
RMM:   2    -0.354949972184E+03    0.30880E-03   -0.65595E-03  7810   0.219E-01    0.925E-02
RMM:   3    -0.354949814715E+03    0.15747E-03   -0.11901E-03  8190   0.680E-02    0.737E-02
RMM:   4    -0.354949669532E+03    0.14518E-03   -0.33557E-04  8325   0.354E-02    0.420E-02
RMM:   5    -0.354949646091E+03    0.23440E-04   -0.12277E-04  7252   0.205E-02    0.315E-02
RMM:   6    -0.354949639471E+03    0.66207E-05   -0.49999E-05  4798   0.124E-02
  28 F= -.35494964E+03 E0= -.35495607E+03  d E =-.217507E-03
       N       E                     dE             d eps       ncg     rms          rms(c)
DAV:   1    -0.354949651374E+03   -0.52827E-05   -0.12663E-03  6600   0.108E-01    0.389E-02
RMM:   2    -0.354949644534E+03    0.68395E-05   -0.12661E-04  7388   0.275E-02    0.172E-02
RMM:   3    -0.354949640128E+03    0.44060E-05   -0.27495E-05  3903   0.964E-03
  29 F= -.35494964E+03 E0= -.35495607E+03  d E =-.218165E-03
       N       E                     dE             d eps       ncg     rms          rms(c)
DAV:   1    -0.354949761018E+03   -0.11648E-03   -0.16036E-02  6032   0.390E-01    0.120E-01
RMM:   2    -0.354949676504E+03    0.84513E-04   -0.13524E-03  7822   0.981E-02    0.438E-02
RMM:   3    -0.354949641273E+03    0.35231E-04   -0.24721E-04  7390   0.308E-02    0.349E-02
RMM:   4    -0.354949611962E+03    0.29311E-04   -0.66146E-05  6248   0.174E-02    0.206E-02
RMM:   5    -0.354949607300E+03    0.46621E-05   -0.18664E-05  3160   0.122E-02
  30 F= -.35494961E+03 E0= -.35495605E+03  d E =-.185337E-03
       N       E                     dE             d eps       ncg     rms          rms(c)
DAV:   1    -0.354949665532E+03   -0.53570E-04   -0.44419E-03  6264   0.203E-01    0.664E-02
RMM:   2    -0.354949656651E+03    0.88818E-05   -0.36455E-04  7427   0.503E-02    0.240E-02
RMM:   3    -0.354949648972E+03    0.76784E-05   -0.67654E-05  6085   0.169E-02
  31 F= -.35494965E+03 E0= -.35495608E+03  d E =-.227009E-03
       N       E                     dE             d eps       ncg     rms          rms(c)
DAV:   1    -0.354949660945E+03   -0.42944E-05   -0.13977E-03  5808   0.114E-01    0.371E-02
RMM:   2    -0.354949652936E+03    0.80093E-05   -0.15767E-04  7834   0.306E-02    0.158E-02
RMM:   3    -0.354949643936E+03    0.89996E-05   -0.19409E-05  3310   0.989E-03
  32 F= -.35494964E+03 E0= -.35495608E+03  d E =-.221973E-03
       N       E                     dE             d eps       ncg     rms          rms(c)
DAV:   1    -0.354949642652E+03    0.10283E-04   -0.65450E-05  5960   0.250E-02    0.101E-02
RMM:   2    -0.354949641614E+03    0.10383E-05   -0.12197E-05  3058   0.913E-03
  33 F= -.35494964E+03 E0= -.35495608E+03  d E =-.219651E-03
       N       E                     dE             d eps       ncg     rms          rms(c)
DAV:   1    -0.354949639385E+03    0.32676E-05   -0.12148E-05  3216   0.133E-02    0.643E-03
RMM:   2    -0.354949638416E+03    0.96856E-06   -0.42114E-06  2837   0.674E-03
  34 F= -.35494964E+03 E0= -.35495607E+03  d E =-.216453E-03
       N       E                     dE             d eps       ncg     rms          rms(c)
DAV:   1    -0.354949663414E+03   -0.24029E-04   -0.27265E-03  5792   0.145E-01    0.103E-02
RMM:   2    -0.354949670248E+03   -0.68342E-05   -0.87213E-05  5475   0.267E-02
  35 F= -.35494967E+03 E0= -.35495610E+03  d E =-.318319E-04
       N       E                     dE             d eps       ncg     rms          rms(c)
DAV:   1    -0.354949698835E+03   -0.35421E-04   -0.10445E-02  5728   0.284E-01    0.213E-02
RMM:   2    -0.354949728641E+03   -0.29806E-04   -0.35485E-04  6887   0.538E-02    0.129E-02
RMM:   3    -0.354949725071E+03    0.35699E-05   -0.40645E-05  4490   0.164E-02
  36 F= -.35494973E+03 E0= -.35495615E+03  d E =-.866547E-04
       N       E                     dE             d eps       ncg     rms          rms(c)
DAV:   1    -0.354949708602E+03    0.20039E-04   -0.41438E-02  5616   0.562E-01    0.404E-02
RMM:   2    -0.354949819126E+03   -0.11052E-03   -0.13475E-03  7282   0.104E-01    0.239E-02
RMM:   3    -0.354949815449E+03    0.36771E-05   -0.18082E-04  6834   0.308E-02    0.190E-02
RMM:   4    -0.354949813310E+03    0.21389E-05   -0.41915E-05  4498   0.105E-02
  37 F= -.35494981E+03 E0= -.35495624E+03  d E =-.174894E-03
       N       E                     dE             d eps       ncg     rms          rms(c)
DAV:   1    -0.354949477806E+03    0.33764E-03   -0.16519E-01  5632   0.112E+00    0.772E-02
RMM:   2    -0.354949911626E+03   -0.43382E-03   -0.51529E-03  7183   0.207E-01    0.433E-02
RMM:   3    -0.354949907501E+03    0.41244E-05   -0.67676E-04  7805   0.607E-02    0.361E-02
RMM:   4    -0.354949897648E+03    0.98535E-05   -0.14256E-04  6838   0.171E-02    0.229E-02
RMM:   5    -0.354949896028E+03    0.16196E-05   -0.51063E-05  5129   0.117E-02
  38 F= -.35494990E+03 E0= -.35495631E+03  d E =-.257612E-03
       N       E                     dE             d eps       ncg     rms          rms(c)
DAV:   1    -0.354950162121E+03   -0.26447E-03   -0.30600E-02  6224   0.524E-01    0.153E-01
RMM:   2    -0.354950054080E+03    0.10804E-03   -0.21487E-03  7685   0.119E-01    0.553E-02
RMM:   3    -0.354949996706E+03    0.57375E-04   -0.41996E-04  8204   0.389E-02    0.423E-02
RMM:   4    -0.354949950518E+03    0.46187E-04   -0.12846E-04  7074   0.214E-02    0.227E-02
RMM:   5    -0.354949945452E+03    0.50659E-05   -0.34320E-05  4153   0.137E-02
  39 F= -.35494995E+03 E0= -.35495637E+03  d E =-.494241E-04
       N       E                     dE             d eps       ncg     rms          rms(c)
DAV:   1    -0.354950023199E+03   -0.72680E-04   -0.12912E-02  6056   0.343E-01    0.920E-02
RMM:   2    -0.354949986052E+03    0.37146E-04   -0.89134E-04  7708   0.792E-02    0.344E-02
RMM:   3    -0.354949958612E+03    0.27440E-04   -0.14368E-04  6819   0.246E-02    0.270E-02
RMM:   4    -0.354949944380E+03    0.14233E-04   -0.46215E-05  4536   0.161E-02    0.172E-02
RMM:   5    -0.354949945152E+03   -0.77216E-06   -0.15216E-05  3255   0.118E-02
  40 F= -.35494995E+03 E0= -.35495638E+03  d E =-.491235E-04
